 -4.000000000000000E-002    0.000000000000000E+000
 -3.990000000000000E-002    0.000000000000000E+000
 -3.980000000000000E-002   -2.725074890283698E-012
 -3.970000000000000E-002   -1.489428966213867E-011
 -3.960000000000000E-002   -4.921580268531287E-011
 -3.950000000000000E-002   -1.263764602114848E-010
 -3.940000000000000E-002   -2.760963534944971E-010
 -3.930000000000000E-002   -5.363433543744183E-010
 -3.920000000000000E-002   -9.500619321870637E-010
 -3.910000000000000E-002   -1.559228327636217E-009
 -3.900000000000000E-002   -2.396620795535414E-009
 -3.890000000000000E-002   -3.476277878238954E-009
 -3.880000000000000E-002   -4.784092679744221E-009
 -3.870000000000000E-002   -6.270243908622470E-009
 -3.860000000000000E-002   -7.845129672362913E-009
 -3.850000000000000E-002   -9.380110739532087E-009
 -3.840000000000000E-002   -1.071373756372621E-008
 -3.830000000000000E-002   -1.166330151018140E-008
 -3.820000000000000E-002   -1.204066241753120E-008
 -3.810000000000000E-002   -1.167051177746715E-008
 -3.800000000000000E-002   -1.040866557208076E-008
 -3.790000000000000E-002   -8.157814569125680E-009
 -3.780000000000000E-002   -4.878363487142253E-009
 -3.770000000000000E-002   -5.926818776555369E-010
 -3.760000000000000E-002    4.617945415900761E-009
 -3.750000000000000E-002    1.062316261602469E-008
 -3.740000000000000E-002    1.725853532981908E-008
 -3.730000000000000E-002    2.434300292159709E-008
 -3.720000000000000E-002    3.169556404413970E-008
 -3.710000000000000E-002    3.914788413188105E-008
 -3.700000000000000E-002    4.655005246717235E-008
 -3.690000000000000E-002    5.376778253695498E-008
 -3.680000000000000E-002    6.067083944410375E-008
 -3.670000000000000E-002    6.711418309790916E-008
 -3.660000000000000E-002    7.291490325391596E-008
 -3.650000000000000E-002    7.782925997065264E-008
 -3.640000000000000E-002    8.153491970521263E-008
 -3.630000000000000E-002    8.362320548343554E-008
 -3.620000000000000E-002    8.360542264086017E-008
 -3.610000000000000E-002    8.093552728462546E-008
 -3.600000000000000E-002    7.504916538141051E-008
 -3.590000000000000E-002    6.541664115394411E-008
 -3.580000000000000E-002    5.160483806607405E-008
 -3.570000000000000E-002    3.334133339046626E-008
 -3.560000000000000E-002    1.057266798891554E-008
 -3.550000000000000E-002   -1.649126299992930E-008
 -3.540000000000000E-002   -4.735364249242571E-008
 -3.530000000000000E-002   -8.123273100243289E-008
 -3.520000000000000E-002   -1.170912905366549E-007
 -3.510000000000000E-002   -1.536916582048854E-007
 -3.500000000000000E-002   -1.896712361848741E-007
 -3.490000000000000E-002   -2.236304041512689E-007
 -3.480000000000000E-002   -2.542227578010656E-007
 -3.470000000000000E-002   -2.802367630695619E-007
 -3.460000000000000E-002   -3.006592904200347E-007
 -3.450000000000000E-002   -3.147131840790573E-007
 -3.440000000000000E-002   -3.218650674417120E-007
 -3.430000000000000E-002   -3.218033719112180E-007
 -3.420000000000000E-002   -3.143913957732830E-007
 -3.410000000000000E-002   -2.996038690383127E-007
 -3.400000000000000E-002   -2.774581728035647E-007
 -3.390000000000000E-002   -2.479531132064051E-007
 -3.380000000000000E-002   -2.110269227898124E-007
 -3.370000000000000E-002   -1.665442776994897E-007
 -3.360000000000000E-002   -1.143175365287006E-007
 -3.350000000000000E-002   -5.416264323164936E-008
 -3.340000000000000E-002    1.401566177393695E-008
 -3.330000000000000E-002    9.011964338857857E-008
 -3.320000000000000E-002    1.737501171689064E-007
 -3.310000000000000E-002    2.641097034595536E-007
 -3.300000000000000E-002    3.599348162990763E-007
 -3.290000000000000E-002    4.594699019056544E-007
 -3.280000000000000E-002    5.604931296978408E-007
 -3.270000000000000E-002    6.603967651709311E-007
 -3.260000000000000E-002    7.563176014943911E-007
 -3.250000000000000E-002    8.453064237245658E-007
 -3.240000000000000E-002    9.245198171978385E-007
 -3.230000000000000E-002    9.914130322105809E-007
 -3.220000000000000E-002    1.043912242909148E-006
 -3.210000000000000E-002    1.080546251113360E-006
 -3.200000000000000E-002    1.100521906984082E-006
 -3.190000000000000E-002    1.103734878056682E-006
 -3.180000000000000E-002    1.090715926979666E-006
 -3.170000000000000E-002    1.062521201318179E-006
 -3.160000000000000E-002    1.020583484311579E-006
 -3.150000000000000E-002    9.665458920949507E-007
 -3.140000000000000E-002    9.021043021892820E-007
 -3.130000000000000E-002    8.288824673771059E-007
 -3.120000000000000E-002    7.483603380339799E-007
 -3.110000000000000E-002    6.618686997325278E-007
 -3.100000000000000E-002    5.706540468207377E-007
 -3.090000000000000E-002    4.760065643965399E-007
 -3.080000000000000E-002    3.794347022036733E-007
 -3.070000000000000E-002    2.828612345745673E-007
 -3.060000000000000E-002    1.888114674234317E-007
 -3.050000000000000E-002    1.005620626251174E-007
 -3.040000000000000E-002    2.222428147555020E-008
 -3.030000000000000E-002   -4.125968179133477E-008
 -3.020000000000000E-002   -8.421573172714062E-008
 -3.010000000000000E-002   -1.004294362956326E-007
 -3.000000000000000E-002   -8.341451550491888E-008
 -2.990000000000000E-002   -2.673045808972576E-008
 -2.980000000000000E-002    7.568541750518556E-008
 -2.970000000000000E-002    2.292106335387466E-007
 -2.960000000000000E-002    4.382947454689015E-007
 -2.950000000000000E-002    7.063097016799685E-007
 -2.940000000000000E-002    1.035517409653516E-006
 -2.930000000000000E-002    1.427160432430485E-006
 -2.920000000000000E-002    1.881668598376178E-006
 -2.910000000000000E-002    2.398956906557566E-006
 -2.900000000000000E-002    2.978782560030748E-006
 -2.890000000000000E-002    3.621115782204740E-006
 -2.880000000000000E-002    4.326480759050504E-006
 -2.870000000000000E-002    5.096222916723118E-006
 -2.860000000000000E-002    5.932670831109487E-006
 -2.850000000000000E-002    6.839172998494341E-006
 -2.840000000000000E-002    7.820003707709722E-006
 -2.830000000000000E-002    8.880153658598154E-006
 -2.820000000000000E-002    1.002503561254582E-005
 -2.810000000000000E-002    1.126014075621519E-005
 -2.800000000000000E-002    1.259069784362911E-005
 -2.790000000000000E-002    1.402138024698353E-005
 -2.780000000000000E-002    1.555610019308112E-005
 -2.770000000000000E-002    1.719792698291874E-005
 -2.760000000000000E-002    1.894912918602303E-005
 -2.750000000000000E-002    2.081135556092143E-005
 -2.740000000000000E-002    2.278590767935281E-005
 -2.730000000000000E-002    2.487409756232223E-005
 -2.720000000000000E-002    2.707760909367316E-005
 -2.710000000000000E-002    2.939883478422974E-005
 -2.700000000000000E-002    3.184115291571611E-005
 -2.690000000000000E-002    3.440905882569027E-005
 -2.680000000000000E-002    3.710818361673193E-005
 -2.670000000000000E-002    3.994516156739607E-005
 -2.660000000000000E-002    4.292737159318366E-005
 -2.650000000000000E-002    4.606258396787216E-005
 -2.640000000000000E-002    4.935855252766613E-005
 -2.630000000000000E-002    5.282263439665111E-005
 -2.620000000000000E-002    5.646144273703426E-005
 -2.610000000000000E-002    6.028061485282508E-005
 -2.600000000000000E-002    6.428473111313613E-005
 -2.590000000000000E-002    6.847735633947601E-005
 -2.580000000000000E-002    7.286127064955533E-005
 -2.570000000000000E-002    7.743879562030437E-005
 -2.560000000000000E-002    8.221220711727033E-005
 -2.550000000000000E-002    8.718419572903046E-005
 -2.540000000000000E-002    9.235828660273360E-005
 -2.530000000000000E-002    9.773920053369662E-005
 -2.520000000000000E-002    1.033331090360363E-004
 -2.510000000000000E-002    1.091477244632421E-004
 -2.500000000000000E-002    1.151922992536645E-004
 -2.490000000000000E-002    1.214774521615175E-004
 -2.480000000000000E-002    1.280149970776100E-004
 -2.470000000000000E-002    1.348176385331201E-004
 -2.460000000000000E-002    1.418987493123798E-004
 -2.450000000000000E-002    1.492722372741357E-004
 -2.440000000000000E-002    1.569524614609315E-004
 -2.430000000000000E-002    1.649543406226453E-004
 -2.420000000000000E-002    1.732935616291550E-004
 -2.410000000000000E-002    1.819869563368304E-004
 -2.400000000000000E-002    1.910529075681796E-004
 -2.390000000000000E-002    2.005118051639715E-004
 -2.380000000000000E-002    2.103864477215593E-004
 -2.370000000000000E-002    2.207023908222822E-004
 -2.360000000000000E-002    2.314880476616165E-004
 -2.350000000000000E-002    2.427747502101860E-004
 -2.340000000000000E-002    2.545964202180292E-004
 -2.330000000000000E-002    2.669892698813395E-004
 -2.320000000000000E-002    2.799912258887989E-004
 -2.310000000000000E-002    2.936412794779304E-004
 -2.300000000000000E-002    3.079789765441222E-004
 -2.290000000000000E-002    3.230437694553458E-004
 -2.280000000000000E-002    3.388747152792787E-004
 -2.270000000000000E-002    3.555102420352967E-004
 -2.260000000000000E-002    3.729882547663226E-004
 -2.250000000000000E-002    3.913463405860386E-004
 -2.240000000000000E-002    4.106222226200415E-004
 -2.230000000000000E-002    4.308544007832711E-004
 -2.220000000000000E-002    4.520827184630313E-004
 -2.210000000000000E-002    4.743490750272459E-004
 -2.200000000000000E-002    4.976977102212261E-004
 -2.190000000000000E-002    5.221756960155989E-004
 -2.180000000000000E-002    5.478328712940152E-004
 -2.170000000000000E-002    5.747216317673548E-004
 -2.160000000000000E-002    6.028965870143037E-004
 -2.150000000000000E-002    6.324139357588895E-004
 -2.140000000000000E-002    6.633306923480114E-004
 -2.130000000000000E-002    6.957042339889118E-004
 -2.120000000000000E-002    7.295915779520478E-004
 -2.110000000000000E-002    7.650491405488821E-004
 -2.100000000000000E-002    8.021326131106090E-004
 -2.090000000000000E-002    8.408973192839401E-004
 -2.080000000000000E-002    8.813986884722634E-004
 -2.070000000000000E-002    9.236929495553013E-004
 -2.060000000000000E-002    9.678383524106918E-004
 -2.050000000000000E-002    1.013895986337387E-003
 -2.040000000000000E-002    1.061930674457112E-003
 -2.030000000000000E-002    1.112011882164810E-003
 -2.020000000000000E-002    1.164213900813212E-003
 -2.010000000000000E-002    1.218616148802233E-003
 -2.000000000000000E-002    1.275302749372142E-003
 -1.990000000000000E-002    1.334361706091987E-003
 -1.980000000000000E-002    1.395884070756921E-003
 -1.970000000000000E-002    1.459962668530564E-003
 -1.960000000000000E-002    1.526690714940564E-003
 -1.950000000000000E-002    1.596160858403233E-003
 -1.940000000000000E-002    1.668464123237847E-003
 -1.930000000000000E-002    1.743689261421721E-003
 -1.920000000000000E-002    1.821922716702501E-003
 -1.910000000000000E-002    1.903248909230644E-003
 -1.900000000000000E-002    1.987750851750169E-003
 -1.890000000000000E-002    2.075510814722216E-003
 -1.880000000000000E-002    2.166612063603165E-003
 -1.870000000000000E-002    2.261139831856923E-003
 -1.860000000000000E-002    2.359182197327718E-003
 -1.850000000000000E-002    2.460830866729582E-003
 -1.840000000000000E-002    2.566181724633950E-003
 -1.830000000000000E-002    2.675334950150040E-003
 -1.820000000000000E-002    2.788393968391142E-003
 -1.810000000000000E-002    2.905464797267999E-003
 -1.800000000000000E-002    3.026654702754245E-003
 -1.790000000000000E-002    3.152071036828239E-003
 -1.780000000000000E-002    3.281819229951110E-003
 -1.770000000000000E-002    3.416002248860665E-003
 -1.760000000000000E-002    3.554718882087493E-003
 -1.750000000000000E-002    3.698064061140927E-003
 -1.740000000000000E-002    3.846128161738797E-003
 -1.730000000000000E-002    3.998997777885100E-003
 -1.720000000000000E-002    4.156757109912834E-003
 -1.710000000000000E-002    4.319488035479094E-003
 -1.700000000000000E-002    4.487272604164204E-003
 -1.690000000000000E-002    4.660193486750107E-003
 -1.680000000000000E-002    4.838335306173564E-003
 -1.670000000000000E-002    5.021784777516125E-003
 -1.660000000000000E-002    5.210631343501132E-003
 -1.650000000000000E-002    5.404965852383879E-003
 -1.640000000000000E-002    5.604879488679677E-003
 -1.630000000000000E-002    5.810462499016683E-003
 -1.620000000000000E-002    6.021802133004117E-003
 -1.610000000000000E-002    6.238980336689096E-003
 -1.600000000000000E-002    6.462071174419155E-003
 -1.590000000000000E-002    6.691139036825445E-003
 -1.580000000000000E-002    6.926237175567317E-003
 -1.570000000000000E-002    7.167406360532010E-003
 -1.560000000000000E-002    7.414675169664304E-003
 -1.550000000000000E-002    7.668058723977525E-003
 -1.540000000000000E-002    7.927560288636795E-003
 -1.530000000000000E-002    8.193171293589476E-003
 -1.520000000000000E-002    8.464872366279946E-003
 -1.510000000000000E-002    8.742634086218603E-003
 -1.500000000000000E-002    9.026418441383638E-003
 -1.490000000000000E-002    9.316177469231553E-003
 -1.480000000000000E-002    9.611854226788999E-003
 -1.470000000000000E-002    9.913381480291474E-003
 -1.460000000000000E-002    1.022068027042832E-002
 -1.450000000000000E-002    1.053365751810866E-002
 -1.440000000000000E-002    1.085220530237057E-002
 -1.430000000000000E-002    1.117619629031739E-002
 -1.420000000000000E-002    1.150548319044158E-002
 -1.410000000000000E-002    1.183989718131919E-002
 -1.400000000000000E-002    1.217924447375685E-002
 -1.390000000000000E-002    1.252330534040462E-002
 -1.380000000000000E-002    1.287183528273338E-002
 -1.370000000000000E-002    1.322456374427415E-002
 -1.360000000000000E-002    1.358119303868313E-002
 -1.350000000000000E-002    1.394140108741941E-002
 -1.340000000000000E-002    1.430484015096647E-002
 -1.330000000000000E-002    1.467113852648389E-002
 -1.320000000000000E-002    1.503989933381324E-002
 -1.310000000000000E-002    1.541070034066548E-002
 -1.300000000000000E-002    1.578309447517129E-002
 -1.290000000000000E-002    1.615660542243379E-002
 -1.280000000000000E-002    1.653072838971887E-002
 -1.270000000000000E-002    1.690492537569543E-002
 -1.260000000000000E-002    1.727862424935397E-002
 -1.250000000000000E-002    1.765121587251400E-002
 -1.240000000000000E-002    1.802204781571700E-002
 -1.230000000000000E-002    1.839042526696803E-002
 -1.220000000000000E-002    1.875560921660849E-002
 -1.210000000000000E-002    1.911681107336905E-002
 -1.200000000000000E-002    1.947319595618341E-002
 -1.190000000000000E-002    1.982387646569560E-002
 -1.180000000000000E-002    2.016791732933941E-002
 -1.170000000000000E-002    2.050433243495255E-002
 -1.160000000000000E-002    2.083208327025700E-002
 -1.150000000000000E-002    2.115008258214502E-002
 -1.140000000000000E-002    2.145719189235933E-002
 -1.130000000000000E-002    2.175221988803851E-002
 -1.120000000000000E-002    2.203392251831186E-002
 -1.110000000000000E-002    2.230100157768571E-002
 -1.100000000000000E-002    2.255210168686237E-002
 -1.090000000000000E-002    2.278580869222749E-002
 -1.080000000000000E-002    2.300064792501719E-002
 -1.070000000000000E-002    2.319508052936818E-002
 -1.060000000000000E-002    2.336750151592144E-002
 -1.050000000000000E-002    2.351623724650919E-002
 -1.040000000000000E-002    2.363954414778183E-002
 -1.030000000000000E-002    2.373560711411430E-002
 -1.020000000000000E-002    2.380253851546599E-002
 -1.010000000000000E-002    2.383837756885204E-002
 -1.000000000000000E-002    2.384108854052162E-002
 -9.899999999999999E-003    2.380856314502926E-002
 -9.800000000000000E-003    2.373861807615603E-002
 -9.699999999999999E-003    2.362899629877209E-002
 -9.599999999999999E-003    2.347736832591677E-002
 -9.500000000000000E-003    2.328132748219806E-002
 -9.399999999999999E-003    2.303839507751894E-002
 -9.299999999999999E-003    2.274601445199450E-002
 -9.200000000000000E-003    2.240155152153332E-002
 -9.099999999999999E-003    2.200229531371191E-002
 -8.999999999999999E-003    2.154545225217395E-002
 -8.900000000000000E-003    2.102814811976121E-002
 -8.799999999999999E-003    2.044742606103299E-002
 -8.699999999999999E-003    1.980024419764232E-002
 -8.600000000000000E-003    1.908347311032220E-002
 -8.499999999999999E-003    1.829390062736101E-002
 -8.399999999999999E-003    1.742822515090970E-002
 -8.300000000000000E-003    1.648306270417233E-002
 -8.199999999999999E-003    1.545493779576696E-002
 -8.100000000000000E-003    1.434029563365291E-002
 -8.000000000000000E-003    1.313549842531186E-002
 -7.899999999999999E-003    1.183682267904013E-002
 -7.800000000000000E-003    1.044046719606681E-002
 -7.699999999999999E-003    8.942547636990473E-003
 -7.599999999999999E-003    7.339107691712064E-003
 -7.499999999999999E-003    5.626114093186392E-003
 -7.399999999999999E-003    3.799456592111617E-003
 -7.299999999999999E-003    1.854950995413162E-003
 -7.199999999999999E-003   -2.116553872660920E-004
 -7.100000000000000E-003   -2.404685310470903E-003
 -6.999999999999999E-003   -4.728531160559394E-003
 -6.899999999999999E-003   -7.187656116506174E-003
 -6.800000000000000E-003   -9.786582228047864E-003
 -6.699999999999999E-003   -1.252989591085536E-002
 -6.599999999999999E-003   -1.542224912706627E-002
 -6.499999999999999E-003   -1.846834292343645E-002
 -6.399999999999999E-003   -2.167293741691674E-002
 -6.299999999999999E-003   -2.504084037183877E-002
 -6.199999999999999E-003   -2.857690963847079E-002
 -6.100000000000000E-003   -3.228603410982897E-002
 -5.999999999999999E-003   -3.617315259125219E-002
 -5.899999999999999E-003   -4.024322246641014E-002
 -5.800000000000000E-003   -4.450123152527211E-002
 -5.699999999999999E-003   -4.895219221682132E-002
 -5.599999999999999E-003   -5.360113221940047E-002
 -5.499999999999999E-003   -5.845308226739235E-002
 -5.399999999999999E-003   -6.351308423554418E-002
 -5.299999999999999E-003   -6.878618366768653E-002
 -5.199999999999999E-003   -7.427742126032622E-002
 -5.099999999999999E-003   -7.999182529609661E-002
 -4.999999999999999E-003   -8.593440348087950E-002
 -4.899999999999999E-003   -9.211015215485202E-002
 -4.799999999999999E-003   -9.852401863435735E-002
 -4.699999999999999E-003   -0.105180943400138     
 -4.599999999999999E-003   -0.112085813629810     
 -4.499999999999999E-003   -0.119243462142632     
 -4.399999999999999E-003   -0.126658669090153     
 -4.299999999999999E-003   -0.134336151084064     
 -4.199999999999999E-003   -0.142280564809151     
 -4.099999999999999E-003   -0.150496456238646     
 -3.999999999999999E-003   -0.158988300937435     
 -3.899999999999999E-003   -0.167760456829933     
 -3.799999999999999E-003   -0.176817196993583     
 -3.699999999999999E-003   -0.186162645154729     
 -3.599999999999999E-003   -0.195800803835528     
 -3.499999999999999E-003   -0.205735520171498     
 -3.399999999999999E-003   -0.215970530353229     
 -3.299999999999999E-003   -0.226509399663624     
 -3.199999999999999E-003   -0.237355519660568     
 -3.099999999999999E-003   -0.248512085284310     
 -2.999999999999999E-003   -0.259982161404157     
 -2.899999999999999E-003   -0.271768539739551     
 -2.799999999999999E-003   -0.283873883939914     
 -2.699999999999999E-003   -0.296300593605975     
 -2.599999999999999E-003   -0.309050836777301     
 -2.499999999999999E-003   -0.322126588904085     
 -2.399999999999999E-003   -0.335529532551988     
 -2.299999999999999E-003   -0.349261124078040     
 -2.199999999999999E-003   -0.363322483577507     
 -2.099999999999999E-003   -0.377714513944523     
 -1.999999999999999E-003   -0.392437809524729     
 -1.899999999999999E-003   -0.407492652367290     
 -1.799999999999999E-003   -0.422879030664776     
 -1.699999999999999E-003   -0.438596533638927     
 -1.599999999999999E-003   -0.454644524493607     
 -1.499999999999999E-003   -0.471021902236625     
 -1.399999999999999E-003   -0.487727279655128     
 -1.299999999999999E-003   -0.504758890502162     
 -1.199999999999999E-003   -0.522114638924860     
 -1.099999999999999E-003   -0.539791963906370     
 -9.999999999999989E-004   -0.557787956040915     
 -8.999999999999990E-004   -0.576099261816665     
 -7.999999999999990E-004   -0.594722195549063     
 -6.999999999999989E-004   -0.613652642094628     
 -5.999999999999990E-004   -0.632886011416034     
 -4.999999999999989E-004   -0.652417296305332     
 -3.999999999999989E-004   -0.672241047466081     
 -2.999999999999989E-004   -0.692351360976123     
 -1.999999999999989E-004   -0.712741837717326     
 -9.999999999999892E-005   -0.733405659969549     
  1.084202172485504E-018   -0.754335531300084     
  1.000000000000011E-004   -0.775523658923602     
  2.000000000000011E-004   -0.796961737252489     
  3.000000000000011E-004   -0.818641007180794     
  4.000000000000011E-004   -0.840552234965794     
  5.000000000000011E-004   -0.862685644575734     
  6.000000000000011E-004   -0.885030988143533     
  7.000000000000011E-004   -0.907577511902122     
  8.000000000000011E-004   -0.930313910323178     
  9.000000000000012E-004   -0.953228378247472     
  1.000000000000001E-003   -0.976308632331450     
  1.100000000000001E-003   -0.999541888508698     
  1.200000000000001E-003    -1.02291480432227     
  1.300000000000001E-003    -1.04641361768411     
  1.400000000000001E-003    -1.07002392682718     
  1.500000000000001E-003    -1.09373094515033     
  1.600000000000001E-003    -1.11751930541191     
  1.700000000000001E-003    -1.14137319815843     
  1.800000000000001E-003    -1.16527629956433     
  1.900000000000001E-003    -1.18921173660846     
  2.000000000000001E-003    -1.21316229900914     
  2.100000000000001E-003    -1.23711019853220     
  2.200000000000001E-003    -1.26103710667114     
  2.300000000000001E-003    -1.28492436832223     
  2.400000000000001E-003    -1.30875276074221     
  2.500000000000001E-003    -1.33250268503206     
  2.600000000000001E-003    -1.35615411643204     
  2.700000000000001E-003    -1.37968656268124     
  2.800000000000001E-003    -1.40307918522725     
  2.900000000000001E-003    -1.42631071896489     
  3.000000000000001E-003    -1.44935957813287     
  3.100000000000001E-003    -1.47220375438393     
  3.200000000000001E-003    -1.49482085813682     
  3.300000000000001E-003    -1.51718823683462     
  3.400000000000001E-003    -1.53928301863689     
  3.500000000000001E-003    -1.56108187611285     
  3.600000000000001E-003    -1.58256127322495     
  3.700000000000001E-003    -1.60369742202064     
  3.800000000000001E-003    -1.62446634397736     
  3.900000000000001E-003    -1.64484363375736     
  4.000000000000001E-003    -1.66480490155483     
  4.100000000000001E-003    -1.68432552221085     
  4.200000000000001E-003    -1.70338078585754     
  4.300000000000001E-003    -1.72194574082171     
  4.400000000000001E-003    -1.73999541115785     
  4.500000000000001E-003    -1.75750467043726     
  4.600000000000002E-003    -1.77444843533896     
  4.700000000000001E-003    -1.79080161999160     
  4.800000000000001E-003    -1.80653904374020     
  4.900000000000002E-003    -1.82163576069005     
  5.000000000000001E-003    -1.83606670265810     
  5.100000000000001E-003    -1.84980688676244     
  5.200000000000001E-003    -1.86283151322030     
  5.300000000000002E-003    -1.87511603361905     
  5.400000000000001E-003    -1.88663602038812     
  5.500000000000001E-003    -1.89736710877337     
  5.600000000000002E-003    -1.90728544057900     
  5.700000000000001E-003    -1.91636726386704     
  5.800000000000001E-003    -1.92458914961134     
  5.900000000000002E-003    -1.93192809420675     
  6.000000000000001E-003    -1.93836131210820     
  6.100000000000001E-003    -1.94386651136849     
  6.200000000000002E-003    -1.94842190549301     
  6.300000000000002E-003    -1.95200599970477     
  6.400000000000001E-003    -1.95459789132577     
  6.500000000000001E-003    -1.95617723637726     
  6.600000000000002E-003    -1.95672422793975     
  6.700000000000001E-003    -1.95621956610620     
  6.800000000000001E-003    -1.95464481401842     
  6.900000000000002E-003    -1.95198199551148     
  7.000000000000001E-003    -1.94821382279032     
  7.100000000000001E-003    -1.94332383574059     
  7.200000000000002E-003    -1.93729630614545     
  7.300000000000002E-003    -1.93011620291140     
  7.400000000000001E-003    -1.92176936038743     
  7.500000000000001E-003    -1.91224247615762     
  7.600000000000002E-003    -1.90152309188361     
  7.700000000000001E-003    -1.88959954904893     
  7.800000000000001E-003    -1.87646114521691     
  7.900000000000001E-003    -1.86209824189907     
  8.000000000000002E-003    -1.84650189975059     
  8.100000000000001E-003    -1.82966451267807     
  8.200000000000001E-003    -1.81157905368731     
  8.300000000000002E-003    -1.79223994697248     
  8.400000000000001E-003    -1.77164241016954     
  8.500000000000002E-003    -1.74978286650174     
  8.600000000000002E-003    -1.72665874546425     
  8.700000000000001E-003    -1.70226865906945     
  8.800000000000002E-003    -1.67661231660609     
  8.900000000000002E-003    -1.64969063598391     
  9.000000000000001E-003    -1.62150556502949     
  9.100000000000002E-003    -1.59206033941355     
  9.200000000000002E-003    -1.56135934086259     
  9.300000000000001E-003    -1.52940809365125     
  9.400000000000002E-003    -1.49621344537668     
  9.500000000000001E-003    -1.46178335995090     
  9.600000000000001E-003    -1.42612692841831     
  9.700000000000002E-003    -1.38925460101680     
  9.800000000000001E-003    -1.35117793772371     
  9.900000000000001E-003    -1.31190971567175     
  1.000000000000000E-002    -1.27146403316443     
  1.010000000000000E-002    -1.22985612804595     
  1.020000000000000E-002    -1.18710242218559     
  1.030000000000000E-002    -1.14322067968964     
  1.040000000000000E-002    -1.09822974749010     
  1.050000000000000E-002    -1.05214977540247     
  1.060000000000000E-002    -1.00500197341979     
  1.070000000000000E-002   -0.956808867971869     
  1.080000000000000E-002   -0.907594116211108     
  1.090000000000000E-002   -0.857382461820102     
  1.100000000000000E-002   -0.806199877617431     
  1.110000000000000E-002   -0.754073364671807     
  1.120000000000000E-002   -0.701031048985743     
  1.130000000000000E-002   -0.647102155848317     
  1.140000000000000E-002   -0.592316938780776     
  1.150000000000000E-002   -0.536706651056825     
  1.160000000000000E-002   -0.480303562098905     
  1.170000000000000E-002   -0.423140887218564     
  1.180000000000000E-002   -0.365252825961184     
  1.190000000000000E-002   -0.306674484573240     
  1.200000000000000E-002   -0.247441852190648     
  1.210000000000000E-002   -0.187591734687091     
  1.220000000000000E-002   -0.127161825148121     
  1.230000000000000E-002   -6.619060379455725E-002
  1.240000000000000E-002   -4.717238918383888E-003
  1.250000000000000E-002    5.721833239969026E-002
  1.260000000000000E-002    0.119575473653360     
  1.270000000000000E-002    0.182312928231356     
  1.280000000000000E-002    0.245388833565864     
  1.290000000000000E-002    0.308760837186668     
  1.300000000000000E-002    0.372385978034380     
  1.310000000000000E-002    0.436220950387428     
  1.320000000000000E-002    0.500221940474052     
  1.330000000000000E-002    0.564344811265248     
  1.340000000000000E-002    0.628545160641298     
  1.350000000000000E-002    0.692778141330367     
  1.360000000000000E-002    0.756998813099842     
  1.370000000000000E-002    0.821161988429988     
  1.380000000000000E-002    0.885222330462157     
  1.390000000000000E-002    0.949134424340763     
  1.400000000000000E-002     1.01285272353093     
  1.410000000000000E-002     1.07633180179199     
  1.420000000000000E-002     1.13952608625922     
  1.430000000000000E-002     1.20239034792808     
  1.440000000000000E-002     1.26487949024540     
  1.450000000000000E-002     1.32694831304719     
  1.460000000000000E-002     1.38855212950627     
  1.470000000000000E-002     1.44964639303525     
  1.480000000000000E-002     1.51018717106814     
  1.490000000000000E-002     1.57013055439697     
  1.500000000000000E-002     1.62943334369588     
  1.510000000000000E-002     1.68805284544603     
  1.520000000000000E-002     1.74594668276337     
  1.530000000000000E-002     1.80307312182149     
  1.540000000000000E-002     1.85939126947796     
  1.550000000000000E-002     1.91486065672088     
  1.560000000000000E-002     1.96944180197903     
  1.570000000000000E-002     2.02309570621142     
  1.580000000000000E-002     2.07578413459003     
  1.590000000000000E-002     2.12747003092191     
  1.600000000000000E-002     2.17811685598775     
  1.610000000000000E-002     2.22768927260708     
  1.620000000000000E-002     2.27615264589007     
  1.630000000000000E-002     2.32347347910006     
  1.640000000000000E-002     2.36961936028964     
  1.650000000000000E-002     2.41455876332552     
  1.660000000000000E-002     2.45826140633405     
  1.670000000000000E-002     2.50069811152013     
  1.680000000000000E-002     2.54184084202970     
  1.690000000000000E-002     2.58166285480216     
  1.700000000000000E-002     2.62013833070914     
  1.710000000000000E-002     2.65724301580982     
  1.720000000000000E-002     2.69295371705313     
  1.730000000000000E-002     2.72724856300779     
  1.740000000000000E-002     2.76010706925031     
  1.750000000000000E-002     2.79150985568474     
  1.760000000000000E-002     2.82143915818039     
  1.770000000000000E-002     2.84987852846979     
  1.780000000000000E-002     2.87681278552165     
  1.790000000000000E-002     2.90222804341533     
  1.800000000000000E-002     2.92611180481061     
  1.810000000000000E-002     2.94845327741779     
  1.820000000000000E-002     2.96924275838298     
  1.830000000000000E-002     2.98847201751105     
  1.840000000000000E-002     3.00613435370808     
  1.850000000000000E-002     3.02222435738442     
  1.860000000000000E-002     3.03673796783518     
  1.870000000000000E-002     3.04967265377318     