 -4.000000000000000E-002    0.000000000000000E+000
 -3.990000000000000E-002    0.000000000000000E+000
 -3.980000000000000E-002    0.000000000000000E+000
 -3.970000000000000E-002    0.000000000000000E+000
 -3.960000000000000E-002    7.628992905436746E-017
 -3.950000000000000E-002    6.587115764540470E-016
 -3.940000000000000E-002    3.127394525291627E-015
 -3.930000000000000E-002    1.077326958567598E-014
 -3.920000000000000E-002    3.002890608290487E-014
 -3.910000000000000E-002    7.169843791826990E-014
 -3.900000000000000E-002    1.517372969829168E-013
 -3.890000000000000E-002    2.910039110836701E-013
 -3.880000000000000E-002    5.133759960125104E-013
 -3.870000000000000E-002    8.417339289054866E-013
 -3.860000000000000E-002    1.291581099163210E-012
 -3.850000000000000E-002    1.862486999448000E-012
 -3.840000000000000E-002    2.528060626009581E-012
 -3.830000000000000E-002    3.225719809102379E-012
 -3.820000000000000E-002    3.848014526566667E-012
 -3.810000000000000E-002    4.237590018659004E-012
 -3.800000000000000E-002    4.187935054950796E-012
 -3.790000000000000E-002    3.451775927588713E-012
 -3.780000000000000E-002    1.758318586954171E-012
 -3.770000000000000E-002   -1.160473482412581E-012
 -3.760000000000000E-002   -5.535660915622528E-012
 -3.750000000000000E-002   -1.152167452870675E-011
 -3.740000000000000E-002   -1.915508549867905E-011
 -3.730000000000000E-002   -2.831673264555955E-011
 -3.720000000000000E-002   -3.870274784301970E-011
 -3.710000000000000E-002   -4.980993531632127E-011
 -3.700000000000000E-002   -6.094018875926491E-011
 -3.690000000000000E-002   -7.122698762538700E-011
 -3.680000000000000E-002   -7.968479698192369E-011
 -3.670000000000000E-002   -8.527942649790954E-011
 -3.660000000000000E-002   -8.701450795584217E-011
 -3.650000000000000E-002   -8.402659571373686E-011
 -3.640000000000000E-002   -7.567915586258640E-011
 -3.630000000000000E-002   -6.164466344870962E-011
 -3.620000000000000E-002   -4.196391869176421E-011
 -3.610000000000000E-002   -1.707317998930172E-011
 -3.600000000000000E-002    1.220761954715616E-011
 -3.590000000000000E-002    4.472840734747489E-011
 -3.580000000000000E-002    7.910239794627038E-011
 -3.570000000000000E-002    1.138326833532695E-010
 -3.560000000000000E-002    1.474603720845043E-010
 -3.550000000000000E-002    1.787189891855696E-010
 -3.540000000000000E-002    2.066773418682447E-010
 -3.530000000000000E-002    2.308523371526653E-010
 -3.520000000000000E-002    2.512747541569774E-010
 -3.510000000000000E-002    2.684942530849518E-010
 -3.500000000000000E-002    2.835148511844618E-010
 -3.490000000000000E-002    2.976592794194590E-010
 -3.480000000000000E-002    3.123670566927529E-010
 -3.470000000000000E-002    3.289392143197717E-010
 -3.460000000000000E-002    3.482494286059552E-010
 -3.450000000000000E-002    3.704460753274844E-010
 -3.440000000000000E-002    3.946747504356654E-010
 -3.430000000000000E-002    4.188516448120909E-010
 -3.420000000000000E-002    4.395175327039945E-010
 -3.410000000000000E-002    4.518002988542085E-010
 -3.400000000000000E-002    4.495065445408713E-010
 -3.390000000000000E-002    4.253580548966550E-010
 -3.380000000000000E-002    3.713779632703261E-010
 -3.370000000000000E-002    2.794213535764752E-010
 -3.360000000000000E-002    1.418354443839720E-010
 -3.350000000000000E-002   -4.778197604579143E-011
 -3.340000000000000E-002   -2.937636927344464E-010
 -3.330000000000000E-002   -5.975476011606821E-010
 -3.320000000000000E-002   -9.569072222368343E-010
 -3.310000000000000E-002   -1.365306952698780E-009
 -3.300000000000000E-002   -1.811454069507656E-009
 -3.290000000000000E-002   -2.279121256920399E-009
 -3.280000000000000E-002   -2.747300136048689E-009
 -3.270000000000000E-002   -3.190734211845209E-009
 -3.260000000000000E-002   -3.580855679916338E-009
 -3.250000000000000E-002   -3.887120046268826E-009
 -3.240000000000000E-002   -4.078695258414270E-009
 -3.230000000000000E-002   -4.126426218744117E-009
 -3.220000000000000E-002   -4.004953079447588E-009
 -3.210000000000000E-002   -3.694827289678261E-009
 -3.200000000000000E-002   -3.184453269760710E-009
 -3.190000000000000E-002   -2.471657579878097E-009
 -3.180000000000000E-002   -1.564712724775473E-009
 -3.170000000000000E-002   -4.826599544855354E-010
 -3.160000000000000E-002    7.451702211625854E-010
 -3.150000000000000E-002    2.080476511320633E-009
 -3.140000000000000E-002    3.478090454444739E-009
 -3.130000000000000E-002    4.888731818742223E-009
 -3.120000000000000E-002    6.262195705466453E-009
 -3.110000000000000E-002    7.550671659157893E-009
 -3.100000000000000E-002    8.711863169089372E-009
 -3.090000000000000E-002    9.711550326379246E-009
 -3.080000000000000E-002    1.052527800667606E-008
 -3.070000000000000E-002    1.113891457957350E-008
 -3.060000000000000E-002    1.154793962755080E-008
 -3.050000000000000E-002    1.175546471626278E-008
 -3.040000000000000E-002    1.176914468106991E-008
 -3.030000000000000E-002    1.159729350008599E-008
 -3.020000000000000E-002    1.124467884045944E-008
 -3.010000000000000E-002    1.070853355439172E-008
 -3.000000000000000E-002    9.975403722530035E-009
 -2.990000000000000E-002    9.019400917575227E-009
 -2.980000000000000E-002    7.802329707814758E-009
 -2.970000000000000E-002    6.276000216175707E-009
 -2.960000000000000E-002    4.386788687890481E-009
 -2.950000000000000E-002    2.082234012896485E-009
 -2.940000000000000E-002   -6.807835385865337E-010
 -2.930000000000000E-002   -3.927052749875951E-009
 -2.920000000000000E-002   -7.654130801453822E-009
 -2.910000000000000E-002   -1.182459862273325E-008
 -2.900000000000000E-002   -1.636051420406837E-008
 -2.890000000000000E-002   -2.114100309059110E-008
 -2.880000000000000E-002   -2.600365645501020E-008
 -2.870000000000000E-002   -3.075012206862846E-008
 -2.860000000000000E-002   -3.515579841725825E-008
 -2.850000000000000E-002   -3.898314641543376E-008
 -2.840000000000000E-002   -4.199767855778723E-008
 -2.830000000000000E-002   -4.398532317008411E-008
 -2.820000000000000E-002   -4.476960713952384E-008
 -2.810000000000000E-002   -4.422701902512692E-008
 -2.800000000000000E-002   -4.229893398351798E-008
 -2.790000000000000E-002   -3.899876096104490E-008
 -2.780000000000000E-002   -3.441336215710704E-008
 -2.770000000000000E-002   -2.869832425895056E-008
 -2.760000000000000E-002   -2.206720020066526E-008
 -2.750000000000000E-002   -1.477555121222621E-008
 -2.740000000000000E-002   -7.101096427632875E-009
 -2.730000000000000E-002    6.782894252893828E-010
 -2.720000000000000E-002    8.306644216822164E-009
 -2.710000000000000E-002    1.557000582265596E-008
 -2.700000000000000E-002    2.231256054424727E-008
 -2.690000000000000E-002    2.844724773856069E-008
 -2.680000000000000E-002    3.395986834734306E-008
 -2.670000000000000E-002    3.890624323024977E-008
 -2.660000000000000E-002    4.340284437983519E-008
 -2.650000000000000E-002    4.761194912501988E-008
 -2.640000000000000E-002    5.172295894610093E-008
 -2.630000000000000E-002    5.593199586198345E-008
 -2.620000000000000E-002    6.042210534981761E-008
 -2.610000000000000E-002    6.534638173513317E-008
 -2.600000000000000E-002    7.081605266247218E-008
 -2.590000000000000E-002    7.689509874421093E-008
 -2.580000000000000E-002    8.360234017248991E-008
 -2.570000000000000E-002    9.092112568957106E-008
 -2.560000000000000E-002    9.881606809337136E-008
 -2.550000000000000E-002    1.072553650185150E-007
 -2.540000000000000E-002    1.162368212877664E-007
 -2.530000000000000E-002    1.258151246230509E-007
 -2.520000000000000E-002    1.361277231274630E-007
 -2.510000000000000E-002    1.474168283470299E-007
 -2.500000000000000E-002    1.600452347835705E-007
 -2.490000000000000E-002    1.745041432124526E-007
 -2.480000000000000E-002    1.914119634168561E-007
 -2.470000000000000E-002    2.115037632916336E-007
 -2.460000000000000E-002    2.356118848039816E-007
 -2.450000000000000E-002    2.646390718223518E-007
 -2.440000000000000E-002    2.995260463978450E-007
 -2.430000000000000E-002    3.412163291151723E-007
 -2.420000000000000E-002    3.906209257962281E-007
 -2.410000000000000E-002    4.485860658710482E-007
 -2.400000000000000E-002    5.158670550589244E-007
 -2.390000000000000E-002    5.931102906548786E-007
 -2.380000000000000E-002    6.808461815104978E-007
 -2.370000000000000E-002    7.794933330509532E-007
 -2.360000000000000E-002    8.893750311505931E-007
 -2.350000000000000E-002    1.010746861041342E-006
 -2.340000000000000E-002    1.143834072614631E-006
 -2.330000000000000E-002    1.288876173800202E-006
 -2.320000000000000E-002    1.446175356216655E-006
 -2.310000000000000E-002    1.616144438453068E-006
 -2.300000000000000E-002    1.799351403796211E-006
 -2.290000000000000E-002    1.996554665489818E-006
 -2.280000000000000E-002    2.208726955588704E-006
 -2.270000000000000E-002    2.437063588961190E-006
 -2.260000000000000E-002    2.682974221637244E-006
 -2.250000000000000E-002    2.948056954663006E-006
 -2.240000000000000E-002    3.234055775668209E-006
 -2.230000000000000E-002    3.542805316398346E-006
 -2.220000000000000E-002    3.876165125780507E-006
 -2.210000000000000E-002    4.235951696542322E-006
 -2.200000000000000E-002    4.623870585307725E-006
 -2.190000000000000E-002    5.041460762031564E-006
 -2.180000000000000E-002    5.490052483318999E-006
 -2.170000000000000E-002    5.970748846773561E-006
 -2.160000000000000E-002    6.484429848357211E-006
 -2.150000000000000E-002    7.031786485922773E-006
 -2.140000000000000E-002    7.613379825274593E-006
 -2.130000000000000E-002    8.229723359060139E-006
 -2.120000000000000E-002    8.881382511537280E-006
 -2.110000000000000E-002    9.569081103423144E-006
 -2.100000000000000E-002    1.029381211988426E-005
 -2.090000000000000E-002    1.105693092817543E-005
 -2.080000000000000E-002    1.186023513462489E-005
 -2.070000000000000E-002    1.270600978810306E-005
 -2.060000000000000E-002    1.359704084252046E-005
 -2.050000000000000E-002    1.453659297149646E-005
 -2.040000000000000E-002    1.552835161218529E-005
 -2.030000000000000E-002    1.657633313834795E-005
 -2.020000000000000E-002    1.768478102529272E-005
 -2.010000000000000E-002    1.885804421984223E-005
 -2.000000000000000E-002    2.010047293981916E-005
 -1.990000000000000E-002    2.141632396505735E-005
 -1.980000000000000E-002    2.280970238944636E-005
 -1.970000000000000E-002    2.428454620254724E-005
 -1.960000000000000E-002    2.584466083033680E-005
 -1.950000000000000E-002    2.749380126784923E-005
 -1.940000000000000E-002    2.923580426970633E-005
 -1.930000000000000E-002    3.107475257637940E-005
 -1.920000000000000E-002    3.301516722335434E-005
 -1.910000000000000E-002    3.506219733823162E-005
 -1.900000000000000E-002    3.722180702687790E-005
 -1.890000000000000E-002    3.950092298714920E-005
 -1.880000000000000E-002    4.190753745777416E-005
 -1.870000000000000E-002    4.445075735626288E-005
 -1.860000000000000E-002    4.714078178903772E-005
 -1.850000000000000E-002    4.998881801054355E-005
 -1.840000000000000E-002    5.300694672788840E-005
 -1.830000000000000E-002    5.620794572700149E-005
 -1.820000000000000E-002    5.960508665879162E-005
 -1.810000000000000E-002    6.321194485160772E-005
 -1.800000000000000E-002    6.704220991476356E-005
 -1.790000000000000E-002    7.110957428737316E-005
 -1.780000000000000E-002    7.542766028814237E-005
 -1.770000000000000E-002    8.000999814882362E-005
 -1.760000000000000E-002    8.487014554248451E-005
 -1.750000000000000E-002    9.002178520258798E-005
 -1.740000000000000E-002    9.547895777537353E-005
 -1.730000000000000E-002    1.012562883379454E-004
 -1.720000000000000E-002    1.073692109666737E-004
 -1.710000000000000E-002    1.138342292072717E-004
 -1.700000000000000E-002    1.206690858158532E-004
 -1.690000000000000E-002    1.278928904873422E-004
 -1.680000000000000E-002    1.355261742193201E-004
 -1.670000000000000E-002    1.435908714113999E-004
 -1.660000000000000E-002    1.521101858958816E-004
 -1.650000000000000E-002    1.611084467814694E-004
 -1.640000000000000E-002    1.706108357550398E-004
 -1.630000000000000E-002    1.806432206348671E-004
 -1.620000000000000E-002    1.912318566742589E-004
 -1.610000000000000E-002    2.024032185041219E-004
 -1.600000000000000E-002    2.141838389707948E-004
 -1.590000000000000E-002    2.266003077606131E-004
 -1.580000000000000E-002    2.396792460895033E-004
 -1.570000000000000E-002    2.534474773055739E-004
 -1.560000000000000E-002    2.679322277352252E-004
 -1.550000000000000E-002    2.831613686243994E-004
 -1.540000000000000E-002    2.991637954641837E-004
 -1.530000000000000E-002    3.159696958973318E-004
 -1.520000000000000E-002    3.336108520799039E-004
 -1.510000000000000E-002    3.521208782954734E-004
 -1.500000000000000E-002    3.715354539902084E-004
 -1.490000000000000E-002    3.918923471624136E-004
 -1.480000000000000E-002    4.132313977681351E-004
 -1.470000000000000E-002    4.355945268589103E-004
 -1.460000000000000E-002    4.590254767275768E-004
 -1.450000000000000E-002    4.835697175959606E-004
 -1.440000000000000E-002    5.092741208702273E-004
 -1.430000000000000E-002    5.361869301905456E-004
 -1.420000000000000E-002    5.643574789157597E-004
 -1.410000000000000E-002    5.938362248769865E-004
 -1.400000000000000E-002    6.246747480736413E-004
 -1.390000000000000E-002    6.569259251659859E-004
 -1.380000000000000E-002    6.906439262063577E-004
 -1.370000000000000E-002    7.258847422705725E-004
 -1.360000000000000E-002    7.627064395073285E-004
 -1.350000000000000E-002    8.011694687799778E-004
 -1.340000000000000E-002    8.413370292136868E-004
 -1.330000000000000E-002    8.832754997419480E-004
 -1.320000000000000E-002    9.270545103518828E-004
 -1.310000000000000E-002    9.727472969251237E-004
 -1.300000000000000E-002    1.020430639136264E-003
 -1.290000000000000E-002    1.070185117693721E-003
 -1.280000000000000E-002    1.122094872154001E-003
 -1.270000000000000E-002    1.176247609284464E-003
 -1.260000000000000E-002    1.232734427289393E-003
 -1.250000000000000E-002    1.291649726038844E-003
 -1.240000000000000E-002    1.353091277621663E-003
 -1.230000000000000E-002    1.417160053067852E-003
 -1.220000000000000E-002    1.483960177833971E-003
 -1.210000000000000E-002    1.553599177394816E-003
 -1.200000000000000E-002    1.626188151578985E-003
 -1.190000000000000E-002    1.701841879249758E-003
 -1.180000000000000E-002    1.780679066222139E-003
 -1.170000000000000E-002    1.862822880745050E-003
 -1.160000000000000E-002    1.948400799844037E-003
 -1.150000000000000E-002    2.037544912323226E-003
 -1.140000000000000E-002    2.130392184574028E-003
 -1.130000000000000E-002    2.227084643484808E-003
 -1.120000000000000E-002    2.327769062524875E-003
 -1.110000000000000E-002    2.432596992099424E-003
 -1.100000000000000E-002    2.541725200612265E-003
 -1.090000000000000E-002    2.655314573250195E-003
 -1.080000000000000E-002    2.773531191883826E-003
 -1.070000000000000E-002    2.896545278416658E-003
 -1.060000000000000E-002    3.024531505552006E-003
 -1.050000000000000E-002    3.157669178617430E-003
 -1.040000000000000E-002    3.296141901345892E-003
 -1.030000000000000E-002    3.440137987451812E-003
 -1.020000000000000E-002    3.589850062154365E-003
 -1.010000000000000E-002    3.745475603867579E-003
 -1.000000000000000E-002    3.907217135330504E-003
 -9.899999999999999E-003    4.075282131960476E-003
 -9.800000000000000E-003    4.249882434781074E-003
 -9.699999999999999E-003    4.431235371647777E-003
 -9.599999999999999E-003    4.619562768097283E-003
 -9.500000000000000E-003    4.815091052903257E-003
 -9.399999999999999E-003    5.018052015209971E-003
 -9.299999999999999E-003    5.228680527720544E-003
 -9.200000000000000E-003    5.447216989209375E-003
 -9.099999999999999E-003    5.673905165674729E-003
 -8.999999999999999E-003    5.908993514920666E-003
 -8.900000000000000E-003    6.152734372151317E-003
 -8.799999999999999E-003    6.405384265633196E-003
 -8.699999999999999E-003    6.667203687398630E-003
 -8.600000000000000E-003    6.938458712189590E-003
 -8.499999999999999E-003    7.219419676526822E-003
 -8.399999999999999E-003    7.510362003378019E-003
 -8.300000000000000E-003    7.811566130905208E-003
 -8.199999999999999E-003    8.123318132785407E-003
 -8.100000000000000E-003    8.445908545249450E-003
 -8.000000000000000E-003    8.779633841767578E-003
 -7.899999999999999E-003    9.124795047830923E-003
 -7.800000000000000E-003    9.481697542145727E-003
 -7.699999999999999E-003    9.850649851255536E-003
 -7.599999999999999E-003    1.023196521607000E-002
 -7.499999999999999E-003    1.062595822979472E-002
 -7.399999999999999E-003    1.103294712846994E-002
 -7.299999999999999E-003    1.145325145568679E-002
 -7.199999999999999E-003    1.188719301474496E-002
 -7.100000000000000E-003    1.233509667665029E-002
 -6.999999999999999E-003    1.279728675208484E-002
 -6.899999999999999E-003    1.327409137216031E-002
 -6.800000000000000E-003    1.376584010293950E-002
 -6.699999999999999E-003    1.427286489849090E-002
 -6.599999999999999E-003    1.479550120912182E-002
 -6.499999999999999E-003    1.533408588988184E-002
 -6.399999999999999E-003    1.588895965966977E-002
 -6.299999999999999E-003    1.646046635036076E-002
 -6.199999999999999E-003    1.704894998765324E-002
 -6.100000000000000E-003    1.765475732388474E-002
 -5.999999999999999E-003    1.827823428761800E-002
 -5.899999999999999E-003    1.891972692854985E-002
 -5.800000000000000E-003    1.957958188785062E-002
 -5.699999999999999E-003    2.025814036250939E-002
 -5.599999999999999E-003    2.095574105726745E-002
 -5.499999999999999E-003    2.167271813662607E-002
 -5.399999999999999E-003    2.240940204402724E-002
 -5.299999999999999E-003    2.316611503573037E-002
 -5.199999999999999E-003    2.394317488304860E-002
 -5.099999999999999E-003    2.474089459714649E-002
 -4.999999999999999E-003    2.555957827008193E-002
 -4.899999999999999E-003    2.639952844673500E-002
 -4.799999999999999E-003    2.726103764753281E-002
 -4.699999999999999E-003    2.814439311330420E-002
 -4.599999999999999E-003    2.904987448951459E-002
 -4.499999999999999E-003    2.997775562697070E-002
 -4.399999999999999E-003    3.092830351889778E-002
 -4.299999999999999E-003    3.190177124360341E-002
 -4.199999999999999E-003    3.289840427783341E-002
 -4.099999999999999E-003    3.391843565103705E-002
 -3.999999999999999E-003    3.496208208886030E-002
 -3.899999999999999E-003    3.602954426567860E-002
 -3.799999999999999E-003    3.712100463099398E-002
 -3.699999999999999E-003    3.823662925881248E-002
 -3.599999999999999E-003    3.937655479072171E-002
 -3.499999999999999E-003    4.054090949876061E-002
 -3.399999999999999E-003    4.172978447571414E-002
 -3.299999999999999E-003    4.294325683054034E-002
 -3.199999999999999E-003    4.418137687163859E-002
 -3.099999999999999E-003    4.544416599029961E-002
 -2.999999999999999E-003    4.673162509115051E-002
 -2.899999999999999E-003    4.804372966528747E-002
 -2.799999999999999E-003    4.938042362896034E-002
 -2.699999999999999E-003    5.074162890012542E-002
 -2.599999999999999E-003    5.212723371159567E-002
 -2.499999999999999E-003    5.353709968011774E-002
 -2.399999999999999E-003    5.497105228852785E-002
 -2.299999999999999E-003    5.642888239788815E-002
 -2.199999999999999E-003    5.791033934642915E-002
 -2.099999999999999E-003    5.941514271637716E-002
 -1.999999999999999E-003    6.094296165281207E-002
 -1.899999999999999E-003    6.249342717441270E-002
 -1.799999999999999E-003    6.406612211946222E-002
 -1.699999999999999E-003    6.566057692730289E-002
 -1.599999999999999E-003    6.727627583311493E-002
 -1.499999999999999E-003    6.891265556169786E-002
 -1.399999999999999E-003    7.056910053343918E-002
 -1.299999999999999E-003    7.224493890502413E-002
 -1.199999999999999E-003    7.393945831521426E-002
 -1.099999999999999E-003    7.565187473377664E-002
 -9.999999999999989E-004    7.738135999174101E-002
 -8.999999999999990E-004    7.912703514142809E-002
 -7.999999999999990E-004    8.088794555287300E-002
 -6.999999999999989E-004    8.266309362644114E-002
 -5.999999999999990E-004    8.445140723291873E-002
 -4.999999999999989E-004    8.625175815317926E-002
 -3.999999999999989E-004    8.806294679869586E-002
 -2.999999999999989E-004    8.988370329793040E-002
 -1.999999999999989E-004    9.171268555986231E-002
 -9.999999999999892E-005    9.354847129016804E-002
  1.084202172485504E-018    9.538957736204991E-002
  1.000000000000011E-004    9.723442287588380E-002
  2.000000000000011E-004    9.908136239796285E-002
  3.000000000000011E-004    0.100928658239339     
  4.000000000000011E-004    0.102774495397258     
  5.000000000000011E-004    0.104616979108003     
  6.000000000000011E-004    0.106454121556121     
  7.000000000000011E-004    0.108283857539691     
  8.000000000000011E-004    0.110104025446274     
  9.000000000000012E-004    0.111912390311057     
  1.000000000000001E-003    0.113706614812755     
  1.100000000000001E-003    0.115484282812169     
  1.200000000000001E-003    0.117242870930951     
  1.300000000000001E-003    0.118979772434210     
  1.400000000000001E-003    0.120692279525373     
  1.500000000000001E-003    0.122377587550341     
  1.600000000000001E-003    0.124032791010204     
  1.700000000000001E-003    0.125654886717965     
  1.800000000000001E-003    0.127240766946313     
  1.900000000000001E-003    0.128787218256232     
  2.000000000000001E-003    0.130290930840627     
  2.100000000000001E-003    0.131748479372111     
  2.200000000000001E-003    0.133156344972186     
  2.300000000000001E-003    0.134510898381143     
  2.400000000000001E-003    0.135808414878348     
  2.500000000000001E-003    0.137045063637180     
  2.600000000000001E-003    0.138216909961321     
  2.700000000000001E-003    0.139319910367155     
  2.800000000000001E-003    0.140349934146312     
  2.900000000000001E-003    0.141302733016786     
  3.000000000000001E-003    0.142173952391383     
  3.100000000000001E-003    0.142959149687278     
  3.200000000000001E-003    0.143653772156603     
  3.300000000000001E-003    0.144253158516237     
  3.400000000000001E-003    0.144752550394792     
  3.500000000000001E-003    0.145147104438973     
  3.600000000000001E-003    0.145431851097218     
  3.700000000000001E-003    0.145601745608601     
  3.800000000000001E-003    0.145651649127206     
  3.900000000000001E-003    0.145576308611379     
  4.000000000000001E-003    0.145370403991236     
  4.100000000000001E-003    0.145028512389571     
  4.200000000000001E-003    0.144545130825076     
  4.300000000000001E-003    0.143914682793525     
  4.400000000000001E-003    0.143131513003677     
  4.500000000000001E-003    0.142189877781480     
  4.600000000000002E-003    0.141083976321840     
  4.700000000000001E-003    0.139807928658515     
  4.800000000000001E-003    0.138355802344495     
  4.900000000000002E-003    0.136721601365513     
  5.000000000000001E-003    0.134899259166079     
  5.100000000000001E-003    0.132882665826713     
  5.200000000000001E-003    0.130665661704496     
  5.300000000000002E-003    0.128242047496524     
  5.400000000000001E-003    0.125605585250936     
  5.500000000000001E-003    0.122750005634611     
  5.600000000000002E-003    0.119669014104302     
  5.700000000000001E-003    0.116356290941407     
  5.800000000000001E-003    0.112805508223299     
  5.900000000000002E-003    0.109010336035360     
  6.000000000000001E-003    0.104964440063039     
  6.100000000000001E-003    0.100661491411248     
  6.200000000000002E-003    9.609519188685242E-002
  6.300000000000002E-003    9.125924984719254E-002
  6.400000000000001E-003    8.614741576177208E-002
  6.500000000000001E-003    8.075347844762884E-002
  6.600000000000002E-003    7.507127272944154E-002
  6.700000000000001E-003    6.909468398914725E-002
  6.800000000000001E-003    6.281766128121068E-002
  6.900000000000002E-003    5.623422979831971E-002
  7.000000000000001E-003    4.933848758075379E-002
  7.100000000000001E-003    4.212461947129732E-002
  7.200000000000002E-003    3.458692032337135E-002
  7.300000000000002E-003    2.671978643780451E-002
  7.400000000000001E-003    1.851773834055169E-002
  7.500000000000001E-003    9.975415748586569E-003
  7.600000000000002E-003    1.087605623258225E-003
  7.700000000000001E-003   -8.150751698849447E-003
  7.800000000000001E-003   -1.774455814219179E-002
  7.900000000000001E-003   -2.769854369412959E-002
  8.000000000000002E-003   -3.801724711036887E-002
  8.100000000000001E-003   -4.870501971360292E-002
  8.200000000000001E-003   -5.976599763880995E-002
  8.300000000000002E-003   -7.120411137685902E-002
  8.400000000000001E-003   -8.302305510249468E-002
  8.500000000000002E-003   -9.522628390294510E-002
  8.600000000000002E-003   -0.107817014347579     
  8.700000000000001E-003   -0.120798182129382     
  8.800000000000002E-003   -0.134172466878993     
  8.900000000000002E-003   -0.147942248924867     
  9.000000000000001E-003   -0.162109626432063     
  9.100000000000002E-003   -0.176676390772241     
  9.200000000000002E-003   -0.191643988551792     
  9.300000000000001E-003   -0.207013561554122     
  9.400000000000002E-003   -0.222785891919561     
  9.500000000000001E-003   -0.238961399712681     
  9.600000000000001E-003   -0.255540172167734     
  9.700000000000002E-003   -0.272521856963142     
  9.800000000000001E-003   -0.289905772470934     
  9.900000000000001E-003   -0.307690787719669     
  1.000000000000000E-002   -0.325875379842688     
  1.010000000000000E-002   -0.344457597704836     
  1.020000000000000E-002   -0.363435081814591     
  1.030000000000000E-002   -0.382804964213761     
  1.040000000000000E-002   -0.402564001615761     
  1.050000000000000E-002   -0.422708448739239     
  1.060000000000000E-002   -0.443234082950503     
  1.070000000000000E-002   -0.464136212299800     
  1.080000000000000E-002   -0.485409638867158     
  1.090000000000000E-002   -0.507048678211157     
  1.100000000000000E-002   -0.529047153778788     
  1.110000000000000E-002   -0.551398360633368     
  1.120000000000000E-002   -0.574095082588352     
  1.130000000000000E-002   -0.597129554626213     
  1.140000000000000E-002   -0.620493509122934     
  1.150000000000000E-002   -0.644178131786088     
  1.160000000000000E-002   -0.668173989775624     
  1.170000000000000E-002   -0.692471198961375     
  1.180000000000000E-002   -0.717059306290266     
  1.190000000000000E-002   -0.741927264876457     
  1.200000000000000E-002   -0.767063475046358     
  1.210000000000000E-002   -0.792455750845677     
  1.220000000000000E-002   -0.818091368545215     
  1.230000000000000E-002   -0.843957108399941     
  1.240000000000000E-002   -0.870039047896751     
  1.250000000000000E-002   -0.896322800733990     
  1.260000000000000E-002   -0.922793403637112     
  1.270000000000000E-002   -0.949435287775425     
  1.280000000000000E-002   -0.976232352895588     
  1.290000000000000E-002    -1.00316799901600     
  1.300000000000000E-002    -1.03022500151794     
  1.310000000000000E-002    -1.05738558544487     
  1.320000000000000E-002    -1.08463149840793     
  1.330000000000000E-002    -1.11194388359874     
  1.340000000000000E-002    -1.13930335215155     
  1.350000000000000E-002    -1.16669013512732     
  1.360000000000000E-002    -1.19408379780796     
  1.370000000000000E-002    -1.22146348373291     
  1.380000000000000E-002    -1.24880779105386     
  1.390000000000000E-002    -1.27609492844181     
  1.400000000000000E-002    -1.30330254716350     
  1.410000000000000E-002    -1.33040797433451     
  1.420000000000000E-002    -1.35738806439052     
  1.430000000000000E-002    -1.38421920876731     
  1.440000000000000E-002    -1.41087725658575     
  1.450000000000000E-002    -1.43733799434049     
  1.460000000000000E-002    -1.46357649544783     
  1.470000000000000E-002    -1.48956777611742     
  1.480000000000000E-002    -1.51528632307174     
  1.490000000000000E-002    -1.54070646413564     
  1.500000000000000E-002    -1.56580208288004     
  1.510000000000000E-002    -1.59054693314949     
  1.520000000000000E-002    -1.61491453780903     
  1.530000000000000E-002    -1.63887814393172     
  1.540000000000000E-002    -1.66241067739878     
  1.550000000000000E-002    -1.68548514750174     
  1.560000000000000E-002    -1.70807429578489     
  1.570000000000000E-002    -1.73015073170081     
  1.580000000000000E-002    -1.75168701076516     
  1.590000000000000E-002    -1.77265553861175     
  1.600000000000000E-002    -1.79302888961781     
  1.610000000000000E-002    -1.81277939834000     
  1.620000000000000E-002    -1.83187964060032     
  1.630000000000000E-002    -1.85030211390733     
  1.640000000000000E-002    -1.86801946265660     
  1.650000000000000E-002    -1.88500434732281     
  1.660000000000000E-002    -1.90122976469257     
  1.670000000000000E-002    -1.91666878474415     
  1.680000000000000E-002    -1.93129471156622     
  1.690000000000000E-002    -1.94508100588852     
  1.700000000000000E-002    -1.95800166361038     
  1.710000000000000E-002    -1.97003078557869     
  1.720000000000000E-002    -1.98114295145811     
  1.730000000000000E-002    -1.99131301682519     
  1.740000000000000E-002    -2.00051631754924     
  1.750000000000000E-002    -2.00872871850347     
  1.760000000000000E-002    -2.01592647945331     
  1.770000000000000E-002    -2.02208633594405     
  1.780000000000000E-002    -2.02718567511927     
  1.790000000000000E-002    -2.03120250414553     
  1.800000000000000E-002    -2.03411530513395     
  1.810000000000000E-002    -2.03590339643422     
  1.820000000000000E-002    -2.03654668995263     
  1.830000000000000E-002    -2.03602573678277     
  1.840000000000000E-002    -2.03432206508540     
  1.850000000000000E-002    -2.03141774147353     
  1.860000000000000E-002    -2.02729604658428     
  1.870000000000000E-002    -2.02194062123699     