 -4.000000000000000E-002    0.000000000000000E+000
 -3.990000000000000E-002    0.000000000000000E+000
 -3.980000000000000E-002    0.000000000000000E+000
 -3.970000000000000E-002    0.000000000000000E+000
 -3.960000000000000E-002    0.000000000000000E+000
 -3.950000000000000E-002    0.000000000000000E+000
 -3.940000000000000E-002    0.000000000000000E+000
 -3.930000000000000E-002    0.000000000000000E+000
 -3.920000000000000E-002    0.000000000000000E+000
 -3.910000000000000E-002    0.000000000000000E+000
 -3.900000000000000E-002    0.000000000000000E+000
 -3.890000000000000E-002    0.000000000000000E+000
 -3.880000000000000E-002    0.000000000000000E+000
 -3.870000000000000E-002    0.000000000000000E+000
 -3.860000000000000E-002    0.000000000000000E+000
 -3.850000000000000E-002    0.000000000000000E+000
 -3.840000000000000E-002    0.000000000000000E+000
 -3.830000000000000E-002    0.000000000000000E+000
 -3.820000000000000E-002    0.000000000000000E+000
 -3.810000000000000E-002    0.000000000000000E+000
 -3.800000000000000E-002    0.000000000000000E+000
 -3.790000000000000E-002    0.000000000000000E+000
 -3.780000000000000E-002    0.000000000000000E+000
 -3.770000000000000E-002    0.000000000000000E+000
 -3.760000000000000E-002    0.000000000000000E+000
 -3.750000000000000E-002    0.000000000000000E+000
 -3.740000000000000E-002    0.000000000000000E+000
 -3.730000000000000E-002    0.000000000000000E+000
 -3.720000000000000E-002    0.000000000000000E+000
 -3.710000000000000E-002    0.000000000000000E+000
 -3.700000000000000E-002    0.000000000000000E+000
 -3.690000000000000E-002    0.000000000000000E+000
 -3.680000000000000E-002    0.000000000000000E+000
 -3.670000000000000E-002    0.000000000000000E+000
 -3.660000000000000E-002    0.000000000000000E+000
 -3.650000000000000E-002    0.000000000000000E+000
 -3.640000000000000E-002    1.116051239359884E-047
 -3.630000000000000E-002    1.026313134369573E-046
 -3.620000000000000E-002    3.681358961007562E-046
 -3.610000000000000E-002    9.759786977618616E-046
 -3.600000000000000E-002    2.549278918737382E-045
 -3.590000000000000E-002    6.206868887787358E-045
 -3.580000000000000E-002    1.437101134747375E-044
 -3.570000000000000E-002    3.162400574036188E-044
 -3.560000000000000E-002    6.478153138140943E-044
 -3.550000000000000E-002    1.243604214845787E-043
 -3.540000000000000E-002    2.256019159762096E-043
 -3.530000000000000E-002    3.827337137449177E-043
 -3.520000000000000E-002    5.946527855146436E-043
 -3.510000000000000E-002    8.171818955130990E-043
 -3.500000000000000E-002    8.983566534492575E-043
 -3.490000000000000E-002    4.629081736882845E-043
 -3.480000000000000E-002   -1.271486039260233E-042
 -3.470000000000000E-002   -5.770310990911890E-042
 -3.460000000000000E-002   -1.553488756199459E-041
 -3.450000000000000E-002   -3.444945254008238E-041
 -3.440000000000000E-002   -6.793214711418386E-041
 -3.430000000000000E-002   -1.224769715374151E-040
 -3.420000000000000E-002   -2.038980397176780E-040
 -3.410000000000000E-002   -3.131687053698158E-040
 -3.400000000000000E-002   -4.384192839520478E-040
 -3.390000000000000E-002   -5.414086640700700E-040
 -3.380000000000000E-002   -5.371221428590145E-040
 -3.370000000000000E-002   -2.664533540759355E-040
 -3.360000000000000E-002    5.349684084404496E-040
 -3.350000000000000E-002    2.263175565707728E-039
 -3.340000000000000E-002    5.449960020389789E-039
 -3.330000000000000E-002    1.071491178139283E-038
 -3.320000000000000E-002    1.862103292665915E-038
 -3.310000000000000E-002    2.937580492351742E-038
 -3.300000000000000E-002    4.231305356411476E-038
 -3.290000000000000E-002    5.510211135693764E-038
 -3.280000000000000E-002    6.267458160577289E-038
 -3.270000000000000E-002    5.595391095586805E-038
 -3.260000000000000E-002    2.063751977246754E-038
 -3.250000000000000E-002   -6.347197227203241E-038
 -3.240000000000000E-002   -2.217657616482566E-037
 -3.230000000000000E-002   -4.815711375470369E-037
 -3.220000000000000E-002   -8.648281513510386E-037
 -3.210000000000000E-002   -1.375063940497778E-036
 -3.200000000000000E-002   -1.977326481241370E-036
 -3.190000000000000E-002   -2.570761761379638E-036
 -3.180000000000000E-002   -2.955612070259178E-036
 -3.170000000000000E-002   -2.799877433667796E-036
 -3.160000000000000E-002   -1.615874695253201E-036
 -3.150000000000000E-002    1.236766755017859E-036
 -3.140000000000000E-002    6.498283257269738E-036
 -3.130000000000000E-002    1.487697890928269E-035
 -3.120000000000000E-002    2.680728547713216E-035
 -3.110000000000000E-002    4.207203073535598E-035
 -3.100000000000000E-002    5.928104629051975E-035
 -3.090000000000000E-002    7.523324765549490E-035
 -3.080000000000000E-002    8.424576252228845E-035
 -3.070000000000000E-002    7.761279741652629E-035
 -3.060000000000000E-002    4.345490936613748E-035
 -3.050000000000000E-002   -3.267613907175870E-035
 -3.040000000000000E-002   -1.659841778283080E-034
 -3.030000000000000E-002   -3.689203787091509E-034
 -3.020000000000000E-002   -6.455638424553779E-034
 -3.010000000000000E-002   -9.837097336192953E-034
 -3.000000000000000E-002   -1.344945601272865E-033
 -2.990000000000000E-002   -1.653734671410880E-033
 -2.980000000000000E-002   -1.787550948751238E-033
 -2.970000000000000E-002   -1.571377129185025E-033
 -2.960000000000000E-002   -7.812355845286572E-034
 -2.950000000000000E-002    8.373983245692712E-034
 -2.940000000000000E-002    3.529868409875025E-033
 -2.930000000000000E-002    7.465427502258906E-033
 -2.920000000000000E-002    1.263966166522809E-032
 -2.910000000000000E-002    1.874762669960848E-032
 -2.900000000000000E-002    2.503693176688334E-032
 -2.890000000000000E-002    3.016105618598705E-032
 -2.880000000000000E-002    3.206692237628958E-032
 -2.870000000000000E-002    2.796585786982867E-032
 -2.860000000000000E-002    1.445091072538912E-032
 -2.850000000000000E-002   -1.216776476235769E-032
 -2.840000000000000E-002   -5.523929386365978E-032
 -2.830000000000000E-002   -1.168081150953534E-031
 -2.820000000000000E-002   -1.962980778997012E-031
 -2.810000000000000E-002   -2.889012618759129E-031
 -2.800000000000000E-002   -3.838263392544437E-031
 -2.790000000000000E-002   -4.626859360948141E-031
 -2.780000000000000E-002   -4.984438142765136E-031
 -2.770000000000000E-002   -4.554804901868406E-031
 -2.760000000000000E-002   -2.914400899643240E-031
 -2.750000000000000E-002    3.844870700574283E-032
 -2.740000000000000E-002    5.739761851978799E-031
 -2.730000000000000E-002    1.339141794264550E-030
 -2.720000000000000E-002    2.328069220155992E-030
 -2.710000000000000E-002    3.488496660915873E-030
 -2.700000000000000E-002    4.704629388167780E-030
 -2.690000000000000E-002    5.782241020025485E-030
 -2.680000000000000E-002    6.440045594881406E-030
 -2.670000000000000E-002    6.312349178902093E-030
 -2.660000000000000E-002    4.968545379589711E-030
 -2.650000000000000E-002    1.954854270007616E-030
 -2.640000000000000E-002   -3.137535379524214E-030
 -2.630000000000000E-002   -1.057637743141071E-029
 -2.620000000000000E-002   -2.036694820692004E-029
 -2.610000000000000E-002   -3.211366045039279E-029
 -2.600000000000000E-002   -4.488012646235381E-029
 -2.590000000000000E-002   -5.707079603942167E-029
 -2.580000000000000E-002   -6.636471236232784E-029
 -2.570000000000000E-002   -6.973751367349024E-029
 -2.560000000000000E-002   -6.360999655689599E-029
 -2.550000000000000E-002   -4.415822244590945E-029
 -2.540000000000000E-002   -7.809673647177957E-030
 -2.530000000000000E-002    4.806926182907373E-029
 -2.520000000000000E-002    1.243175248647028E-028
 -2.510000000000000E-002    2.190153271506749E-028
 -2.500000000000000E-002    3.265149136768110E-028
 -2.490000000000000E-002    4.366142979496723E-028
 -2.480000000000000E-002    5.340628452106252E-028
 -2.470000000000000E-002    5.986157902508629E-028
 -2.460000000000000E-002    6.058614356222934E-028
 -2.450000000000000E-002    5.290199950044823E-028
 -2.440000000000000E-002    3.418484307879022E-028
 -2.430000000000000E-002    2.267578158846070E-029
 -2.420000000000000E-002   -4.405635409589827E-028
 -2.410000000000000E-002   -1.044628657552366E-027
 -2.400000000000000E-002   -1.765159788793078E-027
 -2.390000000000000E-002   -2.551541709906131E-027
 -2.380000000000000E-002   -3.323437459156128E-027
 -2.370000000000000E-002   -3.970125459164154E-027
 -2.360000000000000E-002   -4.353807460014959E-027
 -2.350000000000000E-002   -4.317932725160165E-027
 -2.340000000000000E-002   -3.701271601003069E-027
 -2.330000000000000E-002   -2.357941590840951E-027
 -2.320000000000000E-002   -1.828359818705917E-028
 -2.310000000000000E-002    2.859043019088526E-027
 -2.300000000000000E-002    6.701930166585930E-027
 -2.290000000000000E-002    1.115101989132264E-026
 -2.280000000000000E-002    1.586127213788001E-026
 -2.270000000000000E-002    2.032871013395640E-026
 -2.260000000000000E-002    2.389984484782539E-026
 -2.250000000000000E-002    2.580434064333545E-026
 -2.240000000000000E-002    2.521468118281103E-026
 -2.230000000000000E-002    2.133415716269488E-026
 -2.220000000000000E-002    1.351109961418596E-026
 -2.210000000000000E-002    1.372897914626523E-027
 -2.200000000000000E-002   -1.503159856631892E-026
 -2.190000000000000E-002   -3.509777319085463E-026
 -2.180000000000000E-002   -5.756001368065271E-026
 -2.170000000000000E-002   -8.043961540310939E-026
 -2.160000000000000E-002   -1.010704894961003E-025
 -2.150000000000000E-002   -1.162247995555912E-025
 -2.140000000000000E-002   -1.223538021363256E-025
 -2.130000000000000E-002   -1.159480734598566E-025
 -2.120000000000000E-002   -9.400573494843172E-026
 -2.110000000000000E-002   -5.457821938717920E-026
 -2.100000000000000E-002    2.657570136225304E-027
 -2.090000000000000E-002    7.587198829437008E-026
 -2.080000000000000E-002    1.606874694960754E-025
 -2.070000000000000E-002    2.500109775510156E-025
 -2.060000000000000E-002    3.341860335811490E-025
 -2.050000000000000E-002    4.015384130486332E-025
 -2.040000000000000E-002    4.393547233645786E-025
 -2.030000000000000E-002    4.352818057380081E-025
 -2.020000000000000E-002    3.790702241010696E-025
 -2.010000000000000E-002    2.645119343270755E-025
 -2.000000000000000E-002    9.135106448076014E-026
 -1.990000000000000E-002   -1.331128801661310E-025
 -1.980000000000000E-002   -3.930435906390655E-025
 -1.970000000000000E-002   -6.640181624365143E-025
 -1.960000000000000E-002   -9.141664327550016E-025
 -1.950000000000000E-002   -1.106650848964676E-024
 -1.940000000000000E-002   -1.203479553591467E-024
 -1.930000000000000E-002   -1.170446373337970E-024
 -1.920000000000000E-002   -9.827704307204883E-025
 -1.910000000000000E-002   -6.307940097927036E-025
 -1.900000000000000E-002   -1.249284444218807E-025
 -1.890000000000000E-002    5.010523030189611E-025
 -1.880000000000000E-002    1.189243328079407E-024
 -1.870000000000000E-002    1.860072624448099E-024
 -1.860000000000000E-002    2.418389295366264E-024
 -1.850000000000000E-002    2.763121022137094E-024
 -1.840000000000000E-002    2.799903060626989E-024
 -1.830000000000000E-002    2.455509965658712E-024
 -1.820000000000000E-002    1.692406435437775E-024
 -1.810000000000000E-002    5.213616546860856E-025
 -1.800000000000000E-002   -9.900532634507069E-025
 -1.790000000000000E-002   -2.715088402279019E-024
 -1.780000000000000E-002   -4.473033883292493E-024
 -1.770000000000000E-002   -6.042664479134452E-024
 -1.760000000000000E-002   -7.183431341908268E-024
 -1.750000000000000E-002   -7.662705505426481E-024
 -1.740000000000000E-002   -7.286217594602907E-024
 -1.730000000000000E-002   -5.927939336965763E-024
 -1.720000000000000E-002   -3.555221248596581E-024
 -1.710000000000000E-002   -2.451768822869437E-025
 -1.700000000000000E-002    3.810842098669857E-024
 -1.690000000000000E-002    8.316343278692591E-024
 -1.680000000000000E-002    1.289206453014173E-023
 -1.670000000000000E-002    1.710917351817462E-023
 -1.660000000000000E-002    2.052893047282462E-023
 -1.650000000000000E-002    2.274307086796055E-023
 -1.640000000000000E-002    2.340884659441227E-023
 -1.630000000000000E-002    2.227344911524550E-023
 -1.620000000000000E-002    1.918466165702716E-023
 -1.610000000000000E-002    1.408765420669600E-023
 -1.600000000000000E-002    7.011462920630761E-024
 -1.590000000000000E-002   -1.947862276237333E-024
 -1.580000000000000E-002   -1.263815517672456E-023
 -1.570000000000000E-002   -2.484625260748539E-023
 -1.560000000000000E-002   -3.826965868103820E-023
 -1.550000000000000E-002   -5.246190347529646E-023
 -1.540000000000000E-002   -6.675604918181592E-023
 -1.530000000000000E-002   -8.017972622964219E-023
 -1.520000000000000E-002   -9.138381859838742E-023
 -1.510000000000000E-002   -9.861363088355116E-023
 -1.500000000000000E-002   -9.975394557363637E-023
 -1.490000000000000E-002   -9.247548881606500E-023
 -1.480000000000000E-002   -7.449926994314600E-023
 -1.470000000000000E-002   -4.397646066091432E-023
 -1.460000000000000E-002    4.309611195525146E-026
 -1.450000000000000E-002    5.710842476769251E-023
 -1.440000000000000E-002    1.249115422597366E-022
 -1.430000000000000E-002    1.989773406151821E-022
 -1.420000000000000E-002    2.726038617136353E-022
 -1.410000000000000E-002    3.371452385096263E-022
 -1.400000000000000E-002    3.826958047518453E-022
 -1.390000000000000E-002    3.991803462742921E-022
 -1.380000000000000E-002    3.777846042048402E-022
 -1.370000000000000E-002    3.125823305550303E-022
 -1.360000000000000E-002    2.021408567376443E-022
 -1.350000000000000E-002    5.083223518693963E-023
 -1.340000000000000E-002   -1.304452849146704E-022
 -1.330000000000000E-002   -3.244058141947194E-022
 -1.320000000000000E-002   -5.085677864978967E-022
 -1.310000000000000E-002   -6.575612531018107E-022
 -1.300000000000000E-002   -7.464397293244110E-022
 -1.290000000000000E-002   -7.546872452936774E-022
 -1.280000000000000E-002   -6.704215690541921E-022
 -1.270000000000000E-002   -4.941413357445946E-022
 -1.260000000000000E-002   -2.412883601156146E-022
 -1.250000000000000E-002    5.707372778507234E-023
 -1.240000000000000E-002    3.560108741518210E-022
 -1.230000000000000E-002    6.011675172411081E-022
 -1.220000000000000E-002    7.357921391366524E-022
 -1.210000000000000E-002    7.097702590224670E-022
 -1.200000000000000E-002    4.896393166268713E-022
 -1.190000000000000E-002    6.817734344651333E-023
 -1.180000000000000E-002   -5.280754505597627E-022
 -1.170000000000000E-002   -1.235019470367699E-021
 -1.160000000000000E-002   -1.952330868788573E-021
 -1.150000000000000E-002   -2.550811157918009E-021
 -1.140000000000000E-002   -2.885871646768343E-021
 -1.130000000000000E-002   -2.816334690459393E-021
 -1.120000000000000E-002   -2.226762437767860E-021
 -1.110000000000000E-002   -1.050644432817427E-021
 -1.100000000000000E-002    7.088401965920417E-022
 -1.090000000000000E-002    2.963988814660644E-021
 -1.080000000000000E-002    5.536891309035792E-021
 -1.070000000000000E-002    8.165308455696174E-021
 -1.060000000000000E-002    1.052121628485968E-020
 -1.050000000000000E-002    1.224146770035263E-020
 -1.040000000000000E-002    1.296820500187169E-020
 -1.030000000000000E-002    1.239495240527341E-020
 -1.020000000000000E-002    1.031300103361578E-020
 -1.010000000000000E-002    6.651998049708223E-021
 -1.000000000000000E-002    1.508770525767706E-021
 -9.899999999999999E-003   -4.840572702224094E-021
 -9.800000000000000E-003   -1.194843093387500E-020
 -9.699999999999999E-003   -1.922413133973409E-020
 -9.599999999999999E-003   -2.598102917479145E-020
 -9.500000000000000E-003   -3.149776069822790E-020
 -9.399999999999999E-003   -3.508709608329898E-020
 -9.299999999999999E-003   -3.616469796304531E-020
 -9.200000000000000E-003   -3.431008014032277E-020
 -9.099999999999999E-003   -2.931324802511972E-020
 -8.999999999999999E-003   -2.120264989395779E-020
 -8.900000000000000E-003   -1.025289209883354E-020
 -8.799999999999999E-003    3.026400850322906E-021
 -8.699999999999999E-003    1.791676633678061E-020
 -8.600000000000000E-003    3.352686086050974E-020
 -8.499999999999999E-003    4.883288519319326E-020
 -8.399999999999999E-003    6.271963511412774E-020
 -8.300000000000000E-003    7.402095670696336E-020
 -8.199999999999999E-003    8.156188739841700E-020
 -8.100000000000000E-003    8.420778512186833E-020
 -8.000000000000000E-003    8.092794553352377E-020
 -7.899999999999999E-003    7.088095949469557E-020
 -7.800000000000000E-003    5.352632134538411E-020
 -7.699999999999999E-003    2.876084809226837E-020
 -7.599999999999999E-003   -2.929715582274162E-021
 -7.499999999999999E-003   -4.032330338150047E-020
 -7.399999999999999E-003   -8.134684033264602E-020
 -7.299999999999999E-003   -1.230293097531006E-019
 -7.199999999999999E-003   -1.615591606109257E-019
 -7.100000000000000E-003   -1.924774017292987E-019
 -6.999999999999999E-003   -2.110244825379346E-019
 -6.899999999999999E-003   -2.126382814955256E-019
 -6.800000000000000E-003   -1.935737163803097E-019
 -6.699999999999999E-003   -1.515848931032403E-019
 -6.599999999999999E-003   -8.658331155655568E-020
 -6.499999999999999E-003   -1.165513337253079E-021
 -6.399999999999999E-003    9.910370268379143E-020
 -6.299999999999999E-003    2.057564673608248E-019
 -6.199999999999999E-003    3.079096320074768E-019
 -6.100000000000000E-003    3.932003052245283E-019
 -5.999999999999999E-003    4.491295126573588E-019
 -5.899999999999999E-003    4.647015756952688E-019
 -5.800000000000000E-003    4.321755865814942E-019
 -5.699999999999999E-003    3.486885776151336E-019
 -5.599999999999999E-003    2.174792020352432E-019
 -5.499999999999999E-003    4.844690651682866E-020
 -5.399999999999999E-003   -1.421679798544477E-019
 -5.299999999999999E-003   -3.331041928339403E-019
 -5.199999999999999E-003   -5.003874640761909E-019
 -5.099999999999999E-003   -6.204574013040642E-019
 -4.999999999999999E-003   -6.737817148126247E-019
 -4.899999999999999E-003   -6.484856293510499E-019
 -4.799999999999999E-003   -5.434278776654368E-019
 -4.699999999999999E-003   -3.701305489187963E-019
 -4.599999999999999E-003   -1.530335630313071E-019
 -4.499999999999999E-003    7.229836051984616E-020
 -4.399999999999999E-003    2.631399116238854E-019
 -4.299999999999999E-003    3.755522511523142E-019
 -4.199999999999999E-003    3.717776803136083E-019
 -4.099999999999999E-003    2.282126595005784E-019
 -3.999999999999999E-003   -5.716941650705663E-020
 -3.899999999999999E-003   -4.592254881682792E-019
 -3.799999999999999E-003   -9.231398228256275E-019
 -3.699999999999999E-003   -1.366064110685556E-018
 -3.599999999999999E-003   -1.683558182469358E-018
 -3.499999999999999E-003   -1.760911960910580E-018
 -3.399999999999999E-003   -1.488745520692692E-018
 -3.299999999999999E-003   -7.815484280149852E-019
 -3.199999999999999E-003    4.028640184569396E-019
 -3.099999999999999E-003    2.045521016714565E-018
 -2.999999999999999E-003    4.052921680119766E-018
 -2.899999999999999E-003    6.250876377180599E-018
 -2.799999999999999E-003    8.387908418345023E-018
 -2.699999999999999E-003    1.014973319400253E-017
 -2.599999999999999E-003    1.118519362192381E-017
 -2.499999999999999E-003    1.114264646525816E-017
 -2.399999999999999E-003    9.714291633603154E-018
 -2.299999999999999E-003    6.684529446338850E-018
 -2.199999999999999E-003    1.977251214038496E-018
 -2.099999999999999E-003   -4.303764425924253E-018
 -1.999999999999999E-003   -1.184735582454024E-017
 -1.899999999999999E-003   -2.012587777083550E-017
 -1.799999999999999E-003   -2.840878602185759E-017
 -1.699999999999999E-003   -3.580134846687042E-017
 -1.599999999999999E-003   -4.130852857046813E-017
 -1.499999999999999E-003   -4.392138650689303E-017
 -1.399999999999999E-003   -4.272054329068881E-017
 -1.299999999999999E-003   -3.698867556814504E-017
 -1.199999999999999E-003   -2.632194107575780E-017
 -1.099999999999999E-003   -1.072890236717318E-017
 -9.999999999999989E-004    9.294792642577252E-018
 -8.999999999999990E-004    3.272699627916090E-017
 -7.999999999999990E-004    5.802394214175664E-017
 -6.999999999999989E-004    8.317556804256564E-017
 -5.999999999999990E-004    1.058134487538756E-016
 -4.999999999999989E-004    1.233690646211511E-016
 -3.999999999999989E-004    1.332752835918202E-016
 -2.999999999999989E-004    1.331992101474250E-016
 -1.999999999999989E-004    1.212903395555457E-016
 -9.999999999999892E-005    9.642458743441060E-017
  1.084202172485504E-018    5.842268415950635E-017
  1.000000000000011E-004    8.220686707398688E-018
  2.000000000000011E-004   -5.202839236676694E-017
  3.000000000000011E-004   -1.189401767484156E-016
  4.000000000000011E-004   -1.879853479822643E-016
  5.000000000000011E-004   -2.536844445321960E-016
  6.000000000000011E-004   -3.099109453180413E-016
  7.000000000000011E-004   -3.502942500067094E-016
  8.000000000000011E-004   -3.687050876678923E-016
  9.000000000000012E-004   -3.597971401828054E-016
  1.000000000000001E-003   -3.195706956290527E-016
  1.100000000000001E-003   -2.459170245698168E-016
  1.200000000000001E-003   -1.390981054576103E-016
  1.300000000000001E-003   -2.113991374612527E-018
  1.400000000000001E-003    1.590884904499207E-016
  1.500000000000001E-003    3.356069867680845E-016
  1.600000000000001E-003    5.158071590915255E-016
  1.700000000000001E-003    6.857983766911120E-016
  1.800000000000001E-003    8.301650359067046E-016
  1.900000000000001E-003    9.329377829526036E-016
  2.000000000000001E-003    9.787679619582270E-016
  2.100000000000001E-003    9.542469608278125E-016
  2.200000000000001E-003    8.492909643198078E-016
  2.300000000000001E-003    6.584940810349487E-016
  2.400000000000001E-003    3.823383633802257E-016
  2.500000000000001E-003    2.814279691977135E-017
  2.600000000000001E-003   -3.893666898356339E-016
  2.700000000000001E-003   -8.479739208916967E-016
  2.800000000000001E-003   -1.318463319964242E-015
  2.900000000000001E-003   -1.765742846809241E-015
  3.000000000000001E-003   -2.150616707906610E-015
  3.100000000000001E-003   -2.432177847237549E-015
  3.200000000000001E-003   -2.570736320029153E-015
  3.300000000000001E-003   -2.531144323868446E-015
  3.400000000000001E-003   -2.286322848551539E-015
  3.500000000000001E-003   -1.820747252535070E-015
  3.600000000000001E-003   -1.133610397603918E-015
  3.700000000000001E-003   -2.413597389462415E-016
  3.800000000000001E-003    8.206974544416275E-016
  3.900000000000001E-003    1.998004982104118E-015
  4.000000000000001E-003    3.217821376388102E-015
  4.100000000000001E-003    4.391898283022064E-015
  4.200000000000001E-003    5.420833647404956E-015
  4.300000000000001E-003    6.200039731317808E-015
  4.400000000000001E-003    6.627122341467870E-015
  4.500000000000001E-003    6.610323809682157E-015
  4.600000000000002E-003    6.077533485487661E-015
  4.700000000000001E-003    4.985243342528516E-015
  4.800000000000001E-003    3.326718495010439E-015
  4.900000000000002E-003    1.138597901554919E-015
  5.000000000000001E-003   -1.494871572935232E-015
  5.100000000000001E-003   -4.440703372946048E-015
  5.200000000000001E-003   -7.519750769452816E-015
  5.300000000000002E-003   -1.051340432686030E-014
  5.400000000000001E-003   -1.317454640001963E-014
  5.500000000000001E-003   -1.524257540586912E-014
  5.600000000000002E-003   -1.646194175685388E-014
  5.700000000000001E-003   -1.660326566771893E-014
  5.800000000000001E-003   -1.548572729559479E-014
  5.900000000000002E-003   -1.299911604578503E-014
  6.000000000000001E-003   -9.123681103702812E-015
  6.100000000000001E-003   -3.945817310116809E-015
  6.200000000000002E-003    2.332352569709653E-015
  6.300000000000002E-003    9.391233316159937E-015
  6.400000000000001E-003    1.680120422807405E-014
  6.500000000000001E-003    2.404006844800792E-014
  6.600000000000002E-003    3.052058413199557E-014
  6.700000000000001E-003    3.562737076581630E-014
  6.800000000000001E-003    3.876155648035386E-014
  6.900000000000002E-003    3.939067408750127E-014
  7.000000000000001E-003    3.710052403401964E-014
  7.100000000000001E-003    3.164503784369286E-014
  7.200000000000002E-003    2.298982176731513E-014
  7.300000000000002E-003    1.134493547884887E-014
  7.400000000000001E-003   -2.817255895356836E-015
  7.500000000000001E-003   -1.876267198256171E-014
  7.600000000000002E-003   -3.551703106831873E-014
  7.700000000000001E-003   -5.190938640184157E-014
  7.800000000000001E-003   -6.663713047755641E-014
  7.900000000000001E-003   -7.835008433625630E-014
  8.000000000000002E-003   -8.574943139812545E-014
  8.100000000000001E-003   -8.769550016065220E-014
  8.200000000000001E-003   -8.331694655465873E-014
  8.300000000000002E-003   -7.211281368054953E-014
  8.400000000000001E-003   -5.403851584264424E-014
  8.500000000000002E-003   -2.956696315556769E-014
  8.600000000000002E-003    2.830013807287618E-016
  8.700000000000001E-003    3.395699678244577E-014
  8.800000000000002E-003    6.941813032270013E-014
  8.900000000000002E-003    1.042434923517897E-013
  9.000000000000001E-003    1.357616574285729E-013
  9.100000000000002E-003    1.612252353682344E-013
  9.200000000000002E-003    1.780091287337663E-013
  9.300000000000001E-003    1.838221085624455E-013
  9.400000000000002E-003    1.769170920495127E-013
  9.500000000000001E-003    1.562839032477182E-013
  9.600000000000001E-003    1.218080384044301E-013
  9.700000000000002E-003    7.437987092632905E-014
  9.800000000000001E-003    1.594089458632425E-014
  9.900000000000001E-003   -5.054304683188106E-014
  1.000000000000000E-002   -1.211870148923765E-013
  1.010000000000000E-002   -1.913709351088025E-013
  1.020000000000000E-002   -2.559966469088009E-013
  1.030000000000000E-002   -3.098064992185253E-013
  1.040000000000000E-002   -3.477462156975546E-013
  1.050000000000000E-002   -3.653502196072046E-013
  1.060000000000000E-002   -3.591234592515275E-013
  1.070000000000000E-002   -3.268921819952395E-013
  1.080000000000000E-002   -2.680952894642947E-013
  1.090000000000000E-002   -1.839899174586571E-013
  1.100000000000000E-002   -7.774856090366464E-014
  1.110000000000000E-002    4.556953631408127E-014
  1.120000000000000E-002    1.791824291276106E-013
  1.130000000000000E-002    3.148862567140343E-013
  1.140000000000000E-002    4.434844930471039E-013
  1.150000000000000E-002    5.553278491216181E-013
  1.160000000000000E-002    6.409378803796876E-013
  1.170000000000000E-002    6.916787697145896E-013
  1.180000000000000E-002    7.004361039637088E-013
  1.190000000000000E-002    6.622562110035665E-013
  1.200000000000000E-002    5.748992428648707E-013
  1.210000000000000E-002    4.392600233527077E-013
  1.220000000000000E-002    2.596159427059597E-013
  1.230000000000000E-002    4.366871337237491E-014
  1.240000000000000E-002   -1.976419786874337E-013
  1.250000000000000E-002   -4.505619409564467E-013
  1.260000000000000E-002   -6.991769263844791E-013
  1.270000000000000E-002   -9.262758253410745E-013
  1.280000000000000E-002   -1.114384886213710E-012
  1.290000000000000E-002   -1.246919485248473E-012
  1.300000000000000E-002   -1.309388068886681E-012
  1.310000000000000E-002   -1.290572083205652E-012
  1.320000000000000E-002   -1.183601288885756E-012
  1.330000000000000E-002   -9.868418598911589E-013
  1.340000000000000E-002   -7.045198375197455E-013
  1.350000000000000E-002   -3.470123322807926E-013
  1.360000000000000E-002    6.924548272628621E-014
  1.370000000000000E-002    5.222690652635832E-013
  1.380000000000000E-002    9.854558399227174E-013
  1.390000000000000E-002    1.428917857106682E-012
  1.400000000000000E-002    1.821166315941586E-012
  1.410000000000000E-002    2.131068652331361E-012
  1.420000000000000E-002    2.329973538176546E-012
  1.430000000000000E-002    2.393876903896106E-012
  1.440000000000000E-002    2.305486177198488E-012
  1.450000000000000E-002    2.056032063946146E-012
  1.460000000000000E-002    1.646681531926554E-012
  1.470000000000000E-002    1.089414383804869E-012
  1.480000000000000E-002    4.072525883029701E-013
  1.490000000000000E-002   -3.662380643657561E-013
  1.500000000000000E-002   -1.188210458706160E-012
  1.510000000000000E-002   -2.008550723555739E-012
  1.520000000000000E-002   -2.772579334282633E-012
  1.530000000000000E-002   -3.424319441055987E-012
  1.540000000000000E-002   -3.910160768693225E-012
  1.550000000000000E-002   -4.182704637413041E-012
  1.560000000000000E-002   -4.204540429737467E-012
  1.570000000000000E-002   -3.951686472032203E-012
  1.580000000000000E-002   -3.416425157354386E-012
  1.590000000000000E-002   -2.609279303098052E-012
  1.600000000000000E-002   -1.559915286585144E-012
  1.610000000000000E-002   -3.168122723872811E-013
  1.620000000000000E-002    1.054388935406958E-012
  1.630000000000000E-002    2.473858726792494E-012
  1.640000000000000E-002    3.851781546253395E-012
  1.650000000000000E-002    5.093600048311447E-012
  1.660000000000000E-002    6.106024296087409E-012
  1.670000000000000E-002    6.803450338378342E-012
  1.680000000000000E-002    7.114372514496491E-012
  1.690000000000000E-002    6.987344272334616E-012
  1.700000000000000E-002    6.396033791981654E-012
  1.710000000000000E-002    5.342951338049885E-012
  1.720000000000000E-002    3.861487010832631E-012
  1.730000000000000E-002    2.015989695672500E-012
  1.740000000000000E-002   -1.002649276288910E-013
  1.750000000000000E-002   -2.369228291554284E-012
  1.760000000000000E-002   -4.654218161596845E-012
  1.770000000000000E-002   -6.807755755317478E-012
  1.780000000000000E-002   -8.680675790328456E-012
  1.790000000000000E-002   -1.013196279318570E-011
  1.800000000000000E-002   -1.103868480033218E-011
  1.810000000000000E-002   -1.130534588252828E-011
  1.820000000000000E-002   -1.087197832378288E-011
  1.830000000000000E-002   -9.720346254764480E-012
  1.840000000000000E-002   -7.877722894555598E-012
  1.850000000000000E-002   -5.417842887367442E-012
  1.860000000000000E-002   -2.458812066592529E-012
  1.870000000000000E-002    8.420549789176591E-013