 -4.000000000000000E-002    0.000000000000000E+000
 -3.990000000000000E-002    5.387584097341582E-008
 -3.980000000000000E-002    1.613517086702977E-007
 -3.970000000000000E-002    3.186390688475814E-007
 -3.960000000000000E-002    5.190527984458182E-007
 -3.950000000000000E-002    7.539598334287377E-007
 -3.940000000000000E-002    1.013937259616444E-006
 -3.930000000000000E-002    1.289989629392383E-006
 -3.920000000000000E-002    1.574667209880847E-006
 -3.910000000000000E-002    1.862940262314116E-006
 -3.900000000000000E-002    2.152713473627081E-006
 -3.890000000000000E-002    2.444913642651364E-006
 -3.880000000000000E-002    2.743134577997766E-006
 -3.870000000000000E-002    3.052884607971744E-006
 -3.860000000000000E-002    3.380531281588437E-006
 -3.850000000000000E-002    3.732079976346126E-006
 -3.840000000000000E-002    4.111944109239912E-006
 -3.830000000000000E-002    4.521872148313011E-006
 -3.820000000000000E-002    4.960174952144176E-006
 -3.810000000000000E-002    5.421360012731689E-006
 -3.800000000000000E-002    5.896232116314403E-006
 -3.790000000000000E-002    6.372457846338911E-006
 -3.780000000000000E-002    6.835530258757749E-006
 -3.770000000000000E-002    7.270017627074040E-006
 -3.760000000000000E-002    7.660942259471675E-006
 -3.750000000000000E-002    7.995107719063779E-006
 -3.740000000000000E-002    8.262211060431078E-006
 -3.730000000000000E-002    8.455572980759430E-006
 -3.720000000000000E-002    8.572384892984770E-006
 -3.710000000000000E-002    8.613431177926507E-006
 -3.700000000000000E-002    8.582290664970202E-006
 -3.690000000000000E-002    8.484096727351591E-006
 -3.680000000000000E-002    8.324021851621441E-006
 -3.670000000000000E-002    8.105628271374763E-006
 -3.660000000000000E-002    7.829313450778294E-006
 -3.650000000000000E-002    7.491038722882787E-006
 -3.640000000000000E-002    7.081505402491445E-006
 -3.630000000000000E-002    6.585897586669547E-006
 -3.620000000000000E-002    5.984245434590927E-006
 -3.610000000000000E-002    5.252358422161228E-006
 -3.600000000000000E-002    4.363289840224159E-006
 -3.590000000000000E-002    3.289101206924858E-006
 -3.580000000000000E-002    2.002779043552841E-006
 -3.570000000000000E-002    4.800364668123683E-007
 -3.560000000000000E-002   -1.299198236792733E-006
 -3.550000000000000E-002   -3.349807913424782E-006
 -3.540000000000000E-002   -5.681139247855919E-006
 -3.530000000000000E-002   -8.297353156111123E-006
 -3.520000000000000E-002   -1.119848909463459E-005
 -3.510000000000000E-002   -1.438204728740434E-005
 -3.500000000000000E-002   -1.784498883212238E-005
 -3.490000000000000E-002   -2.158592063142779E-005
 -3.480000000000000E-002   -2.560717829846158E-005
 -3.470000000000000E-002   -2.991655006155210E-005
 -3.460000000000000E-002   -3.452853789632552E-005
 -3.450000000000000E-002   -3.946485359449942E-005
 -3.440000000000000E-002   -4.475417718456570E-005
 -3.430000000000000E-002   -5.043119931665512E-005
 -3.420000000000000E-002   -5.653496641065071E-005
 -3.410000000000000E-002   -6.310680278118525E-005
 -3.400000000000000E-002   -7.018802771389738E-005
 -3.390000000000000E-002   -7.781775437925391E-005
 -3.380000000000000E-002   -8.603094390297339E-005
 -3.370000000000000E-002   -9.485712664105390E-005
 -3.360000000000000E-002   -1.043198429493705E-004
 -3.350000000000000E-002   -1.144368424082616E-004
 -3.340000000000000E-002   -1.252212412800522E-004
 -3.330000000000000E-002   -1.366833348347337E-004
 -3.320000000000000E-002   -1.488329670672894E-004
 -3.310000000000000E-002   -1.616823231063695E-004
 -3.300000000000000E-002   -1.752484821550506E-004
 -3.290000000000000E-002   -1.895559964162494E-004
 -3.280000000000000E-002   -2.046386540937841E-004
 -3.270000000000000E-002   -2.205406898843994E-004
 -3.260000000000000E-002   -2.373171338656483E-004
 -3.250000000000000E-002   -2.550331235454493E-004
 -3.240000000000000E-002   -2.737625322717636E-004
 -3.230000000000000E-002   -2.935860799990217E-004
 -3.220000000000000E-002   -3.145888362098362E-004
 -3.210000000000000E-002   -3.368578322891075E-004
 -3.200000000000000E-002   -3.604798045272164E-004
 -3.190000000000000E-002   -3.855395754049775E-004
 -3.180000000000000E-002   -4.121189387736358E-004
 -3.170000000000000E-002   -4.402966759968128E-004
 -3.160000000000000E-002   -4.701491932244566E-004
 -3.150000000000000E-002   -5.017523862983938E-004
 -3.140000000000000E-002   -5.351838001242975E-004
 -3.130000000000000E-002   -5.705256630924554E-004
 -3.120000000000000E-002   -6.078676284816967E-004
 -3.110000000000000E-002   -6.473097942655056E-004
 -3.100000000000000E-002   -6.889649163474272E-004
 -3.090000000000000E-002   -7.329602860567626E-004
 -3.080000000000000E-002   -7.794383405764883E-004
 -3.070000000000000E-002   -8.285569151407886E-004
 -3.060000000000000E-002   -8.804878725844039E-004
 -3.050000000000000E-002   -9.354154287624597E-004
 -3.040000000000000E-002   -9.935342828632596E-004
 -3.030000000000000E-002   -1.055046351505274E-003
 -3.020000000000000E-002   -1.120158823487819E-003
 -3.010000000000000E-002   -1.189081917831966E-003
 -3.000000000000000E-002   -1.262027589191998E-003
 -2.990000000000000E-002   -1.339209108075364E-003
 -2.980000000000000E-002   -1.420840954611809E-003
 -2.970000000000000E-002   -1.507140687136776E-003
 -2.960000000000000E-002   -1.598331265828785E-003
 -2.950000000000000E-002   -1.694643217465492E-003
 -2.940000000000000E-002   -1.796318570825870E-003
 -2.930000000000000E-002   -1.903614153894728E-003
 -2.920000000000000E-002   -2.016804028665920E-003
 -2.910000000000000E-002   -2.136182358052212E-003
 -2.900000000000000E-002   -2.262065293291204E-003
 -2.890000000000000E-002   -2.394791358180150E-003
 -2.880000000000000E-002   -2.534721409343047E-003
 -2.870000000000000E-002   -2.682237727349123E-003
 -2.860000000000000E-002   -2.837741832119489E-003
 -2.850000000000000E-002   -3.001652808476238E-003
 -2.840000000000000E-002   -3.174404715859635E-003
 -2.830000000000000E-002   -3.356444692181024E-003
 -2.820000000000000E-002   -3.548231531068969E-003
 -2.810000000000000E-002   -3.750234629457527E-003
 -2.800000000000000E-002   -3.962934025236686E-003
 -2.790000000000000E-002   -4.186822077070884E-003
 -2.780000000000000E-002   -4.422406048996505E-003
 -2.770000000000000E-002   -4.670209415882871E-003
 -2.760000000000000E-002   -4.930777579502591E-003
 -2.750000000000000E-002   -5.204679867672879E-003
 -2.740000000000000E-002   -5.492514064726226E-003
 -2.730000000000000E-002   -5.794908669703238E-003
 -2.720000000000000E-002   -6.112526849462886E-003
 -2.710000000000000E-002   -6.446068081909197E-003
 -2.700000000000000E-002   -6.796267164267879E-003
 -2.690000000000000E-002   -7.163894825203334E-003
 -2.680000000000000E-002   -7.549756347803423E-003
 -2.670000000000000E-002   -7.954690925489435E-003
 -2.660000000000000E-002   -8.379567447378805E-003
 -2.650000000000000E-002   -8.825284341933942E-003
 -2.640000000000000E-002   -9.292765936249964E-003
 -2.630000000000000E-002   -9.782963734133990E-003
 -2.620000000000000E-002   -1.029685452995803E-002
 -2.610000000000000E-002   -1.083544080984867E-002
 -2.600000000000000E-002   -1.139975615481834E-002
 -2.590000000000000E-002   -1.199086484913358E-002
 -2.580000000000000E-002   -1.260986692726061E-002
 -2.570000000000000E-002   -1.325790089941038E-002
 -2.560000000000000E-002   -1.393615191477632E-002
 -2.550000000000000E-002   -1.464584881893649E-002
 -2.540000000000000E-002   -1.538827597178145E-002
 -2.530000000000000E-002   -1.616476687811069E-002
 -2.520000000000000E-002   -1.697671598210169E-002
 -2.510000000000000E-002   -1.782556951143603E-002
 -2.500000000000000E-002   -1.871283003416753E-002
 -2.490000000000000E-002   -1.964005297021445E-002
 -2.480000000000000E-002   -2.060884433648251E-002
 -2.470000000000000E-002   -2.162086410784281E-002
 -2.460000000000000E-002   -2.267781656323512E-002
 -2.450000000000000E-002   -2.378145324834854E-002
 -2.440000000000000E-002   -2.493357099678537E-002
 -2.430000000000000E-002   -2.613600855860452E-002
 -2.420000000000000E-002   -2.739065961368715E-002
 -2.410000000000000E-002   -2.869946158679924E-002
 -2.400000000000000E-002   -3.006440764043776E-002
 -2.390000000000000E-002   -3.148754388580994E-002
 -2.380000000000000E-002   -3.297098302684367E-002
 -2.370000000000000E-002   -3.451689644595427E-002
 -2.360000000000000E-002   -3.612752916143372E-002
 -2.350000000000000E-002   -3.780519781063335E-002
 -2.340000000000000E-002   -3.955228057102237E-002
 -2.330000000000000E-002   -4.137124500151006E-002
 -2.320000000000000E-002   -4.326462591750339E-002
 -2.310000000000000E-002   -4.523502499393368E-002
 -2.300000000000000E-002   -4.728511934878084E-002
 -2.290000000000000E-002   -4.941765327774440E-002
 -2.280000000000000E-002   -5.163543874885826E-002
 -2.270000000000000E-002   -5.394133949346897E-002
 -2.260000000000000E-002   -5.633829235703203E-002
 -2.250000000000000E-002   -5.882928553205462E-002
 -2.240000000000000E-002   -6.141737096960918E-002
 -2.230000000000000E-002   -6.410565762322953E-002
 -2.220000000000000E-002   -6.689732483205903E-002
 -2.210000000000000E-002   -6.979561035677900E-002
 -2.200000000000000E-002   -7.280382729068031E-002
 -2.190000000000000E-002   -7.592535328023264E-002
 -2.180000000000000E-002   -7.916365486488325E-002
 -2.170000000000000E-002   -8.252226312776097E-002
 -2.160000000000000E-002   -8.600479049203597E-002
 -2.150000000000000E-002   -8.961493797632165E-002
 -2.140000000000000E-002   -9.335648238726760E-002
 -2.130000000000000E-002   -9.723327203647214E-002
 -2.120000000000000E-002   -0.101249241637769     
 -2.110000000000000E-002   -0.105408391089947     
 -2.100000000000000E-002   -0.109714789988844     
 -2.090000000000000E-002   -0.114172568316464     
 -2.080000000000000E-002   -0.118785914040646     
 -2.070000000000000E-002   -0.123559081270387     
 -2.060000000000000E-002   -0.128496369878049     
 -2.050000000000000E-002   -0.133602120428610     
 -2.040000000000000E-002   -0.138880749139373     
 -2.030000000000000E-002   -0.144336703740574     
 -2.020000000000000E-002   -0.149974493566666     
 -2.010000000000000E-002   -0.155798672055960     
 -2.000000000000000E-002   -0.161813839978540     
 -1.990000000000000E-002   -0.168024666764935     
 -1.980000000000000E-002   -0.174435868545444     
 -1.970000000000000E-002   -0.181052207157664     
 -1.960000000000000E-002   -0.187878494491005     
 -1.950000000000000E-002   -0.194919602664507     
 -1.940000000000000E-002   -0.202180426356304     
 -1.930000000000000E-002   -0.209665897877529     
 -1.920000000000000E-002   -0.217380993209924     
 -1.910000000000000E-002   -0.225330713915762     
 -1.900000000000000E-002   -0.233520050978670     
 -1.890000000000000E-002   -0.241953995610353     
 -1.880000000000000E-002   -0.250637576787796     
 -1.870000000000000E-002   -0.259575805628719     
 -1.860000000000000E-002   -0.268773657536483     
 -1.850000000000000E-002   -0.278236138134651     
 -1.840000000000000E-002   -0.287968194216964     
 -1.830000000000000E-002   -0.297974757454028     
 -1.820000000000000E-002   -0.308260738131795     
 -1.810000000000000E-002   -0.318831035486966     
 -1.800000000000000E-002   -0.329690480207005     
 -1.790000000000000E-002   -0.340843878657311     
 -1.780000000000000E-002   -0.352296007668926     
 -1.770000000000000E-002   -0.364051617131917     
 -1.760000000000000E-002   -0.376115362825633     
 -1.750000000000000E-002   -0.388491859209884     
 -1.740000000000000E-002   -0.401185633116145     
 -1.730000000000000E-002   -0.414201139626810     
 -1.720000000000000E-002   -0.427542758582892     
 -1.710000000000000E-002   -0.441214730289553     
 -1.700000000000000E-002   -0.455221215318937     
 -1.690000000000000E-002   -0.469566215115634     
 -1.680000000000000E-002   -0.484253596076442     
 -1.670000000000000E-002   -0.499287086994651     
 -1.660000000000000E-002   -0.514670257111344     
 -1.650000000000000E-002   -0.530406509889514     
 -1.640000000000000E-002   -0.546499064430779     
 -1.630000000000000E-002   -0.562950992276646     
 -1.620000000000000E-002   -0.579765108657587     
 -1.610000000000000E-002   -0.596944109226238     
 -1.600000000000000E-002   -0.614490488906762     
 -1.590000000000000E-002   -0.632406490667942     
 -1.580000000000000E-002   -0.650694124479715     
 -1.570000000000000E-002   -0.669355231523807     
 -1.560000000000000E-002   -0.688391405392166     
 -1.550000000000000E-002   -0.707803889361323     
 -1.540000000000000E-002   -0.727593783204027     
 -1.530000000000000E-002   -0.747761852525070     
 -1.520000000000000E-002   -0.768308498995252     
 -1.510000000000000E-002   -0.789233947628580     
 -1.500000000000000E-002   -0.810538027497978     
 -1.490000000000000E-002   -0.832220219245013     
 -1.480000000000000E-002   -0.854279621943009     
 -1.470000000000000E-002   -0.876715106235974     
 -1.460000000000000E-002   -0.899525043097934     
 -1.450000000000000E-002   -0.922707432055597     
 -1.440000000000000E-002   -0.946259925815093     
 -1.430000000000000E-002   -0.970179800996110     
 -1.420000000000000E-002   -0.994463840560780     
 -1.410000000000000E-002    -1.01910856856749     
 -1.400000000000000E-002    -1.04410986158570     
 -1.390000000000000E-002    -1.06946336547401     
 -1.380000000000000E-002    -1.09516432558813     
 -1.370000000000000E-002    -1.12120727734304     
 -1.360000000000000E-002    -1.14758648399937     
 -1.350000000000000E-002    -1.17429571862967     
 -1.340000000000000E-002    -1.20132821297744     
 -1.330000000000000E-002    -1.22867672267560     
 -1.320000000000000E-002    -1.25633349559640     
 -1.310000000000000E-002    -1.28429027894018     
 -1.300000000000000E-002    -1.31253818575019     
 -1.290000000000000E-002    -1.34106780305856     
 -1.280000000000000E-002    -1.36986934781040     
 -1.270000000000000E-002    -1.39893218051345     
 -1.260000000000000E-002    -1.42824526412702     
 -1.250000000000000E-002    -1.45779705091043     
 -1.240000000000000E-002    -1.48757528265839     
 -1.230000000000000E-002    -1.51756724720340     
 -1.220000000000000E-002    -1.54775949852124     
 -1.210000000000000E-002    -1.57813810813816     
 -1.200000000000000E-002    -1.60868864001831     
 -1.190000000000000E-002    -1.63939599241877     
 -1.180000000000000E-002    -1.67024447764756     
 -1.170000000000000E-002    -1.70121779805593     
 -1.160000000000000E-002    -1.73229912208225     
 -1.150000000000000E-002    -1.76347099814936     
 -1.140000000000000E-002    -1.79471541064061     
 -1.130000000000000E-002    -1.82601355693825     
 -1.120000000000000E-002    -1.85734625698598     
 -1.110000000000000E-002    -1.88869353311667     
 -1.100000000000000E-002    -1.92003489703788     
 -1.090000000000000E-002    -1.95134925927464     
 -1.080000000000000E-002    -1.98261500563521     
 -1.070000000000000E-002    -2.01380982089264     
 -1.060000000000000E-002    -2.04491075856350     
 -1.050000000000000E-002    -2.07589439156127     
 -1.040000000000000E-002    -2.10673677170844     
 -1.030000000000000E-002    -2.13741336719921     
 -1.020000000000000E-002    -2.16789920649423     
 -1.010000000000000E-002    -2.19816851809643     
 -1.000000000000000E-002    -2.22819545398603     
 -9.899999999999999E-003    -2.25795327600209     
 -9.800000000000000E-003    -2.28741493768772     
 -9.699999999999999E-003    -2.31655280852041     
 -9.599999999999999E-003    -2.34533907380268     
 -9.500000000000000E-003    -2.37374515364893     
 -9.399999999999999E-003    -2.40174214983785     
 -9.299999999999999E-003    -2.42930075947409     
 -9.200000000000000E-003    -2.45639134486405     
 -9.099999999999999E-003    -2.48298360775017     
 -8.999999999999999E-003    -2.50904724932928     
 -8.900000000000000E-003    -2.53455153742150     
 -8.799999999999999E-003    -2.55946512135585     
 -8.699999999999999E-003    -2.58375671253694     
 -8.600000000000000E-003    -2.60739487751231     
 -8.499999999999999E-003    -2.63034752535631     
 -8.399999999999999E-003    -2.65258268829185     
 -8.300000000000000E-003    -2.67406800597452     
 -8.199999999999999E-003    -2.69477133364227     
 -8.100000000000000E-003    -2.71465991988849     
 -8.000000000000000E-003    -2.73370123403503     
 -7.899999999999999E-003    -2.75186281674155     
 -7.800000000000000E-003    -2.76911187849895     
 -7.699999999999999E-003    -2.78541584665177     
 -7.599999999999999E-003    -2.80074219501776     
 -7.499999999999999E-003    -2.81505842599116     
 -7.399999999999999E-003    -2.82833197257631     
 -7.299999999999999E-003    -2.84053063263217     
 -7.199999999999999E-003    -2.85162231174625     
 -7.100000000000000E-003    -2.86157510551555     
 -6.999999999999999E-003    -2.87035736578381     
 -6.899999999999999E-003    -2.87793772471009     
 -6.800000000000000E-003    -2.88428525469600     
 -6.699999999999999E-003    -2.88936911449311     
 -6.599999999999999E-003    -2.89315915588140     
 -6.499999999999999E-003    -2.89562550597256     
 -6.399999999999999E-003    -2.89673890381835     
 -6.299999999999999E-003    -2.89647074701078     
 -6.199999999999999E-003    -2.89479271750184     
 -6.100000000000000E-003    -2.89167729753300     
 -5.999999999999999E-003    -2.88709773699073     
 -5.899999999999999E-003    -2.88102758827667     
 -5.800000000000000E-003    -2.87344133687813     
 -5.699999999999999E-003    -2.86431440739941     
 -5.599999999999999E-003    -2.85362279585999     
 -5.499999999999999E-003    -2.84134350222577     
 -5.399999999999999E-003    -2.82745438598216     
 -5.299999999999999E-003    -2.81193412174896     
 -5.199999999999999E-003    -2.79476240039137     
 -5.099999999999999E-003    -2.77591991566967     
 -4.999999999999999E-003    -2.75538840635405     
 -4.899999999999999E-003    -2.73315075084284     
 -4.799999999999999E-003    -2.70919099891587     
 -4.699999999999999E-003    -2.68349398299279     
 -4.599999999999999E-003    -2.65604622624775     
 -4.499999999999999E-003    -2.62683512581264     
 -4.399999999999999E-003    -2.59584954966561     
 -4.299999999999999E-003    -2.56307965351057     
 -4.199999999999999E-003    -2.52851695546275     
 -4.099999999999999E-003    -2.49215405557032     
 -3.999999999999999E-003    -2.45398513712668     
 -3.899999999999999E-003    -2.41400582670856     
 -3.799999999999999E-003    -2.37221316788969     
 -3.699999999999999E-003    -2.32860573078571     
 -3.599999999999999E-003    -2.28318343342333     
 -3.499999999999999E-003    -2.23594795249325     
 -3.399999999999999E-003    -2.18690218011162     
 -3.299999999999999E-003    -2.13605064638030     
 -3.199999999999999E-003    -2.08339971056298     
 -3.099999999999999E-003    -2.02895693530984     
 -2.999999999999999E-003    -1.97273191682892     
 -2.899999999999999E-003    -1.91473533266046     
 -2.799999999999999E-003    -1.85498001620367     
 -2.699999999999999E-003    -1.79348019882501     
 -2.599999999999999E-003    -1.73025196668807     
 -2.499999999999999E-003    -1.66531273236797     
 -2.399999999999999E-003    -1.59868188419553     
 -2.299999999999999E-003    -1.53038040319661     
 -2.199999999999999E-003    -1.46043092684099     
 -2.099999999999999E-003    -1.38885778022251     
 -1.999999999999999E-003    -1.31568689438498     
 -1.899999999999999E-003    -1.24094594722702     
 -1.799999999999999E-003    -1.16466430222778     
 -1.699999999999999E-003    -1.08687283779142     
 -1.599999999999999E-003    -1.00760422119689     
 -1.499999999999999E-003   -0.926892570965607     
 -1.399999999999999E-003   -0.844773897168133     
 -1.299999999999999E-003   -0.761285383035258     
 -1.199999999999999E-003   -0.676466047896027     
 -1.099999999999999E-003   -0.590356499290222     
 -9.999999999999989E-004   -0.502998733568506     
 -8.999999999999990E-004   -0.414436260745417     
 -7.999999999999990E-004   -0.324714154418773     
 -6.999999999999989E-004   -0.233878833824387     
 -5.999999999999990E-004   -0.141978220838070     
 -4.999999999999989E-004   -4.906161284836949E-002
 -3.999999999999989E-004    4.482043224550963E-002
 -2.999999999999989E-004    0.139616042539174     
 -1.999999999999989E-004    0.235271927443687     
 -9.999999999999892E-005    0.331733682087445     
  1.084202172485504E-018    0.428945736154047     
  1.000000000000011E-004    0.526851283550505     
  2.000000000000011E-004    0.625392575705160     
  3.000000000000011E-004    0.724510730758652     
  4.000000000000011E-004    0.824145910601026     
  5.000000000000011E-004    0.924237289019670     
  6.000000000000011E-004     1.02472325510656     
  7.000000000000011E-004     1.12554124651203     
  8.000000000000011E-004     1.22662805970092     
  9.000000000000012E-004     1.32791976586710     
  1.000000000000001E-003     1.42935181068438     
  1.100000000000001E-003     1.53085888827280     
  1.200000000000001E-003     1.63237535842613     
  1.300000000000001E-003     1.73383486587538     
  1.400000000000001E-003     1.83517082323754     
  1.500000000000001E-003     1.93631619138120     
  1.600000000000001E-003     2.03720394139569     
  1.700000000000001E-003     2.13776627294195     
  1.800000000000001E-003     2.23793564800204     
  1.900000000000001E-003     2.33764436879374     
  2.000000000000001E-003     2.43682474213923     
  2.100000000000001E-003     2.53540901442900     
  2.200000000000001E-003     2.63332956941970     
  2.300000000000001E-003     2.73051917126033     
  2.400000000000001E-003     2.82691076404244     
  2.500000000000001E-003     2.92243745026370     
  2.600000000000001E-003     3.01703317127567     
  2.700000000000001E-003     3.11063199238849     
  2.800000000000001E-003     3.20316850732418     
  2.900000000000001E-003     3.29457803635191     
  3.000000000000001E-003     3.38479659578805     
  3.100000000000001E-003     3.47376105765108     
  3.200000000000001E-003     3.56140865237177     
  3.300000000000001E-003     3.64767783164672     
  3.400000000000001E-003     3.73250800076806     
  3.500000000000001E-003     3.81583935062784     
  3.600000000000001E-003     3.89761315118070     
  3.700000000000001E-003     3.97777211442118     
  3.800000000000001E-003     4.05625978901894     
  3.900000000000001E-003     4.13302112204818     
  4.000000000000001E-003     4.20800226221880     
  4.100000000000001E-003     4.28115099914933     
  4.200000000000001E-003     4.35241623885304     
  4.300000000000001E-003     4.42174860255818     
  4.400000000000001E-003     4.48909991454493     
  4.500000000000001E-003     4.55442386281799     
  4.600000000000002E-003     4.61767588662996     
  4.700000000000001E-003     4.67881269755771     
  4.800000000000001E-003     4.73779320726021     
  4.900000000000002E-003     4.79457716838536     
  5.000000000000001E-003     4.84912735780871     
  5.100000000000001E-003     4.90140734421997     
  5.200000000000001E-003     4.95138299073718     
  5.300000000000002E-003     4.99902230452561     
  5.400000000000001E-003     5.04429498350925     
  5.500000000000001E-003     5.08717256859614     
  5.600000000000002E-003     5.12762896796541     
  5.700000000000001E-003     5.16563947651920     
  5.800000000000001E-003     5.20118228279552     
  5.900000000000002E-003     5.23423685138542     
  6.000000000000001E-003     5.26478501093575     
  6.100000000000001E-003     5.29281074055797     
  6.200000000000002E-003     5.31830021863727     
  6.300000000000002E-003     5.34124168176577     
  6.400000000000001E-003     5.36162536168815     
  6.500000000000001E-003     5.37944385315255     
  6.600000000000002E-003     5.39469174689060     
  6.700000000000001E-003     5.40736550130459     
  6.800000000000001E-003     5.41746410209101     
  6.900000000000002E-003     5.42498852004518     
  7.000000000000001E-003     5.42994212698573     
  7.100000000000001E-003     5.43232963032887     
  7.200000000000002E-003     5.43215860354397     
  7.300000000000002E-003     5.42943880103319     
  7.400000000000001E-003     5.42418102045551     
  7.500000000000001E-003     5.41639925143012     
  7.600000000000002E-003     5.40610850437270     
  7.700000000000001E-003     5.39332648958566     
  7.800000000000001E-003     5.37807273167275     
  7.900000000000001E-003     5.36036848191198     
  8.000000000000002E-003     5.34023722535252     
  8.100000000000001E-003     5.31770424009854     
  8.200000000000001E-003     5.29279618069586     
  8.300000000000002E-003     5.26554226210143     
  8.400000000000001E-003     5.23597321279249     
  8.500000000000002E-003     5.20412115444753     
  8.600000000000002E-003     5.17001978127153     
  8.700000000000001E-003     5.13370522309360     
  8.800000000000002E-003     5.09521463446287     
  8.900000000000002E-003     5.05458680408861     
  9.000000000000001E-003     5.01186229161624     
  9.100000000000002E-003     4.96708257527962     
  9.200000000000002E-003     4.92029099530704     
  9.300000000000001E-003     4.87153156668952     
  9.400000000000002E-003     4.82085042811435     
  9.500000000000001E-003     4.76829447482488     
  9.600000000000001E-003     4.71391180257713     
  9.700000000000002E-003     4.65775183645948     
  9.800000000000001E-003     4.59986467399700     
  9.900000000000001E-003     4.54030154440019     
  1.000000000000000E-002     4.47911490353684     
  1.010000000000000E-002     4.41635778831902     
  1.020000000000000E-002     4.35208465183415     
  1.030000000000000E-002     4.28634962867341     
  1.040000000000000E-002     4.21920848906590     
  1.050000000000000E-002     4.15071730675247     
  1.060000000000000E-002     4.08093286117489     
  1.070000000000000E-002     4.00991209999323     
  1.080000000000000E-002     3.93771244331582     
  1.090000000000000E-002     3.86439240463637     
  1.100000000000000E-002     3.79000981674931     
  1.110000000000000E-002     3.71462332158685     
  1.120000000000000E-002     3.63829169340773     
  1.130000000000000E-002     3.56107354360277     
  1.140000000000000E-002     3.48302804834930     
  1.150000000000000E-002     3.40421393216337     
  1.160000000000000E-002     3.32469040015156     
  1.170000000000000E-002     3.24451605138217     
  1.180000000000000E-002     3.16374973266457     
  1.190000000000000E-002     3.08245003956839     
  1.200000000000000E-002     3.00067473934217     
  1.210000000000000E-002     2.91848220018975     
  1.220000000000000E-002     2.83592958731863     
  1.230000000000000E-002     2.75307416732842     
  1.240000000000000E-002     2.66997247207629     
  1.250000000000000E-002     2.58668070026879     
  1.260000000000000E-002     2.50325407875070     
  1.270000000000000E-002     2.41974772817156     
  1.280000000000000E-002     2.33621544903831     
  1.290000000000000E-002     2.25271096899482     
  1.300000000000000E-002     2.16928664933161     
  1.310000000000000E-002     2.08599440775378     
  1.320000000000000E-002     2.00288508801860     
  1.330000000000000E-002     1.92000894127683     
  1.340000000000000E-002     1.83741515907694     
  1.350000000000000E-002     1.75515189884310     
  1.360000000000000E-002     1.67326619172103     
  1.370000000000000E-002     1.59180458201316     
  1.380000000000000E-002     1.51081207143351     
  1.390000000000000E-002     1.43033279099963     
  1.400000000000000E-002     1.35040961680096     
  1.410000000000000E-002     1.27108442208672     
  1.420000000000000E-002     1.19239797141589     
  1.430000000000000E-002     1.11438971773484     
  1.440000000000000E-002     1.03709785384028     
  1.450000000000000E-002    0.960559512170093     
  1.460000000000000E-002    0.884810424032492     
  1.470000000000000E-002    0.809885220639738     
  1.480000000000000E-002    0.735817071034599     
  1.490000000000000E-002    0.662637919660653     
  1.500000000000000E-002    0.590378522993762     
  1.510000000000000E-002    0.519068278671154     
  1.520000000000000E-002    0.448735213352427     
  1.530000000000000E-002    0.379406158544323     
  1.540000000000000E-002    0.311106511797236     
  1.550000000000000E-002    0.243860569899590     
  1.560000000000000E-002    0.177691110118227     
  1.570000000000000E-002    0.112619769823088     
  1.580000000000000E-002    4.866676255456415E-002
  1.590000000000000E-002   -1.414893413718174E-002
  1.600000000000000E-002   -7.580968229452340E-002
  1.610000000000000E-002   -0.136299097518919     
  1.620000000000000E-002   -0.195602085236397     
  1.630000000000000E-002   -0.253704886324835     
  1.640000000000000E-002   -0.310594915911782     
  1.650000000000000E-002   -0.366260928380490     
  1.660000000000000E-002   -0.420692882425953     
  1.670000000000000E-002   -0.473881921609797     
  1.680000000000000E-002   -0.525820432347399     
  1.690000000000000E-002   -0.576502015505578     
  1.700000000000000E-002   -0.625921364760018     
  1.710000000000000E-002   -0.674074363311871     
  1.720000000000000E-002   -0.720957996170976     
  1.730000000000000E-002   -0.766570348155951     
  1.740000000000000E-002   -0.810910664897775     
  1.750000000000000E-002   -0.853979096571302     
  1.760000000000000E-002   -0.895776963349275     
  1.770000000000000E-002   -0.936306535921868     
  1.780000000000000E-002   -0.975571064721300     
  1.790000000000000E-002    -1.01357485765053     
  1.800000000000000E-002    -1.05032301207649     
  1.810000000000000E-002    -1.08582167127176     
  1.820000000000000E-002    -1.12007778242002     
  1.830000000000000E-002    -1.15309908663246     
  1.840000000000000E-002    -1.18489427263781     
  1.850000000000000E-002    -1.21547277702439     
  1.860000000000000E-002    -1.24484483158947     
  1.870000000000000E-002    -1.27302137026331     