 -4.000000000000000E-002    0.000000000000000E+000
 -3.990000000000000E-002    0.000000000000000E+000
 -3.980000000000000E-002    0.000000000000000E+000
 -3.970000000000000E-002    0.000000000000000E+000
 -3.960000000000000E-002    0.000000000000000E+000
 -3.950000000000000E-002    0.000000000000000E+000
 -3.940000000000000E-002    0.000000000000000E+000
 -3.930000000000000E-002    0.000000000000000E+000
 -3.920000000000000E-002    0.000000000000000E+000
 -3.910000000000000E-002    0.000000000000000E+000
 -3.900000000000000E-002    0.000000000000000E+000
 -3.890000000000000E-002    0.000000000000000E+000
 -3.880000000000000E-002    0.000000000000000E+000
 -3.870000000000000E-002    0.000000000000000E+000
 -3.860000000000000E-002    0.000000000000000E+000
 -3.850000000000000E-002    0.000000000000000E+000
 -3.840000000000000E-002    0.000000000000000E+000
 -3.830000000000000E-002    0.000000000000000E+000
 -3.820000000000000E-002    0.000000000000000E+000
 -3.810000000000000E-002    0.000000000000000E+000
 -3.800000000000000E-002    0.000000000000000E+000
 -3.790000000000000E-002    0.000000000000000E+000
 -3.780000000000000E-002    0.000000000000000E+000
 -3.770000000000000E-002    0.000000000000000E+000
 -3.760000000000000E-002    0.000000000000000E+000
 -3.750000000000000E-002    0.000000000000000E+000
 -3.740000000000000E-002    0.000000000000000E+000
 -3.730000000000000E-002    0.000000000000000E+000
 -3.720000000000000E-002    0.000000000000000E+000
 -3.710000000000000E-002    0.000000000000000E+000
 -3.700000000000000E-002    0.000000000000000E+000
 -3.690000000000000E-002    0.000000000000000E+000
 -3.680000000000000E-002    0.000000000000000E+000
 -3.670000000000000E-002    0.000000000000000E+000
 -3.660000000000000E-002    0.000000000000000E+000
 -3.650000000000000E-002    0.000000000000000E+000
 -3.640000000000000E-002    0.000000000000000E+000
 -3.630000000000000E-002    0.000000000000000E+000
 -3.620000000000000E-002    0.000000000000000E+000
 -3.610000000000000E-002    0.000000000000000E+000
 -3.600000000000000E-002    0.000000000000000E+000
 -3.590000000000000E-002    0.000000000000000E+000
 -3.580000000000000E-002    0.000000000000000E+000
 -3.570000000000000E-002    0.000000000000000E+000
 -3.560000000000000E-002    0.000000000000000E+000
 -3.550000000000000E-002    0.000000000000000E+000
 -3.540000000000000E-002    0.000000000000000E+000
 -3.530000000000000E-002    0.000000000000000E+000
 -3.520000000000000E-002    0.000000000000000E+000
 -3.510000000000000E-002    0.000000000000000E+000
 -3.500000000000000E-002    0.000000000000000E+000
 -3.490000000000000E-002    0.000000000000000E+000
 -3.480000000000000E-002    0.000000000000000E+000
 -3.470000000000000E-002    0.000000000000000E+000
 -3.460000000000000E-002    0.000000000000000E+000
 -3.450000000000000E-002    0.000000000000000E+000
 -3.440000000000000E-002    0.000000000000000E+000
 -3.430000000000000E-002    0.000000000000000E+000
 -3.420000000000000E-002    0.000000000000000E+000
 -3.410000000000000E-002    0.000000000000000E+000
 -3.400000000000000E-002    0.000000000000000E+000
 -3.390000000000000E-002    0.000000000000000E+000
 -3.380000000000000E-002    0.000000000000000E+000
 -3.370000000000000E-002    0.000000000000000E+000
 -3.360000000000000E-002    0.000000000000000E+000
 -3.350000000000000E-002    0.000000000000000E+000
 -3.340000000000000E-002    0.000000000000000E+000
 -3.330000000000000E-002    0.000000000000000E+000
 -3.320000000000000E-002    0.000000000000000E+000
 -3.310000000000000E-002    0.000000000000000E+000
 -3.300000000000000E-002    0.000000000000000E+000
 -3.290000000000000E-002    0.000000000000000E+000
 -3.280000000000000E-002    0.000000000000000E+000
 -3.270000000000000E-002    0.000000000000000E+000
 -3.260000000000000E-002    0.000000000000000E+000
 -3.250000000000000E-002    0.000000000000000E+000
 -3.240000000000000E-002    0.000000000000000E+000
 -3.230000000000000E-002    0.000000000000000E+000
 -3.220000000000000E-002    0.000000000000000E+000
 -3.210000000000000E-002    0.000000000000000E+000
 -3.200000000000000E-002    0.000000000000000E+000
 -3.190000000000000E-002    0.000000000000000E+000
 -3.180000000000000E-002    0.000000000000000E+000
 -3.170000000000000E-002    0.000000000000000E+000
 -3.160000000000000E-002    0.000000000000000E+000
 -3.150000000000000E-002    0.000000000000000E+000
 -3.140000000000000E-002    0.000000000000000E+000
 -3.130000000000000E-002    0.000000000000000E+000
 -3.120000000000000E-002    0.000000000000000E+000
 -3.110000000000000E-002    0.000000000000000E+000
 -3.100000000000000E-002    0.000000000000000E+000
 -3.090000000000000E-002    0.000000000000000E+000
 -3.080000000000000E-002    0.000000000000000E+000
 -3.070000000000000E-002    0.000000000000000E+000
 -3.060000000000000E-002    0.000000000000000E+000
 -3.050000000000000E-002    0.000000000000000E+000
 -3.040000000000000E-002    0.000000000000000E+000
 -3.030000000000000E-002    0.000000000000000E+000
 -3.020000000000000E-002    0.000000000000000E+000
 -3.010000000000000E-002    0.000000000000000E+000
 -3.000000000000000E-002    0.000000000000000E+000
 -2.990000000000000E-002    0.000000000000000E+000
 -2.980000000000000E-002    0.000000000000000E+000
 -2.970000000000000E-002    0.000000000000000E+000
 -2.960000000000000E-002    0.000000000000000E+000
 -2.950000000000000E-002    0.000000000000000E+000
 -2.940000000000000E-002    0.000000000000000E+000
 -2.930000000000000E-002    0.000000000000000E+000
 -2.920000000000000E-002    0.000000000000000E+000
 -2.910000000000000E-002    0.000000000000000E+000
 -2.900000000000000E-002    0.000000000000000E+000
 -2.890000000000000E-002    0.000000000000000E+000
 -2.880000000000000E-002    0.000000000000000E+000
 -2.870000000000000E-002    0.000000000000000E+000
 -2.860000000000000E-002    0.000000000000000E+000
 -2.850000000000000E-002    0.000000000000000E+000
 -2.840000000000000E-002    0.000000000000000E+000
 -2.830000000000000E-002    0.000000000000000E+000
 -2.820000000000000E-002    0.000000000000000E+000
 -2.810000000000000E-002    0.000000000000000E+000
 -2.800000000000000E-002    0.000000000000000E+000
 -2.790000000000000E-002    0.000000000000000E+000
 -2.780000000000000E-002    0.000000000000000E+000
 -2.770000000000000E-002    0.000000000000000E+000
 -2.760000000000000E-002    0.000000000000000E+000
 -2.750000000000000E-002    0.000000000000000E+000
 -2.740000000000000E-002    0.000000000000000E+000
 -2.730000000000000E-002    0.000000000000000E+000
 -2.720000000000000E-002    0.000000000000000E+000
 -2.710000000000000E-002    0.000000000000000E+000
 -2.700000000000000E-002    0.000000000000000E+000
 -2.690000000000000E-002    0.000000000000000E+000
 -2.680000000000000E-002    0.000000000000000E+000
 -2.670000000000000E-002    0.000000000000000E+000
 -2.660000000000000E-002    0.000000000000000E+000
 -2.650000000000000E-002    0.000000000000000E+000
 -2.640000000000000E-002    0.000000000000000E+000
 -2.630000000000000E-002    0.000000000000000E+000
 -2.620000000000000E-002    0.000000000000000E+000
 -2.610000000000000E-002    0.000000000000000E+000
 -2.600000000000000E-002    0.000000000000000E+000
 -2.590000000000000E-002    0.000000000000000E+000
 -2.580000000000000E-002    0.000000000000000E+000
 -2.570000000000000E-002    0.000000000000000E+000
 -2.560000000000000E-002    0.000000000000000E+000
 -2.550000000000000E-002   -2.187399346209049E-048
 -2.540000000000000E-002   -4.374798692418097E-048
 -2.530000000000000E-002   -6.562198038627146E-048
 -2.520000000000000E-002   -6.562198038627146E-048
 -2.510000000000000E-002   -4.149412430716101E-048
 -2.500000000000000E-002    9.054543391447034E-048
 -2.490000000000000E-002    3.707396243881363E-047
 -2.480000000000000E-002    6.317692807652906E-047
 -2.470000000000000E-002    9.342930614496059E-047
 -2.460000000000000E-002    1.546099843116307E-046
 -2.450000000000000E-002    2.005244267296933E-046
 -2.440000000000000E-002    2.094723049506945E-046
 -2.430000000000000E-002    2.626678030926598E-046
 -2.420000000000000E-002    1.556492904016965E-046
 -2.410000000000000E-002   -3.838074155983609E-047
 -2.400000000000000E-002   -5.004938592721893E-046
 -2.390000000000000E-002   -1.111903223793521E-045
 -2.380000000000000E-002   -2.242193356251311E-045
 -2.370000000000000E-002   -2.826313995280126E-045
 -2.360000000000000E-002   -3.472962366110977E-045
 -2.350000000000000E-002   -4.574251127230051E-045
 -2.340000000000000E-002   -5.038618033308330E-045
 -2.330000000000000E-002   -4.654751320958246E-045
 -2.320000000000000E-002   -2.310313232060409E-045
 -2.310000000000000E-002    2.187508756668671E-045
 -2.300000000000000E-002    9.267978587103285E-045
 -2.290000000000000E-002    2.088353271601994E-044
 -2.280000000000000E-002    3.479141218391051E-044
 -2.270000000000000E-002    4.891955344440897E-044
 -2.260000000000000E-002    6.109809570733497E-044
 -2.250000000000000E-002    6.608830419611537E-044
 -2.240000000000000E-002    5.811705947233210E-044
 -2.230000000000000E-002    2.873203290996590E-044
 -2.220000000000000E-002   -2.876400759704005E-044
 -2.210000000000000E-002   -1.198995419912136E-043
 -2.200000000000000E-002   -2.443404798811653E-043
 -2.190000000000000E-002   -3.919961655907070E-043
 -2.180000000000000E-002   -5.412418140899562E-043
 -2.170000000000000E-002   -6.540862172919076E-043
 -2.160000000000000E-002   -6.751758637352737E-043
 -2.150000000000000E-002   -5.379632618352779E-043
 -2.140000000000000E-002   -1.718255561909828E-043
 -2.130000000000000E-002    4.824926009585723E-043
 -2.120000000000000E-002    1.449904176516056E-042
 -2.110000000000000E-002    2.692366238964701E-042
 -2.100000000000000E-002    4.074651329225451E-042
 -2.090000000000000E-002    5.341424613378390E-042
 -2.080000000000000E-002    6.099686899658634E-042
 -2.070000000000000E-002    5.830915025546366E-042
 -2.060000000000000E-002    3.943596644699663E-042
 -2.050000000000000E-002   -1.281085640435371E-043
 -2.040000000000000E-002   -6.766573135346509E-042
 -2.030000000000000E-002   -1.596595084284939E-041
 -2.020000000000000E-002   -2.708950042403658E-041
 -2.010000000000000E-002   -3.864010042642078E-041
 -2.000000000000000E-002   -4.809759236671381E-041
 -1.990000000000000E-002   -5.190076836298061E-041
 -1.980000000000000E-002   -4.567730035647668E-041
 -1.970000000000000E-002   -2.478851584157098E-041
 -1.960000000000000E-002    1.472757377807385E-041
 -1.950000000000000E-002    7.483863797087436E-041
 -1.940000000000000E-002    1.538932733834546E-040
 -1.930000000000000E-002    2.449026642235098E-040
 -1.920000000000000E-002    3.340676702413187E-040
 -1.910000000000000E-002    4.000295395096654E-040
 -1.900000000000000E-002    4.144043861409199E-040
 -1.890000000000000E-002    3.441934206623548E-040
 -1.880000000000000E-002    1.565552587950881E-040
 -1.870000000000000E-002   -1.738570911145071E-040
 -1.860000000000000E-002   -6.552160616719383E-040
 -1.850000000000000E-002   -1.267376876276338E-039
 -1.840000000000000E-002   -1.950916184833201E-039
 -1.830000000000000E-002   -2.598796137637671E-039
 -1.820000000000000E-002   -3.053802264795272E-039
 -1.810000000000000E-002   -3.115251727899826E-039
 -1.800000000000000E-002   -2.558289196281447E-039
 -1.790000000000000E-002   -1.168099543121479E-039
 -1.780000000000000E-002    1.210593382014322E-039
 -1.770000000000000E-002    4.611285332296032E-039
 -1.760000000000000E-002    8.877149248130135E-039
 -1.750000000000000E-002    1.359693286427398E-038
 -1.740000000000000E-002    1.806031641641126E-038
 -1.730000000000000E-002    2.125089701246363E-038
 -1.720000000000000E-002    2.189610811504228E-038
 -1.710000000000000E-002    1.859112770071667E-038
 -1.700000000000000E-002    1.000741718048242E-038
 -1.690000000000000E-002   -4.815010700443454E-039
 -1.680000000000000E-002   -2.610868042628003E-038
 -1.670000000000000E-002   -5.299053472971792E-038
 -1.660000000000000E-002   -8.310405318544453E-038
 -1.650000000000000E-002   -1.123716203956373E-037
 -1.640000000000000E-002   -1.349519611984501E-037
 -1.630000000000000E-002   -1.435013098843913E-037
 -1.620000000000000E-002   -1.298244843303217E-037
 -1.610000000000000E-002   -8.597013109999676E-038
 -1.600000000000000E-002   -5.768300019566089E-039
 -1.590000000000000E-002    1.132694935987725E-037
 -1.580000000000000E-002    2.678634569185874E-037
 -1.570000000000000E-002    4.469735424943752E-037
 -1.560000000000000E-002    6.302841329454586E-037
 -1.550000000000000E-002    7.876273473813060E-037
 -1.540000000000000E-002    8.798378940600043E-037
 -1.530000000000000E-002    8.615011246106129E-037
 -1.520000000000000E-002    6.859349166955519E-037
 -1.510000000000000E-002    3.125208954433884E-037
 -1.500000000000000E-002   -2.838307729157615E-037
 -1.490000000000000E-002   -1.101732067401080E-036
 -1.480000000000000E-002   -2.102040652007309E-036
 -1.470000000000000E-002   -3.197940045248764E-036
 -1.460000000000000E-002   -4.248560421845326E-036
 -1.450000000000000E-002   -5.058663563465211E-036
 -1.440000000000000E-002   -5.387024320283761E-036
 -1.430000000000000E-002   -4.965895978171127E-036
 -1.420000000000000E-002   -3.533172411317204E-036
 -1.410000000000000E-002   -8.775949528472776E-037
 -1.400000000000000E-002    3.104656026642057E-036
 -1.390000000000000E-002    8.346094780481925E-036
 -1.380000000000000E-002    1.454394288505495E-035
 -1.370000000000000E-002    2.110631332738834E-035
 -1.360000000000000E-002    2.712178969886079E-035
 -1.350000000000000E-002    3.136758685842803E-035
 -1.340000000000000E-002    3.237216915449183E-035
 -1.330000000000000E-002    2.854606684869019E-035
 -1.320000000000000E-002    1.838966504577362E-035
 -1.310000000000000E-002    7.778553256505079E-037
 -1.300000000000000E-002   -2.469145843791456E-035
 -1.290000000000000E-002   -5.731468407142665E-035
 -1.280000000000000E-002   -9.491395845611942E-035
 -1.270000000000000E-002   -1.335506636554228E-034
 -1.260000000000000E-002   -1.674050901681907E-034
 -1.250000000000000E-002   -1.889151151928344E-034
 -1.240000000000000E-002   -1.892639919678730E-034
 -1.230000000000000E-002   -1.592876311606854E-034
 -1.220000000000000E-002   -9.083052663514212E-035
 -1.210000000000000E-002    2.148391989080574E-035
 -1.200000000000000E-002    1.781881706397964E-034
 -1.190000000000000E-002    3.728312331983734E-034
 -1.180000000000000E-002    5.900925646154363E-034
 -1.170000000000000E-002    8.045709941384610E-034
 -1.160000000000000E-002    9.807326500241968E-034
 -1.150000000000000E-002    1.074505823145765E-033
 -1.140000000000000E-002    1.036934230422405E-033
 -1.130000000000000E-002    8.201206318638754E-034
 -1.120000000000000E-002    3.854038980262772E-034
 -1.110000000000000E-002   -2.866866380058227E-034
 -1.100000000000000E-002   -1.185626836275886E-033
 -1.090000000000000E-002   -2.260686075364729E-033
 -1.080000000000000E-002   -3.413196874436464E-033
 -1.070000000000000E-002   -4.493534543752892E-033
 -1.060000000000000E-002   -5.305088266852149E-033
 -1.050000000000000E-002   -5.617248014691685E-033
 -1.040000000000000E-002   -5.188718168670779E-033
 -1.030000000000000E-002   -3.801267682744247E-033
 -1.020000000000000E-002   -1.302420853837266E-033
 -1.010000000000000E-002    2.346416819382989E-033
 -1.000000000000000E-002    7.021968720360009E-033
 -9.899999999999999E-003    1.239884724987157E-032
 -9.800000000000000E-003    1.792600538986823E-032
 -9.699999999999999E-003    2.282943916692181E-032
 -9.599999999999999E-003    2.614987785063573E-032
 -9.500000000000000E-003    2.682167178784595E-032
 -9.399999999999999E-003    2.379504330890132E-032
 -9.299999999999999E-003    1.619781982460263E-032
 -9.200000000000000E-003    3.525609548043410E-033
 -9.099999999999999E-003   -1.415844859243241E-032
 -8.999999999999999E-003   -3.604079777240348E-032
 -8.900000000000000E-003   -6.042383225187739E-032
 -8.799999999999999E-003   -8.467664453101013E-032
 -8.699999999999999E-003   -1.053041413382165E-031
 -8.600000000000000E-003   -1.181620040599152E-031
 -8.499999999999999E-003   -1.188321054560962E-031
 -8.399999999999999E-003   -1.031548554072775E-031
 -8.300000000000000E-003   -6.789208042445008E-032
 -8.199999999999999E-003   -1.146763682747336E-032
 -8.100000000000000E-003    6.529309613150248E-032
 -8.000000000000000E-003    1.585250985881376E-031
 -7.899999999999999E-003    2.609052230194514E-031
 -7.800000000000000E-003    3.615711899265754E-031
 -7.699999999999999E-003    4.464890772535895E-031
 -7.599999999999999E-003    4.993474424474225E-031
 -7.499999999999999E-003    5.030155442151540E-031
 -7.399999999999999E-003    4.415337552027472E-031
 -7.299999999999999E-003    3.025347786074471E-031
 -7.199999999999999E-003    7.990865757580973E-032
 -7.100000000000000E-003   -2.235548181520789E-031
 -6.999999999999999E-003   -5.938829986211922E-031
 -6.899999999999999E-003   -1.004374719710246E-030
 -6.800000000000000E-003   -1.415193040243322E-030
 -6.699999999999999E-003   -1.774456817600278E-030
 -6.599999999999999E-003   -2.021121903462389E-030
 -6.499999999999999E-003   -2.089805896747610E-030
 -6.399999999999999E-003   -1.917526527265443E-030
 -6.299999999999999E-003   -1.452098519625811E-030
 -6.199999999999999E-003   -6.616596691446791E-031
 -6.100000000000000E-003    4.554522192730120E-031
 -5.999999999999999E-003    1.861554269731388E-030
 -5.899999999999999E-003    3.472460938897576E-030
 -5.800000000000000E-003    5.153744658787370E-030
 -5.699999999999999E-003    6.721843711283217E-030
 -5.599999999999999E-003    7.951337708940884E-030
 -5.499999999999999E-003    8.589349059765416E-030
 -5.399999999999999E-003    8.377554495281904E-030
 -5.299999999999999E-003    7.081477099376707E-030
 -5.199999999999999E-003    4.525840099779390E-030
 -5.099999999999999E-003    6.336049089115151E-031
 -4.999999999999999E-003   -4.534778612850717E-030
 -4.899999999999999E-003   -1.074660834528525E-029
 -4.799999999999999E-003   -1.757217608887417E-029
 -4.699999999999999E-003   -2.437615111027223E-029
 -4.599999999999999E-003   -3.033120432638837E-029
 -4.499999999999999E-003   -3.445904684243716E-029
 -4.399999999999999E-003   -3.570253612769299E-029
 -4.299999999999999E-003   -3.302957460279956E-029
 -4.199999999999999E-003   -2.556593018881227E-029
 -4.099999999999999E-003   -1.274966376765189E-029
 -3.999999999999999E-003    5.505436219374483E-030
 -3.899999999999999E-003    2.865455831892434E-029
 -3.799999999999999E-003    5.539665176446731E-029
 -3.699999999999999E-003    8.360391478777079E-029
 -3.599999999999999E-003    1.103310751725741E-028
 -3.499999999999999E-003    1.319276421748291E-028
 -3.399999999999999E-003    1.442698960667141E-028
 -3.299999999999999E-003    1.431196079018965E-028
 -3.199999999999999E-003    1.246027401009269E-028
 -3.099999999999999E-003    8.578448311420808E-029
 -2.999999999999999E-003    2.529833168813997E-029
 -2.899999999999999E-003   -5.603295344924574E-029
 -2.799999999999999E-003   -1.546612162307152E-028
 -2.699999999999999E-003   -2.639520813023483E-028
 -2.599999999999999E-003   -3.740924871040049E-028
 -2.499999999999999E-003   -4.723521324530613E-028
 -2.399999999999999E-003   -5.437670212122021E-028
 -2.299999999999999E-003   -5.722804082861634E-028
 -2.199999999999999E-003   -5.423285879782113E-028
 -2.099999999999999E-003   -4.408072631587883E-028
 -1.999999999999999E-003   -2.592885931137144E-028
 -1.899999999999999E-003    3.705988960158287E-030
 -1.799999999999999E-003    3.406249100244196E-028
 -1.699999999999999E-003    7.332916877912675E-028
 -1.599999999999999E-003    1.152110808601488E-027
 -1.499999999999999E-003    1.556375839550065E-027
 -1.399999999999999E-003    1.895930125865610E-027
 -1.299999999999999E-003    2.114348408168292E-027
 -1.199999999999999E-003    2.153667222356516E-027
 -1.099999999999999E-003    1.960533181715956E-027
 -9.999999999999989E-004    1.493446859028062E-027
 -8.999999999999990E-004    7.305656028118243E-028
 -7.999999999999990E-004   -3.226527486415774E-028
 -6.999999999999989E-004   -1.626863165941430E-027
 -5.999999999999990E-004   -3.104282891709143E-027
 -4.999999999999989E-004   -4.637227070958331E-027
 -3.999999999999989E-004   -6.070655058528645E-027
 -2.999999999999989E-004   -7.219477208867181E-027
 -1.999999999999989E-004   -7.881052279012836E-027
 -9.999999999999892E-005   -7.852824466776152E-027
  1.084202172485504E-018   -6.954513612067453E-027
  1.000000000000011E-004   -5.053609831012331E-027
  2.000000000000011E-004   -2.092272087513993E-027
  3.000000000000011E-004    1.886927311881639E-027
  4.000000000000011E-004    6.719485996582806E-027
  5.000000000000011E-004    1.210506625999676E-026
  6.000000000000011E-004    1.760470635173216E-026
  7.000000000000011E-004    2.265226586345570E-026
  8.000000000000011E-004    2.658258782848088E-026
  9.000000000000012E-004    2.867762670362403E-026
  1.000000000000001E-003    2.823024168004258E-026
  1.100000000000001E-003    2.462334595261626E-026
  1.200000000000001E-003    1.741984002943216E-026
  1.300000000000001E-003    6.456344912146652E-027
  1.400000000000001E-003   -8.068294180023683E-027
  1.500000000000001E-003   -2.552068596096992E-026
  1.600000000000001E-003   -4.478891536688911E-026
  1.700000000000001E-003   -6.427881830960271E-026
  1.800000000000001E-003   -8.196125113966795E-026
  1.900000000000001E-003   -9.547862352995234E-026
  2.000000000000001E-003   -1.023140443119073E-025
  2.100000000000001E-003   -1.000210145706265E-025
  2.200000000000001E-003   -8.650403467969667E-026
  2.300000000000001E-003   -6.033293787363491E-026
  2.400000000000001E-003   -2.106499536487484E-026
  2.500000000000001E-003    3.045749304315040E-026
  2.600000000000001E-003    9.187343197961002E-026
  2.700000000000001E-003    1.591730759390049E-025
  2.800000000000001E-003    2.267133981456167E-025
  2.900000000000001E-003    2.874121329415118E-025
  3.000000000000001E-003    3.331443894941571E-025
  3.100000000000001E-003    3.553487945114821E-025
  3.200000000000001E-003    3.458292773621369E-025
  3.300000000000001E-003    2.977145985556024E-025
  3.400000000000001E-003    2.065108369707180E-025
  3.500000000000001E-003    7.115684761249660E-026
  3.600000000000001E-003   -1.050295371308126E-025
  3.700000000000001E-003   -3.136406191312952E-025
  3.800000000000001E-003   -5.408355886708912E-025
  3.900000000000001E-003   -7.674877918401777E-025
  4.000000000000001E-003   -9.699235518755227E-025
  4.100000000000001E-003   -1.121311997239868E-024
  4.200000000000001E-003   -1.193713479647163E-024
  4.300000000000001E-003   -1.160723319709989E-024
  4.400000000000001E-003   -1.000573470968670E-024
  4.500000000000001E-003   -6.994731711662901E-025
  4.600000000000002E-003   -2.548986095236456E-025
  4.700000000000001E-003    3.215251124330760E-025
  4.800000000000001E-003    1.001938468004404E-024
  4.900000000000002E-003    1.741350835090683E-024
  5.000000000000001E-003    2.478300713335739E-024
  5.100000000000001E-003    3.137347416735777E-024
  5.200000000000001E-003    3.633559333517446E-024
  5.300000000000002E-003    3.878977883062242E-024
  5.400000000000001E-003    3.790851162451941E-024
  5.500000000000001E-003    3.301187966762223E-024
  5.600000000000002E-003    2.366957621053188E-024
  5.700000000000001E-003    9.800593130890341E-025
  5.800000000000001E-003   -8.240098781501055E-025
  5.900000000000002E-003   -2.959931784574326E-024
  6.000000000000001E-003   -5.289966894019483E-024
  6.100000000000001E-003   -7.626016920940842E-024
  6.200000000000002E-003   -9.737176383241287E-024
  6.300000000000002E-003   -1.136322124987123E-023
  6.400000000000001E-003   -1.223397805934355E-023
  6.500000000000001E-003   -1.209394354106298E-023
  6.600000000000002E-003   -1.073084492803385E-023
  6.700000000000001E-003   -8.006157400315897E-024
  6.800000000000001E-003   -3.884991653107612E-024
  6.900000000000002E-003    1.537737605226403E-024
  7.000000000000001E-003    8.018275000437929E-024
  7.100000000000001E-003    1.515552667476635E-023
  7.200000000000002E-003    2.239620192187815E-023
  7.300000000000002E-003    2.905603446508943E-023
  7.400000000000001E-003    3.435843996716115E-023
  7.500000000000001E-003    3.749054302739415E-023
  7.600000000000002E-003    3.767480440201944E-023
  7.700000000000001E-003    3.425246491730498E-023
  7.800000000000001E-003    2.677325874551001E-023
  7.900000000000001E-003    1.508382983048090E-023
  8.000000000000002E-003   -5.940431556210735E-025
  8.100000000000001E-003   -1.960517705179835E-023
  8.200000000000001E-003   -4.083258940509820E-023
  8.300000000000002E-003   -6.270798352644210E-023
  8.400000000000001E-003   -8.326827966015157E-023
  8.500000000000002E-003   -1.002621692492634E-022
  8.600000000000002E-003   -1.113067406408006E-022
  8.700000000000001E-003   -1.140895133794701E-022
  8.800000000000002E-003   -1.066052276574952E-022
  8.900000000000002E-003   -8.741213161714396E-023
  9.000000000000001E-003   -5.588652717566903E-023
  9.100000000000002E-003   -1.245102183757637E-023
  9.200000000000002E-003    4.125110129473876E-023
  9.300000000000001E-003    1.022627595479747E-022
  9.400000000000002E-003    1.663266692518709E-022
  9.500000000000001E-003    2.280258277881634E-022
  9.600000000000001E-003    2.810624007876456E-022
  9.700000000000002E-003    3.186762764947357E-022
  9.800000000000001E-003    3.341908293074002E-022
  9.900000000000001E-003    3.216596884984211E-022
  1.000000000000000E-002    2.765721150078292E-022
  1.010000000000000E-002    1.965624097031623E-022
  1.020000000000000E-002    8.205744402831179E-023
  1.030000000000000E-002   -6.321166880333125E-023
  1.040000000000000E-002   -2.319074454694423E-022
  1.050000000000000E-002   -4.130619620074017E-022
  1.060000000000000E-002   -5.923873040969348E-022
  1.070000000000000E-002   -7.529554557101049E-022
  1.080000000000000E-002   -8.762537372482832E-022
  1.090000000000000E-002   -9.435914693881121E-022
  1.100000000000000E-002   -9.377909997787890E-022
  1.110000000000000E-002   -8.450633183225969E-022
  1.120000000000000E-002   -6.569276704969381E-022
  1.130000000000000E-002   -3.720067573438124E-022
  1.140000000000000E-002    2.490007352336669E-024
  1.150000000000000E-002    4.497915710913538E-022
  1.160000000000000E-002    9.432809768951528E-022
  1.170000000000000E-002    1.447057850585670E-021
  1.180000000000000E-002    1.917454034401989E-021
  1.190000000000000E-002    2.305538668197177E-021
  1.200000000000000E-002    2.560568407918500E-021
  1.210000000000000E-002    2.634244702874826E-021
  1.220000000000000E-002    2.485536988549486E-021
  1.230000000000000E-002    2.085740756473063E-021
  1.240000000000000E-002    1.423356406364711E-021
  1.250000000000000E-002    5.083089922309759E-022
  1.260000000000000E-002   -6.249818786069636E-022
  1.270000000000000E-002   -1.916178384774338E-021
  1.280000000000000E-002   -3.279663932084453E-021
  1.290000000000000E-002   -4.607570663258058E-021
  1.300000000000000E-002   -5.775342641408261E-021
  1.310000000000000E-002   -6.649802708577107E-021
  1.320000000000000E-002   -7.099441215001116E-021
  1.330000000000000E-002   -7.006404777350483E-021
  1.340000000000000E-002   -6.279428995398052E-021
  1.350000000000000E-002   -4.866703212688538E-021
  1.360000000000000E-002   -2.767551274173206E-021
  1.370000000000000E-002   -4.163243864288549E-023
  1.380000000000000E-002    3.185544963099901E-021
  1.390000000000000E-002    6.721961154227178E-021
  1.400000000000000E-002    1.031417334659933E-020
  1.410000000000000E-002    1.365869781229485E-020
  1.420000000000000E-002    1.641978940512841E-020
  1.430000000000000E-002    1.825313961182500E-020
  1.440000000000000E-002    1.883445556361261E-020
  1.450000000000000E-002    1.789121667738665E-020
  1.460000000000000E-002    1.523542715029359E-020
  1.470000000000000E-002    1.079457469796499E-020
  1.480000000000000E-002    4.637929085178331E-021
  1.490000000000000E-002   -3.005051854557016E-021
  1.500000000000000E-002   -1.173701708779280E-020
  1.510000000000000E-002   -2.099826456328510E-020
  1.520000000000000E-002   -3.008723028416458E-020
  1.530000000000000E-002   -3.819666149775047E-020
  1.540000000000000E-002   -4.446496086788192E-020
  1.550000000000000E-002   -4.804081430088522E-020
  1.560000000000000E-002   -4.815772739105669E-020
  1.570000000000000E-002   -4.421371845149182E-020
  1.580000000000000E-002   -3.585016107315788E-020
  1.590000000000000E-002   -2.302300342433855E-020
  1.600000000000000E-002   -6.058884513465557E-021
  1.610000000000000E-002    1.431091744703892E-020
  1.620000000000000E-002    3.694532492326606E-020
  1.630000000000000E-002    6.032209660016200E-020
  1.640000000000000E-002    8.260339662962213E-020
  1.650000000000000E-002    1.017385523646305E-019
  1.660000000000000E-002    1.156015167709039E-019
  1.670000000000000E-002    1.221568301639420E-019
  1.680000000000000E-002    1.196448827868756E-019
  1.690000000000000E-002    1.067737343615606E-019
  1.700000000000000E-002    8.290288314406990E-020
  1.710000000000000E-002    4.820199417022557E-020
  1.720000000000000E-002    3.767414066895966E-021
  1.730000000000000E-002   -4.831971705388613E-020
  1.740000000000000E-002   -1.050078852186876E-019
  1.750000000000000E-002   -1.623725530915330E-019
  1.760000000000000E-002   -2.158009822117105E-019
  1.770000000000000E-002   -2.602633202751898E-019
  1.780000000000000E-002   -2.906607820513483E-019
  1.790000000000000E-002   -3.022341498226229E-019
  1.800000000000000E-002   -2.910084235331182E-019
  1.810000000000000E-002   -2.542425524041108E-019
  1.820000000000000E-002   -1.908478543875354E-019
  1.830000000000000E-002   -1.017366510941344E-019
  1.840000000000000E-002    9.939249125736499E-021
  1.850000000000000E-002    1.386957586666510E-019
  1.860000000000000E-002    2.767997444251310E-019
  1.870000000000000E-002    4.145481631420802E-019