 -4.000000000000000E-002    0.000000000000000E+000
 -3.990000000000000E-002    0.000000000000000E+000
 -3.980000000000000E-002    0.000000000000000E+000
 -3.970000000000000E-002    0.000000000000000E+000
 -3.960000000000000E-002    0.000000000000000E+000
 -3.950000000000000E-002   -9.962901329314898E-023
 -3.940000000000000E-002   -9.569895216957246E-022
 -3.930000000000000E-002   -4.873246643509227E-021
 -3.920000000000000E-002   -1.735961385820373E-020
 -3.910000000000000E-002   -4.811732676235105E-020
 -3.900000000000000E-002   -1.091300305420119E-019
 -3.890000000000000E-002   -2.064367006337925E-019
 -3.880000000000000E-002   -3.213049639771473E-019
 -3.870000000000000E-002   -3.752219301524938E-019
 -3.860000000000000E-002   -1.693060901343393E-019
 -3.850000000000000E-002    7.209203346765611E-019
 -3.840000000000000E-002    3.132966002497508E-018
 -3.830000000000000E-002    8.652271869860856E-018
 -3.820000000000000E-002    2.018972083991013E-017
 -3.810000000000000E-002    4.291248460325303E-017
 -3.800000000000000E-002    8.561056065478296E-017
 -3.790000000000000E-002    1.624690142325378E-016
 -3.780000000000000E-002    2.949797126600556E-016
 -3.770000000000000E-002    5.133354175898724E-016
 -3.760000000000000E-002    8.561093760380192E-016
 -3.750000000000000E-002    1.366396647231868E-015
 -3.740000000000000E-002    2.082012338090047E-015
 -3.730000000000000E-002    3.017033028004487E-015
 -3.720000000000000E-002    4.132209396471037E-015
 -3.710000000000000E-002    5.292913920125278E-015
 -3.700000000000000E-002    6.215579264053469E-015
 -3.690000000000000E-002    6.407209433800097E-015
 -3.680000000000000E-002    5.107424464851579E-015
 -3.670000000000000E-002    1.248190105098221E-015
 -3.660000000000000E-002   -6.547896903806072E-015
 -3.650000000000000E-002   -1.990541906400289E-014
 -3.640000000000000E-002   -4.054307984780087E-014
 -3.630000000000000E-002   -7.000575260099360E-014
 -3.620000000000000E-002   -1.092665702906513E-013
 -3.610000000000000E-002   -1.582004780098155E-013
 -3.600000000000000E-002   -2.149543568453770E-013
 -3.590000000000000E-002   -2.752688115819265E-013
 -3.580000000000000E-002   -3.318404110979486E-013
 -3.570000000000000E-002   -3.738459310463734E-013
 -3.560000000000000E-002   -3.867764100103144E-013
 -3.550000000000000E-002   -3.527412786688958E-013
 -3.540000000000000E-002   -2.513957942520469E-013
 -3.530000000000000E-002   -6.161080048391263E-014
 -3.520000000000000E-002    2.360586585625230E-013
 -3.510000000000000E-002    6.561426154391659E-013
 -3.500000000000000E-002    1.204418000879181E-012
 -3.490000000000000E-002    1.873750558102441E-012
 -3.480000000000000E-002    2.640039046153659E-012
 -3.470000000000000E-002    3.458800423844064E-012
 -3.460000000000000E-002    4.263012416754996E-012
 -3.450000000000000E-002    4.962849478018503E-012
 -3.440000000000000E-002    5.447889828376828E-012
 -3.430000000000000E-002    5.592231897500248E-012
 -3.420000000000000E-002    5.262723902518415E-012
 -3.410000000000000E-002    4.330200093399053E-012
 -3.400000000000000E-002    2.683260196891068E-012
 -3.390000000000000E-002    2.437436962080241E-013
 -3.380000000000000E-002   -3.017311397189938E-012
 -3.370000000000000E-002   -7.064721633546497E-012
 -3.360000000000000E-002   -1.178688953281850E-011
 -3.350000000000000E-002   -1.698790113729374E-011
 -3.340000000000000E-002   -2.238550769518526E-011
 -3.330000000000000E-002   -2.761615620795387E-011
 -3.320000000000000E-002   -3.224773317343299E-011
 -3.310000000000000E-002   -3.579999431324505E-011
 -3.300000000000000E-002   -3.777201388995021E-011
 -3.290000000000000E-002   -3.767521492799070E-011
 -3.280000000000000E-002   -3.506995076902203E-011
 -3.270000000000000E-002   -2.960316952128111E-011
 -3.260000000000000E-002   -2.104446852380557E-011
 -3.250000000000000E-002   -9.317855395837266E-012
 -3.240000000000000E-002    5.473149127228704E-012
 -3.230000000000000E-002    2.302892427018628E-011
 -3.220000000000000E-002    4.284689759160390E-011
 -3.210000000000000E-002    6.422485855016297E-011
 -3.200000000000000E-002    8.627423732453693E-011
 -3.190000000000000E-002    1.079425940201604E-010
 -3.180000000000000E-002    1.280442466243175E-010
 -3.170000000000000E-002    1.452978739774059E-010
 -3.160000000000000E-002    1.583701916506197E-010
 -3.150000000000000E-002    1.659251086658860E-010
 -3.140000000000000E-002    1.666782131974062E-010
 -3.130000000000000E-002    1.594568589460570E-010
 -3.120000000000000E-002    1.432660670331632E-010
 -3.110000000000000E-002    1.173603634900396E-010
 -3.100000000000000E-002    8.132061256820284E-011
 -3.090000000000000E-002    3.513382938092971E-011
 -3.080000000000000E-002   -2.072798991369599E-011
 -3.070000000000000E-002   -8.523596559390797E-011
 -3.060000000000000E-002   -1.567472488508640E-010
 -3.050000000000000E-002   -2.329722019424525E-010
 -3.040000000000000E-002   -3.109762137129918E-010
 -3.030000000000000E-002   -3.872259003509551E-010
 -3.020000000000000E-002   -4.576877766383734E-010
 -3.010000000000000E-002   -5.179838412256712E-010
 -3.000000000000000E-002   -5.636035483012481E-010
 -2.990000000000000E-002   -5.901657349998341E-010
 -2.980000000000000E-002   -5.937167326551472E-010
 -2.970000000000000E-002   -5.710448099278378E-010
 -2.960000000000000E-002   -5.199849322931653E-010
 -2.950000000000000E-002   -4.396844021611297E-010
 -2.940000000000000E-002   -3.307992143343644E-010
 -2.930000000000000E-002   -1.955933510948882E-010
 -2.920000000000000E-002   -3.791971053235732E-011
 -2.910000000000000E-002    1.369284415658857E-010
 -2.900000000000000E-002    3.224941869360853E-010
 -2.890000000000000E-002    5.115454542925958E-010
 -2.880000000000000E-002    6.965450298242610E-010
 -2.870000000000000E-002    8.701576585336675E-010
 -2.860000000000000E-002    1.025742103322050E-009
 -2.850000000000000E-002    1.157770633502225E-009
 -2.840000000000000E-002    1.262122526948484E-009
 -2.830000000000000E-002    1.336208077208506E-009
 -2.820000000000000E-002    1.378896173995736E-009
 -2.810000000000000E-002    1.390242884289765E-009
 -2.800000000000000E-002    1.371043837513422E-009
 -2.790000000000000E-002    1.322262488075786E-009
 -2.780000000000000E-002    1.244408873326769E-009
 -2.770000000000000E-002    1.136962693945679E-009
 -2.760000000000000E-002    9.979431725925534E-010
 -2.750000000000000E-002    8.237227760351497E-010
 -2.740000000000000E-002    6.091649343782462E-010
 -2.730000000000000E-002    3.481344882472462E-010
 -2.720000000000000E-002    3.438632234209663E-011
 -2.710000000000000E-002   -3.372121094111322E-010
 -2.700000000000000E-002   -7.692214796658841E-010
 -2.690000000000000E-002   -1.260080527802051E-009
 -2.680000000000000E-002   -1.802649491759509E-009
 -2.670000000000000E-002   -2.383051691405826E-009
 -2.660000000000000E-002   -2.980018156099994E-009
 -2.650000000000000E-002   -3.564914019508081E-009
 -2.640000000000000E-002   -4.102573464483081E-009
 -2.630000000000000E-002   -4.552999187083361E-009
 -2.620000000000000E-002   -4.873889488418301E-009
 -2.610000000000000E-002   -5.023857824591188E-009
 -2.600000000000000E-002   -4.966116705500398E-009
 -2.590000000000000E-002   -4.672311831548614E-009
 -2.580000000000000E-002   -4.126137853841367E-009
 -2.570000000000000E-002   -3.326340798313668E-009
 -2.560000000000000E-002   -2.288736069502405E-009
 -2.550000000000000E-002   -1.046927444760340E-009
 -2.540000000000000E-002    3.484823761019963E-010
 -2.530000000000000E-002    1.832263967816961E-009
 -2.520000000000000E-002    3.328432782197785E-009
 -2.510000000000000E-002    4.755373355467709E-009
 -2.500000000000000E-002    6.031819455492497E-009
 -2.490000000000000E-002    7.083174272800519E-009
 -2.480000000000000E-002    7.847573606248228E-009
 -2.470000000000000E-002    8.281093466725083E-009
 -2.460000000000000E-002    8.361535387077541E-009
 -2.450000000000000E-002    8.090357486139110E-009
 -2.440000000000000E-002    7.492470661049607E-009
 -2.430000000000000E-002    6.613846213049999E-009
 -2.420000000000000E-002    5.517108109990929E-009
 -2.410000000000000E-002    4.275507121131275E-009
 -2.400000000000000E-002    2.965877284906900E-009
 -2.390000000000000E-002    1.661308028560004E-009
 -2.380000000000000E-002    4.243317315655837E-010
 -2.370000000000000E-002   -6.985949806550559E-010
 -2.360000000000000E-002   -1.680666369995518E-009
 -2.350000000000000E-002   -2.515886187832144E-009
 -2.340000000000000E-002   -3.217627747805887E-009
 -2.330000000000000E-002   -3.814695409524763E-009
 -2.320000000000000E-002   -4.345306234077706E-009
 -2.310000000000000E-002   -4.849682781609206E-009
 -2.300000000000000E-002   -5.362160628798358E-009
 -2.290000000000000E-002   -5.903825459758337E-009
 -2.280000000000000E-002   -6.476698005926914E-009
 -2.270000000000000E-002   -7.060356611039044E-009
 -2.260000000000000E-002   -7.611648369937023E-009
 -2.250000000000000E-002   -8.067804717645480E-009
 -2.240000000000000E-002   -8.352871578013395E-009
 -2.230000000000000E-002   -8.386955182012767E-009
 -2.220000000000000E-002   -8.097382190708984E-009
 -2.210000000000000E-002   -7.430575322123087E-009
 -2.200000000000000E-002   -6.363227234393340E-009
 -2.190000000000000E-002   -4.911333020467734E-009
 -2.180000000000000E-002   -3.135745197310591E-009
 -2.170000000000000E-002   -1.143191012632098E-009
 -2.160000000000000E-002    9.178729366448990E-010
 -2.150000000000000E-002    2.866697739064368E-009
 -2.140000000000000E-002    4.504515313237146E-009
 -2.130000000000000E-002    5.632662674847931E-009
 -2.120000000000000E-002    6.073074568679129E-009
 -2.110000000000000E-002    5.689346790903722E-009
 -2.100000000000000E-002    4.406428668272595E-009
 -2.090000000000000E-002    2.227007716803817E-009
 -2.080000000000000E-002   -7.570243464244560E-010
 -2.070000000000000E-002   -4.359213436100307E-009
 -2.060000000000000E-002   -8.299867435149669E-009
 -2.050000000000000E-002   -1.221393433979433E-008
 -2.040000000000000E-002   -1.566458484810659E-008
 -2.030000000000000E-002   -1.816103692022893E-008
 -2.020000000000000E-002   -1.917861313890164E-008
 -2.010000000000000E-002   -1.817876652276034E-008
 -2.000000000000000E-002   -1.462671501674843E-008
 -1.990000000000000E-002   -8.004592265705360E-009
 -1.980000000000000E-002    2.181595051461176E-009
 -1.970000000000000E-002    1.640213493935321E-008
 -1.960000000000000E-002    3.511113176767681E-008
 -1.950000000000000E-002    5.876068330244326E-008
 -1.940000000000000E-002    8.782020339857195E-008
 -1.930000000000000E-002    1.227986880094124E-007
 -1.920000000000000E-002    1.642672761197286E-007
 -1.910000000000000E-002    2.128792464137173E-007
 -1.900000000000000E-002    2.693847415765245E-007
 -1.890000000000000E-002    3.346380502405227E-007
 -1.880000000000000E-002    4.095957556656045E-007
 -1.870000000000000E-002    4.953052118977907E-007
 -1.860000000000000E-002    5.928839365346257E-007
 -1.850000000000000E-002    7.034913862713910E-007
 -1.840000000000000E-002    8.282952713741219E-007
 -1.830000000000000E-002    9.684362719612116E-007
 -1.820000000000000E-002    1.124994099857861E-006
 -1.810000000000000E-002    1.298958797182551E-006
 -1.800000000000000E-002    1.491210520164949E-006
 -1.790000000000000E-002    1.702511019925739E-006
 -1.780000000000000E-002    1.933507208461499E-006
 -1.770000000000000E-002    2.184747969658779E-006
 -1.760000000000000E-002    2.456713541061096E-006
 -1.750000000000000E-002    2.749854415860892E-006
 -1.740000000000000E-002    3.064637326614282E-006
 -1.730000000000000E-002    3.401593497031616E-006
 -1.720000000000000E-002    3.761365162394765E-006
 -1.710000000000000E-002    4.144746248144944E-006
 -1.700000000000000E-002    4.552712495956609E-006
 -1.690000000000000E-002    4.986438733668612E-006
 -1.680000000000000E-002    5.447302756475689E-006
 -1.670000000000000E-002    5.936872808647295E-006
 -1.660000000000000E-002    6.456882425833582E-006
 -1.650000000000000E-002    7.009194875849981E-006
 -1.640000000000000E-002    7.595759907548724E-006
 -1.630000000000000E-002    8.218571165625990E-006
 -1.620000000000000E-002    8.879623052290534E-006
 -1.610000000000000E-002    9.580880444105560E-006
 -1.600000000000000E-002    1.032425576104077E-005
 -1.590000000000000E-002    1.111160721646427E-005
 -1.580000000000000E-002    1.194474789792855E-005
 -1.570000000000000E-002    1.282547800481546E-005
 -1.560000000000000E-002    1.375562835426470E-005
 -1.550000000000000E-002    1.473711775924661E-005
 -1.540000000000000E-002    1.577201502350054E-005
 -1.530000000000000E-002    1.686260429089787E-005
 -1.520000000000000E-002    1.801144671690332E-005
 -1.510000000000000E-002    1.922142972256890E-005
 -1.500000000000000E-002    2.049579905199922E-005
 -1.490000000000000E-002    2.183818120691273E-005
 -1.480000000000000E-002    2.325257971670211E-005
 -1.470000000000000E-002    2.474334853970620E-005
 -1.460000000000000E-002    2.631515727810887E-005
 -1.450000000000000E-002    2.797293784891818E-005
 -1.440000000000000E-002    2.972183196275568E-005
 -1.430000000000000E-002    3.156712650814964E-005
 -1.420000000000000E-002    3.351420079983537E-005
 -1.410000000000000E-002    3.556850397678684E-005
 -1.400000000000000E-002    3.773552604727908E-005
 -1.390000000000000E-002    4.002079829355200E-005
 -1.380000000000000E-002    4.242993513945614E-005
 -1.370000000000000E-002    4.496868833941334E-005
 -1.360000000000000E-002    4.764301392724765E-005
 -1.350000000000000E-002    5.045916716699912E-005
 -1.340000000000000E-002    5.342381061120801E-005
 -1.330000000000000E-002    5.654410631638199E-005
 -1.320000000000000E-002    5.982781222497943E-005
 -1.310000000000000E-002    6.328336800563246E-005
 -1.300000000000000E-002    6.691993897346148E-005
 -1.290000000000000E-002    7.074745859826977E-005
 -1.280000000000000E-002    7.477662178845668E-005
 -1.270000000000000E-002    7.901885085057672E-005
 -1.260000000000000E-002    8.348625692200470E-005
 -1.250000000000000E-002    8.819154808846251E-005
 -1.240000000000000E-002    9.314795038853781E-005
 -1.230000000000000E-002    9.836912094642649E-005
 -1.220000000000000E-002    1.038690732213963E-004
 -1.210000000000000E-002    1.096621011634762E-004
 -1.200000000000000E-002    1.157627360846311E-004
 -1.190000000000000E-002    1.221857470404629E-004
 -1.180000000000000E-002    1.289461665888673E-004
 -1.170000000000000E-002    1.360593215870155E-004
 -1.160000000000000E-002    1.435409629442459E-004
 -1.150000000000000E-002    1.514073381272015E-004
 -1.140000000000000E-002    1.596753205199862E-004
 -1.130000000000000E-002    1.683625526019946E-004
 -1.120000000000000E-002    1.774875774304448E-004
 -1.110000000000000E-002    1.870699514630589E-004
 -1.100000000000000E-002    1.971303063439278E-004
 -1.090000000000000E-002    2.076904400269952E-004
 -1.080000000000000E-002    2.187733249407911E-004
 -1.070000000000000E-002    2.304031049445180E-004
 -1.060000000000000E-002    2.426050801154932E-004
 -1.050000000000000E-002    2.554056282568203E-004
 -1.040000000000000E-002    2.688321246774929E-004
 -1.030000000000000E-002    2.829128921777292E-004
 -1.020000000000000E-002    2.976771532429217E-004
 -1.010000000000000E-002    3.131549391809253E-004
 -1.000000000000000E-002    3.293771019109869E-004
 -9.899999999999999E-003    3.463752642624575E-004
 -9.800000000000000E-003    3.641819317061202E-004
 -9.699999999999999E-003    3.828305399129586E-004
 -9.599999999999999E-003    4.023555118102052E-004
 -9.500000000000000E-003    4.227924444864651E-004
 -9.399999999999999E-003    4.441781917992535E-004
 -9.299999999999999E-003    4.665510284914219E-004
 -9.200000000000000E-003    4.899507134630228E-004
 -9.099999999999999E-003    5.144186536795351E-004
 -8.999999999999999E-003    5.399978648345855E-004
 -8.900000000000000E-003    5.667330865002395E-004
 -8.799999999999999E-003    5.946708029787187E-004
 -8.699999999999999E-003    6.238590825904362E-004
 -8.600000000000000E-003    6.543476257161100E-004
 -8.499999999999999E-003    6.861875769393155E-004
 -8.399999999999999E-003    7.194315809632513E-004
 -8.300000000000000E-003    7.541335821138469E-004
 -8.199999999999999E-003    7.903488881365015E-004
 -8.100000000000000E-003    8.281339621111009E-004
 -8.000000000000000E-003    8.675466839744158E-004
 -7.899999999999999E-003    9.086461683266980E-004
 -7.800000000000000E-003    9.514930878544017E-004
 -7.699999999999999E-003    9.961495469195095E-004
 -7.599999999999999E-003    1.042679378728416E-003
 -7.499999999999999E-003    1.091148422443932E-003
 -7.399999999999999E-003    1.141624608691616E-003
 -7.299999999999999E-003    1.194177967373339E-003
 -7.199999999999999E-003    1.248880963456853E-003
 -7.100000000000000E-003    1.305808588481882E-003
 -6.999999999999999E-003    1.365038248755498E-003
 -6.899999999999999E-003    1.426649907355813E-003
 -6.800000000000000E-003    1.490725774023545E-003
 -6.699999999999999E-003    1.557350666042221E-003
 -6.599999999999999E-003    1.626611421906683E-003
 -6.499999999999999E-003    1.698596966930876E-003
 -6.399999999999999E-003    1.773397988409457E-003
 -6.299999999999999E-003    1.851107067804414E-003
 -6.199999999999999E-003    1.931818098172218E-003
 -6.100000000000000E-003    2.015626740429783E-003
 -5.999999999999999E-003    2.102629945846170E-003
 -5.899999999999999E-003    2.192926250507524E-003
 -5.800000000000000E-003    2.286615407075177E-003
 -5.699999999999999E-003    2.383799271774207E-003
 -5.599999999999999E-003    2.484581060331030E-003
 -5.499999999999999E-003    2.589066247524653E-003
 -5.399999999999999E-003    2.697362145978910E-003
 -5.299999999999999E-003    2.809578336792169E-003
 -5.199999999999999E-003    2.925826413601064E-003
 -5.099999999999999E-003    3.046220695168171E-003
 -4.999999999999999E-003    3.170877612086034E-003
 -4.899999999999999E-003    3.299915572259549E-003
 -4.799999999999999E-003    3.433455198498384E-003
 -4.699999999999999E-003    3.571618713182955E-003
 -4.599999999999999E-003    3.714530139302023E-003
 -4.499999999999999E-003    3.862314408474105E-003
 -4.399999999999999E-003    4.015097287367982E-003
 -4.299999999999999E-003    4.173005407881471E-003
 -4.199999999999999E-003    4.336165844541013E-003
 -4.099999999999999E-003    4.504705492203424E-003
 -3.999999999999999E-003    4.678751543013979E-003
 -3.899999999999999E-003    4.858431219098024E-003
 -3.799999999999999E-003    5.043871133407297E-003
 -3.699999999999999E-003    5.235198992738396E-003
 -3.599999999999999E-003    5.432541119173013E-003
 -3.499999999999999E-003    5.636025233173416E-003
 -3.399999999999999E-003    5.845778479162776E-003
 -3.299999999999999E-003    6.061928300473133E-003
 -3.199999999999999E-003    6.284602585376884E-003
 -3.099999999999999E-003    6.513928949476152E-003
 -2.999999999999999E-003    6.750035224279930E-003
 -2.899999999999999E-003    6.993049078406321E-003
 -2.799999999999999E-003    7.243097149826179E-003
 -2.699999999999999E-003    7.500304872199766E-003
 -2.599999999999999E-003    7.764796780578052E-003
 -2.499999999999999E-003    8.036693630174601E-003
 -2.399999999999999E-003    8.316115336109150E-003
 -2.299999999999999E-003    8.603178494149873E-003
 -2.199999999999999E-003    8.897996141087086E-003
 -2.099999999999999E-003    9.200677063798610E-003
 -1.999999999999999E-003    9.511325086617922E-003
 -1.899999999999999E-003    9.830041175887842E-003
 -1.799999999999999E-003    1.015692176361044E-002
 -1.699999999999999E-003    1.049205690534292E-002
 -1.599999999999999E-003    1.083553293828948E-002
 -1.499999999999999E-003    1.118743126385450E-002
 -1.399999999999999E-003    1.154782858290400E-002
 -1.299999999999999E-003    1.191679547410747E-002
 -1.199999999999999E-003    1.229439638536362E-002
 -1.099999999999999E-003    1.268069186795439E-002
 -9.999999999999989E-004    1.307573593091557E-002
 -8.999999999999990E-004    1.347957429256106E-002
 -7.999999999999990E-004    1.389224571284685E-002
 -6.999999999999989E-004    1.431378174677592E-002
 -5.999999999999990E-004    1.474420336156712E-002
 -4.999999999999989E-004    1.518352319112123E-002
 -3.999999999999989E-004    1.563174285416646E-002
 -2.999999999999989E-004    1.608885288457654E-002
 -1.999999999999989E-004    1.655483318249401E-002
 -9.999999999999892E-005    1.702964988722198E-002
  1.084202172485504E-018    1.751325714232392E-002
  1.000000000000011E-004    1.800559473416857E-002
  2.000000000000011E-004    1.850659179057428E-002
  3.000000000000011E-004    1.901616067791598E-002
  4.000000000000011E-004    1.953420362094579E-002
  5.000000000000011E-004    2.006060438858850E-002
  6.000000000000011E-004    2.059523431975915E-002
  7.000000000000011E-004    2.113794946538362E-002
  8.000000000000011E-004    2.168858967921740E-002
  9.000000000000012E-004    2.224698056201305E-002
  1.000000000000001E-003    2.281292828293021E-002
  1.100000000000001E-003    2.338622156097721E-002
  1.200000000000001E-003    2.396663181740305E-002
  1.300000000000001E-003    2.455391115005279E-002
  1.400000000000001E-003    2.514778823459239E-002
  1.500000000000001E-003    2.574797371575788E-002
  1.600000000000001E-003    2.635415418401099E-002
  1.700000000000001E-003    2.696599388041891E-002
  1.800000000000001E-003    2.758313330528343E-002
  1.900000000000001E-003    2.820518633893688E-002
  2.000000000000001E-003    2.883174440097300E-002
  2.100000000000001E-003    2.946237148093141E-002
  2.200000000000001E-003    3.009660861541278E-002
  2.300000000000001E-003    3.073396810382493E-002
  2.400000000000001E-003    3.137393729763129E-002
  2.500000000000001E-003    3.201597440073992E-002
  2.600000000000001E-003    3.265951659133676E-002
  2.700000000000001E-003    3.330396642012577E-002
  2.800000000000001E-003    3.394870416228104E-002
  2.900000000000001E-003    3.459307417082412E-002
  3.000000000000001E-003    3.523640038956896E-002
  3.100000000000001E-003    3.587797160619994E-002
  3.200000000000001E-003    3.651704205879401E-002
  3.300000000000001E-003    3.715284351767562E-002
  3.400000000000001E-003    3.778456778764055E-002
  3.500000000000001E-003    3.841137638738954E-002
  3.600000000000001E-003    3.903239645620260E-002
  3.700000000000001E-003    3.964672023431929E-002
  3.800000000000001E-003    4.025340542402830E-002
  3.900000000000001E-003    4.085147429610505E-002
  4.000000000000001E-003    4.143991181111646E-002
  4.100000000000001E-003    4.201766930785980E-002
  4.200000000000001E-003    4.258366543106345E-002
  4.300000000000001E-003    4.313677493570500E-002
  4.400000000000001E-003    4.367584704821238E-002
  4.500000000000001E-003    4.419968868630685E-002
  4.600000000000002E-003    4.470706895602821E-002
  4.700000000000001E-003    4.519672809244282E-002
  4.800000000000001E-003    4.566736865523483E-002
  4.900000000000002E-003    4.611765610417647E-002
  5.000000000000001E-003    4.654621701910174E-002
  5.100000000000001E-003    4.695165028636767E-002
  5.200000000000001E-003    4.733251050479508E-002
  5.300000000000002E-003    4.768731952777643E-002
  5.400000000000001E-003    4.801456037420333E-002
  5.500000000000001E-003    4.831268564932632E-002
  5.600000000000002E-003    4.858010557639832E-002
  5.700000000000001E-003    4.881519776795108E-002
  5.800000000000001E-003    4.901630583610531E-002
  5.900000000000002E-003    4.918173860746468E-002
  6.000000000000001E-003    4.930976712866607E-002
  6.100000000000001E-003    4.939862995461226E-002
  6.200000000000002E-003    4.944653401910491E-002
  6.300000000000002E-003    4.945165077138510E-002
  6.400000000000001E-003    4.941212601048998E-002
  6.500000000000001E-003    4.932607302855661E-002
  6.600000000000002E-003    4.919157198798891E-002
  6.700000000000001E-003    4.900668331837969E-002
  6.800000000000001E-003    4.876943414911546E-002
  6.900000000000002E-003    4.847782584878923E-002
  7.000000000000001E-003    4.812983777124427E-002
  7.100000000000001E-003    4.772342624399902E-002
  7.200000000000002E-003    4.725652453760991E-002
  7.300000000000002E-003    4.672704273211163E-002
  7.400000000000001E-003    4.613286957851247E-002
  7.500000000000001E-003    4.547188342202486E-002
  7.600000000000002E-003    4.474193751459489E-002
  7.700000000000001E-003    4.394087234841494E-002
  7.800000000000001E-003    4.306651351691450E-002
  7.900000000000001E-003    4.211667535793258E-002
  8.000000000000002E-003    4.108916020800378E-002
  8.100000000000001E-003    3.998176326340812E-002
  8.200000000000001E-003    3.879227205312993E-002
  8.300000000000002E-003    3.751847037607364E-002
  8.400000000000001E-003    3.615813780206305E-002
  8.500000000000002E-003    3.470905384422102E-002
  8.600000000000002E-003    3.316900259060087E-002
  8.700000000000001E-003    3.153577282490843E-002
  8.800000000000002E-003    2.980715883153244E-002
  8.900000000000002E-003    2.798097256072501E-002
  9.000000000000001E-003    2.605503129775844E-002
  9.100000000000002E-003    2.402717177898946E-002
  9.200000000000002E-003    2.189524840249215E-002
  9.300000000000001E-003    1.965713661374444E-002
  9.400000000000002E-003    1.731073704564928E-002
  9.500000000000001E-003    1.485397498720058E-002
  9.600000000000001E-003    1.228480685106524E-002
  9.700000000000002E-003    9.601220277067567E-003
  9.800000000000001E-003    6.801236423996271E-003
  9.900000000000001E-003    3.882915771516183E-003
  1.000000000000000E-002    8.443596284160956E-004
  1.010000000000000E-002   -2.316287233498611E-003
  1.020000000000000E-002   -5.600833071240830E-003
  1.030000000000000E-002   -9.011035530210881E-003
  1.040000000000000E-002   -1.254859768376261E-002
  1.050000000000000E-002   -1.621516599965785E-002
  1.060000000000000E-002   -2.001232337891156E-002
  1.070000000000000E-002   -2.394159041275553E-002
  1.080000000000000E-002   -2.800441745227472E-002
  1.090000000000000E-002   -3.220218414437637E-002
  1.100000000000000E-002   -3.653619466814574E-002
  1.110000000000000E-002   -4.100767312425698E-002
  1.120000000000000E-002   -4.561776378602438E-002
  1.130000000000000E-002   -5.036752206419872E-002
  1.140000000000000E-002   -5.525791812027150E-002
  1.150000000000000E-002   -6.028982545743856E-002
  1.160000000000000E-002   -6.546402889183696E-002
  1.170000000000000E-002   -7.078121203071074E-002
  1.180000000000000E-002   -7.624195523301613E-002
  1.190000000000000E-002   -8.184673935451368E-002
  1.200000000000000E-002   -8.759593873203314E-002
  1.210000000000000E-002   -9.348980705101964E-002
  1.220000000000000E-002   -9.952849740397648E-002
  1.230000000000000E-002   -0.105712030027440     
  1.240000000000000E-002   -0.112040314954124     
  1.250000000000000E-002   -0.118513129336509     
  1.260000000000000E-002   -0.125130134882784     
  1.270000000000000E-002   -0.131890844774995     
  1.280000000000000E-002   -0.138794639309324     
  1.290000000000000E-002   -0.145840784886309     
  1.300000000000000E-002   -0.153028380147993     
  1.310000000000000E-002   -0.160356385670965     
  1.320000000000000E-002   -0.167823616739113     
  1.330000000000000E-002   -0.175428750151747     
  1.340000000000000E-002   -0.183170306308766     
  1.350000000000000E-002   -0.191046664178428     
  1.360000000000000E-002   -0.199056028518154     
  1.370000000000000E-002   -0.207196455538218     
  1.380000000000000E-002   -0.215465856884617     
  1.390000000000000E-002   -0.223861974224085     
  1.400000000000000E-002   -0.232382387665616     
  1.410000000000000E-002   -0.241024523912732     
  1.420000000000000E-002   -0.249785630440817     
  1.430000000000000E-002   -0.258662821514031     
  1.440000000000000E-002   -0.267652979033836     
  1.450000000000000E-002   -0.276752887868179     
  1.460000000000000E-002   -0.285959117530574     
  1.470000000000000E-002   -0.295268073740771     
  1.480000000000000E-002   -0.304676014620930     
  1.490000000000000E-002   -0.314179022222524     
  1.500000000000000E-002   -0.323773009653776     
  1.510000000000000E-002   -0.333453684515137     
  1.520000000000000E-002   -0.343216611407460     
  1.530000000000000E-002   -0.353057198073069     
  1.540000000000000E-002   -0.362970631629088     
  1.550000000000000E-002   -0.372951996601021     
  1.560000000000000E-002   -0.382996193691061     
  1.570000000000000E-002   -0.393097917200311     
  1.580000000000000E-002   -0.403251733200550     
  1.590000000000000E-002   -0.413452057360483     
  1.600000000000000E-002   -0.423693125348504     
  1.610000000000000E-002   -0.433969014649864     
  1.620000000000000E-002   -0.444273644093494     
  1.630000000000000E-002   -0.454600770264583     
  1.640000000000000E-002   -0.464943983778595     
  1.650000000000000E-002   -0.475296752923425     
  1.660000000000000E-002   -0.485652389453220     
  1.670000000000000E-002   -0.496004098541150     
  1.680000000000000E-002   -0.506344886300626     
  1.690000000000000E-002   -0.516667604879006     
  1.700000000000000E-002   -0.526965045673054     
  1.710000000000000E-002   -0.537229815898646     
  1.720000000000000E-002   -0.547454452527462     
  1.730000000000000E-002   -0.557631304268082     
  1.740000000000000E-002   -0.567752636139865     
  1.750000000000000E-002   -0.577810607471668     
  1.760000000000000E-002   -0.587797302006295     
  1.770000000000000E-002   -0.597704632805652     
  1.780000000000000E-002   -0.607524465393125     
  1.790000000000000E-002   -0.617248538310088     
  1.800000000000000E-002   -0.626868576182938     
  1.810000000000000E-002   -0.636376161280593     
  1.820000000000000E-002   -0.645762840922792     
  1.830000000000000E-002   -0.655020053668788     
  1.840000000000000E-002   -0.664139218635071     
  1.850000000000000E-002   -0.673111712290530     
  1.860000000000000E-002   -0.681928809478780     
  1.870000000000000E-002   -0.690581770438949     