 -4.000000000000000E-002    0.000000000000000E+000
 -3.990000000000000E-002    0.000000000000000E+000
 -3.980000000000000E-002    0.000000000000000E+000
 -3.970000000000000E-002    0.000000000000000E+000
 -3.960000000000000E-002    0.000000000000000E+000
 -3.950000000000000E-002    0.000000000000000E+000
 -3.940000000000000E-002    0.000000000000000E+000
 -3.930000000000000E-002    0.000000000000000E+000
 -3.920000000000000E-002    0.000000000000000E+000
 -3.910000000000000E-002    0.000000000000000E+000
 -3.900000000000000E-002    0.000000000000000E+000
 -3.890000000000000E-002    0.000000000000000E+000
 -3.880000000000000E-002    0.000000000000000E+000
 -3.870000000000000E-002    0.000000000000000E+000
 -3.860000000000000E-002    0.000000000000000E+000
 -3.850000000000000E-002    0.000000000000000E+000
 -3.840000000000000E-002   -3.482928367462728E-046
 -3.830000000000000E-002   -4.251239258554194E-045
 -3.820000000000000E-002   -4.056462546032890E-044
 -3.810000000000000E-002   -3.036032224532009E-043
 -3.800000000000000E-002   -1.867368182919769E-042
 -3.790000000000000E-002   -9.736683894230254E-042
 -3.780000000000000E-002   -4.423893885855307E-041
 -3.770000000000000E-002   -1.785008073740500E-040
 -3.760000000000000E-002   -6.484921853781029E-040
 -3.750000000000000E-002   -2.143059240047657E-039
 -3.740000000000000E-002   -6.490116850263523E-039
 -3.730000000000000E-002   -1.810303956828390E-038
 -3.720000000000000E-002   -4.663626291900133E-038
 -3.710000000000000E-002   -1.109753534159634E-037
 -3.700000000000000E-002   -2.430902659907661E-037
 -3.690000000000000E-002   -4.856150720861671E-037
 -3.680000000000000E-002   -8.660802161864872E-037
 -3.670000000000000E-002   -1.308653933996659E-036
 -3.660000000000000E-002   -1.405143087753076E-036
 -3.650000000000000E-002    9.347103332985164E-038
 -3.640000000000000E-002    6.282031652715941E-036
 -3.630000000000000E-002    2.389298388299496E-035
 -3.620000000000000E-002    6.617227842442609E-035
 -3.610000000000000E-002    1.569554734828860E-034
 -3.600000000000000E-002    3.354842825302058E-034
 -3.590000000000000E-002    6.602364629585867E-034
 -3.580000000000000E-002    1.207730780535419E-033
 -3.570000000000000E-002    2.058617220192539E-033
 -3.560000000000000E-002    3.258365956397484E-033
 -3.550000000000000E-002    4.734203951300948E-033
 -3.540000000000000E-002    6.145512937837224E-033
 -3.530000000000000E-002    6.645466250771178E-033
 -3.520000000000000E-002    4.543364028873118E-033
 -3.510000000000000E-002   -3.111487695514786E-033
 -3.500000000000000E-002   -2.094236000398692E-032
 -3.490000000000000E-002   -5.547226649872735E-032
 -3.480000000000000E-002   -1.148421735790302E-031
 -3.470000000000000E-002   -2.075238547000772E-031
 -3.460000000000000E-002   -3.393606331271468E-031
 -3.450000000000000E-002   -5.081695462356933E-031
 -3.440000000000000E-002   -6.952189586265755E-031
 -3.430000000000000E-002   -8.533100701874369E-031
 -3.420000000000000E-002   -8.921171124109555E-031
 -3.410000000000000E-002   -6.630556734572983E-031
 -3.400000000000000E-002    5.165943503151207E-032
 -3.390000000000000E-002    1.538012658433996E-030
 -3.380000000000000E-002    4.126079858314065E-030
 -3.370000000000000E-002    8.128747357729969E-030
 -3.360000000000000E-002    1.372814532362105E-029
 -3.350000000000000E-002    2.079740167580995E-029
 -3.340000000000000E-002    2.865414402239277E-029
 -3.330000000000000E-002    3.575943565198627E-029
 -3.320000000000000E-002    3.940327117682792E-029
 -3.310000000000000E-002    3.545545890369149E-029
 -3.300000000000000E-002    1.830592093743630E-029
 -3.290000000000000E-002   -1.883589813468037E-029
 -3.280000000000000E-002   -8.307890475957065E-029
 -3.270000000000000E-002   -1.802178675354363E-028
 -3.260000000000000E-002   -3.121717151607891E-028
 -3.250000000000000E-002   -4.734603111022252E-028
 -3.240000000000000E-002   -6.469138428844250E-028
 -3.230000000000000E-002   -7.991466967971212E-028
 -3.220000000000000E-002   -8.767672930778188E-028
 -3.210000000000000E-002   -8.047950399424092E-028
 -3.200000000000000E-002   -4.892316513536409E-028
 -3.190000000000000E-002    1.739446649898156E-028
 -3.180000000000000E-002    1.281108778696986E-027
 -3.170000000000000E-002    2.892951781967050E-027
 -3.160000000000000E-002    4.995712404842978E-027
 -3.150000000000000E-002    7.453572220149503E-027
 -3.140000000000000E-002    9.957363850780748E-027
 -3.130000000000000E-002    1.197885425690283E-026
 -3.120000000000000E-002    1.274443721673610E-026
 -3.110000000000000E-002    1.124635364106083E-026
 -3.100000000000000E-002    6.312451027313112E-027
 -3.090000000000000E-002   -3.244454809391968E-027
 -3.080000000000000E-002   -1.838098031059915E-026
 -3.070000000000000E-002   -3.947525440047933E-026
 -3.060000000000000E-002   -6.588845665314516E-026
 -3.050000000000000E-002   -9.547323607806940E-026
 -3.040000000000000E-002   -1.240988024454956E-025
 -3.030000000000000E-002   -1.452987223914338E-025
 -3.020000000000000E-002   -1.501824694039886E-025
 -3.010000000000000E-002   -1.277778119005609E-025
 -3.000000000000000E-002   -6.597851817190827E-026
 -2.990000000000000E-002    4.675067985751394E-026
 -2.980000000000000E-002    2.188232368254888E-025
 -2.970000000000000E-002    4.521591441676397E-025
 -2.960000000000000E-002    7.381840403331076E-025
 -2.950000000000000E-002    1.053607772617510E-024
 -2.940000000000000E-002    1.356640900496402E-024
 -2.930000000000000E-002    1.584564025121750E-024
 -2.920000000000000E-002    1.653780501149410E-024
 -2.910000000000000E-002    1.463605122160097E-024
 -2.900000000000000E-002    9.049980721489329E-025
 -2.890000000000000E-002   -1.248195719673395E-025
 -2.880000000000000E-002   -1.701497151743863E-024
 -2.870000000000000E-002   -3.846953513521903E-024
 -2.860000000000000E-002   -6.498778256203197E-024
 -2.850000000000000E-002   -9.478844795312164E-024
 -2.840000000000000E-002   -1.246595476600997E-023
 -2.830000000000000E-002   -1.497884380956946E-023
 -2.820000000000000E-002   -1.637704470778601E-023
 -2.810000000000000E-002   -1.588753256335764E-023
 -2.800000000000000E-002   -1.266442775069405E-023
 -2.790000000000000E-002   -5.886922247019781E-024
 -2.780000000000000E-002    5.103172623971333E-024
 -2.770000000000000E-002    2.062848355437415E-023
 -2.760000000000000E-002    4.047916625159986E-023
 -2.750000000000000E-002    6.371181177740034E-023
 -2.740000000000000E-002    8.847268733754833E-023
 -2.730000000000000E-002    1.118814927569576E-022
 -2.720000000000000E-002    1.300171657316974E-022
 -2.710000000000000E-002    1.380483013001506E-022
 -2.700000000000000E-002    1.305459061019495E-022
 -2.690000000000000E-002    1.020038731734255E-022
 -2.680000000000000E-002    4.757213287802531E-023
 -2.670000000000000E-002   -3.602154176652679E-023
 -2.660000000000000E-002   -1.494202113599266E-022
 -2.650000000000000E-002   -2.895562716569481E-022
 -2.640000000000000E-002   -4.486777107448483E-022
 -2.630000000000000E-002   -6.136532981234572E-022
 -2.620000000000000E-002   -7.657480823462856E-022
 -2.610000000000000E-002   -8.810598398214827E-022
 -2.600000000000000E-002   -9.317808795333687E-022
 -2.590000000000000E-002   -8.883911480083027E-022
 -2.580000000000000E-002   -7.227977004228288E-022
 -2.570000000000000E-002   -4.123137555479964E-022
 -2.560000000000000E-002    5.577241777362605E-023
 -2.550000000000000E-002    6.794435704748780E-022
 -2.540000000000000E-002    1.437562377666715E-021
 -2.530000000000000E-002    2.286505743854522E-021
 -2.520000000000000E-002    3.158543069082542E-021
 -2.510000000000000E-002    3.962659812624334E-021
 -2.500000000000000E-002    4.588407774436926E-021
 -2.490000000000000E-002    4.913140208891774E-021
 -2.480000000000000E-002    4.812660674470587E-021
 -2.470000000000000E-002    4.174899164875205E-021
 -2.460000000000000E-002    2.915760100434884E-021
 -2.450000000000000E-002    9.958029136224809E-022
 -2.440000000000000E-002   -1.563996891670327E-021
 -2.430000000000000E-002   -4.669468783682473E-021
 -2.420000000000000E-002   -8.145616908167118E-021
 -2.410000000000000E-002   -1.173618092295641E-020
 -2.400000000000000E-002   -1.511202463053352E-020
 -2.390000000000000E-002   -1.788928252814398E-020
 -2.380000000000000E-002   -1.965727049835299E-020
 -2.370000000000000E-002   -2.001502398957714E-020
 -2.360000000000000E-002   -1.861412637330230E-020
 -2.350000000000000E-002   -1.520434247997967E-020
 -2.340000000000000E-002   -9.677637808510598E-021
 -2.330000000000000E-002   -2.105584952346486E-021
 -2.320000000000000E-002    7.234923402763952E-021
 -2.310000000000000E-002    1.785227216615127E-020
 -2.300000000000000E-002    2.905053953055347E-020
 -2.290000000000000E-002    3.996165314852220E-020
 -2.280000000000000E-002    4.959911438604772E-020
 -2.270000000000000E-002    5.693087578143702E-020
 -2.260000000000000E-002    6.096663357143002E-020
 -2.250000000000000E-002    6.085282516669263E-020
 -2.240000000000000E-002    5.596710686597249E-020
 -2.230000000000000E-002    4.600330602322422E-020
 -2.220000000000000E-002    3.103802141229212E-020
 -2.210000000000000E-002    1.157088147768032E-020
 -2.200000000000000E-002   -1.146760728150917E-020
 -2.190000000000000E-002   -3.674428391812095E-020
 -2.180000000000000E-002   -6.258851402383387E-020
 -2.170000000000000E-002   -8.709222763166904E-020
 -2.160000000000000E-002   -1.082399063271923E-019
 -2.150000000000000E-002   -1.240612396068840E-019
 -2.140000000000000E-002   -1.327972788023166E-019
 -2.130000000000000E-002   -1.330694321271185E-019
 -2.120000000000000E-002   -1.240398061188134E-019
 -2.110000000000000E-002   -1.055506352514608E-019
 -2.100000000000000E-002   -7.823023808470883E-020
 -2.090000000000000E-002   -4.355243570141876E-020
 -2.080000000000000E-002   -3.836465539133972E-021
 -2.070000000000000E-002    3.782536956469017E-020
 -2.060000000000000E-002    7.772351359688375E-020
 -2.050000000000000E-002    1.117784653523919E-019
 -2.040000000000000E-002    1.358822426753934E-019
 -2.030000000000000E-002    1.463281232168985E-019
 -2.020000000000000E-002    1.403109520804015E-019
 -2.010000000000000E-002    1.164657278012352E-019
 -2.000000000000000E-002    7.539546817694208E-020
 -1.990000000000000E-002    2.012273918257199E-020
 -1.980000000000000E-002   -4.361467635988521E-020
 -1.970000000000000E-002   -1.073113740739697E-019
 -1.960000000000000E-002   -1.599709239712084E-019
 -1.950000000000000E-002   -1.887822535623795E-019
 -1.940000000000000E-002   -1.802366037605189E-019
 -1.930000000000000E-002   -1.216793568733743E-019
 -1.920000000000000E-002   -3.230891909543106E-021
 -1.910000000000000E-002    1.800603836487171E-019
 -1.900000000000000E-002    4.260425816537180E-019
 -1.890000000000000E-002    7.235386042353151E-019
 -1.880000000000000E-002    1.051000269303664E-018
 -1.870000000000000E-002    1.376077901116118E-018
 -1.860000000000000E-002    1.656417709183763E-018
 -1.850000000000000E-002    1.841924997816197E-018
 -1.840000000000000E-002    1.878603836973804E-018
 -1.830000000000000E-002    1.713907223203893E-018
 -1.820000000000000E-002    1.303324692184752E-018
 -1.810000000000000E-002    6.177063267064418E-019
 -1.800000000000000E-002   -3.493915288980830E-019
 -1.790000000000000E-002   -1.575226217071338E-018
 -1.780000000000000E-002   -3.003234852272095E-018
 -1.770000000000000E-002   -4.541222108163498E-018
 -1.760000000000000E-002   -6.063210614089275E-018
 -1.750000000000000E-002   -7.415524255435316E-018
 -1.740000000000000E-002   -8.427281601355672E-018
 -1.730000000000000E-002   -8.924975933261109E-018
 -1.720000000000000E-002   -8.750264085974326E-018
 -1.710000000000000E-002   -7.779530664987498E-018
 -1.700000000000000E-002   -5.943317328685762E-018
 -1.690000000000000E-002   -3.243363185134732E-018
 -1.680000000000000E-002    2.351001014978601E-019
 -1.670000000000000E-002    4.318026379704889E-018
 -1.660000000000000E-002    8.745968497622152E-018
 -1.650000000000000E-002    1.318727000719125E-017
 -1.640000000000000E-002    1.726108332348136E-017
 -1.630000000000000E-002    2.056912370152229E-017
 -1.620000000000000E-002    2.273386616915894E-017
 -1.610000000000000E-002    2.343977639535973E-017
 -1.600000000000000E-002    2.247331680983187E-017
 -1.590000000000000E-002    1.975695218541559E-017
 -1.580000000000000E-002    1.537242679498370E-017
 -1.570000000000000E-002    9.569139663939552E-018
 -1.560000000000000E-002    2.754634041453472E-018
 -1.550000000000000E-002   -4.534060820160363E-018
 -1.540000000000000E-002   -1.167744065445503E-017
 -1.530000000000000E-002   -1.803573048392985E-017
 -1.520000000000000E-002   -2.302088536239862E-017
 -1.510000000000000E-002   -2.617103654942827E-017
 -1.500000000000000E-002   -2.721871320205047E-017
 -1.490000000000000E-002   -2.614363847966965E-017
 -1.480000000000000E-002   -2.320145717585802E-017
 -1.470000000000000E-002   -1.892143893739089E-017
 -1.460000000000000E-002   -1.406884170867217E-017
 -1.450000000000000E-002   -9.571377610911185E-018
 -1.440000000000000E-002   -6.413314744048943E-018
 -1.430000000000000E-002   -5.505367375557948E-018
 -1.420000000000000E-002   -7.542560958958363E-018
 -1.410000000000000E-002   -1.286564522228387E-017
 -1.400000000000000E-002   -2.134366828720303E-017
 -1.390000000000000E-002   -3.229556899255454E-017
 -1.380000000000000E-002   -4.446690126717485E-017
 -1.370000000000000E-002   -5.607387757154173E-017
 -1.360000000000000E-002   -6.492106764617174E-017
 -1.350000000000000E-002   -6.859141388763829E-017
 -1.340000000000000E-002   -6.469885673395036E-017
 -1.330000000000000E-002   -5.118491662810656E-017
 -1.320000000000000E-002   -2.663271072827805E-017
 -1.310000000000000E-002    9.434486020779807E-018
 -1.300000000000000E-002    5.630637436266923E-017
 -1.290000000000000E-002    1.119267110267999E-016
 -1.280000000000000E-002    1.728544722697352E-016
 -1.270000000000000E-002    2.343687246269186E-016
 -1.260000000000000E-002    2.907288020334851E-016
 -1.250000000000000E-002    3.355856047612978E-016
 -1.240000000000000E-002    3.625228749459681E-016
 -1.230000000000000E-002    3.656898122057626E-016
 -1.220000000000000E-002    3.404705338618741E-016
 -1.210000000000000E-002    2.841242628706440E-016
 -1.200000000000000E-002    1.963238934763477E-016
 -1.190000000000000E-002    7.952197055173330E-017
 -1.180000000000000E-002   -6.091784435200417E-017
 -1.170000000000000E-002   -2.168675237048105E-016
 -1.160000000000000E-002   -3.778787034116919E-016
 -1.150000000000000E-002   -5.319118699035528E-016
 -1.140000000000000E-002   -6.663053726636732E-016
 -1.130000000000000E-002   -7.689065605028208E-016
 -1.120000000000000E-002   -8.292589163315601E-016
 -1.110000000000000E-002   -8.397208484458787E-016
 -1.100000000000000E-002   -7.963858042235647E-016
 -1.090000000000000E-002   -6.996807217220262E-016
 -1.080000000000000E-002   -5.545458244114599E-016
 -1.070000000000000E-002   -3.701377732999671E-016
 -1.060000000000000E-002   -1.590503464715704E-016
 -1.050000000000000E-002    6.389423251477229E-017
 -1.040000000000000E-002    2.831701734577821E-016
 -1.030000000000000E-002    4.842225215217822E-016
 -1.020000000000000E-002    6.550879542353951E-016
 -1.010000000000000E-002    7.877412089737211E-016
 -1.000000000000000E-002    8.789593977563298E-016
 -9.899999999999999E-003    9.305379364370996E-016
 -9.800000000000000E-003    9.487605426769241E-016
 -9.699999999999999E-003    9.431229188760196E-016
 -9.599999999999999E-003    9.244140323962414E-016
 -9.500000000000000E-003    9.023728034292257E-016
 -9.399999999999999E-003    8.832319854019027E-016
 -9.299999999999999E-003    8.675277586644100E-016
 -9.200000000000000E-003    8.485812447311025E-016
 -9.099999999999999E-003    8.120253451744034E-016
 -8.999999999999999E-003    7.366627450016976E-016
 -8.900000000000000E-003    5.967963206942347E-016
 -8.799999999999999E-003    3.659809498372883E-016
 -8.699999999999999E-003    2.192521426779325E-017
 -8.600000000000000E-003   -4.479497831267982E-016
 -8.499999999999999E-003   -1.040983870737040E-015
 -8.399999999999999E-003   -1.734607877484965E-015
 -8.300000000000000E-003   -2.483406055055543E-015
 -8.199999999999999E-003   -3.218724241926117E-015
 -8.100000000000000E-003   -3.851456291055672E-015
 -8.000000000000000E-003   -4.278340532432979E-015
 -7.899999999999999E-003   -4.391698215498947E-015
 -7.800000000000000E-003   -4.092086924098985E-015
 -7.699999999999999E-003   -3.302851532656721E-015
 -7.599999999999999E-003   -1.985127380284380E-015
 -7.499999999999999E-003   -1.515186999580410E-016
 -7.399999999999999E-003    2.123504292256638E-015
 -7.299999999999999E-003    4.698380207406599E-015
 -7.199999999999999E-003    7.366026845631563E-015
 -7.100000000000000E-003    9.863292227711654E-015
 -6.999999999999999E-003    1.188862535737445E-014
 -6.899999999999999E-003    1.312740781376458E-014
 -6.800000000000000E-003    1.328340046159896E-014
 -6.699999999999999E-003    1.211381969082620E-014
 -6.599999999999999E-003    9.464761429281961E-015
 -6.499999999999999E-003    5.303148529430429E-015
 -6.399999999999999E-003   -2.587940681408728E-016
 -6.299999999999999E-003   -6.950277996359581E-015
 -6.199999999999999E-003   -1.434293787723033E-014
 -6.100000000000000E-003   -2.186797190839326E-014
 -5.999999999999999E-003   -2.884985980080836E-014
 -5.899999999999999E-003   -3.455534889748395E-014
 -5.800000000000000E-003   -3.825468207829478E-014
 -5.699999999999999E-003   -3.929033849855639E-014
 -5.599999999999999E-003   -3.714734375837811E-014
 -5.499999999999999E-003   -3.151834783501764E-014
 -5.399999999999999E-003   -2.235655929968185E-014
 -5.299999999999999E-003   -9.910189197150828E-015
 -5.199999999999999E-003    5.266628202406048E-015
 -5.099999999999999E-003    2.232957020798071E-014
 -4.999999999999999E-003    4.018716337552280E-014
 -4.899999999999999E-003    5.756919019286234E-014
 -4.799999999999999E-003    7.311581911143122E-014
 -4.699999999999999E-003    8.548052808458939E-014
 -4.599999999999999E-003    9.343815006356180E-014
 -4.499999999999999E-003    9.598845044781659E-014
 -4.399999999999999E-003    9.244571175486048E-014
 -4.299999999999999E-003    8.250583618388069E-014
 -4.199999999999999E-003    6.628451620274604E-014
 -4.099999999999999E-003    4.432271391484715E-014
 -3.999999999999999E-003    1.755892844205353E-014
 -3.899999999999999E-003   -1.272893270353789E-014
 -3.799999999999999E-003   -4.500620300121177E-014
 -3.699999999999999E-003   -7.758039594426872E-014
 -3.599999999999999E-003   -1.087066926155019E-013
 -3.499999999999999E-003   -1.366899417220856E-013
 -3.399999999999999E-003   -1.599740642981496E-013
 -3.299999999999999E-003   -1.772118509258315E-013
 -3.199999999999999E-003   -1.873110908210364E-013
 -3.099999999999999E-003   -1.894565247060587E-013
 -2.999999999999999E-003   -1.831106274889894E-013
 -2.899999999999999E-003   -1.679995309938067E-013
 -2.799999999999999E-003   -1.440926752160190E-013
 -2.699999999999999E-003   -1.115854497205481E-013
 -2.599999999999999E-003   -7.089403538838417E-014
 -2.499999999999999E-003   -2.266909605448780E-014
 -2.399999999999999E-003    3.216856444224636E-014
 -2.299999999999999E-003    9.237196953013902E-014
 -2.199999999999999E-003    1.562981628833835E-013
 -2.099999999999999E-003    2.218367360716988E-013
 -1.999999999999999E-003    2.863524325561495E-013
 -1.899999999999999E-003    3.466605871232764E-013
 -1.799999999999999E-003    3.990538022085006E-013
 -1.699999999999999E-003    4.393969215169204E-013
 -1.599999999999999E-003    4.633013693314573E-013
 -1.499999999999999E-003    4.663830469285865E-013
 -1.399999999999999E-003    4.445982316635680E-013
 -1.299999999999999E-003    3.946418273008203E-013
 -1.199999999999999E-003    3.143811784527837E-013
 -1.099999999999999E-003    2.032898168596234E-013
 -9.999999999999989E-004    6.283817821451637E-014
 -8.999999999999990E-004   -1.032047860734797E-013
 -7.999999999999990E-004   -2.886048567516657E-013
 -6.999999999999989E-004   -4.846701967829601E-013
 -5.999999999999990E-004   -6.804637300501849E-013
 -4.999999999999989E-004   -8.632343715596032E-013
 -3.999999999999989E-004   -1.019065600418580E-012
 -2.999999999999989E-004   -1.133717918252730E-012
 -1.999999999999989E-004   -1.193623551696479E-012
 -9.999999999999892E-005   -1.186972761549127E-012
  1.084202172485504E-018   -1.104816305820020E-012
  1.000000000000011E-004   -9.420989742008026E-013
  2.000000000000011E-004   -6.985360448196373E-013
  3.000000000000011E-004   -3.792479622574952E-013
  4.000000000000011E-004    4.920496516499371E-015
  5.000000000000011E-004    4.374522532522252E-013
  6.000000000000011E-004    8.966141847822991E-013
  7.000000000000011E-004    1.356321937387121E-012
  8.000000000000011E-004    1.787389815848679E-012
  9.000000000000012E-004    2.159111885416145E-012
  1.000000000000001E-003    2.441094345763634E-012
  1.100000000000001E-003    2.605237522822434E-012
  1.200000000000001E-003    2.627748475596909E-012
  1.300000000000001E-003    2.491059777192402E-012
  1.400000000000001E-003    2.185525241008472E-012
  1.500000000000001E-003    1.710776504673166E-012
  1.600000000000001E-003    1.076634700936845E-012
  1.700000000000001E-003    3.034941215838424E-013
  1.800000000000001E-003   -5.778751247811987E-013
  1.900000000000001E-003   -1.527136140175144E-012
  2.000000000000001E-003   -2.495798674627179E-012
  2.100000000000001E-003   -3.429204553861681E-012
  2.200000000000001E-003   -4.269017191434491E-012
  2.300000000000001E-003   -4.956126778357276E-012
  2.400000000000001E-003   -5.433852958948212E-012
  2.500000000000001E-003   -5.651309434474552E-012
  2.600000000000001E-003   -5.566778088035632E-012
  2.700000000000001E-003   -5.150929467549812E-012
  2.800000000000001E-003   -4.389714825003284E-012
  2.900000000000001E-003   -3.286757669257412E-012
  3.000000000000001E-003   -1.865072179124275E-012
  3.100000000000001E-003   -1.679499518026802E-013
  3.200000000000001E-003    1.741127337584169E-012
  3.300000000000001E-003    3.779662573545791E-012
  3.400000000000001E-003    5.848478925165458E-012
  3.500000000000001E-003    7.835242653731047E-012
  3.600000000000001E-003    9.619138066960455E-012
  3.700000000000001E-003    1.107659196245604E-011
  3.800000000000001E-003    1.208786443153651E-011
  3.900000000000001E-003    1.254425416689421E-011
  4.000000000000001E-003    1.235557315012470E-011
  4.100000000000001E-003    1.145749835700374E-011
  4.200000000000001E-003    9.818336458627538E-012
  4.300000000000001E-003    7.444715359338645E-012
  4.400000000000001E-003    4.385718116112806E-012
  4.500000000000001E-003    7.349887214226839E-013
  4.600000000000002E-003   -3.369567993056151E-012
  4.700000000000001E-003   -7.748794352213803E-012
  4.800000000000001E-003   -1.218812912759994E-011
  4.900000000000002E-003   -1.644628313492166E-011
  5.000000000000001E-003   -2.026652065738304E-011
  5.100000000000001E-003   -2.339013985413186E-011
  5.200000000000001E-003   -2.557152647266243E-011
  5.300000000000002E-003   -2.659401047311888E-011
  5.400000000000001E-003   -2.628559255612052E-011
  5.500000000000001E-003   -2.453351213591739E-011
  5.600000000000002E-003   -2.129662070014860E-011
  5.700000000000001E-003   -1.661455199675683E-011
  5.800000000000001E-003   -1.061278455614530E-011
  5.900000000000002E-003   -3.502910044864612E-012
  6.000000000000001E-003    4.422353156414308E-012
  6.100000000000001E-003    1.279954181046954E-011
  6.200000000000002E-003    2.121002721643982E-011
  6.300000000000002E-003    2.920022692803200E-011
  6.400000000000001E-003    3.630554091478692E-011
  6.500000000000001E-003    4.207680561114403E-011
  6.600000000000002E-003    4.610777508684269E-011
  6.700000000000001E-003    4.806197975980364E-011
  6.800000000000001E-003    4.769723100277786E-011
  6.900000000000002E-003    4.488609272339308E-011
  7.000000000000001E-003    3.963073028087872E-011
  7.100000000000001E-003    3.207085662724198E-011
  7.200000000000002E-003    2.248381951369609E-011
  7.300000000000002E-003    1.127631931505911E-011
  7.400000000000001E-003   -1.032298542999653E-012
  7.500000000000001E-003   -1.383461567146950E-011
  7.600000000000002E-003   -2.646659423284018E-011
  7.700000000000001E-003   -3.824439258685005E-011
  7.800000000000001E-003   -4.850456257337130E-011
  7.900000000000001E-003   -5.664538331771294E-011
  8.000000000000002E-003   -6.216679609739251E-011
  8.100000000000001E-003   -6.470639256139399E-011
  8.200000000000001E-003   -6.406892203606150E-011
  8.300000000000002E-003   -6.024702814293734E-011
  8.400000000000001E-003   -5.343133367907972E-011
  8.500000000000002E-003   -4.400839545271319E-011
  8.600000000000002E-003   -3.254588433008864E-011
  8.700000000000001E-003   -1.976481298521743E-011
  8.800000000000002E-003   -6.499700164466646E-012
  8.900000000000002E-003    6.351910263200858E-012
  9.000000000000001E-003    1.788810354125034E-011
  9.100000000000002E-003    2.726644680518545E-011
  9.200000000000002E-003    3.376932761966114E-011
  9.300000000000001E-003    3.686674496708384E-011
  9.400000000000002E-003    3.627209204265229E-011
  9.500000000000001E-003    3.198673059654417E-011
  9.600000000000001E-003    2.432916310092265E-011
  9.700000000000002E-003    1.394535317527211E-011
  9.800000000000001E-003    1.797387836027408E-012
  9.900000000000001E-003   -1.087117785088380E-011
  1.000000000000000E-002   -2.259353336618174E-011
  1.010000000000000E-002   -3.176054407673190E-011
  1.020000000000000E-002   -3.672161285273259E-011
  1.030000000000000E-002   -3.590130060182949E-011
  1.040000000000000E-002   -2.792616557408180E-011
  1.050000000000000E-002   -1.175472637603140E-011
  1.060000000000000E-002    1.319719300264781E-011
  1.070000000000000E-002    4.694436751163228E-011
  1.080000000000000E-002    8.884202293042904E-011
  1.090000000000000E-002    1.375257174049601E-010
  1.100000000000000E-002    1.908888129372232E-010
  1.110000000000000E-002    2.461032903731527E-010
  1.120000000000000E-002    2.996876197030633E-010
  1.130000000000000E-002    3.476231385783504E-010
  1.140000000000000E-002    3.855177266176419E-010
  1.150000000000000E-002    4.088121111161303E-010
  1.160000000000000E-002    4.130219230053606E-010
  1.170000000000000E-002    3.940051212150186E-010
  1.180000000000000E-002    3.482424219446253E-010
  1.190000000000000E-002    2.731167997834039E-010
  1.200000000000000E-002    1.671757846954010E-010
  1.210000000000000E-002    3.036142412700932E-011
  1.220000000000000E-002   -1.358078320635580E-010
  1.230000000000000E-002   -3.281171177064449E-010
  1.240000000000000E-002   -5.416088914279221E-010
  1.250000000000000E-002   -7.696184871482707E-010
  1.260000000000000E-002   -1.003897028612708E-009
  1.270000000000000E-002   -1.234821634110379E-009
  1.280000000000000E-002   -1.451689988617945E-009
  1.290000000000000E-002   -1.643090439580298E-009
  1.300000000000000E-002   -1.797336305483085E-009
  1.310000000000000E-002   -1.902948048753829E-009
  1.320000000000000E-002   -1.949165566065221E-009
  1.330000000000000E-002   -1.926468581623002E-009
  1.340000000000000E-002   -1.827085517263358E-009
  1.350000000000000E-002   -1.645468077984053E-009
  1.360000000000000E-002   -1.378711533343295E-009
  1.370000000000000E-002   -1.026902650606831E-009
  1.380000000000000E-002   -5.933791093597734E-010
  1.390000000000000E-002   -8.488908940719098E-011
  1.400000000000000E-002    4.883578337895518E-010
  1.410000000000000E-002    1.112752060282924E-009
  1.420000000000000E-002    1.771459250925296E-009
  1.430000000000000E-002    2.444703520513958E-009
  1.440000000000000E-002    3.110155046302663E-009
  1.450000000000000E-002    3.743410378419533E-009
  1.460000000000000E-002    4.318556052255874E-009
  1.470000000000000E-002    4.808802130859064E-009
  1.480000000000000E-002    5.187173689333786E-009
  1.490000000000000E-002    5.427247911406696E-009
  1.500000000000000E-002    5.503924553488085E-009
  1.510000000000000E-002    5.394221023966890E-009
  1.520000000000000E-002    5.078080196764696E-009
  1.530000000000000E-002    4.539186807985242E-009
  1.540000000000000E-002    3.765784781551697E-009
  1.550000000000000E-002    2.751491867308449E-009
  1.560000000000000E-002    1.496106984848840E-009
  1.570000000000000E-002    6.408269239511294E-012
  1.580000000000000E-002   -1.703060469687304E-009
  1.590000000000000E-002   -3.609216916361843E-009
  1.600000000000000E-002   -5.679685254489137E-009
  1.610000000000000E-002   -7.872061329612603E-009
  1.620000000000000E-002   -1.013320523417576E-008
  1.630000000000000E-002   -1.239856109261698E-008
  1.640000000000000E-002   -1.459151837569013E-008
  1.650000000000000E-002   -1.662281370270303E-008
  1.660000000000000E-002   -1.838999523086248E-008
  1.670000000000000E-002   -1.977694506488625E-008
  1.680000000000000E-002   -2.065348243429817E-008
  1.690000000000000E-002   -2.087504874232298E-008
  1.700000000000000E-002   -2.028249665925184E-008
  1.710000000000000E-002   -1.870197821771646E-008
  1.720000000000000E-002   -1.594497050127952E-008
  1.730000000000000E-002   -1.180840864058294E-008
  1.740000000000000E-002   -6.074952963563130E-009
  1.750000000000000E-002    1.486596428371045E-009
  1.760000000000000E-002    1.112075448762185E-008
  1.770000000000000E-002    2.308471301578780E-008
  1.780000000000000E-002    3.764751562156026E-008
  1.790000000000000E-002    5.508921235254247E-008
  1.800000000000000E-002    7.569986633501952E-008
  1.810000000000000E-002    9.977857760058519E-008
  1.820000000000000E-002    1.276324698364157E-007
  1.830000000000000E-002    1.595756671857142E-007
  1.840000000000000E-002    1.959284205067632E-007
  1.850000000000000E-002    2.370163218711142E-007
  1.860000000000000E-002    2.831695887404210E-007
  1.870000000000000E-002    3.347227589662050E-007