 -4.000000000000000E-002    0.000000000000000E+000
 -3.990000000000000E-002    0.000000000000000E+000
 -3.980000000000000E-002    0.000000000000000E+000
 -3.970000000000000E-002    0.000000000000000E+000
 -3.960000000000000E-002    0.000000000000000E+000
 -3.950000000000000E-002    0.000000000000000E+000
 -3.940000000000000E-002    0.000000000000000E+000
 -3.930000000000000E-002    0.000000000000000E+000
 -3.920000000000000E-002   -7.986888296089241E-031
 -3.910000000000000E-002    6.743544003321882E-030
 -3.900000000000000E-002    2.257361365923488E-028
 -3.890000000000000E-002    2.319631471688739E-027
 -3.880000000000000E-002    1.510699395648107E-026
 -3.870000000000000E-002    7.377341905621531E-026
 -3.860000000000000E-002    2.913978969673215E-025
 -3.850000000000000E-002    9.708231139419921E-025
 -3.840000000000000E-002    2.796696545216857E-024
 -3.830000000000000E-002    7.063036563120157E-024
 -3.820000000000000E-002    1.570469433509424E-023
 -3.810000000000000E-002    3.050642150029439E-023
 -3.800000000000000E-002    5.019343859690566E-023
 -3.790000000000000E-002    6.319105843812354E-023
 -3.780000000000000E-002    3.292556227161713E-023
 -3.770000000000000E-002   -1.277665981210334E-022
 -3.760000000000000E-002   -5.951536663128988E-022
 -3.750000000000000E-002   -1.683403256233695E-021
 -3.740000000000000E-002   -3.891246217291806E-021
 -3.730000000000000E-002   -7.917828646201020E-021
 -3.720000000000000E-002   -1.459618973984214E-020
 -3.710000000000000E-002   -2.466618375532618E-020
 -3.700000000000000E-002   -3.828534339334243E-020
 -3.690000000000000E-002   -5.416893576003935E-020
 -3.680000000000000E-002   -6.827771178783234E-020
 -3.670000000000000E-002   -7.205606973668144E-020
 -3.660000000000000E-002   -5.038664072114347E-020
 -3.650000000000000E-002    2.031611509850073E-020
 -3.640000000000000E-002    1.731055927420559E-019
 -3.630000000000000E-002    4.494286488041914E-019
 -3.620000000000000E-002    8.944359605988258E-019
 -3.610000000000000E-002    1.546907218706415E-018
 -3.600000000000000E-002    2.422119313598562E-018
 -3.590000000000000E-002    3.486606387039242E-018
 -3.580000000000000E-002    4.625099755133297E-018
 -3.570000000000000E-002    5.602143738035060E-018
 -3.560000000000000E-002    6.023959699760609E-018
 -3.550000000000000E-002    5.309897312161722E-018
 -3.540000000000000E-002    2.686783744148171E-018
 -3.530000000000000E-002   -2.777070319784849E-018
 -3.520000000000000E-002   -1.207969773323972E-017
 -3.510000000000000E-002   -2.611778647793407E-017
 -3.500000000000000E-002   -4.543164839577623E-017
 -3.490000000000000E-002   -6.986209096964334E-017
 -3.480000000000000E-002   -9.813555350672224E-017
 -3.470000000000000E-002   -1.274169896364957E-016
 -3.460000000000000E-002   -1.528972606595682E-016
 -3.450000000000000E-002   -1.675102943920005E-016
 -3.440000000000000E-002   -1.619000402567617E-016
 -3.430000000000000E-002   -1.247720440815090E-016
 -3.420000000000000E-002   -4.376251645105704E-017
 -3.410000000000000E-002    9.306896275877201E-017
 -3.400000000000000E-002    2.950734549730150E-016
 -3.390000000000000E-002    5.662125369503353E-016
 -3.380000000000000E-002    9.017848971711236E-016
 -3.370000000000000E-002    1.284984530437721E-015
 -3.360000000000000E-002    1.683751061003661E-015
 -3.350000000000000E-002    2.048515255773318E-015
 -3.340000000000000E-002    2.311548075065726E-015
 -3.330000000000000E-002    2.388657339918970E-015
 -3.320000000000000E-002    2.183917505627396E-015
 -3.310000000000000E-002    1.597924617076185E-015
 -3.300000000000000E-002    5.397512532189164E-016
 -3.290000000000000E-002   -1.057688668909657E-015
 -3.280000000000000E-002   -3.219729268838826E-015
 -3.270000000000000E-002   -5.911002423170520E-015
 -3.260000000000000E-002   -9.017591967059987E-015
 -3.250000000000000E-002   -1.233298419941311E-014
 -3.240000000000000E-002   -1.555084161880793E-014
 -3.230000000000000E-002   -1.826768932882388E-014
 -3.220000000000000E-002   -1.999823040214499E-014
 -3.210000000000000E-002   -2.020521520146585E-014
 -3.200000000000000E-002   -1.834450396928123E-014
 -3.190000000000000E-002   -1.392425166432270E-014
 -3.180000000000000E-002   -6.575135882284057E-015
 -3.170000000000000E-002    3.873601715553981E-015
 -3.160000000000000E-002    1.731955698147838E-014
 -3.150000000000000E-002    3.332288927536113E-014
 -3.140000000000000E-002    5.106219106593919E-014
 -3.130000000000000E-002    6.932021989942633E-014
 -3.120000000000000E-002    8.650805821530095E-014
 -3.110000000000000E-002    1.007336864980740E-013
 -3.100000000000000E-002    1.099172521220449E-013
 -3.090000000000000E-002    1.119506005539861E-013
 -3.080000000000000E-002    1.048931687003490E-013
 -3.070000000000000E-002    8.719094903754183E-014
 -3.060000000000000E-002    5.790033299883503E-014
 -3.050000000000000E-002    1.689482755905264E-014
 -3.040000000000000E-002   -3.496900134742593E-014
 -3.030000000000000E-002   -9.574958200312698E-014
 -3.020000000000000E-002   -1.624021319348554E-013
 -3.010000000000000E-002   -2.308582359631746E-013
 -3.000000000000000E-002   -2.962086982988607E-013
 -2.990000000000000E-002   -3.529853368658866E-013
 -2.980000000000000E-002   -3.955267125856585E-013
 -2.970000000000000E-002   -4.184028272990430E-013
 -2.960000000000000E-002   -4.168651036592846E-013
 -2.950000000000000E-002   -3.872832901484299E-013
 -2.940000000000000E-002   -3.275291737842875E-013
 -2.930000000000000E-002   -2.372699467280095E-013
 -2.920000000000000E-002   -1.181421046010442E-013
 -2.910000000000000E-002    2.621274647648093E-014
 -2.900000000000000E-002    1.902543145778075E-013
 -2.890000000000000E-002    3.667825771112765E-013
 -2.880000000000000E-002    5.472855631575586E-013
 -2.870000000000000E-002    7.223628479223318E-013
 -2.860000000000000E-002    8.821852156326797E-013
 -2.850000000000000E-002    1.016952722460859E-012
 -2.840000000000000E-002    1.117318886741636E-012
 -2.830000000000000E-002    1.174761368549654E-012
 -2.820000000000000E-002    1.181894293740486E-012
 -2.810000000000000E-002    1.132733527415698E-012
 -2.800000000000000E-002    1.022939397049117E-012
 -2.790000000000000E-002    8.500688610050859E-013
 -2.780000000000000E-002    6.138682793556719E-013
 -2.770000000000000E-002    3.166260545016201E-013
 -2.760000000000000E-002   -3.641582371213966E-014
 -2.750000000000000E-002   -4.366231837721065E-013
 -2.740000000000000E-002   -8.715684733048224E-013
 -2.730000000000000E-002   -1.324763195441026E-012
 -2.720000000000000E-002   -1.775644093874961E-012
 -2.710000000000000E-002   -2.199940160466738E-012
 -2.700000000000000E-002   -2.570532352087861E-012
 -2.690000000000000E-002   -2.858881965926801E-012
 -2.680000000000000E-002   -3.037031619443388E-012
 -2.670000000000000E-002   -3.080102148736257E-012
 -2.660000000000000E-002   -2.969106850604953E-012
 -2.650000000000000E-002   -2.693801127953877E-012
 -2.640000000000000E-002   -2.255208228595668E-012
 -2.630000000000000E-002   -1.667406892997513E-012
 -2.620000000000000E-002   -9.581681429649754E-013
 -2.610000000000000E-002   -1.680909864864069E-013
 -2.600000000000000E-002    6.519853020808557E-013
 -2.590000000000000E-002    1.445320498847531E-012
 -2.580000000000000E-002    2.155150184208353E-012
 -2.570000000000000E-002    2.731621592039348E-012
 -2.560000000000000E-002    3.139047920093796E-012
 -2.550000000000000E-002    3.362536705942715E-012
 -2.540000000000000E-002    3.412928440504090E-012
 -2.530000000000000E-002    3.328990467545277E-012
 -2.520000000000000E-002    3.175975711889299E-012
 -2.510000000000000E-002    3.039976686150659E-012
 -2.500000000000000E-002    3.017980578909960E-012
 -2.490000000000000E-002    3.204118975236967E-012
 -2.480000000000000E-002    3.673237594738055E-012
 -2.470000000000000E-002    4.463534749119769E-012
 -2.460000000000000E-002    5.560507128777900E-012
 -2.450000000000000E-002    6.884730986160625E-012
 -2.440000000000000E-002    8.286011803338248E-012
 -2.430000000000000E-002    9.546089840141923E-012
 -2.420000000000000E-002    1.039137707569023E-011
 -2.410000000000000E-002    1.051616843399961E-011
 -2.400000000000000E-002    9.615469501811068E-012
 -2.390000000000000E-002    7.425144325531596E-012
 -2.380000000000000E-002    3.765697641215157E-012
 -2.370000000000000E-002   -1.415151642664752E-012
 -2.360000000000000E-002   -8.006733763692020E-012
 -2.350000000000000E-002   -1.571228391054726E-011
 -2.340000000000000E-002   -2.404361794763923E-011
 -2.330000000000000E-002   -3.233755089738292E-011
 -2.320000000000000E-002   -3.979597094218068E-011
 -2.310000000000000E-002   -4.554885537498336E-011
 -2.300000000000000E-002   -4.873666469534748E-011
 -2.290000000000000E-002   -4.860553524191113E-011
 -2.280000000000000E-002   -4.460615798984231E-011
 -2.270000000000000E-002   -3.648534924434372E-011
 -2.260000000000000E-002   -2.435855356526581E-011
 -2.250000000000000E-002   -8.752052359182428E-012
 -2.240000000000000E-002    9.394379333972068E-012
 -2.230000000000000E-002    2.877022105949521E-011
 -2.220000000000000E-002    4.778368565407674E-011
 -2.210000000000000E-002    6.469386285810911E-011
 -2.200000000000000E-002    7.777596475758079E-011
 -2.190000000000000E-002    8.550495077319801E-011
 -2.180000000000000E-002    8.673885569952729E-011
 -2.170000000000000E-002    8.088071054799110E-011
 -2.160000000000000E-002    6.799819288750850E-011
 -2.150000000000000E-002    4.888230661839604E-011
 -2.140000000000000E-002    2.503158912710741E-011
 -2.130000000000000E-002   -1.444526848215717E-012
 -2.120000000000000E-002   -2.800087920363961E-011
 -2.110000000000000E-002   -5.189831300783253E-011
 -2.100000000000000E-002   -7.049108028677218E-011
 -2.090000000000000E-002   -8.153134435639748E-011
 -2.080000000000000E-002   -8.345710705972767E-011
 -2.070000000000000E-002   -7.562841446222136E-011
 -2.060000000000000E-002   -5.847927738044689E-011
 -2.050000000000000E-002   -3.355906078446743E-011
 -2.040000000000000E-002   -3.447886026383070E-012
 -2.030000000000000E-002    2.845639330394768E-011
 -2.020000000000000E-002    5.826690893955337E-011
 -2.010000000000000E-002    8.202463636789035E-011
 -2.000000000000000E-002    9.616272845016308E-011
 -1.990000000000000E-002    9.796799604146216E-011
 -1.980000000000000E-002    8.598472812417091E-011
 -1.970000000000000E-002    6.030772049818409E-011
 -1.960000000000000E-002    2.271913320616863E-011
 -1.950000000000000E-002   -2.336182037202025E-011
 -1.940000000000000E-002   -7.312837178224985E-011
 -1.930000000000000E-002   -1.208244900991494E-010
 -1.920000000000000E-002   -1.603383847929292E-010
 -1.910000000000000E-002   -1.858964159187406E-010
 -1.900000000000000E-002   -1.927854250483545E-010
 -1.890000000000000E-002   -1.780219456224647E-010
 -1.880000000000000E-002   -1.408850444721482E-010
 -1.870000000000000E-002   -8.323794871464440E-011
 -1.860000000000000E-002   -9.581235660505709E-012
 -1.850000000000000E-002    7.319385741427991E-011
 -1.840000000000000E-002    1.563516897513338E-010
 -1.830000000000000E-002    2.301237280253561E-010
 -1.820000000000000E-002    2.847173128645513E-010
 -1.810000000000000E-002    3.114257951926700E-010
 -1.800000000000000E-002    3.037242897038917E-010
 -1.790000000000000E-002    2.582271979635926E-010
 -1.780000000000000E-002    1.753890844765851E-010
 -1.770000000000000E-002    5.984901326937770E-011
 -1.760000000000000E-002   -7.964966602817447E-011
 -1.750000000000000E-002   -2.307906592999662E-010
 -1.740000000000000E-002   -3.786463569428495E-010
 -1.730000000000000E-002   -5.070003029997896E-010
 -1.720000000000000E-002   -5.999161183694734E-010
 -1.710000000000000E-002   -6.434048473703291E-010
 -1.700000000000000E-002   -6.270202134744604E-010
 -1.690000000000000E-002   -5.452089820824389E-010
 -1.680000000000000E-002   -3.982573104725370E-010
 -1.670000000000000E-002   -1.927081343612386E-010
 -1.660000000000000E-002    5.882717913539646E-011
 -1.650000000000000E-002    3.384798170825320E-010
 -1.640000000000000E-002    6.245086315688854E-010
 -1.630000000000000E-002    8.931469274306454E-010
 -1.620000000000000E-002    1.120744248801901E-009
 -1.610000000000000E-002    1.285995939221645E-009
 -1.600000000000000E-002    1.372032946423033E-009
 -1.590000000000000E-002    1.368149444771024E-009
 -1.580000000000000E-002    1.270972990239841E-009
 -1.570000000000000E-002    1.084931182270555E-009
 -1.560000000000000E-002    8.219395509820641E-010
 -1.550000000000000E-002    5.003132559516170E-010
 -1.540000000000000E-002    1.429904382744906E-010
 -1.530000000000000E-002   -2.247678618194850E-010
 -1.520000000000000E-002   -5.779717582847972E-010
 -1.510000000000000E-002   -8.945178659749066E-010
 -1.500000000000000E-002   -1.157539766894404E-009
 -1.490000000000000E-002   -1.357220347255750E-009
 -1.480000000000000E-002   -1.491839663005878E-009
 -1.470000000000000E-002   -1.567904534458751E-009
 -1.460000000000000E-002   -1.599295956369353E-009
 -1.450000000000000E-002   -1.605477641332641E-009
 -1.440000000000000E-002   -1.608914209048859E-009
 -1.430000000000000E-002   -1.631940513417959E-009
 -1.420000000000000E-002   -1.693402959978399E-009
 -1.410000000000000E-002   -1.805434346213124E-009
 -1.400000000000000E-002   -1.970739333570398E-009
 -1.390000000000000E-002   -2.180734583802503E-009
 -1.380000000000000E-002   -2.414823101194275E-009
 -1.370000000000000E-002   -2.640982518066178E-009
 -1.360000000000000E-002   -2.817724582619040E-009
 -1.350000000000000E-002   -2.897343206720092E-009
 -1.340000000000000E-002   -2.830235054171426E-009
 -1.330000000000000E-002   -2.569949231442933E-009
 -1.320000000000000E-002   -2.078530635913874E-009
 -1.310000000000000E-002   -1.331658672814376E-009
 -1.300000000000000E-002   -3.230741869955809E-010
 -1.290000000000000E-002    9.321832383864458E-010
 -1.280000000000000E-002    2.396111175887900E-009
 -1.270000000000000E-002    4.007923968525657E-009
 -1.260000000000000E-002    5.686175779582780E-009
 -1.250000000000000E-002    7.332762522689100E-009
 -1.240000000000000E-002    8.838556574055162E-009
 -1.230000000000000E-002    1.009026262176751E-008
 -1.220000000000000E-002    1.097796840889429E-008
 -1.210000000000000E-002    1.140276913098723E-008
 -1.200000000000000E-002    1.128382761505216E-008
 -1.190000000000000E-002    1.056426720316966E-008
 -1.180000000000000E-002    9.215399497909266E-009
 -1.170000000000000E-002    7.238932793568369E-009
 -1.160000000000000E-002    4.667021102659817E-009
 -1.150000000000000E-002    1.560209930705114E-009
 -1.140000000000000E-002   -1.996414041047574E-009
 -1.130000000000000E-002   -5.898366810512600E-009
 -1.120000000000000E-002   -1.002754273361053E-008
 -1.110000000000000E-002   -1.425784042492820E-008
 -1.100000000000000E-002   -1.845983346896058E-008
 -1.090000000000000E-002   -2.250372556359842E-008
 -1.080000000000000E-002   -2.625996736013146E-008
 -1.070000000000000E-002   -2.959711609689610E-008
 -1.060000000000000E-002   -3.237677047201604E-008
 -1.050000000000000E-002   -3.444574413779960E-008
 -1.040000000000000E-002   -3.562590215575540E-008
 -1.030000000000000E-002   -3.570242766171274E-008
 -1.020000000000000E-002   -3.441144901523898E-008
 -1.010000000000000E-002   -3.142816617461064E-008
 -1.000000000000000E-002   -2.635662050284081E-008
 -9.899999999999999E-003   -1.872221179235555E-008
 -9.800000000000000E-003   -7.967872810422432E-009
 -9.699999999999999E-003    6.545499155563761E-009
 -9.599999999999999E-003    2.553399057888640E-008
 -9.500000000000000E-003    4.978134795945915E-008
 -9.399999999999999E-003    8.012572113390001E-008
 -9.299999999999999E-003    1.174437352679323E-007
 -9.200000000000000E-003    1.626330291670045E-007
 -9.099999999999999E-003    2.165948360870256E-007
 -8.999999999999999E-003    2.802182902222059E-007
 -8.900000000000000E-003    3.543680287395397E-007
 -8.799999999999999E-003    4.398760977748552E-007
 -8.699999999999999E-003    5.375397969673033E-007
 -8.600000000000000E-003    6.481249607297861E-007
 -8.499999999999999E-003    7.723750756023024E-007
 -8.399999999999999E-003    9.110258010386949E-007
 -8.300000000000000E-003    1.064822977262104E-006
 -8.199999999999999E-003    1.234542790236307E-006
 -8.100000000000000E-003    1.421012248574032E-006
 -8.000000000000000E-003    1.625127694310594E-006
 -7.899999999999999E-003    1.847868899320681E-006
 -7.800000000000000E-003    2.090308809410538E-006
 -7.699999999999999E-003    2.353615882405999E-006
 -7.599999999999999E-003    2.639049296264178E-006
 -7.499999999999999E-003    2.947948759595595E-006
 -7.399999999999999E-003    3.281716876024091E-006
 -7.299999999999999E-003    3.641799668626255E-006
 -7.199999999999999E-003    4.029664857214948E-006
 -7.100000000000000E-003    4.446781438558138E-006
 -6.999999999999999E-003    4.894603466252017E-006
 -6.899999999999999E-003    5.374559557493382E-006
 -6.800000000000000E-003    5.888053352748180E-006
 -6.699999999999999E-003    6.436470686706856E-006
 -6.599999999999999E-003    7.021199506122182E-006
 -6.499999999999999E-003    7.643658660952871E-006
 -6.399999999999999E-003    8.305331876461889E-006
 -6.299999999999999E-003    9.007812293202465E-006
 -6.199999999999999E-003    9.752843786106843E-006
 -6.100000000000000E-003    1.054236463891541E-005
 -5.999999999999999E-003    1.137854325200841E-005
 -5.899999999999999E-003    1.226380641129922E-005
 -5.800000000000000E-003    1.320085835031236E-005
 -5.699999999999999E-003    1.419268267350102E-005
 -5.599999999999999E-003    1.524253636027102E-005
 -5.499999999999999E-003    1.635392917357857E-005
 -5.399999999999999E-003    1.753059468234537E-005
 -5.299999999999999E-003    1.877645384095617E-005
 -5.199999999999999E-003    2.009558012211633E-005
 -5.099999999999999E-003    2.149216143619295E-005
 -4.999999999999999E-003    2.297047863078816E-005
 -4.899999999999999E-003    2.453488372922282E-005
 -4.799999999999999E-003    2.618980232502915E-005
 -4.699999999999999E-003    2.793974958473531E-005
 -4.599999999999999E-003    2.978936045938949E-005
 -4.499999999999999E-003    3.174343739412225E-005
 -4.399999999999999E-003    3.380701296409020E-005
 -4.299999999999999E-003    3.598541239791274E-005
 -4.199999999999999E-003    3.828432508345405E-005
 -4.099999999999999E-003    4.070987240913710E-005
 -3.999999999999999E-003    4.326866616637796E-005
 -3.899999999999999E-003    4.596785540683682E-005
 -3.799999999999999E-003    4.881515215327116E-005
 -3.699999999999999E-003    5.181884322528796E-005
 -3.599999999999999E-003    5.498779212829229E-005
 -3.499999999999999E-003    5.833140372607226E-005
 -3.399999999999999E-003    6.185959390692773E-005
 -3.299999999999999E-003    6.558274334505247E-005
 -3.199999999999999E-003    6.951165135133362E-005
 -3.099999999999999E-003    7.365750546006107E-005
 -2.999999999999999E-003    7.803185062121977E-005
 -2.899999999999999E-003    8.264656296590119E-005
 -2.799999999999999E-003    8.751387567885907E-005
 -2.699999999999999E-003    9.264639270804873E-005
 -2.599999999999999E-003    9.805717341036591E-005
 -2.499999999999999E-003    1.037597422995778E-004
 -2.399999999999999E-003    1.097682478448314E-004
 -2.299999999999999E-003    1.160974985501675E-004
 -2.199999999999999E-003    1.227630862320624E-004
 -2.099999999999999E-003    1.297814604897815E-004
 -1.999999999999999E-003    1.371700149572688E-004
 -1.899999999999999E-003    1.449471489451230E-004
 -1.799999999999999E-003    1.531322980728401E-004
 -1.699999999999999E-003    1.617459518763677E-004
 -1.599999999999999E-003    1.708096441329264E-004
 -1.499999999999999E-003    1.803459371335069E-004
 -1.399999999999999E-003    1.903783945534702E-004
 -1.299999999999999E-003    2.009314997651561E-004
 -1.199999999999999E-003    2.120306562535332E-004
 -1.099999999999999E-003    2.237021228840584E-004
 -9.999999999999989E-004    2.359730248332046E-004
 -8.999999999999990E-004    2.488713454112034E-004
 -7.999999999999990E-004    2.624259859573488E-004
 -6.999999999999989E-004    2.766667854350826E-004
 -5.999999999999990E-004    2.916246505667906E-004
 -4.999999999999989E-004    3.073316017431008E-004
 -3.999999999999989E-004    3.238209719514361E-004
 -2.999999999999989E-004    3.411274845066818E-004
 -1.999999999999989E-004    3.592873840032906E-004
 -9.999999999999892E-005    3.783385587810789E-004
  1.084202172485504E-018    3.983206911022782E-004
  1.000000000000011E-004    4.192752663566456E-004
  2.000000000000011E-004    4.412456840350494E-004
  3.000000000000011E-004    4.642772169938765E-004
  4.000000000000011E-004    4.884171164002685E-004
  5.000000000000011E-004    5.137144712642671E-004
  6.000000000000011E-004    5.402203027717111E-004
  7.000000000000011E-004    5.679874096435167E-004
  8.000000000000011E-004    5.970703902355522E-004
  9.000000000000012E-004    6.275256702556157E-004
  1.000000000000001E-003    6.594114042569242E-004
  1.100000000000001E-003    6.927875364685659E-004
  1.200000000000001E-003    7.277158847825099E-004
  1.300000000000001E-003    7.642600562105833E-004
  1.400000000000001E-003    8.024858226867647E-004
  1.500000000000001E-003    8.424610057249235E-004
  1.600000000000001E-003    8.842556200130147E-004
  1.700000000000001E-003    9.279422070973749E-004
  1.800000000000001E-003    9.735958311186455E-004
  1.900000000000001E-003    1.021294119719425E-003
  2.000000000000001E-003    1.071117584273645E-003
  2.100000000000001E-003    1.123149616204382E-003
  2.200000000000001E-003    1.177476497376976E-003
  2.300000000000001E-003    1.234187543288287E-003
  2.400000000000001E-003    1.293374991195018E-003
  2.500000000000001E-003    1.355134130932027E-003
  2.600000000000001E-003    1.419563144327689E-003
  2.700000000000001E-003    1.486763261093815E-003
  2.800000000000001E-003    1.556838421661567E-003
  2.900000000000001E-003    1.629895665338579E-003
  3.000000000000001E-003    1.706044847327090E-003
  3.100000000000001E-003    1.785398718880524E-003
  3.200000000000001E-003    1.868073290098956E-003
  3.300000000000001E-003    1.954187388126305E-003
  3.400000000000001E-003    2.043863171761545E-003
  3.500000000000001E-003    2.137225975005305E-003
  3.600000000000001E-003    2.234404819007931E-003
  3.700000000000001E-003    2.335532194081371E-003
  3.800000000000001E-003    2.440744294871198E-003
  3.900000000000001E-003    2.550181121990003E-003
  4.000000000000001E-003    2.663986711077472E-003
  4.100000000000001E-003    2.782308849629263E-003
  4.200000000000001E-003    2.905299577638351E-003
  4.300000000000001E-003    3.033114947781956E-003
  4.400000000000001E-003    3.165914442168129E-003
  4.500000000000001E-003    3.303861981033512E-003
  4.600000000000002E-003    3.447125253192888E-003
  4.700000000000001E-003    3.595875490280349E-003
  4.800000000000001E-003    3.750287544719925E-003
  4.900000000000002E-003    3.910539644269507E-003
  5.000000000000001E-003    4.076813848651095E-003
  5.100000000000001E-003    4.249295796724840E-003
  5.200000000000001E-003    4.428174115431549E-003
  5.300000000000002E-003    4.613641328534994E-003
  5.400000000000001E-003    4.805893371051220E-003
  5.500000000000001E-003    5.005130228703702E-003
  5.600000000000002E-003    5.211555188752420E-003
  5.700000000000001E-003    5.425375130292970E-003
  5.800000000000001E-003    5.646801687269874E-003
  5.900000000000002E-003    5.876049899524947E-003
  6.000000000000001E-003    6.113338981421119E-003
  6.100000000000001E-003    6.358892298846977E-003
  6.200000000000002E-003    6.612936679636837E-003
  6.300000000000002E-003    6.875702818506788E-003
  6.400000000000001E-003    7.147425154657549E-003
  6.500000000000001E-003    7.428342435001836E-003
  6.600000000000002E-003    7.718695083382394E-003
  6.700000000000001E-003    8.018727549539237E-003
  6.800000000000001E-003    8.328686267522941E-003
  6.900000000000002E-003    8.648821327077127E-003
  7.000000000000001E-003    8.979383499639256E-003
  7.100000000000001E-003    9.320626844064981E-003
  7.200000000000002E-003    9.672806574248530E-003
  7.300000000000002E-003    1.003618010540186E-002
  7.400000000000001E-003    1.041100621271783E-002
  7.500000000000001E-003    1.079754512979037E-002
  7.600000000000002E-003    1.119605911259502E-002
  7.700000000000001E-003    1.160681080341821E-002
  7.800000000000001E-003    1.203006522473250E-002
  7.900000000000001E-003    1.246608922136807E-002
  8.000000000000002E-003    1.291515009513436E-002
  8.100000000000001E-003    1.337751531920653E-002
  8.200000000000001E-003    1.385345373452795E-002
  8.300000000000002E-003    1.434323579424719E-002
  8.400000000000001E-003    1.484713042316380E-002
  8.500000000000002E-003    1.536540864942691E-002
  8.600000000000002E-003    1.589833811725824E-002
  8.700000000000001E-003    1.644618580401090E-002
  8.800000000000002E-003    1.700921717423624E-002
  8.900000000000002E-003    1.758769630976593E-002
  9.000000000000001E-003    1.818188242211760E-002
  9.100000000000002E-003    1.879203370206604E-002
  9.200000000000002E-003    1.941840247633882E-002
  9.300000000000001E-003    2.006123840098865E-002
  9.400000000000002E-003    2.072078593008141E-002
  9.500000000000001E-003    2.139728223426784E-002
  9.600000000000001E-003    2.209096325439961E-002
  9.700000000000002E-003    2.280205722462597E-002
  9.800000000000001E-003    2.353078600251534E-002
  9.900000000000001E-003    2.427736765237833E-002
  1.000000000000000E-002    2.504201207435003E-002
  1.010000000000000E-002    2.582492286746874E-002
  1.020000000000000E-002    2.662629535879985E-002
  1.030000000000000E-002    2.744631885289007E-002
  1.040000000000000E-002    2.828517070594100E-002
  1.050000000000000E-002    2.914302469602286E-002
  1.060000000000000E-002    3.002003807785140E-002
  1.070000000000000E-002    3.091636299923418E-002
  1.080000000000000E-002    3.183213891761204E-002
  1.090000000000000E-002    3.276749294216865E-002
  1.100000000000000E-002    3.372253688054545E-002
  1.110000000000000E-002    3.469737130735145E-002
  1.120000000000000E-002    3.569207823971857E-002
  1.130000000000000E-002    3.670672926152856E-002
  1.140000000000000E-002    3.774138018114108E-002
  1.150000000000000E-002    3.879606508192418E-002
  1.160000000000000E-002    3.987080676572070E-002
  1.170000000000000E-002    4.096561090523074E-002
  1.180000000000000E-002    4.208045785436288E-002
  1.190000000000000E-002    4.321531295073657E-002
  1.200000000000000E-002    4.437012501605631E-002
  1.210000000000000E-002    4.554482208268489E-002
  1.220000000000000E-002    4.673931189262528E-002
  1.230000000000000E-002    4.795347839681472E-002
  1.240000000000000E-002    4.918718860121907E-002
  1.250000000000000E-002    5.044028139878481E-002
  1.260000000000000E-002    5.171257416026519E-002
  1.270000000000000E-002    5.300386305775909E-002
  1.280000000000000E-002    5.431391399558737E-002
  1.290000000000000E-002    5.564247007930968E-002
  1.300000000000000E-002    5.698924248739317E-002
  1.310000000000000E-002    5.835391629200268E-002
  1.320000000000000E-002    5.973615506483083E-002
  1.330000000000000E-002    6.113558677532409E-002
  1.340000000000000E-002    6.255180677560769E-002
  1.350000000000000E-002    6.398438521894743E-002
  1.360000000000000E-002    6.543286368605038E-002
  1.370000000000000E-002    6.689674325454521E-002
  1.380000000000000E-002    6.837550078635687E-002
  1.390000000000000E-002    6.986857909555698E-002
  1.400000000000000E-002    7.137538557592557E-002
  1.410000000000000E-002    7.289529605953814E-002
  1.420000000000000E-002    7.442765763918385E-002
  1.430000000000000E-002    7.597177300072615E-002
  1.440000000000000E-002    7.752691771905046E-002
  1.450000000000000E-002    7.909232889354342E-002
  1.460000000000000E-002    8.066721374283767E-002
  1.470000000000000E-002    8.225072690224655E-002
  1.480000000000000E-002    8.384199389810615E-002
  1.490000000000000E-002    8.544010551472032E-002
  1.500000000000000E-002    8.704411471643400E-002
  1.510000000000000E-002    8.865302057899441E-002
  1.520000000000000E-002    9.026580574737009E-002
  1.530000000000000E-002    9.188139317463356E-002
  1.540000000000000E-002    9.349867460975224E-002
  1.550000000000000E-002    9.511650208638843E-002
  1.560000000000000E-002    9.673368665154128E-002
  1.570000000000000E-002    9.834900182983768E-002
  1.580000000000000E-002    9.996118142318179E-002
  1.590000000000000E-002    0.101568916751214     
  1.600000000000000E-002    0.103170861702895     
  1.610000000000000E-002    0.104765634440712     
  1.620000000000000E-002    0.106351808297071     
  1.630000000000000E-002    0.107927925821490     
  1.640000000000000E-002    0.109492477940644     
  1.650000000000000E-002    0.111043936650058     
  1.660000000000000E-002    0.112580719137144     
  1.670000000000000E-002    0.114101213547617     
  1.680000000000000E-002    0.115603769235515     
  1.690000000000000E-002    0.117086694234365     
  1.700000000000000E-002    0.118548265215730     
  1.710000000000000E-002    0.119986713593765     
  1.720000000000000E-002    0.121400245273264     
  1.730000000000000E-002    0.122787027921797     
  1.740000000000000E-002    0.124145194969968     
  1.750000000000000E-002    0.125472850359345     
  1.760000000000000E-002    0.126768059774822     
  1.770000000000000E-002    0.128028854957639     
  1.780000000000000E-002    0.129253246920328     
  1.790000000000000E-002    0.130439213490569     
  1.800000000000000E-002    0.131584716133418     
  1.810000000000000E-002    0.132687676501527     
  1.820000000000000E-002    0.133746011003569     
  1.830000000000000E-002    0.134757591755364     
  1.840000000000000E-002    0.135720279207421     
  1.850000000000000E-002    0.136631920847855     
  1.860000000000000E-002    0.137490323774767     
  1.870000000000000E-002    0.138293310895244     