 -4.000000000000000E-002    0.000000000000000E+000
 -3.990000000000000E-002    0.000000000000000E+000
 -3.980000000000000E-002    0.000000000000000E+000
 -3.970000000000000E-002    0.000000000000000E+000
 -3.960000000000000E-002    0.000000000000000E+000
 -3.950000000000000E-002    0.000000000000000E+000
 -3.940000000000000E-002    0.000000000000000E+000
 -3.930000000000000E-002    0.000000000000000E+000
 -3.920000000000000E-002    0.000000000000000E+000
 -3.910000000000000E-002    0.000000000000000E+000
 -3.900000000000000E-002    0.000000000000000E+000
 -3.890000000000000E-002    0.000000000000000E+000
 -3.880000000000000E-002    0.000000000000000E+000
 -3.870000000000000E-002    0.000000000000000E+000
 -3.860000000000000E-002   -1.223480301546184E-046
 -3.850000000000000E-002   -3.394538113219560E-045
 -3.840000000000000E-002   -4.520879440088220E-044
 -3.830000000000000E-002   -4.045484134737380E-043
 -3.820000000000000E-002   -2.788153702478157E-042
 -3.810000000000000E-002   -1.562315697489892E-041
 -3.800000000000000E-002   -7.389841017156231E-041
 -3.790000000000000E-002   -3.024233726062733E-040
 -3.780000000000000E-002   -1.088162791887933E-039
 -3.770000000000000E-002   -3.476110070099630E-039
 -3.760000000000000E-002   -9.895350056144161E-039
 -3.750000000000000E-002   -2.500870812756719E-038
 -3.740000000000000E-002   -5.520039387261187E-038
 -3.730000000000000E-002   -1.015521108191486E-037
 -3.720000000000000E-002   -1.325896506062499E-037
 -3.710000000000000E-002   -6.138650186069084E-039
 -3.700000000000000E-002    7.184657890636025E-037
 -3.690000000000000E-002    3.172699654729082E-036
 -3.680000000000000E-002    9.894237700393624E-036
 -3.670000000000000E-002    2.593648763855579E-035
 -3.660000000000000E-002    6.019525378211972E-035
 -3.650000000000000E-002    1.260898950903390E-034
 -3.640000000000000E-002    2.392381605528347E-034
 -3.630000000000000E-002    4.069613087002047E-034
 -3.620000000000000E-002    5.998748921612937E-034
 -3.610000000000000E-002    6.893485211425422E-034
 -3.600000000000000E-002    3.271773837987076E-034
 -3.590000000000000E-002   -1.261543101144130E-033
 -3.580000000000000E-002   -5.597908649230328E-033
 -3.570000000000000E-002   -1.538242125639888E-032
 -3.560000000000000E-002   -3.497957303437183E-032
 -3.550000000000000E-002   -7.076361372121698E-032
 -3.540000000000000E-002   -1.309158657713996E-031
 -3.530000000000000E-002   -2.239332324546494E-031
 -3.520000000000000E-002   -3.546708970457401E-031
 -3.510000000000000E-002   -5.162599169810233E-031
 -3.500000000000000E-002   -6.758632771822011E-031
 -3.490000000000000E-002   -7.522531216421085E-031
 -3.480000000000000E-002   -5.840675087318936E-031
 -3.470000000000000E-002    1.100120926726173E-031
 -3.460000000000000E-002    1.773251718441816E-030
 -3.450000000000000E-002    5.041363485805873E-030
 -3.440000000000000E-002    1.073656467111548E-029
 -3.430000000000000E-002    1.978563098438870E-029
 -3.420000000000000E-002    3.300612918598313E-029
 -3.410000000000000E-002    5.069082977091472E-029
 -3.400000000000000E-002    7.191495864515652E-029
 -3.390000000000000E-002    9.350443990173749E-029
 -3.380000000000000E-002    1.086491247806615E-028
 -3.370000000000000E-002    1.052389830839502E-028
 -3.360000000000000E-002    6.415793169344289E-029
 -3.350000000000000E-002   -4.199937836215067E-029
 -3.340000000000000E-002   -2.490229387312500E-028
 -3.330000000000000E-002   -5.988826612351672E-028
 -3.320000000000000E-002   -1.133775554701571E-027
 -3.310000000000000E-002   -1.884750577485108E-027
 -3.300000000000000E-002   -2.853264816452920E-027
 -3.290000000000000E-002   -3.984504534914205E-027
 -3.280000000000000E-002   -5.132455525979775E-027
 -3.270000000000000E-002   -6.018765247613048E-027
 -3.260000000000000E-002   -6.190545872163054E-027
 -3.250000000000000E-002   -4.986490214168288E-027
 -3.240000000000000E-002   -1.525752540277103E-027
 -3.230000000000000E-002    5.260534781844657E-027
 -3.220000000000000E-002    1.653053989063324E-026
 -3.210000000000000E-002    3.333877827840306E-026
 -3.200000000000000E-002    5.632382895668973E-026
 -3.190000000000000E-002    8.526026261690918E-026
 -3.180000000000000E-002    1.184764495803590E-025
 -3.170000000000000E-002    1.521695526411351E-025
 -3.160000000000000E-002    1.796912594717012E-025
 -3.150000000000000E-002    1.909320952928297E-025
 -3.140000000000000E-002    1.719936643983050E-025
 -3.130000000000000E-002    1.054007410924358E-025
 -3.120000000000000E-002   -2.884587905939398E-026
 -3.110000000000000E-002   -2.510546771910297E-025
 -3.100000000000000E-002   -5.781766780752964E-025
 -3.090000000000000E-002   -1.018502143227560E-024
 -3.080000000000000E-002   -1.564736481596986E-024
 -3.070000000000000E-002   -2.185784215861529E-024
 -3.060000000000000E-002   -2.817995549670123E-024
 -3.050000000000000E-002   -3.357152506561326E-024
 -3.040000000000000E-002   -3.653044989533333E-024
 -3.030000000000000E-002   -3.509032114949222E-024
 -3.020000000000000E-002   -2.689394693852989E-024
 -3.010000000000000E-002   -9.374038784419666E-025
 -3.000000000000000E-002    1.993291179084870E-024
 -2.990000000000000E-002    6.292304452601954E-024
 -2.980000000000000E-002    1.203121922576437E-023
 -2.970000000000000E-002    1.908993270253238E-023
 -2.960000000000000E-002    2.707652051982549E-023
 -2.950000000000000E-002    3.525043076620036E-023
 -2.940000000000000E-002    4.246293774968920E-023
 -2.930000000000000E-002    4.713258750140078E-023
 -2.920000000000000E-002    4.727593942853869E-023
 -2.910000000000000E-002    4.061444381846030E-023
 -2.900000000000000E-002    2.477570122415999E-023
 -2.890000000000000E-002   -2.399248532692732E-024
 -2.880000000000000E-002   -4.244226715251595E-023
 -2.870000000000000E-002   -9.575377599073430E-023
 -2.860000000000000E-002   -1.610437984150285E-022
 -2.850000000000000E-002   -2.347776968678482E-022
 -2.840000000000000E-002   -3.107093246869347E-022
 -2.830000000000000E-002   -3.796047219282343E-022
 -2.820000000000000E-002   -4.292725256132297E-022
 -2.810000000000000E-002   -4.450177487447084E-022
 -2.800000000000000E-002   -4.106195770657174E-022
 -2.790000000000000E-002   -3.098967229258101E-022
 -2.780000000000000E-002   -1.288643103983004E-022
 -2.770000000000000E-002    1.415952627744187E-022
 -2.760000000000000E-002    5.027246453594639E-022
 -2.750000000000000E-002    9.448322392328106E-022
 -2.740000000000000E-002    1.444573304852889E-021
 -2.730000000000000E-002    1.963048201582302E-021
 -2.720000000000000E-002    2.445244123597833E-021
 -2.710000000000000E-002    2.821337742275144E-021
 -2.700000000000000E-002    3.010295070862199E-021
 -2.690000000000000E-002    2.926036942635723E-021
 -2.680000000000000E-002    2.486185729482898E-021
 -2.670000000000000E-002    1.623078525808958E-021
 -2.660000000000000E-002    2.963407588113285E-022
 -2.650000000000000E-002   -1.494087077913229E-021
 -2.640000000000000E-002   -3.695953350662364E-021
 -2.630000000000000E-002   -6.195499851150802E-021
 -2.620000000000000E-002   -8.812963371309679E-021
 -2.610000000000000E-002   -1.130459516736958E-020
 -2.600000000000000E-002   -1.337268401987418E-020
 -2.590000000000000E-002   -1.468445882457937E-020
 -2.580000000000000E-002   -1.489986817962003E-020
 -2.570000000000000E-002   -1.370715185158207E-020
 -2.560000000000000E-002   -1.086389936092997E-020
 -2.550000000000000E-002   -6.240078264322717E-021
 -2.540000000000000E-002    1.415295191437330E-022
 -2.530000000000000E-002    8.072785415950536E-021
 -2.520000000000000E-002    1.714105861724077E-020
 -2.510000000000000E-002    2.672862507358611E-020
 -2.500000000000000E-002    3.603459644551847E-020
 -2.490000000000000E-002    4.412155312545531E-020
 -2.480000000000000E-002    4.998655347672395E-020
 -2.470000000000000E-002    5.265326836827787E-020
 -2.460000000000000E-002    5.127884112114602E-020
 -2.450000000000000E-002    4.526608850509949E-020
 -2.440000000000000E-002    3.436924438246295E-020
 -2.430000000000000E-002    1.877997055183014E-020
 -2.420000000000000E-002   -8.198381559117794E-022
 -2.410000000000000E-002   -2.325049721370307E-020
 -2.400000000000000E-002   -4.688122639035033E-020
 -2.390000000000000E-002   -6.973539293445294E-020
 -2.380000000000000E-002   -8.965251831595665E-020
 -2.370000000000000E-002   -1.044983633953044E-019
 -2.360000000000000E-002   -1.124071349010821E-019
 -2.350000000000000E-002   -1.120332417563757E-019
 -2.340000000000000E-002   -1.027847193481392E-019
 -2.330000000000000E-002   -8.500729469954646E-020
 -2.320000000000000E-002   -6.008808338124041E-020
 -2.310000000000000E-002   -3.045107069979291E-020
 -2.300000000000000E-002    5.760862956414149E-022
 -2.290000000000000E-002    2.903387526694164E-020
 -2.280000000000000E-002    5.073696620298795E-020
 -2.270000000000000E-002    6.179404779777610E-020
 -2.260000000000000E-002    5.920332618037446E-020
 -2.250000000000000E-002    4.146900936372641E-020
 -2.240000000000000E-002    9.169605047641683E-021
 -2.230000000000000E-002   -3.460100790184600E-020
 -2.220000000000000E-002   -8.400210576615799E-020
 -2.210000000000000E-002   -1.305018437492729E-019
 -2.200000000000000E-002   -1.632829828067848E-019
 -2.190000000000000E-002   -1.700374697043579E-019
 -2.180000000000000E-002   -1.381528058794772E-019
 -2.170000000000000E-002   -5.625129619109885E-020
 -2.160000000000000E-002    8.400790539856921E-020
 -2.150000000000000E-002    2.860035498105914E-019
 -2.140000000000000E-002    5.462933081693078E-019
 -2.130000000000000E-002    8.530487353398976E-019
 -2.120000000000000E-002    1.185035126750149E-018
 -2.110000000000000E-002    1.511388034758225E-018
 -2.100000000000000E-002    1.792410010858982E-018
 -2.090000000000000E-002    1.981552330178105E-018
 -2.080000000000000E-002    2.028654111743376E-018
 -2.070000000000000E-002    1.884387539278009E-018
 -2.060000000000000E-002    1.505714448854451E-018
 -2.050000000000000E-002    8.620012763599692E-019
 -2.040000000000000E-002   -5.871363782443086E-020
 -2.030000000000000E-002   -1.243935005757386E-018
 -2.020000000000000E-002   -2.652131690438989E-018
 -2.010000000000000E-002   -4.210109151296841E-018
 -2.000000000000000E-002   -5.813026744892134E-018
 -1.990000000000000E-002   -7.327607480097537E-018
 -1.980000000000000E-002   -8.598855341546390E-018
 -1.970000000000000E-002   -9.460278769004038E-018
 -1.960000000000000E-002   -9.747250592982287E-018
 -1.950000000000000E-002   -9.312717849819436E-018
 -1.940000000000000E-002   -8.044104992645261E-018
 -1.930000000000000E-002   -5.879905687091875E-018
 -1.920000000000000E-002   -2.824252659522660E-018
 -1.910000000000000E-002    1.042320881402619E-018
 -1.900000000000000E-002    5.557596062645917E-018
 -1.890000000000000E-002    1.047921660113238E-017
 -1.880000000000000E-002    1.549391347910503E-017
 -1.870000000000000E-002    2.023458459267659E-017
 -1.860000000000000E-002    2.430461944588072E-017
 -1.850000000000000E-002    2.730803306213267E-017
 -1.840000000000000E-002    2.888320913698642E-017
 -1.830000000000000E-002    2.873739376838908E-017
 -1.820000000000000E-002    2.667870028397227E-017
 -1.810000000000000E-002    2.264222518677688E-017
 -1.800000000000000E-002    1.670714351647538E-017
 -1.790000000000000E-002    9.102205113737842E-018
 -1.780000000000000E-002    1.979706386124722E-019
 -1.770000000000000E-002   -9.514685338334814E-018
 -1.760000000000000E-002   -1.945893657522622E-017
 -1.750000000000000E-002   -2.901693989129472E-017
 -1.740000000000000E-002   -3.758174851882734E-017
 -1.730000000000000E-002   -4.461147660886636E-017
 -1.720000000000000E-002   -4.968030381736891E-017
 -1.710000000000000E-002   -5.252060252657814E-017
 -1.700000000000000E-002   -5.305072702264316E-017
 -1.690000000000000E-002   -5.138391256384282E-017
 -1.680000000000000E-002   -4.781511206920952E-017
 -1.670000000000000E-002   -4.278457998881061E-017
 -1.660000000000000E-002   -3.681934994790173E-017
 -1.650000000000000E-002   -3.045640013562886E-017
 -1.640000000000000E-002   -2.415401939425300E-017
 -1.630000000000000E-002   -1.820033213408385E-017
 -1.620000000000000E-002   -1.263014735053376E-017
 -1.610000000000000E-002   -7.162523085400964E-018
 -1.600000000000000E-002   -1.171800043435195E-018
 -1.590000000000000E-002    6.296183089856645E-018
 -1.580000000000000E-002    1.645356912340336E-017
 -1.570000000000000E-002    3.064085276908030E-017
 -1.560000000000000E-002    5.013922980830362E-017
 -1.550000000000000E-002    7.593341879798763E-017
 -1.540000000000000E-002    1.084418928894868E-016
 -1.530000000000000E-002    1.472399819701509E-016
 -1.520000000000000E-002    1.908093091915979E-016
 -1.510000000000000E-002    2.363528466679177E-016
 -1.500000000000000E-002    2.797178543466446E-016
 -1.490000000000000E-002    3.154667067084849E-016
 -1.480000000000000E-002    3.371288792185659E-016
 -1.470000000000000E-002    3.376532319469459E-016
 -1.460000000000000E-002    3.100604233705501E-016
 -1.450000000000000E-002    2.482704126923685E-016
 -1.440000000000000E-002    1.480517442159086E-016
 -1.430000000000000E-002    8.009913444286261E-018
 -1.420000000000000E-002   -1.694925924868742E-016
 -1.410000000000000E-002   -3.776120198567084E-016
 -1.400000000000000E-002   -6.046285462007654E-016
 -1.390000000000000E-002   -8.340077159703105E-016
 -1.380000000000000E-002   -1.045018875209765E-015
 -1.370000000000000E-002   -1.213967079679761E-015
 -1.360000000000000E-002   -1.316034898022531E-015
 -1.350000000000000E-002   -1.327655178050653E-015
 -1.340000000000000E-002   -1.229254238597942E-015
 -1.330000000000000E-002   -1.008129534171552E-015
 -1.320000000000000E-002   -6.611576498101738E-016
 -1.310000000000000E-002   -1.969891313778362E-016
 -1.300000000000000E-002    3.626198665301609E-016
 -1.290000000000000E-002    9.826550414693209E-016
 -1.280000000000000E-002    1.616103932987661E-015
 -1.270000000000000E-002    2.206739950842071E-015
 -1.260000000000000E-002    2.693377559779307E-015
 -1.250000000000000E-002    3.015367869418463E-015
 -1.240000000000000E-002    3.118914023481052E-015
 -1.230000000000000E-002    2.963623199290513E-015
 -1.220000000000000E-002    2.528591688777485E-015
 -1.210000000000000E-002    1.817264316904480E-015
 -1.200000000000000E-002    8.603443657564003E-016
 -1.190000000000000E-002   -2.838458739041414E-016
 -1.180000000000000E-002   -1.531933456459319E-015
 -1.170000000000000E-002   -2.781074606013441E-015
 -1.160000000000000E-002   -3.917281137011347E-015
 -1.150000000000000E-002   -4.825860678135058E-015
 -1.140000000000000E-002   -5.403010972651851E-015
 -1.130000000000000E-002   -5.567348486235254E-015
 -1.120000000000000E-002   -5.270023602573704E-015
 -1.110000000000000E-002   -4.502097953349199E-015
 -1.100000000000000E-002   -3.298056029170852E-015
 -1.090000000000000E-002   -1.734695248586653E-015
 -1.080000000000000E-002    7.485105166716096E-017
 -1.070000000000000E-002    1.991599433761478E-015
 -1.060000000000000E-002    3.864718032158438E-015
 -1.050000000000000E-002    5.547492089891484E-015
 -1.040000000000000E-002    6.913273530756674E-015
 -1.030000000000000E-002    7.869243338012433E-015
 -1.020000000000000E-002    8.365898392226749E-015
 -1.010000000000000E-002    8.400573458583375E-015
 -1.000000000000000E-002    8.014002208057311E-015
 -9.899999999999999E-003    7.279843501015928E-015
 -9.800000000000000E-003    6.288174447958597E-015
 -9.699999999999999E-003    5.125024824137223E-015
 -9.599999999999999E-003    3.850950831166498E-015
 -9.500000000000000E-003    2.482266648009917E-015
 -9.399999999999999E-003    9.787276680482093E-016
 -9.299999999999999E-003   -7.589019177600863E-016
 -9.200000000000000E-003   -2.878906835649281E-015
 -9.099999999999999E-003   -5.555289154203206E-015
 -8.999999999999999E-003   -8.951916609787132E-015
 -8.900000000000000E-003   -1.317714182214678E-014
 -8.799999999999999E-003   -1.823394609729968E-014
 -8.699999999999999E-003   -2.397239932889420E-014
 -8.600000000000000E-003   -3.005233730548190E-014
 -8.499999999999999E-003   -3.592437317472239E-014
 -8.399999999999999E-003   -4.083649652326948E-014
 -8.300000000000000E-003   -4.387155517787660E-014
 -8.199999999999999E-003   -4.401778437069306E-014
 -8.100000000000000E-003   -4.027072142500641E-014
 -8.000000000000000E-003   -3.176036702834267E-014
 -7.899999999999999E-003   -1.789308487090131E-014
 -7.800000000000000E-003    1.506145784571270E-015
 -7.699999999999999E-003    2.606826870310387E-014
 -7.599999999999999E-003    5.478975666361863E-014
 -7.499999999999999E-003    8.599467350770062E-014
 -7.399999999999999E-003    1.173635402244219E-013
 -7.299999999999999E-003    1.460380832892728E-013
 -7.199999999999999E-003    1.688038262525886E-013
 -7.100000000000000E-003    1.823441137996998E-013
 -6.999999999999999E-003    1.835503905248225E-013
 -6.899999999999999E-003    1.698648075313668E-013
 -6.800000000000000E-003    1.396246465371095E-013
 -6.699999999999999E-003    9.237314309456564E-014
 -6.599999999999999E-003    2.910020026184103E-014
 -6.499999999999999E-003   -4.762114636931258E-014
 -6.399999999999999E-003   -1.336303373066974E-013
 -6.299999999999999E-003   -2.233245842109494E-013
 -6.199999999999999E-003   -3.099586459866975E-013
 -6.100000000000000E-003   -3.860886817712068E-013
 -5.999999999999999E-003   -4.441344709497458E-013
 -5.899999999999999E-003   -4.770198841724059E-013
 -5.800000000000000E-003   -4.788397788864264E-013
 -5.699999999999999E-003   -4.454940115035976E-013
 -5.599999999999999E-003   -3.752269606545785E-013
 -5.499999999999999E-003   -2.690147310969609E-013
 -5.399999999999999E-003   -1.307519551115335E-013
 -5.299999999999999E-003    3.279451902888258E-014
 -5.199999999999999E-003    2.122783972962102E-013
 -5.099999999999999E-003    3.963042054773221E-013
 -4.999999999999999E-003    5.721636044274044E-013
 -4.899999999999999E-003    7.267252683270107E-013
 -4.799999999999999E-003    8.474096691606180E-013
 -4.699999999999999E-003    9.231683873103748E-013
 -4.599999999999999E-003    9.453852762341225E-013
 -4.499999999999999E-003    9.086199611611985E-013
 -4.399999999999999E-003    8.111282689350621E-013
 -4.299999999999999E-003    6.551119367175842E-013
 -4.199999999999999E-003    4.466751509842293E-013
 -4.099999999999999E-003    1.954922328281995E-013
 -3.999999999999999E-003   -8.578286754214995E-014
 -3.899999999999999E-003   -3.823103467742042E-013
 -3.799999999999999E-003   -6.779893465988816E-013
 -3.699999999999999E-003   -9.564313254882734E-013
 -3.599999999999999E-003   -1.201898386987255E-012
 -3.499999999999999E-003   -1.400132118971594E-012
 -3.399999999999999E-003   -1.539014892877025E-012
 -3.299999999999999E-003   -1.609029079961902E-012
 -3.199999999999999E-003   -1.603507866919267E-012
 -3.099999999999999E-003   -1.518698144037954E-012
 -2.999999999999999E-003   -1.353681029824482E-012
 -2.899999999999999E-003   -1.110212913158311E-012
 -2.799999999999999E-003   -7.925579447686876E-013
 -2.699999999999999E-003   -4.073794198974997E-013
 -2.599999999999999E-003    3.625784810525874E-014
 -2.499999999999999E-003    5.267485042487150E-013
 -2.399999999999999E-003    1.049679832963648E-012
 -2.299999999999999E-003    1.587484603321538E-012
 -2.199999999999999E-003    2.119099846695137E-012
 -2.099999999999999E-003    2.619749285453164E-012
 -1.999999999999999E-003    3.060986460444605E-012
 -1.899999999999999E-003    3.411140598017872E-012
 -1.799999999999999E-003    3.636289897959804E-012
 -1.699999999999999E-003    3.701849466112390E-012
 -1.599999999999999E-003    3.574802467899053E-012
 -1.499999999999999E-003    3.226530327535712E-012
 -1.399999999999999E-003    2.636108148946418E-012
 -1.299999999999999E-003    1.793848729809964E-012
 -1.199999999999999E-003    7.047931188287730E-013
 -1.099999999999999E-003   -6.082165100276112E-013
 -9.999999999999989E-004   -2.102280446006111E-012
 -8.999999999999990E-004   -3.713402656691452E-012
 -7.999999999999990E-004   -5.357028834732101E-012
 -6.999999999999989E-004   -6.930433656482249E-012
 -5.999999999999990E-004   -8.317104726534525E-012
 -4.999999999999989E-004   -9.393103512964076E-012
 -3.999999999999989E-004   -1.003520392725582E-011
 -2.999999999999989E-004   -1.013040193305354E-011
 -1.999999999999989E-004   -9.586209190828585E-012
 -9.999999999999892E-005   -8.340982912591053E-012
  1.084202172485504E-018   -6.373420117819352E-012
  1.000000000000011E-004   -3.710305616752540E-012
  2.000000000000011E-004   -4.316142595535108E-013
  3.000000000000011E-004    3.327812045216778E-012
  4.000000000000011E-004    7.380613687195792E-012
  5.000000000000011E-004    1.149362116972157E-011
  6.000000000000011E-004    1.539892356749777E-011
  7.000000000000011E-004    1.880895824677342E-011
  8.000000000000011E-004    2.143488529866416E-011
  9.000000000000012E-004    2.300718796167900E-011
  1.000000000000001E-003    2.329714573802543E-011
  1.100000000000001E-003    2.213760262049346E-011
  1.200000000000001E-003    1.944138916088159E-011
  1.300000000000001E-003    1.521576584774684E-011
  1.400000000000001E-003    9.571440743682594E-012
  1.500000000000001E-003    2.725004686697541E-012
  1.600000000000001E-003   -5.005943410664806E-012
  1.700000000000001E-003   -1.321521682170070E-011
  1.800000000000001E-003   -2.142767483632672E-011
  1.900000000000001E-003   -2.912518721699171E-011
  2.000000000000001E-003   -3.577749637154074E-011
  2.100000000000001E-003   -4.087613383106178E-011
  2.200000000000001E-003   -4.396918513349979E-011
  2.300000000000001E-003   -4.469456303673297E-011
  2.400000000000001E-003   -4.280944649761879E-011
  2.500000000000001E-003   -3.821369238517473E-011
  2.600000000000001E-003   -3.096542984910516E-011
  2.700000000000001E-003   -2.128747734283867E-011
  2.800000000000001E-003   -9.563855115112966E-012
  2.900000000000001E-003    3.673722220863772E-012
  3.000000000000001E-003    1.776879746008407E-011
  3.100000000000001E-003    3.197142339710188E-011
  3.200000000000001E-003    4.547601851796695E-011
  3.300000000000001E-003    5.746376887965604E-011
  3.400000000000001E-003    6.714726167952022E-011
  3.500000000000001E-003    7.381497244682582E-011
  3.600000000000001E-003    7.687327442796742E-011
  3.700000000000001E-003    7.588386838091150E-011
  3.800000000000001E-003    7.059482755026502E-011
  3.900000000000001E-003    6.096383911137228E-011
  4.000000000000001E-003    4.717256938192961E-011
  4.100000000000001E-003    2.963148860863540E-011
  4.200000000000001E-003    8.974861683174769E-012
  4.300000000000001E-003   -1.395417233287461E-011
  4.400000000000001E-003   -3.812825952555721E-011
  4.500000000000001E-003   -6.236984584583207E-011
  4.600000000000002E-003   -8.539405633736664E-011
  4.700000000000001E-003   -1.058597546055687E-010
  4.800000000000001E-003   -1.224278152735440E-010
  4.900000000000002E-003   -1.338254936209622E-010
  5.000000000000001E-003   -1.389151451214199E-010
  5.100000000000001E-003   -1.367652494759248E-010
  5.200000000000001E-003   -1.267209726511597E-010
  5.300000000000002E-003   -1.084709217069212E-010
  5.400000000000001E-003   -8.210605231449732E-011
  5.500000000000001E-003   -4.816629006725018E-011
  5.600000000000002E-003   -7.670156137428902E-012
  5.700000000000001E-003    3.787749806928069E-011
  5.800000000000001E-003    8.650384753642251E-011
  5.900000000000002E-003    1.358161413841338E-010
  6.000000000000001E-003    1.830814251731685E-010
  6.100000000000001E-003    2.253384318662161E-010
  6.200000000000002E-003    2.595394898814709E-010
  6.300000000000002E-003    2.827182508316360E-010
  6.400000000000001E-003    2.921761222228049E-010
  6.500000000000001E-003    2.856779524999497E-010
  6.600000000000002E-003    2.616453786226456E-010
  6.700000000000001E-003    2.193345344237148E-010
  6.800000000000001E-003    1.589843017154922E-010
  6.900000000000002E-003    8.192139869796084E-011
  7.000000000000001E-003   -9.390315912808175E-012
  7.100000000000001E-003   -1.113660082804880E-010
  7.200000000000002E-003   -2.193882252482799E-010
  7.300000000000002E-003   -3.279694688016765E-010
  7.400000000000001E-003   -4.309861096406377E-010
  7.500000000000001E-003   -5.219754754360982E-010
  7.600000000000002E-003   -5.944826565390326E-010
  7.700000000000001E-003   -6.424391142060566E-010
  7.800000000000001E-003   -6.605510525802975E-010
  7.900000000000001E-003   -6.446737184999585E-010
  8.000000000000002E-003   -5.921461994644260E-010
  8.100000000000001E-003   -5.020631401836297E-010
  8.200000000000001E-003   -3.754614907867072E-010
  8.300000000000002E-003   -2.154063898304388E-010
  8.400000000000001E-003   -2.696450173795059E-011
  8.500000000000002E-003    1.829383209055935E-010
  8.600000000000002E-003    4.057715026044791E-010
  8.700000000000001E-003    6.317548301244209E-010
  8.800000000000002E-003    8.502960527878872E-010
  8.900000000000002E-003    1.050486117417710E-009
  9.000000000000001E-003    1.221624175649605E-009
  9.100000000000002E-003    1.353741749668888E-009
  9.200000000000002E-003    1.438094484300115E-009
  9.300000000000001E-003    1.467594634654699E-009
  9.400000000000002E-003    1.437159083294033E-009
  9.500000000000001E-003    1.343955576616370E-009
  9.600000000000001E-003    1.187536123737639E-009
  9.700000000000002E-003    9.698556534084170E-010
  9.800000000000001E-003    6.951806325493196E-010
  9.900000000000001E-003    3.699002452298737E-010
  1.000000000000000E-002    2.258559443739615E-012
  1.010000000000000E-002   -3.979693874698268E-010
  1.020000000000000E-002   -8.198338797428299E-010
  1.030000000000000E-002   -1.251573873984401E-009
  1.040000000000000E-002   -1.680965809556388E-009
  1.050000000000000E-002   -2.095641080007585E-009
  1.060000000000000E-002   -2.483358365653608E-009
  1.070000000000000E-002   -2.832226857931749E-009
  1.080000000000000E-002   -3.130881520522238E-009
  1.090000000000000E-002   -3.368616794650736E-009
  1.100000000000000E-002   -3.535492010683907E-009
  1.110000000000000E-002   -3.622424459148474E-009
  1.120000000000000E-002   -3.621288291675182E-009
  1.130000000000000E-002   -3.525033752900349E-009
  1.140000000000000E-002   -3.327844787469542E-009
  1.150000000000000E-002   -3.025342405528489E-009
  1.160000000000000E-002   -2.614838901886734E-009
  1.170000000000000E-002   -2.095641229633246E-009
  1.180000000000000E-002   -1.469396762106906E-009
  1.190000000000000E-002   -7.404622958513539E-010
  1.200000000000000E-002    8.371607818356290E-011
  1.210000000000000E-002    9.922418532342626E-010
  1.220000000000000E-002    1.970445454521382E-009
  1.230000000000000E-002    2.999629731272028E-009
  1.240000000000000E-002    4.056903817099472E-009
  1.250000000000000E-002    5.115128152867204E-009
  1.260000000000000E-002    6.142989374936462E-009
  1.270000000000000E-002    7.105219583839379E-009
  1.280000000000000E-002    7.962975139131109E-009
  1.290000000000000E-002    8.674377095964123E-009
  1.300000000000000E-002    9.195229102163492E-009
  1.310000000000000E-002    9.479917350138404E-009
  1.320000000000000E-002    9.482502493919896E-009
  1.330000000000000E-002    9.158008289400275E-009
  1.340000000000000E-002    8.463927766029433E-009
  1.350000000000000E-002    7.361943730775265E-009
  1.360000000000000E-002    5.819889062769049E-009
  1.370000000000000E-002    3.813936237996379E-009
  1.380000000000000E-002    1.331040953403055E-009
  1.390000000000000E-002   -1.628403339916434E-009
  1.400000000000000E-002   -5.047670859656140E-009
  1.410000000000000E-002   -8.890652629611678E-009
  1.420000000000000E-002   -1.309865246792746E-008
  1.430000000000000E-002   -1.758714142340572E-008
  1.440000000000000E-002   -2.224249034257655E-008
  1.450000000000000E-002   -2.691882003777658E-008
  1.460000000000000E-002   -3.143504426256003E-008
  1.470000000000000E-002   -3.557223875073936E-008
  1.480000000000000E-002   -3.907140599313510E-008
  1.490000000000000E-002   -4.163172528561160E-008
  1.500000000000000E-002   -4.290939677454603E-008
  1.510000000000000E-002   -4.251711744848687E-008
  1.520000000000000E-002   -4.002416778413197E-008
  1.530000000000000E-002   -3.495717733309400E-008
  1.540000000000000E-002   -2.680153371822173E-008
  1.550000000000000E-002   -1.500323879202276E-008
  1.560000000000000E-002    1.028719425215388E-009
  1.570000000000000E-002    2.191975838654464E-008
  1.580000000000000E-002    4.832685344670126E-008
  1.590000000000000E-002    8.093576783970714E-008
  1.600000000000000E-002    1.204582337942654E-007
  1.610000000000000E-002    1.676296744556265E-007
  1.620000000000000E-002    2.232069022530305E-007
  1.630000000000000E-002    2.879667914244204E-007
  1.640000000000000E-002    3.627049944977613E-007
  1.650000000000000E-002    4.482353295492894E-007
  1.660000000000000E-002    5.453899393805286E-007
  1.670000000000000E-002    6.550197721064640E-007
  1.680000000000000E-002    7.779956005011552E-007
  1.690000000000000E-002    9.152090558129957E-007
  1.700000000000000E-002    1.067574798172590E-006
  1.710000000000000E-002    1.236031832521283E-006
  1.720000000000000E-002    1.421546231789679E-006
  1.730000000000000E-002    1.625113321855433E-006
  1.740000000000000E-002    1.847760182314291E-006
  1.750000000000000E-002    2.090548358766381E-006
  1.760000000000000E-002    2.354576569384652E-006
  1.770000000000000E-002    2.640985177467418E-006
  1.780000000000000E-002    2.950958729222836E-006
  1.790000000000000E-002    3.285730768071035E-006
  1.800000000000000E-002    3.646588658780437E-006
  1.810000000000000E-002    4.034878814330488E-006
  1.820000000000000E-002    4.452013523285413E-006
  1.830000000000000E-002    4.899475619197243E-006
  1.840000000000000E-002    5.378828318994486E-006
  1.850000000000000E-002    5.891720717598186E-006
  1.860000000000000E-002    6.439896567136487E-006
  1.870000000000000E-002    7.025202934559271E-006