 -4.000000000000000E-002    0.000000000000000E+000
 -3.990000000000000E-002    0.000000000000000E+000
 -3.980000000000000E-002    0.000000000000000E+000
 -3.970000000000000E-002    0.000000000000000E+000
 -3.960000000000000E-002    0.000000000000000E+000
 -3.950000000000000E-002    0.000000000000000E+000
 -3.940000000000000E-002    0.000000000000000E+000
 -3.930000000000000E-002    0.000000000000000E+000
 -3.920000000000000E-002    0.000000000000000E+000
 -3.910000000000000E-002    0.000000000000000E+000
 -3.900000000000000E-002    0.000000000000000E+000
 -3.890000000000000E-002    0.000000000000000E+000
 -3.880000000000000E-002    0.000000000000000E+000
 -3.870000000000000E-002    0.000000000000000E+000
 -3.860000000000000E-002    0.000000000000000E+000
 -3.850000000000000E-002    0.000000000000000E+000
 -3.840000000000000E-002    0.000000000000000E+000
 -3.830000000000000E-002    0.000000000000000E+000
 -3.820000000000000E-002    0.000000000000000E+000
 -3.810000000000000E-002    0.000000000000000E+000
 -3.800000000000000E-002    0.000000000000000E+000
 -3.790000000000000E-002    0.000000000000000E+000
 -3.780000000000000E-002    0.000000000000000E+000
 -3.770000000000000E-002    0.000000000000000E+000
 -3.760000000000000E-002    0.000000000000000E+000
 -3.750000000000000E-002   -7.243085390293825E-048
 -3.740000000000000E-002   -3.824663076368160E-047
 -3.730000000000000E-002   -1.329089878008608E-046
 -3.720000000000000E-002   -3.517893218145980E-046
 -3.710000000000000E-002   -7.578830576325834E-046
 -3.700000000000000E-002   -7.804698869763963E-046
 -3.690000000000000E-002    2.872729861980460E-045
 -3.680000000000000E-002    2.097780791251830E-044
 -3.670000000000000E-002    9.237438556106451E-044
 -3.660000000000000E-002    3.234588700076195E-043
 -3.650000000000000E-002    9.969106188966902E-043
 -3.640000000000000E-002    2.806563342547156E-042
 -3.630000000000000E-002    7.338296636590561E-042
 -3.620000000000000E-002    1.800092618233062E-041
 -3.610000000000000E-002    4.170426429197718E-041
 -3.600000000000000E-002    9.166841653383384E-041
 -3.590000000000000E-002    1.917485268334162E-040
 -3.580000000000000E-002    3.824333807276292E-040
 -3.570000000000000E-002    7.279598335897582E-040
 -3.560000000000000E-002    1.322467731774401E-039
 -3.550000000000000E-002    2.290395604664782E-039
 -3.540000000000000E-002    3.772093023554496E-039
 -3.530000000000000E-002    5.879990719200185E-039
 -3.520000000000000E-002    8.604525910752011E-039
 -3.510000000000000E-002    1.164454325252016E-038
 -3.500000000000000E-002    1.413815777702944E-038
 -3.490000000000000E-002    1.428291999513557E-038
 -3.480000000000000E-002    8.865109149451583E-039
 -3.470000000000000E-002   -7.228198554449129E-039
 -3.460000000000000E-002   -4.136654792832992E-038
 -3.450000000000000E-002   -1.031792284595327E-037
 -3.440000000000000E-002   -2.039461859060542E-037
 -3.430000000000000E-002   -3.552035905802899E-037
 -3.420000000000000E-002   -5.667113211613109E-037
 -3.410000000000000E-002   -8.446195145062737E-037
 -3.400000000000000E-002   -1.191845353226543E-036
 -3.390000000000000E-002   -1.614322511558678E-036
 -3.380000000000000E-002   -2.138655852720858E-036
 -3.370000000000000E-002   -2.848063134393148E-036
 -3.360000000000000E-002   -3.942915418895358E-036
 -3.350000000000000E-002   -5.827326301641170E-036
 -3.340000000000000E-002   -9.210945022281271E-036
 -3.330000000000000E-002   -1.519133837401993E-035
 -3.320000000000000E-002   -2.524369913655806E-035
 -3.310000000000000E-002   -4.098906968386063E-035
 -3.300000000000000E-002   -6.354286725663652E-035
 -3.290000000000000E-002   -9.217356939932180E-035
 -3.280000000000000E-002   -1.219503257405812E-034
 -3.270000000000000E-002   -1.400695941001227E-034
 -3.260000000000000E-002   -1.206861534120486E-034
 -3.250000000000000E-002   -1.841011889888152E-035
 -3.240000000000000E-002    2.387355926867843E-034
 -3.230000000000000E-002    7.550960898624374E-034
 -3.220000000000000E-002    1.668667377896873E-033
 -3.210000000000000E-002    3.142828058193396E-033
 -3.200000000000000E-002    5.341451953824454E-033
 -3.190000000000000E-002    8.378478153273260E-033
 -3.180000000000000E-002    1.223207317504165E-032
 -3.170000000000000E-002    1.661434246178618E-032
 -3.160000000000000E-002    2.079160505909005E-032
 -3.150000000000000E-002    2.335886504743625E-032
 -3.140000000000000E-002    2.198706482147360E-032
 -3.130000000000000E-002    1.318401630395390E-032
 -3.120000000000000E-002   -7.859906140770177E-033
 -3.110000000000000E-002   -4.723328633155957E-032
 -3.100000000000000E-002   -1.119240688078947E-031
 -3.090000000000000E-002   -2.089134441294745E-031
 -3.080000000000000E-002   -3.435339872930968E-031
 -3.070000000000000E-002   -5.168879590194097E-031
 -3.060000000000000E-002   -7.221715396807670E-031
 -3.050000000000000E-002   -9.398726096220807E-031
 -3.040000000000000E-002   -1.132018092555516E-030
 -3.030000000000000E-002   -1.235970768299148E-030
 -3.020000000000000E-002   -1.158719256222076E-030
 -3.010000000000000E-002   -7.731674406301371E-031
 -3.000000000000000E-002    8.142116693245799E-032
 -2.990000000000000E-002    1.591984273466842E-030
 -2.980000000000000E-002    3.953803820264313E-030
 -2.970000000000000E-002    7.338464026811038E-030
 -2.960000000000000E-002    1.184399287935144E-029
 -2.950000000000000E-002    1.742447015605832E-029
 -2.940000000000000E-002    2.379839282987109E-029
 -2.930000000000000E-002    3.033851993464455E-029
 -2.920000000000000E-002    3.595120622945788E-029
 -2.910000000000000E-002    3.896026570821227E-029
 -2.900000000000000E-002    3.701956303663406E-029
 -2.890000000000000E-002    2.708880545966281E-029
 -2.880000000000000E-002    5.517833022895283E-030
 -2.870000000000000E-002   -3.170593096384563E-029
 -2.860000000000000E-002   -8.848713040628161E-029
 -2.850000000000000E-002   -1.678717490189743E-028
 -2.840000000000000E-002   -2.709733375611726E-028
 -2.830000000000000E-002   -3.955644201104094E-028
 -2.820000000000000E-002   -5.343747368549805E-028
 -2.810000000000000E-002   -6.732145139079147E-028
 -2.800000000000000E-002   -7.891448261315703E-028
 -2.790000000000000E-002   -8.490382512834173E-028
 -2.780000000000000E-002   -8.090090147695512E-028
 -2.770000000000000E-002   -6.153165688000984E-028
 -2.760000000000000E-002   -2.074353237033628E-028
 -2.750000000000000E-002    4.759980681445806E-028
 -2.740000000000000E-002    1.487747206745799E-027
 -2.730000000000000E-002    2.858697450732153E-027
 -2.720000000000000E-002    4.580841159043625E-027
 -2.710000000000000E-002    6.587322581991883E-027
 -2.700000000000000E-002    8.731238242273133E-027
 -2.690000000000000E-002    1.076596629642425E-026
 -2.680000000000000E-002    1.233095417872464E-026
 -2.670000000000000E-002    1.294793500418422E-026
 -2.660000000000000E-002    1.203330340321851E-026
 -2.650000000000000E-002    8.932503412734540E-027
 -2.640000000000000E-002    2.981565328732657E-027
 -2.630000000000000E-002   -6.400991260117353E-027
 -2.620000000000000E-002   -1.959193151037985E-026
 -2.610000000000000E-002   -3.661542172586201E-026
 -2.600000000000000E-002   -5.698009808630500E-026
 -2.590000000000000E-002   -7.951828535184378E-026
 -2.580000000000000E-002   -1.022512467860663E-025
 -2.570000000000000E-002   -1.223099272239700E-025
 -2.560000000000000E-002   -1.359440284541887E-025
 -2.550000000000000E-002   -1.386516273574200E-025
 -2.540000000000000E-002   -1.254565044386765E-025
 -2.530000000000000E-002   -9.134909765083638E-026
 -2.520000000000000E-002   -3.189022116705455E-026
 -2.510000000000000E-002    5.604543643008849E-026
 -2.500000000000000E-002    1.734342652276950E-025
 -2.490000000000000E-002    3.182509294391208E-025
 -2.480000000000000E-002    4.846936669871836E-025
 -2.470000000000000E-002    6.625982063502225E-025
 -2.460000000000000E-002    8.371522565869922E-025
 -2.450000000000000E-002    9.890129619321974E-025
 -2.440000000000000E-002    1.094898725086852E-024
 -2.430000000000000E-002    1.128688895292040E-024
 -2.420000000000000E-002    1.063013817319012E-024
 -2.410000000000000E-002    8.712669462105656E-025
 -2.400000000000000E-002    5.299325249531071E-025
 -2.390000000000000E-002    2.110004605065254E-026
 -2.380000000000000E-002   -6.649552363750358E-025
 -2.370000000000000E-002   -1.527205793755178E-024
 -2.360000000000000E-002   -2.551337499139962E-024
 -2.350000000000000E-002   -3.707187937529069E-024
 -2.340000000000000E-002   -4.946044090117215E-024
 -2.330000000000000E-002   -6.197671862666741E-024
 -2.320000000000000E-002   -7.367041302719533E-024
 -2.310000000000000E-002   -8.330905388746064E-024
 -2.300000000000000E-002   -8.934756008161017E-024
 -2.290000000000000E-002   -8.991146665387942E-024
 -2.280000000000000E-002   -8.280949141508398E-024
 -2.270000000000000E-002   -6.559661959674330E-024
 -2.260000000000000E-002   -3.571299570204288E-024
 -2.250000000000000E-002    9.275511489797530E-025
 -2.240000000000000E-002    7.131388211220511E-024
 -2.230000000000000E-002    1.513619739755409E-023
 -2.220000000000000E-002    2.487765839952466E-023
 -2.210000000000000E-002    3.606102978407113E-023
 -2.200000000000000E-002    4.809004406411449E-023
 -2.190000000000000E-002    6.000590506089899E-023
 -2.180000000000000E-002    7.045093534008831E-023
 -2.170000000000000E-002    7.767376957002080E-023
 -2.160000000000000E-002    7.959338869831230E-023
 -2.150000000000000E-002    7.393693077191990E-023
 -2.140000000000000E-002    5.846021709780069E-023
 -2.130000000000000E-002    3.125017474763255E-023
 -2.120000000000000E-002   -8.904907888350967E-024
 -2.110000000000000E-002   -6.210733933109820E-023
 -2.100000000000000E-002   -1.269507877087664E-022
 -2.090000000000000E-002   -2.001912144233392E-022
 -2.080000000000000E-002   -2.765593758168879E-022
 -2.070000000000000E-002   -3.487873668796981E-022
 -2.060000000000000E-002   -4.079125314199568E-022
 -2.050000000000000E-002   -4.438981760694935E-022
 -2.040000000000000E-002   -4.465746002678169E-022
 -2.030000000000000E-002   -4.068548048244140E-022
 -2.020000000000000E-002   -3.181245036863466E-022
 -2.010000000000000E-002   -1.776498446885532E-022
 -2.000000000000000E-002    1.219855359991149E-023
 -1.990000000000000E-002    2.431330864342915E-022
 -1.980000000000000E-002    5.007699135014597E-022
 -1.970000000000000E-002    7.652624660799942E-022
 -1.960000000000000E-002    1.012840120017371E-021
 -1.950000000000000E-002    1.218220569925104E-021
 -1.940000000000000E-002    1.357708812556179E-021
 -1.930000000000000E-002    1.412633836565802E-021
 -1.920000000000000E-002    1.372621837341308E-021
 -1.910000000000000E-002    1.238106595899489E-021
 -1.900000000000000E-002    1.021450324767953E-021
 -1.890000000000000E-002    7.461294869472563E-022
 -1.880000000000000E-002    4.436399873239689E-022
 -1.870000000000000E-002    1.480971508431169E-022
 -1.860000000000000E-002   -1.110774281697072E-022
 -1.850000000000000E-002   -3.175227027811686E-022
 -1.840000000000000E-002   -4.760433869303455E-022
 -1.830000000000000E-002   -6.187924242285596E-022
 -1.820000000000000E-002   -8.077102885580644E-022
 -1.810000000000000E-002   -1.131511929224932E-021
 -1.800000000000000E-002   -1.695978128196119E-021
 -1.790000000000000E-002   -2.607101538975067E-021
 -1.780000000000000E-002   -3.947767098164725E-021
 -1.770000000000000E-002   -5.749980583393737E-021
 -1.760000000000000E-002   -7.966042186689335E-021
 -1.750000000000000E-002   -1.044327979734303E-020
 -1.740000000000000E-002   -1.290775007404513E-020
 -1.730000000000000E-002   -1.496244213035156E-020
 -1.720000000000000E-002   -1.610479603094575E-020
 -1.710000000000000E-002   -1.576663659615920E-020
 -1.700000000000000E-002   -1.337697647110104E-020
 -1.690000000000000E-002   -8.444701072890046E-021
 -1.680000000000000E-002   -6.543360803012844E-022
 -1.670000000000000E-002    1.003569127870556E-020
 -1.660000000000000E-002    2.330594417610876E-020
 -1.650000000000000E-002    3.841539473487682E-020
 -1.640000000000000E-002    5.418259480261254E-020
 -1.630000000000000E-002    6.902131288447713E-020
 -1.620000000000000E-002    8.103844456957369E-020
 -1.610000000000000E-002    8.819479399407868E-020
 -1.600000000000000E-002    8.852058555410183E-020
 -1.590000000000000E-002    8.036809941072733E-020
 -1.580000000000000E-002    6.267510883845521E-020
 -1.570000000000000E-002    3.520614824006243E-020
 -1.560000000000000E-002   -1.264517941299037E-021
 -1.550000000000000E-002   -4.486279301550785E-020
 -1.540000000000000E-002   -9.264533896787181E-020
 -1.530000000000000E-002   -1.407666562633317E-019
 -1.520000000000000E-002   -1.847821798812331E-019
 -1.510000000000000E-002   -2.200679968218318E-019
 -1.500000000000000E-002   -2.423187037558998E-019
 -1.490000000000000E-002   -2.480683846378952E-019
 -1.480000000000000E-002   -2.351688586721874E-019
 -1.470000000000000E-002   -2.031562926342361E-019
 -1.460000000000000E-002   -1.534441302000617E-019
 -1.450000000000000E-002   -8.929708575995251E-020
 -1.440000000000000E-002   -1.556656518999011E-020
 -1.430000000000000E-002    6.180020838329844E-020
 -1.420000000000000E-002    1.364313279198492E-019
 -1.410000000000000E-002    2.023041845993519E-019
 -1.400000000000000E-002    2.545227114044571E-019
 -1.390000000000000E-002    2.899872756131084E-019
 -1.380000000000000E-002    3.078530684583400E-019
 -1.370000000000000E-002    3.096945386512432E-019
 -1.360000000000000E-002    2.993309048503235E-019
 -1.350000000000000E-002    2.823145871480047E-019
 -1.340000000000000E-002    2.651359893654842E-019
 -1.330000000000000E-002    2.542431073886580E-019
 -1.320000000000000E-002    2.550076283632411E-019
 -1.310000000000000E-002    2.707816348732731E-019
 -1.300000000000000E-002    3.021769339390218E-019
 -1.290000000000000E-002    3.466643669665007E-019
 -1.280000000000000E-002    3.985351023211027E-019
 -1.270000000000000E-002    4.492015903101012E-019
 -1.260000000000000E-002    4.877569105366225E-019
 -1.250000000000000E-002    5.016654142906276E-019
 -1.240000000000000E-002    4.774466096977346E-019
 -1.230000000000000E-002    4.012398872858023E-019
 -1.220000000000000E-002    2.592042480354714E-019
 -1.210000000000000E-002    3.780371314645891E-020
 -1.200000000000000E-002   -2.758542502538719E-019
 -1.190000000000000E-002   -6.933605303607744E-019
 -1.180000000000000E-002   -1.223697259018613E-018
 -1.170000000000000E-002   -1.870962646158586E-018
 -1.160000000000000E-002   -2.630919055421970E-018
 -1.150000000000000E-002   -3.486365168129454E-018
 -1.140000000000000E-002   -4.401647603669586E-018
 -1.130000000000000E-002   -5.317003734116475E-018
 -1.120000000000000E-002   -6.143815823782990E-018
 -1.110000000000000E-002   -6.762183056815107E-018
 -1.100000000000000E-002   -7.022394223247231E-018
 -1.090000000000000E-002   -6.751823182806427E-018
 -1.080000000000000E-002   -5.768415048622496E-018
 -1.070000000000000E-002   -3.901243222154929E-018
 -1.060000000000000E-002   -1.017611768799617E-018
 -1.050000000000000E-002    2.945069347377886E-018
 -1.040000000000000E-002    7.945751204462404E-018
 -1.030000000000000E-002    1.380893732228582E-017
 -1.020000000000000E-002    2.020192285716953E-017
 -1.010000000000000E-002    2.662579982976139E-017
 -1.000000000000000E-002    3.242559899546947E-017
 -9.899999999999999E-003    3.682366976575722E-017
 -9.800000000000000E-003    3.897821368436783E-017
 -9.699999999999999E-003    3.806587729964829E-017
 -9.599999999999999E-003    3.338369075285291E-017
 -9.500000000000000E-003    2.446185815090639E-017
 -9.399999999999999E-003    1.117540236378669E-017
 -9.299999999999999E-003   -6.159933026410625E-018
 -9.200000000000000E-003   -2.672329653211745E-017
 -9.099999999999999E-003   -4.917088102931490E-017
 -8.999999999999999E-003   -7.167676730679225E-017
 -8.900000000000000E-003   -9.203941206915668E-017
 -8.799999999999999E-003   -1.078537500612862E-016
 -8.699999999999999E-003   -1.167403846808348E-016
 -8.600000000000000E-003   -1.166145942687764E-016
 -8.499999999999999E-003   -1.059696114420030E-016
 -8.399999999999999E-003   -8.414245264900275E-017
 -8.300000000000000E-003   -5.152724964501305E-017
 -8.199999999999999E-003   -9.701801892564954E-018
 -8.100000000000000E-003    3.856167987452548E-017
 -8.000000000000000E-003    8.942098925711372E-017
 -7.899999999999999E-003    1.382290940066063E-016
 -7.800000000000000E-003    1.799293691392910E-016
 -7.699999999999999E-003    2.095527577894453E-016
 -7.599999999999999E-003    2.227726478130718E-016
 -7.499999999999999E-003    2.164602755992536E-016
 -7.399999999999999E-003    1.891761622972154E-016
 -7.299999999999999E-003    1.415326464795254E-016
 -7.199999999999999E-003    7.637029796633965E-017
 -7.100000000000000E-003   -1.293727815463985E-018
 -6.999999999999999E-003   -8.456500352412485E-017
 -6.899999999999999E-003   -1.652116892353012E-016
 -6.800000000000000E-003   -2.344088602329923E-016
 -6.699999999999999E-003   -2.836247648052320E-016
 -6.599999999999999E-003   -3.055638908184378E-016
 -6.499999999999999E-003   -2.950688438039369E-016
 -6.399999999999999E-003   -2.498794108756156E-016
 -6.299999999999999E-003   -1.711560753461689E-016
 -6.199999999999999E-003   -6.369505010776596E-017
 -6.100000000000000E-003    6.420884102488086E-017
 -5.999999999999999E-003    2.012596626483924E-016
 -5.899999999999999E-003    3.339884719479370E-016
 -5.800000000000000E-003    4.478473348447026E-016
 -5.699999999999999E-003    5.284758903579760E-016
 -5.599999999999999E-003    5.630288419247886E-016
 -5.499999999999999E-003    5.414474317764042E-016
 -5.399999999999999E-003    4.575644345136215E-016
 -5.299999999999999E-003    3.099512382262558E-016
 -5.199999999999999E-003    1.024419641121165E-016
 -5.099999999999999E-003   -1.556995691956975E-016
 -4.999999999999999E-003   -4.499744643380315E-016
 -4.899999999999999E-003   -7.611850631854639E-016
 -4.799999999999999E-003   -1.066276774084819E-015
 -4.699999999999999E-003   -1.339443617209625E-015
 -4.599999999999999E-003   -1.553458207945433E-015
 -4.499999999999999E-003   -1.681196297416309E-015
 -4.399999999999999E-003   -1.697335350914581E-015
 -4.299999999999999E-003   -1.580210728004976E-015
 -4.199999999999999E-003   -1.313806494899480E-015
 -4.099999999999999E-003   -8.898360168609564E-016
 -3.999999999999999E-003   -3.098272240414901E-016
 -3.899999999999999E-003    4.129252381472421E-016
 -3.799999999999999E-003    1.251741974396512E-015
 -3.699999999999999E-003    2.165534363894297E-015
 -3.599999999999999E-003    3.098676702225464E-015
 -3.499999999999999E-003    3.982090231903213E-015
 -3.399999999999999E-003    4.735822933984968E-015
 -3.299999999999999E-003    5.273319869112294E-015
 -3.199999999999999E-003    5.507435904114976E-015
 -3.099999999999999E-003    5.358043438208689E-015
 -2.999999999999999E-003    4.760850160529342E-015
 -2.899999999999999E-003    3.676791142990519E-015
 -2.799999999999999E-003    2.101123345385786E-015
 -2.699999999999999E-003    7.116807970684492E-017
 -2.599999999999999E-003   -2.328444013039093E-015
 -2.499999999999999E-003   -4.964143822576511E-015
 -2.399999999999999E-003   -7.656358125799680E-015
 -2.299999999999999E-003   -1.018762907947681E-014
 -2.199999999999999E-003   -1.231608666760031E-014
 -2.099999999999999E-003   -1.379387095927868E-014
 -1.999999999999999E-003   -1.438948176954633E-014
 -1.899999999999999E-003   -1.391241963318559E-014
 -1.799999999999999E-003   -1.223795312725034E-014
 -1.699999999999999E-003   -9.329478631375114E-015
 -1.599999999999999E-003   -5.255796375476221E-015
 -1.499999999999999E-003   -2.007562863136934E-016
 -1.399999999999999E-003    5.536840858996899E-015
 -1.299999999999999E-003    1.155448471530828E-014
 -1.199999999999999E-003    1.736877744916941E-014
 -1.099999999999999E-003    2.244914091920114E-014
 -9.999999999999989E-004    2.626053109663666E-014
 -8.999999999999990E-004    2.831213456548369E-014
 -7.999999999999990E-004    2.820808403640544E-014
 -6.999999999999989E-004    2.569557895762789E-014
 -5.999999999999990E-004    2.070554851067746E-014
 -4.999999999999989E-004    1.338120311013052E-014
 -3.999999999999989E-004    4.090503080571179E-015
 -2.999999999999989E-004   -6.580306441770115E-015
 -1.999999999999989E-004   -1.785346585677822E-014
 -9.999999999999892E-005   -2.880641500345859E-014
  1.084202172485504E-018   -3.843627082419319E-014
  1.000000000000011E-004   -4.573816275938252E-014
  2.000000000000011E-004   -4.979196365060614E-014
  3.000000000000011E-004   -4.985084748476402E-014
  4.000000000000011E-004   -4.542443081302162E-014
  5.000000000000011E-004   -3.634914704038966E-014
  6.000000000000011E-004   -2.283899756956319E-014
  7.000000000000011E-004   -5.510821609720418E-015
  8.000000000000011E-004    1.462021381564083E-014
  9.000000000000012E-004    3.617737373149211E-014
  1.000000000000001E-003    5.749155994176741E-014
  1.100000000000001E-003    7.670097629420387E-014
  1.200000000000001E-003    9.187683824335261E-014
  1.300000000000001E-003    1.011686321983649E-013
  1.400000000000001E-003    1.029604246831474E-013
  1.500000000000001E-003    9.602814437719224E-014
  1.600000000000001E-003    7.968658922456657E-014
  1.700000000000001E-003    5.391436255167483E-014
  1.800000000000001E-003    1.944493620048233E-014
  1.900000000000001E-003   -2.218722191894322E-014
  2.000000000000001E-003   -6.865484422345331E-014
  2.100000000000001E-003   -1.169074748076369E-013
  2.200000000000001E-003   -1.633061406831874E-013
  2.300000000000001E-003   -2.038225901814526E-013
  2.400000000000001E-003   -2.342977738200845E-013
  2.500000000000001E-003   -2.507487340240296E-013
  2.600000000000001E-003   -2.497077477035612E-013
  2.700000000000001E-003   -2.285719634081163E-013
  2.800000000000001E-003   -1.859376514162621E-013
  2.900000000000001E-003   -1.218897308484490E-013
  3.000000000000001E-003   -3.821635839446553E-014
  3.100000000000001E-003    6.148078048099211E-014
  3.200000000000001E-003    1.718054461500825E-013
  3.300000000000001E-003    2.857335106226704E-013
  3.400000000000001E-003    3.949359158218971E-013
  3.500000000000001E-003    4.902543899108665E-013
  3.600000000000001E-003    5.623129394252692E-013
  3.700000000000001E-003    6.022338415737597E-013
  3.800000000000001E-003    6.024133335088417E-013
  3.900000000000001E-003    5.573005960536592E-013
  4.000000000000001E-003    4.641160474354732E-013
  4.100000000000001E-003    3.234407552805482E-013
  4.200000000000001E-003    1.396118653339971E-013
  4.300000000000001E-003   -7.913383222487215E-014
  4.400000000000001E-003   -3.208107603668984E-013
  4.500000000000001E-003   -5.701538597454749E-013
  4.600000000000002E-003   -8.094054023458564E-013
  4.700000000000001E-003   -1.019392826644047E-012
  4.800000000000001E-003   -1.180843203873257E-012
  4.900000000000002E-003   -1.275855875189814E-012
  5.000000000000001E-003   -1.289432902677901E-012
  5.100000000000001E-003   -1.210952969189716E-012
  5.200000000000001E-003   -1.035467639357914E-012
  5.300000000000002E-003   -7.647012167385020E-013
  5.400000000000001E-003   -4.076481957074865E-013
  5.500000000000001E-003    1.931649951423315E-014
  5.600000000000002E-003    4.928696285932600E-013
  5.700000000000001E-003    9.837320315755875E-013
  5.800000000000001E-003    1.458200907953644E-012
  5.900000000000002E-003    1.880157525152565E-012
  6.000000000000001E-003    2.213448913706204E-012
  6.100000000000001E-003    2.424504182912140E-012
  6.200000000000002E-003    2.485020560558041E-012
  6.300000000000002E-003    2.374533750271802E-012
  6.400000000000001E-003    2.082681388487219E-012
  6.500000000000001E-003    1.610973173987031E-012
  6.600000000000002E-003    9.738988656498031E-013
  6.700000000000001E-003    1.992345217494353E-013
  6.800000000000001E-003   -6.725487073487342E-013
  6.900000000000002E-003   -1.589820586904893E-012
  7.000000000000001E-003   -2.492260164110737E-012
  7.100000000000001E-003   -3.314180662126669E-012
  7.200000000000002E-003   -3.988571894009550E-012
  7.300000000000002E-003   -4.451657459094009E-012
  7.400000000000001E-003   -4.647710251447914E-012
  7.500000000000001E-003   -4.533823002498118E-012
  7.600000000000002E-003   -4.084301975900755E-012
  7.700000000000001E-003   -3.294337210189337E-012
  7.800000000000001E-003   -2.182617505716624E-012
  7.900000000000001E-003   -7.925856148473530E-013
  8.000000000000002E-003    8.079037450107117E-013
  8.100000000000001E-003    2.528685866612499E-012
  8.200000000000001E-003    4.261194153095842E-012
  8.300000000000002E-003    5.884108673228334E-012
  8.400000000000001E-003    7.270538355683143E-012
  8.500000000000002E-003    8.296397378876080E-012
  8.600000000000002E-003    8.849509663208372E-012
  8.700000000000001E-003    8.838866708690457E-012
  8.800000000000002E-003    8.203385265327325E-012
  8.900000000000002E-003    6.919476009090335E-012
  9.000000000000001E-003    5.006744206964930E-012
  9.100000000000002E-003    2.531202139842777E-012
  9.200000000000002E-003   -3.945009440358949E-013
  9.300000000000001E-003   -3.614166594395349E-012
  9.400000000000002E-003   -6.934567465169796E-012
  9.500000000000001E-003   -1.013528366603572E-011
  9.600000000000001E-003   -1.298146756791058E-011
  9.700000000000002E-003   -1.523890639942208E-011
  9.800000000000001E-003   -1.669051871525176E-011
  9.900000000000001E-003   -1.715323681810013E-011
  1.000000000000000E-002   -1.649409467140989E-011
  1.010000000000000E-002   -1.464430969840379E-011
  1.020000000000000E-002   -1.161017026473894E-011
  1.030000000000000E-002   -7.479678482057950E-012
  1.040000000000000E-002   -2.424113126757544E-012
  1.050000000000000E-002    3.306034389965242E-012
  1.060000000000000E-002    9.390941469144107E-012
  1.070000000000000E-002    1.545694703244860E-011
  1.080000000000000E-002    2.109705674639303E-011
  1.090000000000000E-002    2.589545679639587E-011
  1.100000000000000E-002    2.945468489053385E-011
  1.110000000000000E-002    3.142384042416754E-011
  1.120000000000000E-002    3.152601034318408E-011
  1.130000000000000E-002    2.958301593708231E-011
  1.140000000000000E-002    2.553562820991665E-011
  1.150000000000000E-002    1.945756289743016E-011
  1.160000000000000E-002    1.156184937499987E-011
  1.170000000000000E-002    2.198577149271504E-012
  1.180000000000000E-002   -8.156506911634548E-012
  1.190000000000000E-002   -1.892251761912550E-011
  1.200000000000000E-002   -2.944242229927740E-011
  1.210000000000000E-002   -3.901931521347464E-011
  1.220000000000000E-002   -4.695816706847651E-011
  1.230000000000000E-002   -5.261082420377232E-011
  1.240000000000000E-002   -5.542158254839652E-011
  1.250000000000000E-002   -5.497047654796646E-011
  1.260000000000000E-002   -5.101130075399799E-011
  1.270000000000000E-002   -4.350150901910843E-011
  1.280000000000000E-002   -3.262142112651230E-011
  1.290000000000000E-002   -1.878064866266332E-011
  1.300000000000000E-002   -2.610308225146520E-012
  1.310000000000000E-002    1.505961077665540E-011
  1.320000000000000E-002    3.323742822464499E-011
  1.330000000000000E-002    5.082027397053959E-011
  1.340000000000000E-002    6.665566445813390E-011
  1.350000000000000E-002    7.961106006610206E-011
  1.360000000000000E-002    8.864748503600995E-011
  1.370000000000000E-002    9.289278819343649E-011
  1.380000000000000E-002    9.170971819751599E-011
  1.390000000000000E-002    8.475405732046943E-011
  1.400000000000000E-002    7.201827970112923E-011
  1.410000000000000E-002    5.385684395027420E-011
  1.420000000000000E-002    3.099018892108287E-011
  1.430000000000000E-002    4.485640723710059E-012
  1.440000000000000E-002   -2.428510778048298E-011
  1.450000000000000E-002   -5.371084165328660E-011
  1.460000000000000E-002   -8.202525518001648E-011
  1.470000000000000E-002   -1.074069102739792E-010
  1.480000000000000E-002   -1.280892407510760E-010
  1.490000000000000E-002   -1.424743048171618E-010
  1.500000000000000E-002   -1.492431701444750E-010
  1.510000000000000E-002   -1.474558764175015E-010
  1.520000000000000E-002   -1.366339014936303E-010
  1.530000000000000E-002   -1.168190088440570E-010
  1.540000000000000E-002   -8.860339794375337E-011
  1.550000000000000E-002   -5.312765080246318E-011
  1.560000000000000E-002   -1.204479205542413E-011
  1.570000000000000E-002    3.254914775127122E-011
  1.580000000000000E-002    7.821568213392862E-011
  1.590000000000000E-002    1.223010086413414E-010
  1.600000000000000E-002    1.620833750444476E-010
  1.610000000000000E-002    1.949328521121745E-010
  1.620000000000000E-002    2.184744132561470E-010
  1.630000000000000E-002    2.307447230443972E-010
  1.640000000000000E-002    2.303327333459915E-010
  1.650000000000000E-002    2.164948719100951E-010
  1.660000000000000E-002    1.892365592005667E-010
  1.670000000000000E-002    1.493533417971737E-010
  1.680000000000000E-002    9.842705062378303E-011
  1.690000000000000E-002    3.877490573487581E-011
  1.700000000000000E-002   -2.664801565973158E-011
  1.710000000000000E-002   -9.438946970233442E-011
  1.720000000000000E-002   -1.606777722482032E-010
  1.730000000000000E-002   -2.216279801402101E-010
  1.740000000000000E-002   -2.734653935331979E-010
  1.750000000000000E-002   -3.127540833390814E-010
  1.760000000000000E-002   -3.366166564035756E-010
  1.770000000000000E-002   -3.429316119669497E-010
  1.780000000000000E-002   -3.304950220020485E-010
  1.790000000000000E-002   -2.991348590955527E-010
  1.800000000000000E-002   -2.497685083368582E-010
  1.810000000000000E-002   -1.843970716256233E-010
  1.820000000000000E-002   -1.060336056342809E-010
  1.830000000000000E-002   -1.856660479683924E-011
  1.840000000000000E-002    7.343611722403242E-011
  1.850000000000000E-002    1.649736347026659E-010
  1.860000000000000E-002    2.508951745436411E-010
  1.870000000000000E-002    3.262044232032926E-010