 -4.000000000000000E-002    0.000000000000000E+000
 -3.990000000000000E-002    0.000000000000000E+000
 -3.980000000000000E-002    0.000000000000000E+000
 -3.970000000000000E-002    0.000000000000000E+000
 -3.960000000000000E-002    0.000000000000000E+000
 -3.950000000000000E-002    0.000000000000000E+000
 -3.940000000000000E-002    0.000000000000000E+000
 -3.930000000000000E-002    3.688213900951713E-028
 -3.920000000000000E-002    7.626789060770899E-027
 -3.910000000000000E-002    7.675781451879168E-026
 -3.900000000000000E-002    5.144341438146139E-025
 -3.890000000000000E-002    2.613389540714701E-024
 -3.880000000000000E-002    1.079454536177647E-023
 -3.870000000000000E-002    3.785744613918104E-023
 -3.860000000000000E-002    1.160428303203001E-022
 -3.850000000000000E-002    3.172684549468919E-022
 -3.840000000000000E-002    7.851423516602549E-022
 -3.830000000000000E-002    1.777596752300043E-021
 -3.820000000000000E-002    3.710467033712062E-021
 -3.810000000000000E-002    7.177962903880693E-021
 -3.800000000000000E-002    1.290652444820143E-020
 -3.790000000000000E-002    2.157807800766104E-020
 -3.780000000000000E-002    3.344553461478456E-020
 -3.770000000000000E-002    4.767006062814919E-020
 -3.760000000000000E-002    6.135096005892247E-020
 -3.750000000000000E-002    6.830779199626314E-020
 -3.740000000000000E-002    5.781523779812720E-020
 -3.730000000000000E-002    1.367270581959649E-020
 -3.720000000000000E-002   -8.581949681879923E-020
 -3.710000000000000E-002   -2.662655895178444E-019
 -3.700000000000000E-002   -5.532343983488362E-019
 -3.690000000000000E-002   -9.654399262589601E-019
 -3.680000000000000E-002   -1.504970401465343E-018
 -3.670000000000000E-002   -2.145240734198457E-018
 -3.660000000000000E-002   -2.818310743310743E-018
 -3.650000000000000E-002   -3.404228575751322E-018
 -3.640000000000000E-002   -3.725874742852469E-018
 -3.630000000000000E-002   -3.553034675095971E-018
 -3.620000000000000E-002   -2.618812127038471E-018
 -3.610000000000000E-002   -6.497493924543802E-019
 -3.600000000000000E-002    2.591884115293957E-018
 -3.590000000000000E-002    7.258884051483499E-018
 -3.580000000000000E-002    1.337210167978725E-017
 -3.570000000000000E-002    2.078761094703907E-017
 -3.560000000000000E-002    2.919061823322151E-017
 -3.550000000000000E-002    3.812554409563195E-017
 -3.540000000000000E-002    4.706406836895083E-017
 -3.530000000000000E-002    5.550051071457306E-017
 -3.520000000000000E-002    6.304821732333534E-017
 -3.510000000000000E-002    6.949407991377559E-017
 -3.500000000000000E-002    7.475565731614654E-017
 -3.490000000000000E-002    7.868221085512248E-017
 -3.480000000000000E-002    8.065228622324858E-017
 -3.470000000000000E-002    7.895320786717031E-017
 -3.460000000000000E-002    6.998108938602552E-017
 -3.450000000000000E-002    4.737517294978601E-017
 -3.440000000000000E-002    1.285375367527816E-018
 -3.430000000000000E-002   -8.194351929808787E-017
 -3.420000000000000E-002   -2.193268235964596E-016
 -3.410000000000000E-002   -4.296772068006884E-016
 -3.400000000000000E-002   -7.306233508647356E-016
 -3.390000000000000E-002   -1.134056559047288E-015
 -3.380000000000000E-002   -1.640100630629171E-015
 -3.370000000000000E-002   -2.230032322735625E-015
 -3.360000000000000E-002   -2.858979523959807E-015
 -3.350000000000000E-002   -3.449621560538074E-015
 -3.340000000000000E-002   -3.888464116310814E-015
 -3.330000000000000E-002   -4.026429455943351E-015
 -3.320000000000000E-002   -3.685464018119431E-015
 -3.310000000000000E-002   -2.672487156281306E-015
 -3.300000000000000E-002   -8.012859866285122E-016
 -3.290000000000000E-002    2.078097219815566E-015
 -3.280000000000000E-002    6.044272460949373E-015
 -3.270000000000000E-002    1.106694130764373E-014
 -3.260000000000000E-002    1.697146970931373E-014
 -3.250000000000000E-002    2.341124287661119E-014
 -3.240000000000000E-002    2.985388136989614E-014
 -3.230000000000000E-002    3.558704980546729E-014
 -3.220000000000000E-002    3.974818194028168E-014
 -3.210000000000000E-002    4.138024514578080E-014
 -3.200000000000000E-002    3.951230585230730E-014
 -3.190000000000000E-002    3.326020183004729E-014
 -3.180000000000000E-002    2.193867334478764E-014
 -3.170000000000000E-002    5.173298083357494E-015
 -3.160000000000000E-002   -1.700144989929589E-014
 -3.150000000000000E-002   -4.407191748631386E-014
 -3.140000000000000E-002   -7.501467709052350E-014
 -3.130000000000000E-002   -1.083134339873496E-013
 -3.120000000000000E-002   -1.420248674654851E-013
 -3.110000000000000E-002   -1.738878876742692E-013
 -3.100000000000000E-002   -2.014630326546393E-013
 -3.090000000000000E-002   -2.222822488102528E-013
 -3.080000000000000E-002   -2.339863547413320E-013
 -3.070000000000000E-002   -2.344272904012245E-013
 -3.060000000000000E-002   -2.217175862120612E-013
 -3.050000000000000E-002   -1.942197949124524E-013
 -3.040000000000000E-002   -1.504829201893967E-013
 -3.030000000000000E-002   -8.914943500158697E-014
 -3.020000000000000E-002   -8.873453819111477E-015
 -3.010000000000000E-002    9.169700685833048E-014
 -3.000000000000000E-002    2.138146088173582E-013
 -2.990000000000000E-002    3.583497824498883E-013
 -2.980000000000000E-002    5.252941125858909E-013
 -2.970000000000000E-002    7.130433870217322E-013
 -2.960000000000000E-002    9.174977051444672E-013
 -2.950000000000000E-002    1.131065798696031E-012
 -2.940000000000000E-002    1.341711607301696E-012
 -2.930000000000000E-002    1.532227745841140E-012
 -2.920000000000000E-002    1.679947791816588E-012
 -2.910000000000000E-002    1.757112091142975E-012
 -2.900000000000000E-002    1.732074301658032E-012
 -2.890000000000000E-002    1.571467434200757E-012
 -2.880000000000000E-002    1.243346932216020E-012
 -2.870000000000000E-002    7.211974538717108E-013
 -2.860000000000000E-002   -1.146240535633684E-014
 -2.850000000000000E-002   -9.562879694887143E-013
 -2.840000000000000E-002   -2.095672705206706E-012
 -2.830000000000000E-002   -3.389293366524587E-012
 -2.820000000000000E-002   -4.772277351671274E-012
 -2.810000000000000E-002   -6.155584611786248E-012
 -2.800000000000000E-002   -7.429025042278442E-012
 -2.790000000000000E-002   -8.467119412627124E-012
 -2.780000000000000E-002   -9.137691742737268E-012
 -2.770000000000000E-002   -9.312748918400394E-012
 -2.760000000000000E-002   -8.880843156383763E-012
 -2.750000000000000E-002   -7.759819161094634E-012
 -2.740000000000000E-002   -5.908632783274639E-012
 -2.730000000000000E-002   -3.336845150151679E-012
 -2.720000000000000E-002   -1.104764684920316E-013
 -2.710000000000000E-002    3.646833834289781E-012
 -2.700000000000000E-002    7.757996476622727E-012
 -2.690000000000000E-002    1.200205035534796E-011
 -2.680000000000000E-002    1.612859950640674E-011
 -2.670000000000000E-002    1.987591565537671E-011
 -2.660000000000000E-002    2.299099202962727E-011
 -2.650000000000000E-002    2.524941686152174E-011
 -2.640000000000000E-002    2.647282650831196E-011
 -2.630000000000000E-002    2.654181198977334E-011
 -2.620000000000000E-002    2.540263496611087E-011
 -2.610000000000000E-002    2.306678078745141E-011
 -2.600000000000000E-002    1.960335000758341E-011
 -2.590000000000000E-002    1.512526527012966E-011
 -2.580000000000000E-002    9.771274388910774E-012
 -2.570000000000000E-002    3.686535233005836E-012
 -2.560000000000000E-002   -2.994994714551649E-012
 -2.550000000000000E-002   -1.016302886245608E-011
 -2.540000000000000E-002   -1.773547176784435E-011
 -2.530000000000000E-002   -2.565306190026908E-011
 -2.520000000000000E-002   -3.386362179639525E-011
 -2.510000000000000E-002   -4.229697536331877E-011
 -2.500000000000000E-002   -5.083340126689346E-011
 -2.490000000000000E-002   -5.926999228127180E-011
 -2.480000000000000E-002   -6.729044531205681E-011
 -2.470000000000000E-002   -7.444438855005103E-011
 -2.460000000000000E-002   -8.014200266892745E-011
 -2.450000000000000E-002   -8.366865943703940E-011
 -2.440000000000000E-002   -8.422224205862411E-011
 -2.430000000000000E-002   -8.097322228214347E-011
 -2.420000000000000E-002   -7.314453034269086E-011
 -2.410000000000000E-002   -6.010505716376445E-011
 -2.400000000000000E-002   -4.146804003230466E-011
 -2.390000000000000E-002   -1.718340419500217E-011
 -2.380000000000000E-002    1.238754880015334E-011
 -2.370000000000000E-002    4.642638059040294E-011
 -2.360000000000000E-002    8.364990082220552E-011
 -2.350000000000000E-002    1.223465767754398E-010
 -2.340000000000000E-002    1.604584876162920E-010
 -2.330000000000000E-002    1.957052018690730E-010
 -2.320000000000000E-002    2.257407492538944E-010
 -2.310000000000000E-002    2.483303981840159E-010
 -2.300000000000000E-002    2.615305282449823E-010
 -2.290000000000000E-002    2.638530098336338E-010
 -2.280000000000000E-002    2.543963802266600E-010
 -2.270000000000000E-002    2.329284065291456E-010
 -2.260000000000000E-002    1.999095611499474E-010
 -2.250000000000000E-002    1.564532072725145E-010
 -2.240000000000000E-002    1.042256881497854E-010
 -2.230000000000000E-002    4.529669152030955E-011
 -2.220000000000000E-002   -1.804292982586755E-011
 -2.210000000000000E-002   -8.347424659757495E-011
 -2.200000000000000E-002   -1.488301851798656E-010
 -2.190000000000000E-002   -2.122391455111985E-010
 -2.180000000000000E-002   -2.722130278237667E-010
 -2.170000000000000E-002   -3.276669594749568E-010
 -2.160000000000000E-002   -3.778670229958514E-010
 -2.150000000000000E-002   -4.223123753707687E-010
 -2.140000000000000E-002   -4.605680769123997E-010
 -2.130000000000000E-002   -4.920729256294566E-010
 -2.120000000000000E-002   -5.159536474598514E-010
 -2.110000000000000E-002   -5.308775021571240E-010
 -2.100000000000000E-002   -5.349746674516038E-010
 -2.090000000000000E-002   -5.258543675848342E-010
 -2.080000000000000E-002   -5.007290270570591E-010
 -2.070000000000000E-002   -4.566471949018093E-010
 -2.060000000000000E-002   -3.908219308734777E-010
 -2.050000000000000E-002   -3.010265552452055E-010
 -2.040000000000000E-002   -1.860179773475775E-010
 -2.030000000000000E-002   -4.593942214658201E-011
 -2.020000000000000E-002    1.173480203071564E-010
 -2.010000000000000E-002    3.000543971966087E-010
 -2.000000000000000E-002    4.964078317485531E-010
 -1.990000000000000E-002    6.987856991041385E-010
 -1.980000000000000E-002    8.980351536297733E-010
 -1.970000000000000E-002    1.083969430502840E-009
 -1.960000000000000E-002    1.246005018604186E-009
 -1.950000000000000E-002    1.373887595626105E-009
 -1.940000000000000E-002    1.458442303004620E-009
 -1.930000000000000E-002    1.492276961941493E-009
 -1.920000000000000E-002    1.470369703844361E-009
 -1.910000000000000E-002    1.390481393570357E-009
 -1.900000000000000E-002    1.253349879560639E-009
 -1.890000000000000E-002    1.062645678766540E-009
 -1.880000000000000E-002    8.246934377606095E-010
 -1.870000000000000E-002    5.479882917118437E-010
 -1.860000000000000E-002    2.425602551712973E-010
 -1.850000000000000E-002   -8.074622642166267E-011
 -1.840000000000000E-002   -4.109985854380803E-010
 -1.830000000000000E-002   -7.378318331291014E-010
 -1.820000000000000E-002   -1.051965092999658E-009
 -1.810000000000000E-002   -1.345529584632865E-009
 -1.800000000000000E-002   -1.612181946239240E-009
 -1.790000000000000E-002   -1.847004875426031E-009
 -1.780000000000000E-002   -2.046226024623611E-009
 -1.770000000000000E-002   -2.206809825199618E-009
 -1.760000000000000E-002   -2.325995577693228E-009
 -1.750000000000000E-002   -2.400864728024240E-009
 -1.740000000000000E-002   -2.428017662845419E-009
 -1.730000000000000E-002   -2.403429774011472E-009
 -1.720000000000000E-002   -2.322533022042847E-009
 -1.710000000000000E-002   -2.180541634177726E-009
 -1.700000000000000E-002   -1.973005754613689E-009
 -1.690000000000000E-002   -1.696544350718983E-009
 -1.680000000000000E-002   -1.349680547709845E-009
 -1.670000000000000E-002   -9.336794286581900E-010
 -1.660000000000000E-002   -4.532796323459596E-010
 -1.650000000000000E-002    8.278774816967231E-011
 -1.640000000000000E-002    6.615844955463596E-010
 -1.630000000000000E-002    1.266118152705862E-009
 -1.620000000000000E-002    1.875889864859899E-009
 -1.610000000000000E-002    2.467822107159908E-009
 -1.600000000000000E-002    3.017509204932019E-009
 -1.590000000000000E-002    3.500695537143266E-009
 -1.580000000000000E-002    3.894855864508941E-009
 -1.570000000000000E-002    4.180735955032050E-009
 -1.560000000000000E-002    4.343708360463604E-009
 -1.550000000000000E-002    4.374814368379865E-009
 -1.540000000000000E-002    4.271385618412049E-009
 -1.530000000000000E-002    4.037186359296685E-009
 -1.520000000000000E-002    3.682055753316719E-009
 -1.510000000000000E-002    3.221088697643158E-009
 -1.500000000000000E-002    2.673433892389064E-009
 -1.490000000000000E-002    2.060831203523889E-009
 -1.480000000000000E-002    1.406034494679520E-009
 -1.470000000000000E-002    7.312783010040307E-010
 -1.460000000000000E-002    5.693801073953641E-011
 -1.450000000000000E-002   -5.994873823911848E-010
 -1.440000000000000E-002   -1.223981969067264E-009
 -1.430000000000000E-002   -1.806166159541471E-009
 -1.420000000000000E-002   -2.339007899794788E-009
 -1.410000000000000E-002   -2.818156568515867E-009
 -1.400000000000000E-002   -3.241004751475694E-009
 -1.390000000000000E-002   -3.605623016910546E-009
 -1.380000000000000E-002   -3.909722851474490E-009
 -1.370000000000000E-002   -4.149804089921955E-009
 -1.360000000000000E-002   -4.320622543793172E-009
 -1.350000000000000E-002   -4.415076734380722E-009
 -1.340000000000000E-002   -4.424560073264148E-009
 -1.330000000000000E-002   -4.339770488347705E-009
 -1.320000000000000E-002   -4.151907589479106E-009
 -1.310000000000000E-002   -3.854136234263717E-009
 -1.300000000000000E-002   -3.443152805261302E-009
 -1.290000000000000E-002   -2.920664925729178E-009
 -1.280000000000000E-002   -2.294592439675363E-009
 -1.270000000000000E-002   -1.579811958355472E-009
 -1.260000000000000E-002   -7.983075753990635E-010
 -1.250000000000000E-002    2.135876452085786E-011
 -1.240000000000000E-002    8.452745947114687E-010
 -1.230000000000000E-002    1.636050059425143E-009
 -1.220000000000000E-002    2.355213090908165E-009
 -1.210000000000000E-002    2.965944314067315E-009
 -1.200000000000000E-002    3.435927738798027E-009
 -1.190000000000000E-002    3.740064194861977E-009
 -1.180000000000000E-002    3.862807138601120E-009
 -1.170000000000000E-002    3.799891498033403E-009
 -1.160000000000000E-002    3.559294108437842E-009
 -1.150000000000000E-002    3.161317517986578E-009
 -1.140000000000000E-002    2.637775116819873E-009
 -1.130000000000000E-002    2.030344688749874E-009
 -1.120000000000000E-002    1.388225558230940E-009
 -1.110000000000000E-002    7.653298639271159E-010
 -1.100000000000000E-002    2.172614403354422E-010
 -1.090000000000000E-002   -2.016290920785319E-010
 -1.080000000000000E-002   -4.407900493286797E-010
 -1.070000000000000E-002   -4.553817615492710E-010
 -1.060000000000000E-002   -2.073135866385763E-010
 -1.050000000000000E-002    3.347399918832427E-010
 -1.040000000000000E-002    1.196373350349151E-009
 -1.030000000000000E-002    2.399576362882612E-009
 -1.020000000000000E-002    3.965748462216318E-009
 -1.010000000000000E-002    5.919463032994048E-009
 -1.000000000000000E-002    8.292725165952692E-009
 -9.899999999999999E-003    1.112942254372521E-008
 -9.800000000000000E-003    1.448961362092003E-008
 -9.699999999999999E-003    1.845349022207654E-008
 -9.599999999999999E-003    2.312460583661138E-008
 -9.500000000000000E-003    2.863233693377505E-008
 -9.399999999999999E-003    3.513332556915650E-008
 -9.299999999999999E-003    4.281197605720637E-008
 -9.200000000000000E-003    5.187989455812920E-008
 -9.099999999999999E-003    6.257469209307175E-008
 -8.999999999999999E-003    7.515785266753381E-008
 -8.900000000000000E-003    8.991236949909233E-008
 -8.799999999999999E-003    1.071400977444298E-007
 -8.699999999999999E-003    1.271590635596948E-007
 -8.600000000000000E-003    1.503011189728315E-007
 -8.499999999999999E-003    1.769099002173035E-007
 -8.399999999999999E-003    2.073392959041673E-007
 -8.300000000000000E-003    2.419525462294005E-007
 -8.199999999999999E-003    2.811219104607572E-007
 -8.100000000000000E-003    3.252288307527808E-007
 -8.000000000000000E-003    3.746644123910902E-007
 -7.899999999999999E-003    4.298302150884486E-007
 -7.800000000000000E-003    4.911392346257294E-007
 -7.699999999999999E-003    5.590163234313209E-007
 -7.599999999999999E-003    6.338987997085367E-007
 -7.499999999999999E-003    7.162363680680483E-007
 -7.399999999999999E-003    8.064907074425436E-007
 -7.299999999999999E-003    9.051340402581090E-007
 -7.199999999999999E-003    1.012647699821127E-006
 -7.100000000000000E-003    1.129519875311890E-006
 -6.999999999999999E-003    1.256243098420018E-006
 -6.899999999999999E-003    1.393311584679052E-006
 -6.800000000000000E-003    1.541218957858926E-006
 -6.699999999999999E-003    1.700455718231541E-006
 -6.599999999999999E-003    1.871508386232082E-006
 -6.499999999999999E-003    2.054859168881896E-006
 -6.399999999999999E-003    2.250986645365683E-006
 -6.299999999999999E-003    2.460368083631221E-006
 -6.199999999999999E-003    2.683484885320256E-006
 -6.100000000000000E-003    2.920827624898248E-006
 -5.999999999999999E-003    3.172903727719888E-006
 -5.899999999999999E-003    3.440246674715994E-006
 -5.800000000000000E-003    3.723427544108790E-006
 -5.699999999999999E-003    4.023065181830207E-006
 -5.599999999999999E-003    4.339838565198750E-006
 -5.499999999999999E-003    4.674498918352127E-006
 -5.399999999999999E-003    5.027880259836726E-006
 -5.299999999999999E-003    5.400909054529214E-006
 -5.199999999999999E-003    5.794613031461260E-006
 -5.099999999999999E-003    6.210126321156783E-006
 -4.999999999999999E-003    6.648695348569218E-006
 -4.899999999999999E-003    7.111679233550527E-006
 -4.799999999999999E-003    7.600548642249539E-006
 -4.699999999999999E-003    8.116884675223911E-006
 -4.599999999999999E-003    8.662374112996649E-006
 -4.499999999999999E-003    9.238805832547744E-006
 -4.399999999999999E-003    9.848066384077532E-006
 -4.299999999999999E-003    1.049213490239559E-005
 -4.199999999999999E-003    1.117308349524484E-005
 -4.099999999999999E-003    1.189307446717356E-005
 -3.999999999999999E-003    1.265436441234940E-005
 -3.899999999999999E-003    1.345930716016887E-005
 -3.799999999999999E-003    1.431036352823822E-005
 -3.699999999999999E-003    1.521011204504785E-005
 -3.599999999999999E-003    1.616125755150050E-005
 -3.499999999999999E-003    1.716665052186972E-005
 -3.399999999999999E-003    1.822929869123272E-005
 -3.299999999999999E-003    1.935237828532018E-005
 -3.199999999999999E-003    2.053925849421098E-005
 -3.099999999999999E-003    2.179349692486068E-005
 -2.999999999999999E-003    2.311886801680956E-005
 -2.899999999999999E-003    2.451935123353521E-005
 -2.799999999999999E-003    2.599914744511631E-005
 -2.699999999999999E-003    2.756267577149437E-005
 -2.599999999999999E-003    2.921456975809645E-005
 -2.499999999999999E-003    3.095967885461941E-005
 -2.399999999999999E-003    3.280306499616071E-005
 -2.299999999999999E-003    3.474999164346211E-005
 -2.199999999999999E-003    3.680592517244197E-005
 -2.099999999999999E-003    3.897653459839266E-005
 -1.999999999999999E-003    4.126769446914032E-005
 -1.899999999999999E-003    4.368547652805249E-005
 -1.799999999999999E-003    4.623618235478283E-005
 -1.699999999999999E-003    4.892632932857329E-005
 -1.599999999999999E-003    5.176268639423368E-005
 -1.499999999999999E-003    5.475227927682950E-005
 -1.399999999999999E-003    5.790241913367031E-005
 -1.299999999999999E-003    6.122072688139347E-005
 -1.199999999999999E-003    6.471514793358490E-005
 -1.099999999999999E-003    6.839398730745134E-005
 -9.999999999999989E-004    7.226592008883661E-005
 -8.999999999999990E-004    7.634003800559533E-005
 -7.999999999999990E-004    8.062583451732756E-005
 -6.999999999999989E-004    8.513325042973640E-005
 -5.999999999999990E-004    8.987267300486046E-005
 -4.999999999999989E-004    9.485494657316930E-005
 -3.999999999999989E-004    1.000913970990855E-004
 -2.999999999999989E-004    1.055938263942386E-004
 -1.999999999999989E-004    1.113745051685252E-004
 -9.999999999999892E-005    1.174462076406935E-004
  1.084202172485504E-018    1.238221910053618E-004
  1.000000000000011E-004    1.305162086676169E-004
  2.000000000000011E-004    1.375425179471368E-004
  3.000000000000011E-004    1.449158840114200E-004
  4.000000000000011E-004    1.526516135049394E-004
  5.000000000000011E-004    1.607655385086018E-004
  6.000000000000011E-004    1.692740980166611E-004
  7.000000000000011E-004    1.781942865919651E-004
  8.000000000000011E-004    1.875437792320793E-004
  9.000000000000012E-004    1.973409014094993E-004
  1.000000000000001E-003    2.076047458823625E-004
  1.100000000000001E-003    2.183551582621536E-004
  1.200000000000001E-003    2.296128141484327E-004
  1.300000000000001E-003    2.413992914770399E-004
  1.400000000000001E-003    2.537370962100811E-004
  1.500000000000001E-003    2.666497488241330E-004
  1.600000000000001E-003    2.801617637331855E-004
  1.700000000000001E-003    2.942987734986224E-004
  1.800000000000001E-003    3.090875102644671E-004
  1.900000000000001E-003    3.245558410792971E-004
  2.000000000000001E-003    3.407328211723133E-004
  2.100000000000001E-003    3.576485828954038E-004
  2.200000000000001E-003    3.753344746432844E-004
  2.300000000000001E-003    3.938229511131815E-004
  2.400000000000001E-003    4.131476436375894E-004
  2.500000000000001E-003    4.333432489042645E-004
  2.600000000000001E-003    4.544456311261573E-004
  2.700000000000001E-003    4.764917247626861E-004
  2.800000000000001E-003    4.995196201039487E-004
  2.900000000000001E-003    5.235684210334427E-004
  3.000000000000001E-003    5.486784486987912E-004
  3.100000000000001E-003    5.748911745189053E-004
  3.200000000000001E-003    6.022492164693527E-004
  3.300000000000001E-003    6.307965209045106E-004
  3.400000000000001E-003    6.605783072278721E-004
  3.500000000000001E-003    6.916410998646087E-004
  3.600000000000001E-003    7.240328613807231E-004
  3.700000000000001E-003    7.578032076750582E-004
  3.800000000000001E-003    7.930031379940717E-004
  3.900000000000001E-003    8.296852692298499E-004
  4.000000000000001E-003    8.679038018488403E-004
  4.100000000000001E-003    9.077147079265026E-004
  4.200000000000001E-003    9.491754779259858E-004
  4.300000000000001E-003    9.923452819200760E-004
  4.400000000000001E-003    1.037284971095466E-003
  4.500000000000001E-003    1.084056917197917E-003
  4.600000000000002E-003    1.132725139059262E-003
  4.700000000000001E-003    1.183355208431143E-003
  4.800000000000001E-003    1.236014325805511E-003
  4.900000000000002E-003    1.290771120957408E-003
  5.000000000000001E-003    1.347695676487004E-003
  5.100000000000001E-003    1.406859854657499E-003
  5.200000000000001E-003    1.468336880066571E-003
  5.300000000000002E-003    1.532201669254222E-003
  5.400000000000001E-003    1.598530716279327E-003
  5.500000000000001E-003    1.667402402201123E-003
  5.600000000000002E-003    1.738896774219627E-003
  5.700000000000001E-003    1.813095916941228E-003
  5.800000000000001E-003    1.890083535164557E-003
  5.900000000000002E-003    1.969945698141562E-003
  6.000000000000001E-003    2.052770420319621E-003
  6.100000000000001E-003    2.138647777036985E-003
  6.200000000000002E-003    2.227670107945496E-003
  6.300000000000002E-003    2.319931897841806E-003
  6.400000000000001E-003    2.415529995567699E-003
  6.500000000000001E-003    2.514563244711845E-003
  6.600000000000002E-003    2.617132627980105E-003
  6.700000000000001E-003    2.723341442994739E-003
  6.800000000000001E-003    2.833294893270692E-003
  6.900000000000002E-003    2.947100247573664E-003
  7.000000000000001E-003    3.064867039142907E-003
  7.100000000000001E-003    3.186706321994276E-003
  7.200000000000002E-003    3.312731421697307E-003
  7.300000000000002E-003    3.443057581137119E-003
  7.400000000000001E-003    3.577801972166314E-003
  7.500000000000001E-003    3.717083717039873E-003
  7.600000000000002E-003    3.861023857618696E-003
  7.700000000000001E-003    4.009745651115078E-003
  7.800000000000001E-003    4.163373842988505E-003
  7.900000000000001E-003    4.322035942603698E-003
  8.000000000000002E-003    4.485861062165090E-003
  8.100000000000001E-003    4.654980427128558E-003
  8.200000000000001E-003    4.829528007909481E-003
  8.300000000000002E-003    5.009639050690874E-003
  8.400000000000001E-003    5.195451417504635E-003
  8.500000000000002E-003    5.387104633626699E-003
  8.600000000000002E-003    5.584740027244060E-003
  8.700000000000001E-003    5.788501231361238E-003
  8.800000000000002E-003    5.998533909085403E-003
  8.900000000000002E-003    6.214984722765538E-003
  9.000000000000001E-003    6.438001641594358E-003
  9.100000000000002E-003    6.667734865728596E-003
  9.200000000000002E-003    6.904335064201186E-003
  9.300000000000001E-003    7.147954545342011E-003
  9.400000000000002E-003    7.398746238846153E-003
  9.500000000000001E-003    7.656863857327075E-003
  9.600000000000001E-003    7.922461363415732E-003
  9.700000000000002E-003    8.195694034730940E-003
  9.800000000000001E-003    8.476716129494183E-003
  9.900000000000001E-003    8.765683685359286E-003
  1.000000000000000E-002    9.062751474286040E-003
  1.010000000000000E-002    9.368074908715832E-003
  1.020000000000000E-002    9.681809149618815E-003
  1.030000000000000E-002    1.000410880844358E-002
  1.040000000000000E-002    1.033512786626061E-002
  1.050000000000000E-002    1.067501969124468E-002
  1.060000000000000E-002    1.102393684509172E-002
  1.070000000000000E-002    1.138203164552775E-002
  1.080000000000000E-002    1.174945523248312E-002
  1.090000000000000E-002    1.212635672022555E-002
  1.100000000000000E-002    1.251288408952582E-002
  1.110000000000000E-002    1.290918355197227E-002
  1.120000000000000E-002    1.331540027784144E-002
  1.130000000000000E-002    1.373167601758796E-002
  1.140000000000000E-002    1.415815143789394E-002
  1.150000000000000E-002    1.459496449312187E-002
  1.160000000000000E-002    1.504225003983443E-002
  1.170000000000000E-002    1.550014081440777E-002
  1.180000000000000E-002    1.596876579490467E-002
  1.190000000000000E-002    1.644825152123751E-002
  1.200000000000000E-002    1.693872168282463E-002
  1.210000000000000E-002    1.744029518778524E-002
  1.220000000000000E-002    1.795308766097791E-002
  1.230000000000000E-002    1.847721308231300E-002
  1.240000000000000E-002    1.901277833710638E-002
  1.250000000000000E-002    1.955988758902151E-002
  1.260000000000000E-002    2.011863901495158E-002
  1.270000000000000E-002    2.068912986092309E-002
  1.280000000000000E-002    2.127144853055266E-002
  1.290000000000000E-002    2.186568062114881E-002
  1.300000000000000E-002    2.247190805329262E-002
  1.310000000000000E-002    2.309020321087786E-002
  1.320000000000000E-002    2.372063544683037E-002
  1.330000000000000E-002    2.436326756206296E-002
  1.340000000000000E-002    2.501815597458643E-002
  1.350000000000000E-002    2.568535117822178E-002
  1.360000000000000E-002    2.636489767558411E-002
  1.370000000000000E-002    2.705683248153538E-002
  1.380000000000000E-002    2.776118812853398E-002
  1.390000000000000E-002    2.847798527293141E-002
  1.400000000000000E-002    2.920724471863007E-002
  1.410000000000000E-002    2.994897449852512E-002
  1.420000000000000E-002    3.070317603422347E-002
  1.430000000000000E-002    3.146984341153252E-002
  1.440000000000000E-002    3.224896681388288E-002
  1.450000000000000E-002    3.304052372838458E-002
  1.460000000000000E-002    3.384448613144891E-002
  1.470000000000000E-002    3.466081773049269E-002
  1.480000000000000E-002    3.548947354002445E-002
  1.490000000000000E-002    3.633039903653582E-002
  1.500000000000000E-002    3.718353096486512E-002
  1.510000000000000E-002    3.804880096830934E-002
  1.520000000000000E-002    3.892612174362330E-002
  1.530000000000000E-002    3.981540916378249E-002
  1.540000000000000E-002    4.071656079548190E-002
  1.550000000000000E-002    4.162946418158613E-002
  1.560000000000000E-002    4.255399989658284E-002
  1.570000000000000E-002    4.349004223094497E-002
  1.580000000000000E-002    4.443744588655640E-002
  1.590000000000000E-002    4.539606277774348E-002
  1.600000000000000E-002    4.636573262812112E-002
  1.610000000000000E-002    4.734628505602727E-002
  1.620000000000000E-002    4.833753721860913E-002
  1.630000000000000E-002    4.933929880913905E-002
  1.640000000000000E-002    5.035136672509206E-002
  1.650000000000000E-002    5.137352786685444E-002
  1.660000000000000E-002    5.240556019792500E-002
  1.670000000000000E-002    5.344723086058659E-002
  1.680000000000000E-002    5.449829330659024E-002
  1.690000000000000E-002    5.555849571887800E-002
  1.700000000000000E-002    5.662757301742643E-002
  1.710000000000000E-002    5.770524755593939E-002
  1.720000000000000E-002    5.879123782568910E-002
  1.730000000000000E-002    5.988524248583462E-002
  1.740000000000000E-002    6.098695741799801E-002
  1.750000000000000E-002    6.209606512100948E-002
  1.760000000000000E-002    6.321224354653271E-002
  1.770000000000000E-002    6.433515213757576E-002
  1.780000000000000E-002    6.546444116340941E-002
  1.790000000000000E-002    6.659976029032050E-002
  1.800000000000000E-002    6.774074553311184E-002
  1.810000000000000E-002    6.888702417673331E-002
  1.820000000000000E-002    7.003821244840691E-002
  1.830000000000000E-002    7.119392059160685E-002
  1.840000000000000E-002    7.235375862639046E-002
  1.850000000000000E-002    7.351732125476829E-002
  1.860000000000000E-002    7.468419568520052E-002
  1.870000000000000E-002    7.585396743874652E-002