 -4.000000000000000E-002    0.000000000000000E+000
 -3.990000000000000E-002    0.000000000000000E+000
 -3.980000000000000E-002    0.000000000000000E+000
 -3.970000000000000E-002    0.000000000000000E+000
 -3.960000000000000E-002    0.000000000000000E+000
 -3.950000000000000E-002    0.000000000000000E+000
 -3.940000000000000E-002    0.000000000000000E+000
 -3.930000000000000E-002    0.000000000000000E+000
 -3.920000000000000E-002    0.000000000000000E+000
 -3.910000000000000E-002    0.000000000000000E+000
 -3.900000000000000E-002    0.000000000000000E+000
 -3.890000000000000E-002   -1.045208258228447E-037
 -3.880000000000000E-002   -2.157650980643914E-036
 -3.870000000000000E-002   -2.296756086718628E-035
 -3.860000000000000E-002   -1.676542914140327E-034
 -3.850000000000000E-002   -9.416116538075297E-034
 -3.840000000000000E-002   -4.327948581312593E-033
 -3.830000000000000E-002   -1.690502276000345E-032
 -3.820000000000000E-002   -5.751009683864137E-032
 -3.810000000000000E-002   -1.731925403432113E-031
 -3.800000000000000E-002   -4.664185366735984E-031
 -3.790000000000000E-002   -1.128539355756130E-030
 -3.780000000000000E-002   -2.449292319949754E-030
 -3.770000000000000E-002   -4.713677458554592E-030
 -3.760000000000000E-002   -7.786738900010611E-030
 -3.750000000000000E-002   -1.001165599433282E-029
 -3.740000000000000E-002   -5.824037596323464E-030
 -3.730000000000000E-002    1.869696449928698E-029
 -3.720000000000000E-002    9.305205738176377E-029
 -3.710000000000000E-002    2.723086646658157E-028
 -3.700000000000000E-002    6.478180568064779E-028
 -3.690000000000000E-002    1.352429261027641E-027
 -3.680000000000000E-002    2.546570074819211E-027
 -3.670000000000000E-002    4.360217441537770E-027
 -3.660000000000000E-002    6.750376242192647E-027
 -3.650000000000000E-002    9.216059110150916E-027
 -3.640000000000000E-002    1.029741059188098E-026
 -3.630000000000000E-002    6.781548726589975E-027
 -3.620000000000000E-002   -7.440630142520284E-027
 -3.610000000000000E-002   -4.285428219023627E-026
 -3.600000000000000E-002   -1.159844999044856E-025
 -3.590000000000000E-002   -2.508519044207557E-025
 -3.580000000000000E-002   -4.794668802841182E-025
 -3.570000000000000E-002   -8.401193834076069E-025
 -3.560000000000000E-002   -1.371635645287849E-024
 -3.550000000000000E-002   -2.101167046780029E-024
 -3.540000000000000E-002   -3.022611119341561E-024
 -3.530000000000000E-002   -4.062695422064854E-024
 -3.520000000000000E-002   -5.032438270648403E-024
 -3.510000000000000E-002   -5.563602344428841E-024
 -3.500000000000000E-002   -5.033375558277678E-024
 -3.490000000000000E-002   -2.486357304868245E-024
 -3.480000000000000E-002    3.428719322482736E-024
 -3.470000000000000E-002    1.447927987882313E-023
 -3.460000000000000E-002    3.278539360011993E-023
 -3.450000000000000E-002    6.061893872854054E-023
 -3.440000000000000E-002    1.000019295285945E-022
 -3.430000000000000E-002    1.520373000889942E-022
 -3.420000000000000E-002    2.159149092266280E-022
 -3.410000000000000E-002    2.875639419090079E-022
 -3.400000000000000E-002    3.579777255410744E-022
 -3.390000000000000E-002    4.113234535165168E-022
 -3.380000000000000E-002    4.230717018800112E-022
 -3.370000000000000E-002    3.585355883361257E-022
 -3.360000000000000E-002    1.723881624643926E-022
 -3.350000000000000E-002   -1.900941504784817E-022
 -3.340000000000000E-002   -7.891660600039909E-022
 -3.330000000000000E-002   -1.683162148914666E-021
 -3.320000000000000E-002   -2.916570560826216E-021
 -3.310000000000000E-002   -4.503024841791579E-021
 -3.300000000000000E-002   -6.403164380913254E-021
 -3.290000000000000E-002   -8.498205677912671E-021
 -3.280000000000000E-002   -1.056130336338989E-020
 -3.270000000000000E-002   -1.223033913435438E-020
 -3.260000000000000E-002   -1.298754776977481E-020
 -3.250000000000000E-002   -1.215320781815859E-020
 -3.240000000000000E-002   -8.902096052857625E-021
 -3.230000000000000E-002   -2.312314303795986E-021
 -3.220000000000000E-002    8.544275257178509E-021
 -3.210000000000000E-002    2.446273439680081E-020
 -3.200000000000000E-002    4.591365414956141E-020
 -3.190000000000000E-002    7.280323157148451E-020
 -3.180000000000000E-002    1.041973764735250E-019
 -3.170000000000000E-002    1.380341354437607E-019
 -3.160000000000000E-002    1.708616438693330E-019
 -3.150000000000000E-002    1.976521316663283E-019
 -3.140000000000000E-002    2.117538014403379E-019
 -3.130000000000000E-002    2.050498846375398E-019
 -3.120000000000000E-002    1.683936845325010E-019
 -3.110000000000000E-002    9.237876975260572E-020
 -3.100000000000000E-002   -3.152012254233423E-020
 -3.090000000000000E-002   -2.094368903375200E-019
 -3.080000000000000E-002   -4.432882911186476E-019
 -3.070000000000000E-002   -7.287523438353620E-019
 -3.060000000000000E-002   -1.053242763845610E-018
 -3.050000000000000E-002   -1.394147325168464E-018
 -3.040000000000000E-002   -1.717662372076215E-018
 -3.030000000000000E-002   -1.978601584952541E-018
 -3.020000000000000E-002   -2.121562018027413E-018
 -3.010000000000000E-002   -2.083793528273970E-018
 -3.000000000000000E-002   -1.800013479816194E-018
 -2.990000000000000E-002   -1.209242121660322E-018
 -2.980000000000000E-002   -2.634986687590625E-019
 -2.970000000000000E-002    1.062093611478095E-018
 -2.960000000000000E-002    2.758568240048659E-018
 -2.950000000000000E-002    4.772849165353035E-018
 -2.940000000000000E-002    6.999352986711940E-018
 -2.930000000000000E-002    9.275045802772224E-018
 -2.920000000000000E-002    1.137959998945756E-017
 -2.910000000000000E-002    1.304216208021677E-017
 -2.900000000000000E-002    1.395584620407803E-017
 -2.890000000000000E-002    1.380048237631752E-017
 -2.880000000000000E-002    1.227325929756835E-017
 -2.870000000000000E-002    9.125881609280754E-018
 -2.860000000000000E-002    4.205692369900646E-018
 -2.850000000000000E-002   -2.502920089599373E-018
 -2.840000000000000E-002   -1.084146469168984E-017
 -2.830000000000000E-002   -2.044995778355149E-017
 -2.820000000000000E-002   -3.075462957965193E-017
 -2.810000000000000E-002   -4.097564822952330E-017
 -2.800000000000000E-002   -5.015867768763594E-017
 -2.790000000000000E-002   -5.723201810735572E-017
 -2.780000000000000E-002   -6.108855735403068E-017
 -2.770000000000000E-002   -6.068870161688229E-017
 -2.760000000000000E-002   -5.517715085716069E-017
 -2.750000000000000E-002   -4.400339120555304E-017
 -2.740000000000000E-002   -2.703323950382017E-017
 -2.730000000000000E-002   -4.637426209444965E-018
 -2.720000000000000E-002    2.225676181236037E-017
 -2.710000000000000E-002    5.216303151367287E-017
 -2.700000000000000E-002    8.309155976099559E-017
 -2.690000000000000E-002    1.126658683919212E-016
 -2.680000000000000E-002    1.382978712381549E-016
 -2.670000000000000E-002    1.574107382897286E-016
 -2.660000000000000E-002    1.676917735647237E-016
 -2.650000000000000E-002    1.673513345752777E-016
 -2.640000000000000E-002    1.553594778047888E-016
 -2.630000000000000E-002    1.316305928158808E-016
 -2.620000000000000E-002    9.712805501870458E-017
 -2.610000000000000E-002    5.386697906744767E-017
 -2.600000000000000E-002    4.801841987538769E-018
 -2.590000000000000E-002   -4.640169077023075E-017
 -2.580000000000000E-002   -9.569822749934636E-017
 -2.570000000000000E-002   -1.390707584631346E-016
 -2.560000000000000E-002   -1.729763352926786E-016
 -2.550000000000000E-002   -1.947820673604064E-016
 -2.540000000000000E-002   -2.031395806120814E-016
 -2.530000000000000E-002   -1.982485553905504E-016
 -2.520000000000000E-002   -1.819679517844746E-016
 -2.510000000000000E-002   -1.577472870181079E-016
 -2.500000000000000E-002   -1.303689205214693E-016
 -2.490000000000000E-002   -1.055128334759277E-016
 -2.480000000000000E-002   -8.917500392752822E-017
 -2.470000000000000E-002   -8.698899854089427E-017
 -2.460000000000000E-002   -1.035110345894301E-016
 -2.450000000000000E-002   -1.415346655735691E-016
 -2.440000000000000E-002   -2.014979138996194E-016
 -2.430000000000000E-002   -2.810365552984923E-016
 -2.420000000000000E-002   -3.747218152072459E-016
 -2.410000000000000E-002   -4.740045255860775E-016
 -2.400000000000000E-002   -5.673716028712103E-016
 -2.390000000000000E-002   -6.407099767942461E-016
 -2.380000000000000E-002   -6.778698276256814E-016
 -2.370000000000000E-002   -6.614211220587956E-016
 -2.360000000000000E-002   -5.736127622891592E-016
 -2.350000000000000E-002   -3.975512425401914E-016
 -2.340000000000000E-002   -1.186306114947136E-016
 -2.330000000000000E-002    2.737544451379927E-016
 -2.320000000000000E-002    7.841999099819999E-016
 -2.310000000000000E-002    1.409017102468795E-015
 -2.300000000000000E-002    2.133786753319739E-015
 -2.290000000000000E-002    2.930932566436788E-015
 -2.280000000000000E-002    3.757613113767621E-015
 -2.270000000000000E-002    4.554344449033498E-015
 -2.260000000000000E-002    5.244850666787824E-015
 -2.250000000000000E-002    5.737685529264548E-015
 -2.240000000000000E-002    5.930150340028680E-015
 -2.230000000000000E-002    5.714897178146685E-015
 -2.220000000000000E-002    4.989388902573641E-015
 -2.210000000000000E-002    3.668045747381435E-015
 -2.200000000000000E-002    1.696475270108341E-015
 -2.190000000000000E-002   -9.333116519619989E-016
 -2.180000000000000E-002   -4.168272136452743E-015
 -2.170000000000000E-002   -7.882295414134387E-015
 -2.160000000000000E-002   -1.186902099599333E-014
 -2.150000000000000E-002   -1.584180589538666E-014
 -2.140000000000000E-002   -1.944286066324640E-014
 -2.130000000000000E-002   -2.226294411590563E-014
 -2.120000000000000E-002   -2.387204101555064E-014
 -2.110000000000000E-002   -2.386014616850405E-014
 -2.100000000000000E-002   -2.188578034931604E-014
 -2.090000000000000E-002   -1.772830415115835E-014
 -2.080000000000000E-002   -1.133866173283993E-014
 -2.070000000000000E-002   -2.882114424809025E-015
 -2.060000000000000E-002    7.233991666179771E-015
 -2.050000000000000E-002    1.835405856873941E-014
 -2.040000000000000E-002    2.959522137716938E-014
 -2.030000000000000E-002    3.989868986754179E-014
 -2.020000000000000E-002    4.811190479552256E-014
 -2.010000000000000E-002    5.309796877323969E-014
 -2.000000000000000E-002    5.386496241351683E-014
 -1.990000000000000E-002    4.970372147981036E-014
 -1.980000000000000E-002    4.031931449435087E-014
 -1.970000000000000E-002    2.593933066966283E-014
 -1.960000000000000E-002    7.381604221065971E-015
 -1.950000000000000E-002   -1.393447671017539E-014
 -1.940000000000000E-002   -3.604497444152284E-014
 -1.930000000000000E-002   -5.657279384495894E-014
 -1.920000000000000E-002   -7.293143259091899E-014
 -1.910000000000000E-002   -8.259006436918409E-014
 -1.900000000000000E-002   -8.337959074548015E-014
 -1.890000000000000E-002   -7.381047989976225E-014
 -1.880000000000000E-002   -5.336672632037730E-014
 -1.870000000000000E-002   -2.273677131562650E-014
 -1.860000000000000E-002    1.605718280399453E-014
 -1.850000000000000E-002    5.966442153822300E-014
 -1.840000000000000E-002    1.035684340074443E-013
 -1.830000000000000E-002    1.424148864455293E-013
 -1.820000000000000E-002    1.704941277067789E-013
 -1.810000000000000E-002    1.823483054214760E-013
 -1.800000000000000E-002    1.734520845026561E-013
 -1.790000000000000E-002    1.409000998354079E-013
 -1.780000000000000E-002    8.402147199494260E-014
 -1.770000000000000E-002    4.838087984470594E-015
 -1.760000000000000E-002   -9.171216436924659E-014
 -1.750000000000000E-002   -1.978513173143205E-013
 -1.740000000000000E-002   -3.033749285459725E-013
 -1.730000000000000E-002   -3.964103218563019E-013
 -1.720000000000000E-002   -4.644852363771288E-013
 -1.710000000000000E-002   -4.958336945759914E-013
 -1.700000000000000E-002   -4.808256093099215E-013
 -1.690000000000000E-002   -4.133758140805439E-013
 -1.680000000000000E-002   -2.921692273196516E-013
 -1.670000000000000E-002   -1.215350044397405E-013
 -1.660000000000000E-002    8.818177081933321E-014
 -1.650000000000000E-002    3.208661943686139E-013
 -1.640000000000000E-002    5.555608430810762E-013
 -1.630000000000000E-002    7.680656684604632E-013
 -1.620000000000000E-002    9.331280164930756E-013
 -1.610000000000000E-002    1.027059141787879E-012
 -1.600000000000000E-002    1.030541607166155E-012
 -1.590000000000000E-002    9.313403437003483E-013
 -1.580000000000000E-002    7.265986875443106E-013
 -1.570000000000000E-002    4.244060412229382E-013
 -1.560000000000000E-002    4.436405258776683E-014
 -1.550000000000000E-002   -3.830465999379114E-013
 -1.540000000000000E-002   -8.183861918040319E-013
 -1.530000000000000E-002   -1.216415291393931E-012
 -1.520000000000000E-002   -1.530301397221355E-012
 -1.510000000000000E-002   -1.716538352257031E-012
 -1.500000000000000E-002   -1.740116351191687E-012
 -1.490000000000000E-002   -1.579397991068178E-012
 -1.480000000000000E-002   -1.230116643649079E-012
 -1.470000000000000E-002   -7.079424715614939E-013
 -1.460000000000000E-002   -4.915057729971020E-014
 -1.450000000000000E-002    6.909146673100393E-013
 -1.440000000000000E-002    1.441672350757932E-012
 -1.430000000000000E-002    2.123280966471743E-012
 -1.420000000000000E-002    2.654342869869547E-012
 -1.410000000000000E-002    2.960671709566339E-012
 -1.400000000000000E-002    2.984264448392146E-012
 -1.390000000000000E-002    2.691487590498029E-012
 -1.380000000000000E-002    2.079460414566872E-012
 -1.370000000000000E-002    1.179713117890106E-012
 -1.360000000000000E-002    5.838663787246627E-014
 -1.350000000000000E-002   -1.187434341707449E-012
 -1.340000000000000E-002   -2.437277044422949E-012
 -1.330000000000000E-002   -3.558300426009549E-012
 -1.320000000000000E-002   -4.418905056156510E-012
 -1.310000000000000E-002   -4.903656227659097E-012
 -1.300000000000000E-002   -4.927964835118315E-012
 -1.290000000000000E-002   -4.450790584414129E-012
 -1.280000000000000E-002   -3.483692785641098E-012
 -1.270000000000000E-002   -2.094763486253534E-012
 -1.260000000000000E-002   -4.064260713813083E-013
 -1.250000000000000E-002    1.413337589013148E-012
 -1.240000000000000E-002    3.166037858704684E-012
 -1.230000000000000E-002    4.642937673767205E-012
 -1.220000000000000E-002    5.648757702670202E-012
 -1.210000000000000E-002    6.026396396769818E-012
 -1.200000000000000E-002    5.679890678597273E-012
 -1.190000000000000E-002    4.592698285439270E-012
 -1.180000000000000E-002    2.838588145033806E-012
 -1.170000000000000E-002    5.830031797930229E-013
 -1.160000000000000E-002   -1.926394096411690E-012
 -1.150000000000000E-002   -4.380150416052308E-012
 -1.140000000000000E-002   -6.437330560000210E-012
 -1.130000000000000E-002   -7.763282269507299E-012
 -1.120000000000000E-002   -8.071328213781556E-012
 -1.110000000000000E-002   -7.163947561902340E-012
 -1.100000000000000E-002   -4.968529958962737E-012
 -1.090000000000000E-002   -1.562878385061402E-012
 -1.080000000000000E-002    2.813780589368094E-012
 -1.070000000000000E-002    7.767329813538043E-012
 -1.060000000000000E-002    1.277421588784235E-011
 -1.050000000000000E-002    1.722519500141134E-011
 -1.040000000000000E-002    2.048454421091171E-011
 -1.030000000000000E-002    2.195986193201572E-011
 -1.020000000000000E-002    2.117574684220913E-011
 -1.010000000000000E-002    1.784346698776542E-011
 -1.000000000000000E-002    1.191828367973959E-011
 -9.899999999999999E-003    3.636544189259985E-012
 -9.800000000000000E-003   -6.473986275852865E-012
 -9.699999999999999E-003   -1.761476542090870E-011
 -9.599999999999999E-003   -2.876934371547221E-011
 -9.500000000000000E-003   -3.878624886225077E-011
 -9.399999999999999E-003   -4.648614678045677E-011
 -9.299999999999999E-003   -5.078414166541371E-011
 -9.200000000000000E-003   -5.081570441427240E-011
 -9.099999999999999E-003   -4.605275150160168E-011
 -8.999999999999999E-003   -3.639648305442138E-011
 -8.900000000000000E-003   -2.223451230894711E-011
 -8.799999999999999E-003   -4.452586761416839E-012
 -8.699999999999999E-003    1.560488583743385E-011
 -8.600000000000000E-003    3.622622952654107E-011
 -8.499999999999999E-003    5.547119694296355E-011
 -8.399999999999999E-003    7.134661406259149E-011
 -8.300000000000000E-003    8.200394544990445E-011
 -8.199999999999999E-003    8.593989847766617E-011
 -8.100000000000000E-003    8.217933754155493E-011
 -8.000000000000000E-003    7.041990516547618E-011
 -7.899999999999999E-003    5.111992844968735E-011
 -7.800000000000000E-003    2.551590855468733E-011
 -7.699999999999999E-003   -4.437924072837303E-012
 -7.599999999999999E-003   -3.620763395960572E-011
 -7.499999999999999E-003   -6.688701820262890E-011
 -7.399999999999999E-003   -9.345771330025062E-011
 -7.299999999999999E-003   -1.130792562618821E-010
 -7.199999999999999E-003   -1.233808454458068E-010
 -7.100000000000000E-003   -1.227249579293511E-010
 -6.999999999999999E-003   -1.104138586905457E-010
 -6.899999999999999E-003   -8.681378063273238E-011
 -6.800000000000000E-003   -5.337932768305922E-011
 -6.699999999999999E-003   -1.256958110235813E-011
 -6.599999999999999E-003    3.234137939177875E-011
 -6.499999999999999E-003    7.754538346727452E-011
 -6.399999999999999E-003    1.190479192217730E-010
 -6.299999999999999E-003    1.530496249127538E-010
 -6.199999999999999E-003    1.763224477354898E-010
 -6.100000000000000E-003    1.865409091938490E-010
 -5.999999999999999E-003    1.825303072599051E-010
 -5.899999999999999E-003    1.644021795036318E-010
 -5.800000000000000E-003    1.335568650426429E-010
 -5.699999999999999E-003    9.254775638290298E-011
 -5.599999999999999E-003    4.481611983355828E-011
 -5.499999999999999E-003   -5.679029943448453E-012
 -5.399999999999999E-003   -5.489868548744076E-011
 -5.299999999999999E-003   -9.918182529078263E-011
 -5.199999999999999E-003   -1.356709680766315E-010
 -5.099999999999999E-003   -1.626537877147271E-010
 -4.999999999999999E-003   -1.797746123201061E-010
 -4.899999999999999E-003   -1.880823062764611E-010
 -4.799999999999999E-003   -1.898977764047218E-010
 -4.699999999999999E-003   -1.885033485916437E-010
 -4.599999999999999E-003   -1.876779317404828E-010
 -4.499999999999999E-003   -1.911213655976570E-010
 -4.399999999999999E-003   -2.018276526575714E-010
 -4.299999999999999E-003   -2.214781757149318E-010
 -4.199999999999999E-003   -2.499296341880446E-010
 -4.099999999999999E-003   -2.848677162453070E-010
 -3.999999999999999E-003   -3.216853747010218E-010
 -3.899999999999999E-003   -3.536250770923407E-010
 -3.799999999999999E-003   -3.721990539294571E-010
 -3.699999999999999E-003   -3.678730100026805E-010
 -3.599999999999999E-003   -3.309685663823303E-010
 -3.499999999999999E-003   -2.527137718313180E-010
 -3.399999999999999E-003   -1.263474315709389E-010
 -3.299999999999999E-003    5.182892263394844E-011
 -3.199999999999999E-003    2.815623932939227E-010
 -3.099999999999999E-003    5.580269206160130E-010
 -2.999999999999999E-003    8.715530837500831E-010
 -2.899999999999999E-003    1.207766697385932E-009
 -2.799999999999999E-003    1.548157457308971E-009
 -2.699999999999999E-003    1.871058885881799E-009
 -2.599999999999999E-003    2.152981400878815E-009
 -2.499999999999999E-003    2.370201885727940E-009
 -2.399999999999999E-003    2.500485888867732E-009
 -2.299999999999999E-003    2.524797938378398E-009
 -2.199999999999999E-003    2.428853588689878E-009
 -2.099999999999999E-003    2.204372571800365E-009
 -1.999999999999999E-003    1.849918152434551E-009
 -1.899999999999999E-003    1.371242659872156E-009
 -1.799999999999999E-003    7.811051982193113E-010
 -1.699999999999999E-003    9.857648079975802E-011
 -1.599999999999999E-003   -6.521031135307533E-010
 -1.499999999999999E-003   -1.443002495984855E-009
 -1.399999999999999E-003   -2.244168751874783E-009
 -1.299999999999999E-003   -3.025320082811461E-009
 -1.199999999999999E-003   -3.757390333036156E-009
 -1.099999999999999E-003   -4.413771260209442E-009
 -9.999999999999989E-004   -4.971122303435602E-009
 -8.999999999999990E-004   -5.409674410762639E-009
 -7.999999999999990E-004   -5.713001762256232E-009
 -6.999999999999989E-004   -5.867305452017748E-009
 -5.999999999999990E-004   -5.860314118489811E-009
 -4.999999999999989E-004   -5.679955426820096E-009
 -3.999999999999989E-004   -5.313003417506489E-009
 -2.999999999999989E-004   -4.743922253042787E-009
 -1.999999999999989E-004   -3.954132741526876E-009
 -9.999999999999892E-005   -2.921904275857339E-009
  1.084202172485504E-018   -1.623033964059788E-009
  1.000000000000011E-004   -3.241626906034073E-011
  2.000000000000011E-004    1.873481508380848E-009
  3.000000000000011E-004    4.113278893313955E-009
  4.000000000000011E-004    6.696624185432046E-009
  5.000000000000011E-004    9.619613071172653E-009
  6.000000000000011E-004    1.285994603596318E-008
  7.000000000000011E-004    1.637210484016752E-008
  8.000000000000011E-004    2.008284051284061E-008
  9.000000000000012E-004    2.388723438862083E-008
  1.000000000000001E-003    2.764554565417556E-008
  1.100000000000001E-003    3.118098710259127E-008
  1.200000000000001E-003    3.427847431745808E-008
  1.300000000000001E-003    3.668431484350495E-008
  1.400000000000001E-003    3.810669925652969E-008
  1.500000000000001E-003    3.821678438798401E-008
  1.600000000000001E-003    3.665010496441197E-008
  1.700000000000001E-003    3.300800839149813E-008
  1.800000000000001E-003    2.685883516708107E-008
  1.900000000000001E-003    1.773856612108971E-008
  2.000000000000001E-003    5.150785997166800E-009
  2.100000000000001E-003   -1.143416181512890E-008
  2.200000000000001E-003   -3.258079967284080E-008
  2.300000000000001E-003   -5.889080833209256E-008
  2.400000000000001E-003   -9.100577103560069E-008
  2.500000000000001E-003   -1.296099889497922E-007
  2.600000000000001E-003   -1.754331150587227E-007
  2.700000000000001E-003   -2.292520804496595E-007
  2.800000000000001E-003   -2.918921336947563E-007
  2.900000000000001E-003   -3.642265113338784E-007
  3.000000000000001E-003   -4.471746947609764E-007
  3.100000000000001E-003   -5.416991981754246E-007
  3.200000000000001E-003   -6.488008169934384E-007
  3.300000000000001E-003   -7.695129198214994E-007
  3.400000000000001E-003   -9.048949000467809E-007
  3.500000000000001E-003   -1.056025328768013E-006
  3.600000000000001E-003   -1.223995795531274E-006
  3.700000000000001E-003   -1.409905430077015E-006
  3.800000000000001E-003   -1.614857294135437E-006
  3.900000000000001E-003   -1.839956833090119E-006
  4.000000000000001E-003   -2.086312624146689E-006
  4.100000000000001E-003   -2.355040042737879E-006
  4.200000000000001E-003   -2.647267752414554E-006
  4.300000000000001E-003   -2.964145995763913E-006
  4.400000000000001E-003   -3.306858104957769E-006
  4.500000000000001E-003   -3.676631948671002E-006
  4.600000000000002E-003   -4.074753886717671E-006
  4.700000000000001E-003   -4.502581305472220E-006
  4.800000000000001E-003   -4.961554726865754E-006
  4.900000000000002E-003   -5.453210194933434E-006
  5.000000000000001E-003   -5.979186757696168E-006
  5.100000000000001E-003   -6.541234698243853E-006
  5.200000000000001E-003   -7.141220541351861E-006
  5.300000000000002E-003   -7.781128291328536E-006
  5.400000000000001E-003   -8.463061848060563E-006
  5.500000000000001E-003   -9.189244890296695E-006
  5.600000000000002E-003   -9.962019815358049E-006
  5.700000000000001E-003   -1.078384739794265E-005
  5.800000000000001E-003   -1.165730921167445E-005
  5.900000000000002E-003   -1.258511019984455E-005
  6.000000000000001E-003   -1.357008269466286E-005
  6.100000000000001E-003   -1.461519835257343E-005
  6.200000000000002E-003   -1.572357381086311E-005
  6.300000000000002E-003   -1.689848778416486E-005
  6.400000000000001E-003   -1.814339946501208E-005
  6.500000000000001E-003   -1.946196066336486E-005
  6.600000000000002E-003   -2.085803725762061E-005
  6.700000000000001E-003   -2.233572542223882E-005
  6.800000000000001E-003   -2.389937195759159E-005
  6.900000000000002E-003   -2.555358575146906E-005
  7.000000000000001E-003   -2.730325575028240E-005
  7.100000000000001E-003   -2.915355592303273E-005
  7.200000000000002E-003   -3.110995790686013E-005
  7.300000000000002E-003   -3.317823834598169E-005
  7.400000000000001E-003   -3.536447930706247E-005
  7.500000000000001E-003   -3.767507422345415E-005
  7.600000000000002E-003   -4.011673519902202E-005
  7.700000000000001E-003   -4.269649482839768E-005
  7.800000000000001E-003   -4.542171749773223E-005
  7.900000000000001E-003   -4.830010990369731E-005
  8.000000000000002E-003   -5.133973836458785E-005
  8.100000000000001E-003   -5.454904874569990E-005
  8.200000000000001E-003   -5.793688818841448E-005
  8.300000000000002E-003   -6.151253550245051E-005
  8.400000000000001E-003   -6.528573318181650E-005
  8.500000000000002E-003   -6.926672281283230E-005
  8.600000000000002E-003   -7.346627335772623E-005
  8.700000000000001E-003   -7.789571534784029E-005
  8.800000000000002E-003   -8.256698493959082E-005
  8.900000000000002E-003   -8.749264335507673E-005
  9.000000000000001E-003   -9.268589667042754E-005
  9.100000000000002E-003   -9.816063804640284E-005
  9.200000000000002E-003   -1.039314420604133E-004
  9.300000000000001E-003   -1.100136069445813E-004
  9.400000000000002E-003   -1.164231444362807E-004
  9.500000000000001E-003   -1.231768176626494E-004
  9.600000000000001E-003   -1.302921262457469E-004
  9.700000000000002E-003   -1.377873504543743E-004
  9.800000000000001E-003   -1.456815528507789E-004
  9.900000000000001E-003   -1.539946070024936E-004
  1.000000000000000E-002   -1.627472189636481E-004
  1.010000000000000E-002   -1.719609833766384E-004
  1.020000000000000E-002   -1.816584091201216E-004
  1.030000000000000E-002   -1.918629680129785E-004
  1.040000000000000E-002   -2.025991433070395E-004
  1.050000000000000E-002   -2.138924970202502E-004
  1.060000000000000E-002   -2.257697163095229E-004
  1.070000000000000E-002   -2.382586464125627E-004
  1.080000000000000E-002   -2.513883953774524E-004
  1.090000000000000E-002   -2.651893168500682E-004
  1.100000000000000E-002   -2.796930834793133E-004
  1.110000000000000E-002   -2.949327650321961E-004
  1.120000000000000E-002   -3.109427768252897E-004
  1.130000000000000E-002   -3.277589912232415E-004
  1.140000000000000E-002   -3.454186966637413E-004
  1.150000000000000E-002   -3.639606839619248E-004
  1.160000000000000E-002   -3.834252271303727E-004
  1.170000000000000E-002   -4.038541464646267E-004
  1.180000000000000E-002   -4.252908616777459E-004
  1.190000000000000E-002   -4.477803620534347E-004
  1.200000000000000E-002   -4.713693507652712E-004
  1.210000000000000E-002   -4.961062537743285E-004
  1.220000000000000E-002   -5.220413158399914E-004
  1.230000000000000E-002   -5.492266734227623E-004
  1.240000000000000E-002   -5.777163962051923E-004
  1.250000000000000E-002   -6.075666571767633E-004
  1.260000000000000E-002   -6.388357254108216E-004
  1.270000000000000E-002   -6.715842015168639E-004
  1.280000000000000E-002   -7.058749045650086E-004
  1.290000000000000E-002   -7.417730853961435E-004
  1.300000000000000E-002   -7.793464181279101E-004
  1.310000000000000E-002   -8.186651527776424E-004
  1.320000000000000E-002   -8.598020737614521E-004
  1.330000000000000E-002   -9.028325901133845E-004
  1.340000000000000E-002   -9.478346878010024E-004
  1.350000000000000E-002   -9.948890794521880E-004
  1.360000000000000E-002   -1.044079230043469E-003
  1.370000000000000E-002   -1.095491189566894E-003
  1.380000000000000E-002   -1.149213966079150E-003
  1.390000000000000E-002   -1.205339284720639E-003
  1.400000000000000E-002   -1.263961756094128E-003
  1.410000000000000E-002   -1.325178965876792E-003
  1.420000000000000E-002   -1.389091470399536E-003
  1.430000000000000E-002   -1.455803019142669E-003
  1.440000000000000E-002   -1.525420474371217E-003
  1.450000000000000E-002   -1.598054143048229E-003
  1.460000000000000E-002   -1.673817689902362E-003
  1.470000000000000E-002   -1.752828372200517E-003
  1.480000000000000E-002   -1.835206827860261E-003
  1.490000000000000E-002   -1.921077620644992E-003
  1.500000000000000E-002   -2.010569072536711E-003
  1.510000000000000E-002   -2.103813258616027E-003
  1.520000000000000E-002   -2.200946237394863E-003
  1.530000000000000E-002   -2.302107972630758E-003
  1.540000000000000E-002   -2.407442352753894E-003
  1.550000000000000E-002   -2.517097465581564E-003
  1.560000000000000E-002   -2.631225335755456E-003
  1.570000000000000E-002   -2.749981806936147E-003
  1.580000000000000E-002   -2.873527102576662E-003
  1.590000000000000E-002   -3.002025261851356E-003
  1.600000000000000E-002   -3.135644636005090E-003
  1.610000000000000E-002   -3.274557683857103E-003
  1.620000000000000E-002   -3.418941034284100E-003
  1.630000000000000E-002   -3.568975579415688E-003
  1.640000000000000E-002   -3.724846601960288E-003
  1.650000000000000E-002   -3.886743828155219E-003
  1.660000000000000E-002   -4.054861044122920E-003
  1.670000000000000E-002   -4.229397078207049E-003
  1.680000000000000E-002   -4.410555012608603E-003
  1.690000000000000E-002   -4.598542489306438E-003
  1.700000000000000E-002   -4.793571832543207E-003
  1.710000000000000E-002   -4.995859928562477E-003
  1.720000000000000E-002   -5.205628409733275E-003
  1.730000000000000E-002   -5.423102835652910E-003
  1.740000000000000E-002   -5.648513943537655E-003
  1.750000000000000E-002   -5.882096369342258E-003
  1.760000000000000E-002   -6.124089631903297E-003
  1.770000000000000E-002   -6.374737326016248E-003
  1.780000000000000E-002   -6.634286878091749E-003
  1.790000000000000E-002   -6.902990510543053E-003
  1.800000000000000E-002   -7.181104027352841E-003
  1.810000000000000E-002   -7.468887427260520E-003
  1.820000000000000E-002   -7.766604397584282E-003
  1.830000000000000E-002   -8.074523052809906E-003
  1.840000000000000E-002   -8.392914812965396E-003
  1.850000000000000E-002   -8.722054980615306E-003
  1.860000000000000E-002   -9.062222870737454E-003
  1.870000000000000E-002   -9.413700834591665E-003