 -4.000000000000000E-002    0.000000000000000E+000
 -3.990000000000000E-002    0.000000000000000E+000
 -3.980000000000000E-002    0.000000000000000E+000
 -3.970000000000000E-002    0.000000000000000E+000
 -3.960000000000000E-002    0.000000000000000E+000
 -3.950000000000000E-002    0.000000000000000E+000
 -3.940000000000000E-002    0.000000000000000E+000
 -3.930000000000000E-002    0.000000000000000E+000
 -3.920000000000000E-002    0.000000000000000E+000
 -3.910000000000000E-002    0.000000000000000E+000
 -3.900000000000000E-002    0.000000000000000E+000
 -3.890000000000000E-002    0.000000000000000E+000
 -3.880000000000000E-002    0.000000000000000E+000
 -3.870000000000000E-002    0.000000000000000E+000
 -3.860000000000000E-002    0.000000000000000E+000
 -3.850000000000000E-002    0.000000000000000E+000
 -3.840000000000000E-002    0.000000000000000E+000
 -3.830000000000000E-002    0.000000000000000E+000
 -3.820000000000000E-002    0.000000000000000E+000
 -3.810000000000000E-002    0.000000000000000E+000
 -3.800000000000000E-002    0.000000000000000E+000
 -3.790000000000000E-002    0.000000000000000E+000
 -3.780000000000000E-002    0.000000000000000E+000
 -3.770000000000000E-002    0.000000000000000E+000
 -3.760000000000000E-002    0.000000000000000E+000
 -3.750000000000000E-002    0.000000000000000E+000
 -3.740000000000000E-002    0.000000000000000E+000
 -3.730000000000000E-002    0.000000000000000E+000
 -3.720000000000000E-002    0.000000000000000E+000
 -3.710000000000000E-002    0.000000000000000E+000
 -3.700000000000000E-002    0.000000000000000E+000
 -3.690000000000000E-002    0.000000000000000E+000
 -3.680000000000000E-002    0.000000000000000E+000
 -3.670000000000000E-002    0.000000000000000E+000
 -3.660000000000000E-002    0.000000000000000E+000
 -3.650000000000000E-002    0.000000000000000E+000
 -3.640000000000000E-002    0.000000000000000E+000
 -3.630000000000000E-002    0.000000000000000E+000
 -3.620000000000000E-002    0.000000000000000E+000
 -3.610000000000000E-002    0.000000000000000E+000
 -3.600000000000000E-002    0.000000000000000E+000
 -3.590000000000000E-002    0.000000000000000E+000
 -3.580000000000000E-002    0.000000000000000E+000
 -3.570000000000000E-002    0.000000000000000E+000
 -3.560000000000000E-002    0.000000000000000E+000
 -3.550000000000000E-002    0.000000000000000E+000
 -3.540000000000000E-002    0.000000000000000E+000
 -3.530000000000000E-002    0.000000000000000E+000
 -3.520000000000000E-002    0.000000000000000E+000
 -3.510000000000000E-002    0.000000000000000E+000
 -3.500000000000000E-002    0.000000000000000E+000
 -3.490000000000000E-002    0.000000000000000E+000
 -3.480000000000000E-002    0.000000000000000E+000
 -3.470000000000000E-002    0.000000000000000E+000
 -3.460000000000000E-002    0.000000000000000E+000
 -3.450000000000000E-002    0.000000000000000E+000
 -3.440000000000000E-002    0.000000000000000E+000
 -3.430000000000000E-002    0.000000000000000E+000
 -3.420000000000000E-002    0.000000000000000E+000
 -3.410000000000000E-002    0.000000000000000E+000
 -3.400000000000000E-002    0.000000000000000E+000
 -3.390000000000000E-002    0.000000000000000E+000
 -3.380000000000000E-002    0.000000000000000E+000
 -3.370000000000000E-002    0.000000000000000E+000
 -3.360000000000000E-002    0.000000000000000E+000
 -3.350000000000000E-002    0.000000000000000E+000
 -3.340000000000000E-002    0.000000000000000E+000
 -3.330000000000000E-002    0.000000000000000E+000
 -3.320000000000000E-002    0.000000000000000E+000
 -3.310000000000000E-002    0.000000000000000E+000
 -3.300000000000000E-002    0.000000000000000E+000
 -3.290000000000000E-002    0.000000000000000E+000
 -3.280000000000000E-002    0.000000000000000E+000
 -3.270000000000000E-002    0.000000000000000E+000
 -3.260000000000000E-002    0.000000000000000E+000
 -3.250000000000000E-002    0.000000000000000E+000
 -3.240000000000000E-002    0.000000000000000E+000
 -3.230000000000000E-002    0.000000000000000E+000
 -3.220000000000000E-002    0.000000000000000E+000
 -3.210000000000000E-002    0.000000000000000E+000
 -3.200000000000000E-002    0.000000000000000E+000
 -3.190000000000000E-002    0.000000000000000E+000
 -3.180000000000000E-002    0.000000000000000E+000
 -3.170000000000000E-002    0.000000000000000E+000
 -3.160000000000000E-002    0.000000000000000E+000
 -3.150000000000000E-002    0.000000000000000E+000
 -3.140000000000000E-002    0.000000000000000E+000
 -3.130000000000000E-002    3.562166159894585E-048
 -3.120000000000000E-002    8.312063408709782E-047
 -3.110000000000000E-002    1.338542175544597E-046
 -3.100000000000000E-002    2.497680417622622E-046
 -3.090000000000000E-002    3.552328450612855E-046
 -3.080000000000000E-002    4.610646884783976E-046
 -3.070000000000000E-002    4.724450412062955E-046
 -3.060000000000000E-002    1.086023852748280E-046
 -3.050000000000000E-002   -4.780643133337300E-046
 -3.040000000000000E-002   -1.419398824251984E-045
 -3.030000000000000E-002   -3.003851349357580E-045
 -3.020000000000000E-002   -5.511746779863005E-045
 -3.010000000000000E-002   -8.983345036647823E-045
 -3.000000000000000E-002   -1.369732896980424E-044
 -2.990000000000000E-002   -1.909806205735954E-044
 -2.980000000000000E-002   -2.326875382846441E-044
 -2.970000000000000E-002   -2.599212704006877E-044
 -2.960000000000000E-002   -2.343533305126927E-044
 -2.950000000000000E-002   -9.356864586860354E-045
 -2.940000000000000E-002    2.181286826861331E-044
 -2.930000000000000E-002    7.884206932317889E-044
 -2.920000000000000E-002    1.722370714941461E-043
 -2.910000000000000E-002    3.111356515741937E-043
 -2.900000000000000E-002    5.028142868090633E-043
 -2.890000000000000E-002    7.451593914561611E-043
 -2.880000000000000E-002    1.020470764149071E-042
 -2.870000000000000E-002    1.283640158918558E-042
 -2.860000000000000E-002    1.453802638969132E-042
 -2.850000000000000E-002    1.398900457776751E-042
 -2.840000000000000E-002    9.277100079455560E-043
 -2.830000000000000E-002   -2.171285083496709E-043
 -2.820000000000000E-002   -2.347268039917365E-042
 -2.810000000000000E-002   -5.800427336411598E-042
 -2.800000000000000E-002   -1.088250549074379E-041
 -2.790000000000000E-002   -1.776118118744671E-041
 -2.780000000000000E-002   -2.632009991494532E-041
 -2.770000000000000E-002   -3.594868160069553E-041
 -2.760000000000000E-002   -4.529446968319174E-041
 -2.750000000000000E-002   -5.197766044741504E-041
 -2.740000000000000E-002   -5.232497642309876E-041
 -2.730000000000000E-002   -4.118533735379116E-041
 -2.720000000000000E-002   -1.192437183128246E-041
 -2.710000000000000E-002    4.325834820359391E-041
 -2.700000000000000E-002    1.325330205452320E-040
 -2.690000000000000E-002    2.629875109477877E-040
 -2.680000000000000E-002    4.383398306980789E-040
 -2.670000000000000E-002    6.557030217777658E-040
 -2.660000000000000E-002    9.013932470099623E-040
 -2.650000000000000E-002    1.145950340206986E-039
 -2.640000000000000E-002    1.338819319247615E-039
 -2.630000000000000E-002    1.403523897696780E-039
 -2.620000000000000E-002    1.234616753967464E-039
 -2.610000000000000E-002    6.982487038323146E-040
 -2.600000000000000E-002   -3.612709627316569E-040
 -2.590000000000000E-002   -2.106083308259923E-039
 -2.580000000000000E-002   -4.677522132041748E-039
 -2.570000000000000E-002   -8.154210422466914E-039
 -2.560000000000000E-002   -1.249374176125254E-038
 -2.550000000000000E-002   -1.745821888950883E-038
 -2.540000000000000E-002   -2.252739582089456E-038
 -2.530000000000000E-002   -2.680823079334091E-038
 -2.520000000000000E-002   -2.895645623544877E-038
 -2.510000000000000E-002   -2.713404086266506E-038
 -2.500000000000000E-002   -1.903534943824298E-038
 -2.490000000000000E-002   -2.023027825917467E-039
 -2.480000000000000E-002    2.658031901761904E-038
 -2.470000000000000E-002    6.899988793996974E-038
 -2.460000000000000E-002    1.262830292237679E-037
 -2.450000000000000E-002    1.973340907702245E-037
 -2.440000000000000E-002    2.777499241310081E-037
 -2.430000000000000E-002    3.585641869706377E-037
 -2.420000000000000E-002    4.250973740509105E-037
 -2.410000000000000E-002    4.562137454753695E-037
 -2.400000000000000E-002    4.243918735910905E-037
 -2.390000000000000E-002    2.971001383964415E-037
 -2.380000000000000E-002    4.000037675335320E-038
 -2.370000000000000E-002   -3.775580740595369E-037
 -2.360000000000000E-002   -9.744889342022760E-037
 -2.350000000000000E-002   -1.747471747924136E-036
 -2.340000000000000E-002   -2.658684794377467E-036
 -2.330000000000000E-002   -3.623209628993340E-036
 -2.320000000000000E-002   -4.498441180011312E-036
 -2.310000000000000E-002   -5.078758192037139E-036
 -2.300000000000000E-002   -5.099441451156318E-036
 -2.290000000000000E-002   -4.254157140205756E-036
 -2.280000000000000E-002   -2.229889762643352E-036
 -2.270000000000000E-002    1.238230896282130E-036
 -2.260000000000000E-002    6.292528002519566E-036
 -2.250000000000000E-002    1.286323323068656E-035
 -2.240000000000000E-002    2.057360678918377E-035
 -2.230000000000000E-002    2.865558993078333E-035
 -2.220000000000000E-002    3.589777313628321E-035
 -2.210000000000000E-002    4.065175832513779E-035
 -2.200000000000000E-002    4.092413318507277E-035
 -2.190000000000000E-002    3.457730961154841E-035
 -2.180000000000000E-002    1.965188560374086E-035
 -2.170000000000000E-002   -5.195066909629204E-036
 -2.160000000000000E-002   -4.016702064424199E-035
 -2.150000000000000E-002   -8.378264281218370E-035
 -2.140000000000000E-002   -1.324031156563526E-034
 -2.130000000000000E-002   -1.799551032802110E-034
 -2.120000000000000E-002   -2.179880082593541E-034
 -2.110000000000000E-002   -2.361981721478401E-034
 -2.100000000000000E-002   -2.235180334271279E-034
 -2.090000000000000E-002   -1.697976856700755E-034
 -2.080000000000000E-002   -6.800247895105176E-035
 -2.070000000000000E-002    8.328368600083196E-035
 -2.060000000000000E-002    2.774036699428285E-034
 -2.050000000000000E-002    4.977075264846057E-034
 -2.040000000000000E-002    7.167413901842637E-034
 -2.030000000000000E-002    8.971221440112788E-034
 -2.020000000000000E-002    9.945667839252293E-034
 -2.010000000000000E-002    9.632993711279833E-034
 -2.000000000000000E-002    7.636772832880854E-034
 -1.990000000000000E-002    3.713867894307114E-034
 -1.980000000000000E-002   -2.129757121617104E-034
 -1.970000000000000E-002   -9.556110073589973E-034
 -1.960000000000000E-002   -1.784503431188559E-033
 -1.950000000000000E-002   -2.589700296251155E-033
 -1.940000000000000E-002   -3.230511791863277E-033
 -1.930000000000000E-002   -3.550426402314339E-033
 -1.920000000000000E-002   -3.399237303954884E-033
 -1.910000000000000E-002   -2.660309536133619E-033
 -1.900000000000000E-002   -1.279247613517590E-033
 -1.890000000000000E-002    7.111064861791539E-034
 -1.880000000000000E-002    3.175110455357165E-033
 -1.870000000000000E-002    5.873522404571646E-033
 -1.860000000000000E-002    8.481076489910565E-033
 -1.850000000000000E-002    1.062290467931970E-032
 -1.840000000000000E-002    1.192611938654307E-032
 -1.830000000000000E-002    1.207828921310427E-032
 -1.820000000000000E-002    1.088053658969490E-032
 -1.810000000000000E-002    8.280940817339891E-033
 -1.800000000000000E-002    4.374999660250081E-033
 -1.790000000000000E-002   -6.350259768279919E-034
 -1.780000000000000E-002   -6.520490941609960E-033
 -1.770000000000000E-002   -1.313206714709726E-032
 -1.760000000000000E-002   -2.050189368734425E-032
 -1.750000000000000E-002   -2.890065793466088E-032
 -1.740000000000000E-002   -3.880173635038890E-032
 -1.730000000000000E-002   -5.070890777724235E-032
 -1.720000000000000E-002   -6.482343575479629E-032
 -1.710000000000000E-002   -8.056194155918576E-032
 -1.700000000000000E-002   -9.598654274189672E-032
 -1.690000000000000E-002   -1.072677796395641E-031
 -1.680000000000000E-002   -1.083567314725320E-031
 -1.670000000000000E-002   -9.108040109981874E-032
 -1.660000000000000E-002   -4.587589041207006E-032
 -1.650000000000000E-002    3.667284638154230E-032
 -1.640000000000000E-002    1.634494149722571E-031
 -1.630000000000000E-002    3.357061802638639E-031
 -1.620000000000000E-002    5.456248359237519E-031
 -1.610000000000000E-002    7.731624942459131E-031
 -1.600000000000000E-002    9.840360807712101E-031
 -1.590000000000000E-002    1.129826447584815E-030
 -1.580000000000000E-002    1.151150162338794E-030
 -1.570000000000000E-002    9.845853477819392E-031
 -1.560000000000000E-002    5.735200997162252E-031
 -1.550000000000000E-002   -1.176835300189941E-031
 -1.540000000000000E-002   -1.087767383129613E-030
 -1.530000000000000E-002   -2.283459282296130E-030
 -1.520000000000000E-002   -3.588571886139528E-030
 -1.510000000000000E-002   -4.821190175174039E-030
 -1.500000000000000E-002   -5.742641423149446E-030
 -1.490000000000000E-002   -6.080917603647485E-030
 -1.480000000000000E-002   -5.569259419180280E-030
 -1.470000000000000E-002   -3.997786586232376E-030
 -1.460000000000000E-002   -1.272621301009595E-030
 -1.450000000000000E-002    2.526544316065130E-030
 -1.440000000000000E-002    7.102399941511396E-030
 -1.430000000000000E-002    1.192290238756117E-029
 -1.420000000000000E-002    1.624373459740253E-029
 -1.410000000000000E-002    1.917933184006793E-029
 -1.400000000000000E-002    1.982474398387018E-029
 -1.390000000000000E-002    1.742108223079330E-029
 -1.380000000000000E-002    1.154611763159553E-029
 -1.370000000000000E-002    2.300303068879009E-030
 -1.360000000000000E-002   -9.550386501890863E-030
 -1.350000000000000E-002   -2.251743956939097E-029
 -1.340000000000000E-002   -3.445795201096477E-029
 -1.330000000000000E-002   -4.279486264059619E-029
 -1.320000000000000E-002   -4.489423520359956E-029
 -1.310000000000000E-002   -3.857461594279876E-029
 -1.300000000000000E-002   -2.268869063497383E-029
 -1.290000000000000E-002    2.316103369089030E-030
 -1.280000000000000E-002    3.397725160154355E-029
 -1.270000000000000E-002    6.766605006181789E-029
 -1.260000000000000E-002    9.682188175154456E-029
 -1.250000000000000E-002    1.136480593320364E-028
 -1.240000000000000E-002    1.102776102038927E-028
 -1.230000000000000E-002    8.032693180427075E-029
 -1.220000000000000E-002    2.065391321540628E-029
 -1.210000000000000E-002   -6.696023804944118E-029
 -1.200000000000000E-002   -1.745564420197741E-028
 -1.190000000000000E-002   -2.875448138503533E-028
 -1.180000000000000E-002   -3.853850021088684E-028
 -1.170000000000000E-002   -4.436122897625463E-028
 -1.160000000000000E-002   -4.372257762559045E-028
 -1.150000000000000E-002   -3.452008507074097E-028
 -1.140000000000000E-002   -1.556065824894005E-028
 -1.130000000000000E-002    1.294524376520855E-028
 -1.120000000000000E-002    4.900364938819909E-028
 -1.110000000000000E-002    8.867325753879062E-028
 -1.100000000000000E-002    1.262072111149812E-027
 -1.090000000000000E-002    1.545573739302484E-027
 -1.080000000000000E-002    1.662461603967506E-027
 -1.070000000000000E-002    1.545447991338642E-027
 -1.060000000000000E-002    1.148255662870474E-027
 -1.050000000000000E-002    4.589031332148987E-028
 -1.040000000000000E-002   -4.896592758200062E-028
 -1.030000000000000E-002   -1.614077231026430E-027
 -1.020000000000000E-002   -2.782461910561761E-027
 -1.010000000000000E-002   -3.824944033757899E-027
 -1.000000000000000E-002   -4.553007680216500E-027
 -9.899999999999999E-003   -4.786132328869587E-027
 -9.800000000000000E-003   -4.382635053099103E-027
 -9.699999999999999E-003   -3.270214595741200E-027
 -9.599999999999999E-003   -1.470806393114367E-027
 -9.500000000000000E-003    8.856414783268002E-028
 -9.399999999999999E-003    3.562933111172039E-027
 -9.299999999999999E-003    6.238353696285859E-027
 -9.200000000000000E-003    8.539929455103349E-027
 -9.099999999999999E-003    1.009746322763800E-026
 -8.999999999999999E-003    1.060032482198322E-026
 -8.900000000000000E-003    9.852511409240029E-027
 -8.799999999999999E-003    7.814452624306423E-027
 -8.699999999999999E-003    4.621930230075398E-027
 -8.600000000000000E-003    5.755422435686918E-028
 -8.499999999999999E-003   -3.900831545711822E-027
 -8.399999999999999E-003   -8.327718045956414E-027
 -8.300000000000000E-003   -1.225249291843974E-026
 -8.199999999999999E-003   -1.532974067430094E-026
 -8.100000000000000E-003   -1.737993728764166E-026
 -8.000000000000000E-003   -1.840805191322716E-026
 -7.899999999999999E-003   -1.856945317026683E-026
 -7.800000000000000E-003   -1.808090882057191E-026
 -7.699999999999999E-003   -1.708812824867749E-026
 -7.599999999999999E-003   -1.551621760464144E-026
 -7.499999999999999E-003   -1.294217248047362E-026
 -7.399999999999999E-003   -8.535989953401202E-027
 -7.299999999999999E-003   -1.115346939962953E-027
 -7.199999999999999E-003    1.065388642223579E-026
 -7.100000000000000E-003    2.790360800683258E-026
 -6.999999999999999E-003    5.108270447193782E-026
 -6.899999999999999E-003    7.941650549705124E-026
 -6.800000000000000E-003    1.104118696035936E-025
 -6.699999999999999E-003    1.395419468638337E-025
 -6.599999999999999E-003    1.602536182080025E-025
 -6.499999999999999E-003    1.644225657578285E-025
 -6.399999999999999E-003    1.433308537793847E-025
 -6.299999999999999E-003    8.916056889294743E-026
 -6.199999999999999E-003   -3.108749117600479E-027
 -6.100000000000000E-003   -1.336289006910140E-025
 -5.999999999999999E-003   -2.957754497779751E-025
 -5.899999999999999E-003   -4.748192576506123E-025
 -5.800000000000000E-003   -6.476132599705776E-025
 -5.699999999999999E-003   -7.836775753139718E-025
 -5.599999999999999E-003   -8.479280569225295E-025
 -5.499999999999999E-003   -8.050699322946078E-025
 -5.399999999999999E-003   -6.253941348194862E-025
 -5.299999999999999E-003   -2.913931879500542E-025
 -5.199999999999999E-003    1.956831982419546E-025
 -5.099999999999999E-003    8.104388266700666E-025
 -4.999999999999999E-003    1.500308200846381E-024
 -4.899999999999999E-003    2.186011412378230E-024
 -4.799999999999999E-003    2.766310065783333E-024
 -4.699999999999999E-003    3.127386096579889E-024
 -4.599999999999999E-003    3.156508190067341E-024
 -4.499999999999999E-003    2.758894743399742E-024
 -4.399999999999999E-003    1.875936616386410E-024
 -4.299999999999999E-003    5.023497475968004E-025
 -4.199999999999999E-003   -1.300533914183643E-024
 -4.099999999999999E-003   -3.398086702506882E-024
 -3.999999999999999E-003   -5.584629440419611E-024
 -3.899999999999999E-003   -7.596015883975664E-024
 -3.799999999999999E-003   -9.132718395036163E-024
 -3.699999999999999E-003   -9.892087162286060E-024
 -3.599999999999999E-003   -9.606919859483769E-024
 -3.499999999999999E-003   -8.086162648667813E-024
 -3.399999999999999E-003   -5.252639244290966E-024
 -3.299999999999999E-003   -1.172436395624776E-024
 -3.199999999999999E-003    3.928966707863558E-024
 -3.099999999999999E-003    9.667521250710022E-024
 -2.999999999999999E-003    1.552021460972992E-023
 -2.899999999999999E-003    2.086300672280671E-023
 -2.799999999999999E-003    2.502426860566615E-023
 -2.699999999999999E-003    2.734880871528206E-023
 -2.599999999999999E-003    2.726604391205586E-023
 -2.499999999999999E-003    2.435534935777633E-023
 -2.399999999999999E-003    1.840197091776474E-023
 -2.299999999999999E-003    9.438323578055628E-024
 -2.199999999999999E-003   -2.232498212755792E-024
 -2.099999999999999E-003   -1.603175169999356E-023
 -1.999999999999999E-003   -3.111736357597027E-023
 -1.899999999999999E-003   -4.641080745762441E-023
 -1.799999999999999E-003   -6.063570962869239E-023
 -1.699999999999999E-003   -7.236634238935816E-023
 -1.599999999999999E-003   -8.008644110001922E-023
 -1.499999999999999E-003   -8.226153269807369E-023
 -1.399999999999999E-003   -7.743061292852856E-023
 -1.299999999999999E-003   -6.432427022640526E-023
 -1.199999999999999E-003   -4.201553602016613E-023
 -1.099999999999999E-003   -1.010548590996982E-023
 -9.999999999999989E-004    3.106166037322210E-023
 -8.999999999999990E-004    8.017006378163098E-023
 -7.999999999999990E-004    1.347188146293023E-022
 -6.999999999999989E-004    1.908644860894388E-022
 -5.999999999999990E-004    2.433703943771006E-022
 -4.999999999999989E-004    2.857171534116362E-022
 -3.999999999999989E-004    3.104248296362198E-022
 -2.999999999999989E-004    3.096214614833234E-022
 -1.999999999999989E-004    2.758667690494092E-022
 -9.999999999999892E-005    2.032022258588138E-022
  1.084202172485504E-018    8.835474888886271E-023
  1.000000000000011E-004   -6.802518275566996E-023
  2.000000000000011E-004   -2.602526206660306E-022
  3.000000000000011E-004   -4.768148414980882E-022
  4.000000000000011E-004   -7.000959230097254E-022
  5.000000000000011E-004   -9.068012447641302E-022
  6.000000000000011E-004   -1.069216615092144E-021
  7.000000000000011E-004   -1.157357380318258E-021
  8.000000000000011E-004   -1.141957629692442E-021
  9.000000000000012E-004   -9.981272614353558E-022
  1.000000000000001E-003   -7.093769474994952E-022
  1.100000000000001E-003   -2.715991173841562E-022
  1.200000000000001E-003    3.034948515586433E-022
  1.300000000000001E-003    9.860145111281732E-022
  1.400000000000001E-003    1.727121075246199E-021
  1.500000000000001E-003    2.460269930974764E-021
  1.600000000000001E-003    3.104730567938693E-021
  1.700000000000001E-003    3.571428352199432E-021
  1.800000000000001E-003    3.770900513413550E-021
  1.900000000000001E-003    3.622876611859730E-021
  2.000000000000001E-003    3.066734563793261E-021
  2.100000000000001E-003    2.071862239183997E-021
  2.200000000000001E-003    6.468128089759885E-022
  2.300000000000001E-003   -1.153911126072895E-021
  2.400000000000001E-003   -3.226536650795698E-021
  2.500000000000001E-003   -5.419071748045551E-021
  2.600000000000001E-003   -7.537339768413370E-021
  2.700000000000001E-003   -9.356216154635131E-021
  2.800000000000001E-003   -1.063582571906633E-020
  2.900000000000001E-003   -1.114197620437412E-020
  3.000000000000001E-003   -1.066960531580035E-020
  3.100000000000001E-003   -9.067610464886893E-021
  3.200000000000001E-003   -6.263049522343847E-021
  3.300000000000001E-003   -2.282472687311661E-021
  3.400000000000001E-003    2.731945853316881E-021
  3.500000000000001E-003    8.513753571659447E-021
  3.600000000000001E-003    1.467308400319385E-020
  3.700000000000001E-003    2.070864825209861E-020
  3.800000000000001E-003    2.603186540224997E-020
  3.900000000000001E-003    3.000334446390973E-020
  4.000000000000001E-003    3.198094992934461E-020
  4.100000000000001E-003    3.137760550089414E-020
  4.200000000000001E-003    2.772574357884043E-020
  4.300000000000001E-003    2.074411666800556E-020
  4.400000000000001E-003    1.040150652232683E-020
  4.500000000000001E-003   -3.029082812614916E-021
  4.600000000000002E-003   -1.893276925320573E-020
  4.700000000000001E-003   -3.633875629922238E-020
  4.800000000000001E-003   -5.393648578914868E-020
  4.900000000000002E-003   -7.012711844657294E-020
  5.000000000000001E-003   -8.311327551083794E-020
  5.100000000000001E-003   -9.102688018605981E-020
  5.200000000000001E-003   -9.209113402689342E-020
  5.300000000000002E-003   -8.480822256598137E-020
  5.400000000000001E-003   -6.815996601098623E-020
  5.500000000000001E-003   -4.180434643909388E-020
  5.600000000000002E-003   -6.247546590055249E-021
  5.700000000000001E-003    3.703089591133348E-020
  5.800000000000001E-003    8.552201538882301E-020
  5.900000000000002E-003    1.357204725024373E-019
  6.000000000000001E-003    1.832616293717953E-019
  6.100000000000001E-003    2.231699176474147E-019
  6.200000000000002E-003    2.502160567217769E-019
  6.300000000000002E-003    2.593688443447278E-019
  6.400000000000001E-003    2.463150975172831E-019
  6.500000000000001E-003    2.080091020751160E-019
  6.600000000000002E-003    1.432032346636975E-019
  6.700000000000001E-003    5.290385220859215E-020
  6.800000000000001E-003   -5.930558839823280E-020
  6.900000000000002E-003   -1.871298376556927E-019
  7.000000000000001E-003   -3.216618776535593E-019
  7.100000000000001E-003   -4.517493803896791E-019
  7.200000000000002E-003   -5.646384673728868E-019
  7.300000000000002E-003   -6.468806615719150E-019
  7.400000000000001E-003   -6.854614764085941E-019
  7.500000000000001E-003   -6.690807905610533E-019
  7.600000000000002E-003   -5.894904858639821E-019
  7.700000000000001E-003   -4.427732495802131E-019
  7.800000000000001E-003   -2.304344772001937E-019
  7.900000000000001E-003    3.982301703305390E-020
  8.000000000000002E-003    3.537636229961897E-019
  8.100000000000001E-003    6.908222723082275E-019
  8.200000000000001E-003    1.024912888751997E-018
  8.300000000000002E-003    1.325863094428595E-018
  8.400000000000001E-003    1.561443515978769E-018
  8.500000000000002E-003    1.699902431847423E-018
  8.600000000000002E-003    1.712857454793888E-018
  8.700000000000001E-003    1.578344172118432E-018
  8.800000000000002E-003    1.283775281329987E-018
  8.900000000000002E-003    8.285392252075850E-019
  9.000000000000001E-003    2.259538055163260E-019
  9.100000000000002E-003   -4.956929689055803E-019
  9.200000000000002E-003   -1.293243192738402E-018
  9.300000000000001E-003   -2.110077244946477E-018
  9.400000000000002E-003   -2.878905034873876E-018
  9.500000000000001E-003   -3.525911551143677E-018
  9.600000000000001E-003   -3.976103787461352E-018
  9.700000000000002E-003   -4.159581647388172E-018
  9.800000000000001E-003   -4.018335506443716E-018
  9.900000000000001E-003   -3.513065903362243E-018
  1.000000000000000E-002   -2.629441785853357E-018
  1.010000000000000E-002   -1.383176435550702E-018
  1.020000000000000E-002    1.766945512369752E-019
  1.030000000000000E-002    1.966887704895629E-018
  1.040000000000000E-002    3.871735917771956E-018
  1.050000000000000E-002    5.748101889455336E-018
  1.060000000000000E-002    7.433384354645565E-018
  1.070000000000000E-002    8.756392607702374E-018
  1.080000000000000E-002    9.550586631372968E-018
  1.090000000000000E-002    9.668909786261630E-018
  1.100000000000000E-002    8.999164384671286E-018
  1.110000000000000E-002    7.478708251662208E-018
  1.120000000000000E-002    5.107099687610285E-018
  1.130000000000000E-002    1.955309453853182E-018
  1.140000000000000E-002   -1.829791266029573E-018
  1.150000000000000E-002   -6.026736990074474E-018
  1.160000000000000E-002   -1.034730211554291E-017
  1.170000000000000E-002   -1.445111377560800E-017
  1.180000000000000E-002   -1.796677940479374E-017
  1.190000000000000E-002   -2.051863371391783E-017
  1.200000000000000E-002   -2.175762159631317E-017
  1.210000000000000E-002   -2.139425409228404E-017
  1.220000000000000E-002   -1.923112698761704E-017
  1.230000000000000E-002   -1.519216552242826E-017
  1.240000000000000E-002   -9.345694338192869E-018
  1.250000000000000E-002   -1.918508947774622E-018
  1.260000000000000E-002    6.701414608512146E-018
  1.270000000000000E-002    1.597533015109194E-017
  1.280000000000000E-002    2.523809202246022E-017
  1.290000000000000E-002    3.373624532812194E-017
  1.300000000000000E-002    4.067844320254111E-017
  1.310000000000000E-002    4.529552115631604E-017
  1.320000000000000E-002    4.690644538528821E-017
  1.330000000000000E-002    4.498535196015519E-017
  1.340000000000000E-002    3.922431904501123E-017
  1.350000000000000E-002    2.958602401682746E-017
  1.360000000000000E-002    1.634077934816833E-017
  1.370000000000000E-002    8.297372992865910E-020
  1.380000000000000E-002   -1.827693441281161E-017
  1.390000000000000E-002   -3.754708397550419E-017
  1.400000000000000E-002   -5.631586504311007E-017
  1.410000000000000E-002   -7.303869238638142E-017
  1.420000000000000E-002   -8.614572860880463E-017
  1.430000000000000E-002   -9.416419105813138E-017
  1.440000000000000E-002   -9.584707134148055E-017
  1.450000000000000E-002   -9.029852916369161E-017
  1.460000000000000E-002   -7.708550272497201E-017
  1.470000000000000E-002   -5.632507528274835E-017
  1.480000000000000E-002   -2.873789955719090E-017
  1.490000000000000E-002    4.340253832154323E-018
  1.500000000000000E-002    4.099431050894182E-017
  1.510000000000000E-002    7.881526120759480E-017
  1.520000000000000E-002    1.150336226450393E-016
  1.530000000000000E-002    1.466954749379218E-016
  1.540000000000000E-002    1.708716397716302E-016
  1.550000000000000E-002    1.848870035237254E-016
  1.560000000000000E-002    1.865540760818428E-016
  1.570000000000000E-002    1.743928224947685E-016
  1.580000000000000E-002    1.478182495773772E-016
  1.590000000000000E-002    1.072779439272607E-016
  1.600000000000000E-002    5.432379738364419E-017
  1.610000000000000E-002   -8.394058127068055E-018
  1.620000000000000E-002   -7.721829557030651E-017
  1.630000000000000E-002   -1.476614037175706E-016
  1.640000000000000E-002   -2.146633802589335E-016
  1.650000000000000E-002   -2.729176810543363E-016
  1.660000000000000E-002   -3.172468054898817E-016
  1.670000000000000E-002   -3.430030855373591E-016
  1.680000000000000E-002   -3.464664252792455E-016
  1.690000000000000E-002   -3.252079372290435E-016
  1.700000000000000E-002   -2.783889813686061E-016
  1.710000000000000E-002   -2.069668469262015E-016
  1.720000000000000E-002   -1.137835868196705E-016
  1.730000000000000E-002   -3.521310550018928E-018
  1.740000000000000E-002    1.174836661000967E-016
  1.750000000000000E-002    2.415651805734215E-016
  1.760000000000000E-002    3.601764716456215E-016
  1.770000000000000E-002    4.644401505049200E-016
  1.780000000000000E-002    5.457649570989552E-016
  1.790000000000000E-002    5.964880711128880E-016
  1.800000000000000E-002    6.104963329370442E-016
  1.810000000000000E-002    5.837786599390527E-016
  1.820000000000000E-002    5.148642571771220E-016
  1.830000000000000E-002    4.051057824618729E-016
  1.840000000000000E-002    2.587779475091494E-016
  1.850000000000000E-002    8.297277766554671E-017
  1.860000000000000E-002   -1.127120209468684E-016
  1.870000000000000E-002   -3.166798087093202E-016