 -4.000000000000000E-002    0.000000000000000E+000
 -3.990000000000000E-002    0.000000000000000E+000
 -3.980000000000000E-002    0.000000000000000E+000
 -3.970000000000000E-002    0.000000000000000E+000
 -3.960000000000000E-002    0.000000000000000E+000
 -3.950000000000000E-002    0.000000000000000E+000
 -3.940000000000000E-002    0.000000000000000E+000
 -3.930000000000000E-002    0.000000000000000E+000
 -3.920000000000000E-002    0.000000000000000E+000
 -3.910000000000000E-002    0.000000000000000E+000
 -3.900000000000000E-002    0.000000000000000E+000
 -3.890000000000000E-002    0.000000000000000E+000
 -3.880000000000000E-002    0.000000000000000E+000
 -3.870000000000000E-002    0.000000000000000E+000
 -3.860000000000000E-002    0.000000000000000E+000
 -3.850000000000000E-002    0.000000000000000E+000
 -3.840000000000000E-002    0.000000000000000E+000
 -3.830000000000000E-002    0.000000000000000E+000
 -3.820000000000000E-002    0.000000000000000E+000
 -3.810000000000000E-002    0.000000000000000E+000
 -3.800000000000000E-002    0.000000000000000E+000
 -3.790000000000000E-002    0.000000000000000E+000
 -3.780000000000000E-002    0.000000000000000E+000
 -3.770000000000000E-002    0.000000000000000E+000
 -3.760000000000000E-002    0.000000000000000E+000
 -3.750000000000000E-002    0.000000000000000E+000
 -3.740000000000000E-002    0.000000000000000E+000
 -3.730000000000000E-002    0.000000000000000E+000
 -3.720000000000000E-002    0.000000000000000E+000
 -3.710000000000000E-002    0.000000000000000E+000
 -3.700000000000000E-002    0.000000000000000E+000
 -3.690000000000000E-002    0.000000000000000E+000
 -3.680000000000000E-002    0.000000000000000E+000
 -3.670000000000000E-002    0.000000000000000E+000
 -3.660000000000000E-002    0.000000000000000E+000
 -3.650000000000000E-002    0.000000000000000E+000
 -3.640000000000000E-002   -9.954539397249388E-048
 -3.630000000000000E-002    4.771284882490643E-048
 -3.620000000000000E-002    3.422293344197071E-047
 -3.610000000000000E-002    9.347590115186787E-047
 -3.600000000000000E-002    3.066182099141867E-046
 -3.590000000000000E-002    4.905394727488607E-046
 -3.580000000000000E-002    9.227779268957170E-046
 -3.570000000000000E-002    1.424526113817856E-045
 -3.560000000000000E-002    1.451569579268574E-045
 -3.550000000000000E-002    7.314627151569997E-047
 -3.540000000000000E-002   -4.759860672452351E-045
 -3.530000000000000E-002   -1.854945549225818E-044
 -3.520000000000000E-002   -4.971312781848885E-044
 -3.510000000000000E-002   -1.176935183729592E-043
 -3.500000000000000E-002   -2.495430002630084E-043
 -3.490000000000000E-002   -4.867492452322702E-043
 -3.480000000000000E-002   -8.784299730616045E-043
 -3.470000000000000E-002   -1.466534861643136E-042
 -3.460000000000000E-002   -2.234739985755746E-042
 -3.450000000000000E-002   -3.003488763532963E-042
 -3.440000000000000E-002   -3.236549140228313E-042
 -3.430000000000000E-002   -1.695834821476282E-042
 -3.420000000000000E-002    4.092569906394576E-042
 -3.410000000000000E-002    1.860023366393100E-041
 -3.400000000000000E-002    4.926068641010238E-041
 -3.390000000000000E-002    1.074451831279712E-040
 -3.380000000000000E-002    2.090086763904905E-040
 -3.370000000000000E-002    3.734993550915178E-040
 -3.360000000000000E-002    6.204531169673186E-040
 -3.350000000000000E-002    9.602814787824958E-040
 -3.340000000000000E-002    1.376209411854377E-039
 -3.330000000000000E-002    1.792754722128326E-039
 -3.320000000000000E-002    2.025808630149618E-039
 -3.310000000000000E-002    1.710444494524537E-039
 -3.300000000000000E-002    2.062745462940988E-040
 -3.290000000000000E-002   -3.511536269847846E-039
 -3.280000000000000E-002   -1.095254921165422E-038
 -3.270000000000000E-002   -2.415564216358383E-038
 -3.260000000000000E-002   -4.559637031273633E-038
 -3.250000000000000E-002   -7.783060846982392E-038
 -3.240000000000000E-002   -1.226963719737905E-037
 -3.230000000000000E-002   -1.798473820925244E-037
 -3.220000000000000E-002   -2.443655831461204E-037
 -3.210000000000000E-002   -3.032266728802595E-037
 -3.200000000000000E-002   -3.305164868334266E-037
 -3.190000000000000E-002   -2.815774945212416E-037
 -3.180000000000000E-002   -8.676949871657300E-038
 -3.170000000000000E-002    3.536747776640641E-037
 -3.160000000000000E-002    1.171085459726116E-036
 -3.150000000000000E-002    2.522013365780614E-036
 -3.140000000000000E-002    4.568372543455384E-036
 -3.130000000000000E-002    7.436722639474530E-036
 -3.120000000000000E-002    1.114830145060803E-035
 -3.110000000000000E-002    1.551171540778805E-035
 -3.100000000000000E-002    1.997290606132714E-035
 -3.090000000000000E-002    2.342361507413849E-035
 -3.080000000000000E-002    2.398141816090031E-035
 -3.070000000000000E-002    1.877322534423232E-035
 -3.060000000000000E-002    3.780539080148968E-036
 -3.050000000000000E-002   -2.616144261596190E-035
 -3.040000000000000E-002   -7.707999369379800E-035
 -3.030000000000000E-002   -1.551276309932567E-034
 -3.020000000000000E-002   -2.651954013568666E-034
 -3.010000000000000E-002   -4.086791056822149E-034
 -3.000000000000000E-002   -5.802452750351039E-034
 -2.990000000000000E-002   -7.635584992121306E-034
 -2.980000000000000E-002   -9.261444132776313E-034
 -2.970000000000000E-002   -1.013895323854590E-033
 -2.960000000000000E-002   -9.461915073258341E-034
 -2.950000000000000E-002   -6.132032558204756E-034
 -2.940000000000000E-002    1.223935524541349E-034
 -2.930000000000000E-002    1.416391518580686E-033
 -2.920000000000000E-002    3.423330238478486E-033
 -2.910000000000000E-002    6.262592051007817E-033
 -2.900000000000000E-002    9.967413225424506E-033
 -2.890000000000000E-002    1.441551253628611E-032
 -2.880000000000000E-002    1.924302764473850E-032
 -2.870000000000000E-002    2.374808205007406E-032
 -2.860000000000000E-002    2.679670740234125E-032
 -2.850000000000000E-002    2.675183917428843E-032
 -2.840000000000000E-002    2.145505352642337E-032
 -2.830000000000000E-002    8.299383200519208E-033
 -2.820000000000000E-002   -1.556196762854461E-032
 -2.810000000000000E-002   -5.282461827498364E-032
 -2.800000000000000E-002   -1.054198942015379E-031
 -2.790000000000000E-002   -1.736583335926148E-031
 -2.780000000000000E-002   -2.551423328542318E-031
 -2.770000000000000E-002   -3.435122305056995E-031
 -2.760000000000000E-002   -4.271602376962401E-031
 -2.750000000000000E-002   -4.881324838249356E-031
 -2.740000000000000E-002   -5.015331202034144E-031
 -2.730000000000000E-002   -4.358335053662961E-031
 -2.720000000000000E-002   -2.545539646947878E-031
 -2.710000000000000E-002    8.019976986058834E-032
 -2.700000000000000E-002    6.019298404568074E-031
 -2.690000000000000E-002    1.331429720533843E-030
 -2.680000000000000E-002    2.266037321872515E-030
 -2.670000000000000E-002    3.367008376921227E-030
 -2.660000000000000E-002    4.546187009211106E-030
 -2.650000000000000E-002    5.653894370172204E-030
 -2.640000000000000E-002    6.470756215930633E-030
 -2.630000000000000E-002    6.706911114558668E-030
 -2.620000000000000E-002    6.012550173549801E-030
 -2.610000000000000E-002    4.003805882671023E-030
 -2.600000000000000E-002    3.074336032600606E-031
 -2.590000000000000E-002   -5.373732637439600E-030
 -2.580000000000000E-002   -1.317505776031427E-029
 -2.570000000000000E-002   -2.296824196299150E-029
 -2.560000000000000E-002   -3.425208895053469E-029
 -2.550000000000000E-002   -4.605006985238256E-029
 -2.540000000000000E-002   -5.683440730871733E-029
 -2.530000000000000E-002   -6.450123274256550E-029
 -2.520000000000000E-002   -6.642451293219589E-029
 -2.510000000000000E-002   -5.961628323105658E-029
 -2.500000000000000E-002   -4.101621695026750E-029
 -2.490000000000000E-002   -7.923118904588197E-030
 -2.480000000000000E-002    4.143604727397544E-029
 -2.470000000000000E-002    1.072276410345297E-028
 -2.460000000000000E-002    1.872810891821241E-028
 -2.450000000000000E-002    2.763973412879916E-028
 -2.440000000000000E-002    3.658193477116812E-028
 -2.430000000000000E-002    4.430145758580500E-028
 -2.420000000000000E-002    4.919338367732850E-028
 -2.410000000000000E-002    4.939047951052738E-028
 -2.400000000000000E-002    4.292858199686500E-028
 -2.390000000000000E-002    2.799392742834836E-028
 -2.380000000000000E-002    3.248086613906509E-029
 -2.370000000000000E-002   -3.178747666328827E-028
 -2.360000000000000E-002   -7.632153263490949E-028
 -2.350000000000000E-002   -1.279096781083479E-027
 -2.340000000000000E-002   -1.821653514871780E-027
 -2.330000000000000E-002   -2.326452837773931E-027
 -2.320000000000000E-002   -2.709937638434077E-027
 -2.310000000000000E-002   -2.874229037186265E-027
 -2.300000000000000E-002   -2.715846785163445E-027
 -2.290000000000000E-002   -2.138520765796229E-027
 -2.280000000000000E-002   -1.069711892473854E-027
 -2.270000000000000E-002    5.202370577943072E-028
 -2.260000000000000E-002    2.598201246825358E-027
 -2.250000000000000E-002    5.050303436631646E-027
 -2.240000000000000E-002    7.669240569970258E-027
 -2.230000000000000E-002    1.015070470583809E-026
 -2.220000000000000E-002    1.210269115092582E-026
 -2.210000000000000E-002    1.307093330131235E-026
 -2.200000000000000E-002    1.258243765024259E-026
 -2.190000000000000E-002    1.020711518954745E-026
 -2.180000000000000E-002    5.634797584901283E-027
 -2.170000000000000E-002   -1.238264265554609E-027
 -2.160000000000000E-002   -1.022278804919185E-026
 -2.150000000000000E-002   -2.076234096672844E-026
 -2.140000000000000E-002   -3.188680355159329E-026
 -2.130000000000000E-002   -4.220956762001734E-026
 -2.120000000000000E-002   -4.998382415070309E-026
 -2.110000000000000E-002   -5.322971931777786E-026
 -2.100000000000000E-002   -4.993803729414988E-026
 -2.090000000000000E-002   -3.834675544054025E-026
 -2.080000000000000E-002   -1.727538626805251E-026
 -2.070000000000000E-002    1.351132734605232E-026
 -2.060000000000000E-002    5.295200157715866E-026
 -2.050000000000000E-002    9.840297569553118E-026
 -2.040000000000000E-002    1.454796316945570E-025
 -2.030000000000000E-002    1.880878457649816E-025
 -2.020000000000000E-002    2.187018427664928E-025
 -2.010000000000000E-002    2.289291179883006E-025
 -2.000000000000000E-002    2.103754911632349E-025
 -1.990000000000000E-002    1.557873469730024E-025
 -1.980000000000000E-002    6.040296313471028E-026
 -1.970000000000000E-002   -7.660334546708819E-026
 -1.960000000000000E-002   -2.507484623344964E-025
 -1.950000000000000E-002   -4.511426853425951E-025
 -1.940000000000000E-002   -6.598944370560056E-025
 -1.930000000000000E-002   -8.522470110998303E-025
 -1.920000000000000E-002   -9.976474816231381E-025
 -1.910000000000000E-002   -1.061887502273205E-024
 -1.900000000000000E-002   -1.010355640084507E-024
 -1.890000000000000E-002   -8.123136453602220E-025
 -1.880000000000000E-002   -4.459515123907212E-025
 -1.870000000000000E-002    9.618953053884028E-026
 -1.860000000000000E-002    8.019992305827698E-025
 -1.850000000000000E-002    1.635493026408468E-024
 -1.840000000000000E-002    2.534210261770569E-024
 -1.830000000000000E-002    3.409115500615051E-024
 -1.820000000000000E-002    4.147715292804885E-024
 -1.810000000000000E-002    4.620903323530589E-024
 -1.800000000000000E-002    4.693735359560825E-024
 -1.790000000000000E-002    4.239914853804562E-024
 -1.780000000000000E-002    3.159255541003002E-024
 -1.770000000000000E-002    1.396841433407558E-024
 -1.760000000000000E-002   -1.037953012348155E-024
 -1.750000000000000E-002   -4.054884205718386E-024
 -1.740000000000000E-002   -7.471336554605922E-024
 -1.730000000000000E-002   -1.100861378740473E-023
 -1.720000000000000E-002   -1.429854009077346E-023
 -1.710000000000000E-002   -1.690231732649000E-023
 -1.700000000000000E-002   -1.834264247054542E-023
 -1.690000000000000E-002   -1.814875727822648E-023
 -1.680000000000000E-002   -1.591249750221934E-023
 -1.670000000000000E-002   -1.135157838614449E-023
 -1.660000000000000E-002   -4.374505887766387E-024
 -1.650000000000000E-002    4.860112781942729E-024
 -1.640000000000000E-002    1.589831240484403E-023
 -1.630000000000000E-002    2.796846971518469E-023
 -1.620000000000000E-002    3.999042707279681E-023
 -1.610000000000000E-002    5.062283389055114E-023
 -1.600000000000000E-002    5.835270611114282E-023
 -1.590000000000000E-002    6.162704789291323E-023
 -1.580000000000000E-002    5.902142810446984E-023
 -1.570000000000000E-002    4.943455533295948E-023
 -1.560000000000000E-002    3.229223270486409E-023
 -1.550000000000000E-002    7.738814789936131E-024
 -1.540000000000000E-002   -2.320946564845827E-023
 -1.530000000000000E-002   -5.857645119472501E-023
 -1.520000000000000E-002   -9.542918160515605E-023
 -1.510000000000000E-002   -1.299931201550059E-022
 -1.500000000000000E-002   -1.578919957416718E-022
 -1.490000000000000E-002   -1.745128121945649E-022
 -1.480000000000000E-002   -1.754817554527040E-022
 -1.470000000000000E-002   -1.572204974452677E-022
 -1.460000000000000E-002   -1.175359473865755E-022
 -1.450000000000000E-002   -5.618223581755583E-023
 -1.440000000000000E-002    2.467645925842931E-023
 -1.430000000000000E-002    1.201774618235219E-022
 -1.420000000000000E-002    2.227166909586626E-022
 -1.410000000000000E-002    3.222091666631538E-022
 -1.400000000000000E-002    4.066880277617414E-022
 -1.390000000000000E-002    4.632460396232351E-022
 -1.380000000000000E-002    4.792854844944918E-022
 -1.370000000000000E-002    4.440007340500513E-022
 -1.360000000000000E-002    3.499766386164795E-022
 -1.350000000000000E-002    1.947499430431188E-022
 -1.340000000000000E-002   -1.784544043733356E-023
 -1.330000000000000E-002   -2.767399377772271E-022
 -1.320000000000000E-002   -5.632807423495947E-022
 -1.310000000000000E-002   -8.516321092901662E-022
 -1.300000000000000E-002   -1.110031530372771E-021
 -1.290000000000000E-002   -1.302942313041132E-021
 -1.280000000000000E-002   -1.394056425173256E-021
 -1.270000000000000E-002   -1.350007700485048E-021
 -1.260000000000000E-002   -1.144555444755397E-021
 -1.250000000000000E-002   -7.629042651965662E-022
 -1.240000000000000E-002   -2.057493320558308E-022
 -1.230000000000000E-002    5.074197405230689E-022
 -1.220000000000000E-002    1.336241861036168E-021
 -1.210000000000000E-002    2.219096610111959E-021
 -1.200000000000000E-002    3.074799385274065E-021
 -1.190000000000000E-002    3.806649830594921E-021
 -1.180000000000000E-002    4.308933312056857E-021
 -1.170000000000000E-002    4.475756349408440E-021
 -1.160000000000000E-002    4.211840987018715E-021
 -1.150000000000000E-002    3.444632155001317E-021
 -1.140000000000000E-002    2.136793289128628E-021
 -1.130000000000000E-002    2.979190369272833E-022
 -1.120000000000000E-002   -2.005895363275949E-021
 -1.110000000000000E-002   -4.646086509242983E-021
 -1.100000000000000E-002   -7.430686941308653E-021
 -1.090000000000000E-002   -1.010966566387640E-020
 -1.080000000000000E-002   -1.238743394926415E-020
 -1.070000000000000E-002   -1.394286461243130E-020
 -1.060000000000000E-002   -1.445643874586376E-020
 -1.050000000000000E-002   -1.364332379671065E-020
 -1.040000000000000E-002   -1.129023115537271E-020
 -1.030000000000000E-002   -7.293023268668193E-021
 -1.020000000000000E-002   -1.691240134044094E-021
 -1.010000000000000E-002    5.304805979651152E-021
 -1.000000000000000E-002    1.329889224545980E-020
 -9.899999999999999E-003    2.170992217497430E-020
 -9.800000000000000E-003    2.979251587912624E-020
 -9.699999999999999E-003    3.667907235540040E-020
 -9.599999999999999E-003    4.144330642579244E-020
 -9.500000000000000E-003    4.318287426007422E-020
 -9.399999999999999E-003    4.111608859623421E-020
 -9.299999999999999E-003    3.468522863370145E-020
 -9.200000000000000E-003    2.365669426476293E-020
 -9.099999999999999E-003    8.206746875485912E-021
 -8.999999999999999E-003   -1.101893786695758E-020
 -8.900000000000000E-003   -3.288301382934828E-020
 -8.799999999999999E-003   -5.578050750058068E-020
 -8.699999999999999E-003   -7.771476932057350E-020
 -8.600000000000000E-003   -9.642624594027295E-020
 -8.499999999999999E-003   -1.095695220348124E-019
 -8.399999999999999E-003   -1.149281832831283E-019
 -8.300000000000000E-003   -1.106514343125146E-019
 -8.199999999999999E-003   -9.549173664846261E-020
 -8.100000000000000E-003   -6.901963501242451E-020
 -8.000000000000000E-003   -3.179091988435234E-020
 -7.899999999999999E-003    1.455700149591144E-020
 -7.800000000000000E-003    6.729854968473072E-020
 -7.699999999999999E-003    1.227154179905147E-019
 -7.599999999999999E-003    1.762975138857425E-019
 -7.499999999999999E-003    2.230427091902531E-019
 -7.399999999999999E-003    2.578385714829908E-019
 -7.299999999999999E-003    2.758993845341499E-019
 -7.199999999999999E-003    2.732243893527596E-019
 -7.100000000000000E-003    2.470377680188308E-019
 -6.999999999999999E-003    1.961699703560432E-019
 -6.899999999999999E-003    1.213420196726987E-019
 -6.800000000000000E-003    2.532078833899411E-020
 -6.699999999999999E-003   -8.707750660539005E-020
 -6.599999999999999E-003   -2.091461119133608E-019
 -6.499999999999999E-003   -3.326068816679687E-019
 -6.399999999999999E-003   -4.480739481345331E-019
 -6.299999999999999E-003   -5.456350917384178E-019
 -6.199999999999999E-003   -6.155143923487491E-019
 -6.100000000000000E-003   -6.487734226500889E-019
 -5.999999999999999E-003   -6.380064812758754E-019
 -5.899999999999999E-003   -5.779861774106202E-019
 -5.800000000000000E-003   -4.662201524772879E-019
 -5.699999999999999E-003   -3.033863417081874E-019
 -5.599999999999999E-003   -9.362184214045397E-020
 -5.499999999999999E-003    1.553515973213564E-019
 -5.399999999999999E-003    4.322754507815232E-019
 -5.299999999999999E-003    7.225812475326241E-019
 -5.199999999999999E-003    1.008797865559729E-018
 -5.099999999999999E-003    1.271140213130278E-018
 -4.999999999999999E-003    1.488279652835768E-018
 -4.899999999999999E-003    1.638297560701727E-018
 -4.799999999999999E-003    1.699819563645368E-018
 -4.699999999999999E-003    1.653326145011430E-018
 -4.599999999999999E-003    1.482623773887904E-018
 -4.499999999999999E-003    1.176447515571303E-018
 -4.399999999999999E-003    7.301440316861733E-019
 -4.299999999999999E-003    1.473573935183257E-019
 -4.199999999999999E-003   -5.583915747588306E-019
 -4.099999999999999E-003   -1.362376081874303E-018
 -3.999999999999999E-003   -2.227759133994378E-018
 -3.899999999999999E-003   -3.105317048678615E-018
 -3.799999999999999E-003   -3.934006238903009E-018
 -3.699999999999999E-003   -4.642586287394263E-018
 -3.599999999999999E-003   -5.152483910389024E-018
 -3.499999999999999E-003   -5.382025243285486E-018
 -3.399999999999999E-003   -5.252075738091962E-018
 -3.299999999999999E-003   -4.692996796516131E-018
 -3.199999999999999E-003   -3.652678536795665E-018
 -3.099999999999999E-003   -2.105224900909673E-018
 -2.999999999999999E-003   -5.967011920132770E-020
 -2.899999999999999E-003    2.432072251202924E-018
 -2.799999999999999E-003    5.268992793457231E-018
 -2.699999999999999E-003    8.297566115951843E-018
 -2.599999999999999E-003    1.131221141513931E-017
 -2.499999999999999E-003    1.406062768612912E-017
 -2.399999999999999E-003    1.625477946571352E-017
 -2.299999999999999E-003    1.758793044496604E-017
 -2.199999999999999E-003    1.775763934025505E-017
 -2.099999999999999E-003    1.649396245411128E-017
 -1.999999999999999E-003    1.359142088753147E-017
 -1.899999999999999E-003    8.942517289269308E-018
 -1.799999999999999E-003    2.569903279274436E-018
 -1.699999999999999E-003   -5.346309388851889E-018
 -1.599999999999999E-003   -1.444987246289870E-017
 -1.499999999999999E-003   -2.420222859336145E-017
 -1.399999999999999E-003   -3.389225513241636E-017
 -1.299999999999999E-003   -4.266452696119490E-017
 -1.199999999999999E-003   -4.956739304936020E-017
 -1.099999999999999E-003   -5.362043354663417E-017
 -9.999999999999989E-004   -5.389879529625623E-017
 -8.999999999999990E-004   -4.962969191670582E-017
 -7.999999999999990E-004   -4.029414316760027E-017
 -6.999999999999989E-004   -2.572510012304763E-017
 -5.999999999999990E-004   -6.191693702691714E-018
 -4.999999999999989E-004    1.754126651382508E-017
 -3.999999999999989E-004    4.418907344553191E-017
 -2.999999999999989E-004    7.196713156764580E-017
 -1.999999999999989E-004    9.866156349987163E-017
 -9.999999999999892E-005    1.217527507786263E-016
  1.084202172485504E-018    1.385895701677484E-016
  1.000000000000011E-004    1.466066033082150E-016
  2.000000000000011E-004    1.435711612675877E-016
  3.000000000000011E-004    1.278417408788511E-016
  4.000000000000011E-004    9.861555794094649E-017
  5.000000000000011E-004    5.614001953823214E-017
  6.000000000000011E-004    1.862597731833421E-018
  7.000000000000011E-004   -6.150463820233341E-017
  8.000000000000011E-004   -1.300250452275910E-016
  9.000000000000012E-004   -1.986941634090404E-016
  1.000000000000001E-003   -2.617163649198285E-016
  1.100000000000001E-003   -3.128935287004668E-016
  1.200000000000001E-003   -3.461064100345291E-016
  1.300000000000001E-003   -3.558581866287836E-016
  1.400000000000001E-003   -3.378395868090832E-016
  1.500000000000001E-003   -2.894679421001528E-016
  1.600000000000001E-003   -2.103481927338891E-016
  1.700000000000001E-003   -1.026051799281674E-016
  1.800000000000001E-003    2.895881665798760E-017
  1.900000000000001E-003    1.769166142891432E-016
  2.000000000000001E-003    3.314996398317179E-016
  2.100000000000001E-003    4.811153046832338E-016
  2.200000000000001E-003    6.130801851161605E-016
  2.300000000000001E-003    7.145310403925683E-016
  2.400000000000001E-003    7.734549306171909E-016
  2.500000000000001E-003    7.797646743127016E-016
  2.600000000000001E-003    7.263340152667892E-016
  2.700000000000001E-003    6.099023024957179E-016
  2.800000000000001E-003    4.317610464501873E-016
  2.900000000000001E-003    1.981464965492847E-016
  3.000000000000001E-003   -7.972164418342770E-017
  3.100000000000001E-003   -3.859884382378064E-016
  3.200000000000001E-003   -7.009052971009970E-016
  3.300000000000001E-003   -1.001938283705974E-015
  3.400000000000001E-003   -1.265186226971361E-015
  3.500000000000001E-003   -1.467024044550866E-015
  3.600000000000001E-003   -1.585863320308453E-015
  3.700000000000001E-003   -1.603907539591087E-015
  3.800000000000001E-003   -1.508773486231992E-015
  3.900000000000001E-003   -1.294854698316387E-015
  4.000000000000001E-003   -9.643141484923497E-016
  4.100000000000001E-003   -5.276187858021209E-016
  4.200000000000001E-003   -3.553546967072990E-018
  4.300000000000001E-003    5.813122154019936E-016
  4.400000000000001E-003    1.193699601929256E-015
  4.500000000000001E-003    1.795194598506109E-015
  4.600000000000002E-003    2.344253126996570E-015
  4.700000000000001E-003    2.798538095570156E-015
  4.800000000000001E-003    3.117476008391816E-015
  4.900000000000002E-003    3.264905387121960E-015
  5.000000000000001E-003    3.211683881108577E-015
  5.100000000000001E-003    2.938123586295705E-015
  5.200000000000001E-003    2.436124375913713E-015
  5.300000000000002E-003    1.710881972309155E-015
  5.400000000000001E-003    7.820581542598227E-016
  5.500000000000001E-003   -3.156957340971329E-016
  5.600000000000002E-003   -1.532954516854563E-015
  5.700000000000001E-003   -2.806563525009188E-015
  5.800000000000001E-003   -4.061573867037666E-015
  5.900000000000002E-003   -5.214114141281317E-015
  6.000000000000001E-003   -6.175205252371851E-015
  6.100000000000001E-003   -6.855482684936256E-015
  6.200000000000002E-003   -7.170719794157520E-015
  6.300000000000002E-003   -7.047985803108380E-015
  6.400000000000001E-003   -6.432163809937458E-015
  6.500000000000001E-003   -5.292485561853521E-015
  6.600000000000002E-003   -3.628627322554786E-015
  6.700000000000001E-003   -1.475850660149860E-015
  6.800000000000001E-003    1.091395182120790E-015
  6.900000000000002E-003    3.957994090861613E-015
  7.000000000000001E-003    6.969368155899941E-015
  7.100000000000001E-003    9.935823394520243E-015
  7.200000000000002E-003    1.264033417128688E-014
  7.300000000000002E-003    1.484983918516510E-014
  7.400000000000001E-003    1.632982921124098E-014
  7.500000000000001E-003    1.686169060144135E-014
  7.600000000000002E-003    1.626190504550046E-014
  7.700000000000001E-003    1.440188165255991E-014
  7.800000000000001E-003    1.122689367118067E-014
  7.900000000000001E-003    6.772396502358314E-015
  8.000000000000002E-003    1.175897902871347E-015
  8.100000000000001E-003   -5.317382785021729E-015
  8.200000000000001E-003   -1.235659482259595E-014
  8.300000000000002E-003   -1.949619618963666E-014
  8.400000000000001E-003   -2.621629619507852E-014
  8.500000000000002E-003   -3.195219416208774E-014
  8.600000000000002E-003   -3.613211511310426E-014
  8.700000000000001E-003   -3.822120458004748E-014
  8.800000000000002E-003   -3.776909669506826E-014
  8.900000000000002E-003   -3.445758078767239E-014
  9.000000000000001E-003   -2.814437319836087E-014
  9.100000000000002E-003   -1.889884405449010E-014
  9.200000000000002E-003   -7.025535347392493E-015
  9.300000000000001E-003    6.928118621400419E-015
  9.400000000000002E-003    2.218264528626639E-014
  9.500000000000001E-003    3.775750019449661E-014
  9.600000000000001E-003    5.252218048525892E-014
  9.700000000000002E-003    6.526580683234948E-014
  9.800000000000001E-003    7.478172719692300E-014
  9.900000000000001E-003    7.996205620398326E-014
  1.000000000000000E-002    7.989553200179964E-014
  1.010000000000000E-002    7.396121967438182E-014
  1.020000000000000E-002    6.190989427467853E-014
  1.030000000000000E-002    4.392527928288435E-014
  1.040000000000000E-002    2.065797108033407E-014
  1.050000000000000E-002   -6.773432554438252E-015
  1.060000000000000E-002   -3.681749972448971E-014
  1.070000000000000E-002   -6.756216429689282E-014
  1.080000000000000E-002   -9.684192999053642E-014
  1.090000000000000E-002   -1.223748578115598E-013
  1.100000000000000E-002   -1.419214348146431E-013
  1.110000000000000E-002   -1.534549292244112E-013
  1.120000000000000E-002   -1.553311473803089E-013
  1.130000000000000E-002   -1.464444112183954E-013
  1.140000000000000E-002   -1.263569989859994E-013
  1.150000000000000E-002   -9.539011252850113E-014
  1.160000000000000E-002   -5.466663425387777E-014
  1.170000000000000E-002   -6.099126694659332E-015
  1.180000000000000E-002    4.767997454401878E-014
  1.190000000000000E-002    1.034447431521598E-013
  1.200000000000000E-002    1.575532973275063E-013
  1.210000000000000E-002    2.061670464487473E-013
  1.220000000000000E-002    2.454985561722458E-013
  1.230000000000000E-002    2.720726013828943E-013
  1.240000000000000E-002    2.829830607300649E-013
  1.250000000000000E-002    2.761280848966690E-013
  1.260000000000000E-002    2.504066596969905E-013
  1.270000000000000E-002    2.058618883343171E-013
  1.280000000000000E-002    1.437591239663046E-013
  1.290000000000000E-002    6.659122065764460E-014
  1.300000000000000E-002   -2.199273009590969E-014
  1.310000000000000E-002   -1.173340463482596E-013
  1.320000000000000E-002   -2.139808350351959E-013
  1.330000000000000E-002   -3.059644661991482E-013
  1.340000000000000E-002   -3.871226544682944E-013
  1.350000000000000E-002   -4.514534148429614E-013
  1.360000000000000E-002   -4.934817735121927E-013
  1.370000000000000E-002   -5.086202546208391E-013
  1.380000000000000E-002   -4.935042910869001E-013
  1.390000000000000E-002   -4.462836898698060E-013
  1.400000000000000E-002   -3.668533800361185E-013
  1.410000000000000E-002   -2.570076353374935E-013
  1.420000000000000E-002   -1.205047502393270E-013
  1.430000000000000E-002    3.696792076687825E-014
  1.440000000000000E-002    2.079360520676917E-013
  1.450000000000000E-002    3.833901931743273E-013
  1.460000000000000E-002    5.531472143307485E-013
  1.470000000000000E-002    7.063143120830542E-013
  1.480000000000000E-002    8.318445393891384E-013
  1.490000000000000E-002    9.191655172536937E-013
  1.500000000000000E-002    9.588563614337084E-013
  1.510000000000000E-002    9.433425979576672E-013
  1.520000000000000E-002    8.675694421318188E-013
  1.530000000000000E-002    7.296122204235590E-013
  1.540000000000000E-002    5.311753854671746E-013
  1.550000000000000E-002    2.779337136492505E-013
  1.560000000000000E-002   -2.033132069787007E-014
  1.570000000000000E-002   -3.498396805074542E-013
  1.580000000000000E-002   -6.931955937208945E-013
  1.590000000000000E-002   -1.030060566136279E-012
  1.600000000000000E-002   -1.338114867170746E-012
  1.610000000000000E-002   -1.594282570667374E-012
  1.620000000000000E-002   -1.776174095941601E-012
  1.630000000000000E-002   -1.863674280323593E-012
  1.640000000000000E-002   -1.840583361371457E-012
  1.650000000000000E-002   -1.696199421677294E-012
  1.660000000000000E-002   -1.426719657708330E-012
  1.670000000000000E-002   -1.036331093476935E-012
  1.680000000000000E-002   -5.378704593817418E-013
  1.690000000000000E-002    4.705366538350974E-014
  1.700000000000000E-002    6.885553875353375E-013
  1.710000000000000E-002    1.349622944952086E-012
  1.720000000000000E-002    1.987924091574614E-012
  1.730000000000000E-002    2.558210016238550E-012
  1.740000000000000E-002    3.015204556481434E-012
  1.750000000000000E-002    3.316823993539870E-012
  1.760000000000000E-002    3.427516844320332E-012
  1.770000000000000E-002    3.321485841697676E-012
  1.780000000000000E-002    2.985535257667281E-012
  1.790000000000000E-002    2.421285769900090E-012
  1.800000000000000E-002    1.646523635937799E-012
  1.810000000000000E-002    6.954866974658812E-013
  1.820000000000000E-002   -3.820368425858952E-013
  1.830000000000000E-002   -1.522851837060048E-012
  1.840000000000000E-002   -2.653696814277707E-012
  1.850000000000000E-002   -3.695647226915301E-012
  1.860000000000000E-002   -4.569339923705618E-012
  1.870000000000000E-002   -5.200702825152159E-012