 -4.000000000000000E-002    0.000000000000000E+000
 -3.990000000000000E-002    0.000000000000000E+000
 -3.980000000000000E-002    0.000000000000000E+000
 -3.970000000000000E-002    0.000000000000000E+000
 -3.960000000000000E-002    0.000000000000000E+000
 -3.950000000000000E-002    0.000000000000000E+000
 -3.940000000000000E-002    0.000000000000000E+000
 -3.930000000000000E-002    0.000000000000000E+000
 -3.920000000000000E-002    0.000000000000000E+000
 -3.910000000000000E-002    0.000000000000000E+000
 -3.900000000000000E-002    0.000000000000000E+000
 -3.890000000000000E-002    0.000000000000000E+000
 -3.880000000000000E-002    2.002494987093971E-041
 -3.870000000000000E-002    4.614291720984623E-040
 -3.860000000000000E-002    5.484470305803308E-039
 -3.850000000000000E-002    4.474615714764949E-038
 -3.840000000000000E-002    2.813780434226371E-037
 -3.830000000000000E-002    1.451877673555514E-036
 -3.820000000000000E-002    6.390741746826331E-036
 -3.810000000000000E-002    2.463164475040589E-035
 -3.800000000000000E-002    8.467416504660108E-035
 -3.790000000000000E-002    2.630867788109667E-034
 -3.780000000000000E-002    7.459490734206924E-034
 -3.770000000000000E-002    1.943031321285542E-033
 -3.760000000000000E-002    4.668393788570982E-033
 -3.750000000000000E-002    1.035933045445397E-032
 -3.740000000000000E-002    2.118418457355215E-032
 -3.730000000000000E-002    3.961730982899971E-032
 -3.720000000000000E-002    6.654103373373946E-032
 -3.710000000000000E-002    9.607775910965788E-032
 -3.700000000000000E-002    1.041388622752831E-031
 -3.690000000000000E-002    2.627801634303379E-032
 -3.680000000000000E-002   -2.805557452620948E-031
 -3.670000000000000E-002   -1.097054160514336E-030
 -3.660000000000000E-002   -2.921350584175395E-030
 -3.650000000000000E-002   -6.557213106531578E-030
 -3.640000000000000E-002   -1.317354586108111E-029
 -3.630000000000000E-002   -2.425549798938038E-029
 -3.620000000000000E-002   -4.130267636282054E-029
 -3.610000000000000E-002   -6.504296990787402E-029
 -3.600000000000000E-002   -9.382981539514917E-029
 -3.590000000000000E-002   -1.208018691033074E-028
 -3.580000000000000E-002   -1.293556455308715E-028
 -3.570000000000000E-002   -8.659503450926921E-029
 -3.560000000000000E-002    6.520745468534537E-029
 -3.550000000000000E-002    4.183207380026352E-028
 -3.540000000000000E-002    1.108265778443113E-027
 -3.530000000000000E-002    2.317281734550317E-027
 -3.520000000000000E-002    4.265459810255512E-027
 -3.510000000000000E-002    7.178983826554274E-027
 -3.500000000000000E-002    1.122126229685063E-026
 -3.490000000000000E-002    1.636986055131931E-026
 -3.480000000000000E-002    2.222152493704665E-026
 -3.470000000000000E-002    2.771162567911196E-026
 -3.460000000000000E-002    3.074575359246019E-026
 -3.450000000000000E-002    2.776365933848107E-026
 -3.440000000000000E-002    1.329225353837242E-026
 -3.430000000000000E-002   -2.040244768230210E-026
 -3.420000000000000E-002   -8.338508972437872E-026
 -3.410000000000000E-002   -1.875811037854775E-025
 -3.400000000000000E-002   -3.454232225371339E-025
 -3.390000000000000E-002   -5.672037436121663E-025
 -3.380000000000000E-002   -8.567035808048059E-025
 -3.370000000000000E-002   -1.204735866890120E-024
 -3.360000000000000E-002   -1.580444430450100E-024
 -3.350000000000000E-002   -1.920585385657355E-024
 -3.340000000000000E-002   -2.117643232180950E-024
 -3.330000000000000E-002   -2.008516296705552E-024
 -3.320000000000000E-002   -1.366637771552285E-024
 -3.310000000000000E-002    9.829294024909384E-026
 -3.300000000000000E-002    2.727462047199584E-024
 -3.290000000000000E-002    6.880398119816624E-024
 -3.280000000000000E-002    1.287569503116178E-023
 -3.270000000000000E-002    2.089864421683394E-023
 -3.260000000000000E-002    3.087179866697574E-023
 -3.250000000000000E-002    4.228913015735671E-023
 -3.240000000000000E-002    5.402192550386565E-023
 -3.230000000000000E-002    6.411496726217901E-023
 -3.220000000000000E-002    6.960484462301359E-023
 -3.210000000000000E-002    6.640742529824602E-023
 -3.200000000000000E-002    4.933698842349909E-023
 -3.190000000000000E-002    1.233242225432010E-023
 -3.180000000000000E-002   -5.102727380002057E-023
 -3.170000000000000E-002   -1.466401445696987E-022
 -3.160000000000000E-002   -2.785734063005686E-022
 -3.150000000000000E-002   -4.473138669145496E-022
 -3.140000000000000E-002   -6.476265274102554E-022
 -3.130000000000000E-002   -8.661640116111079E-022
 -3.120000000000000E-002   -1.079086298075933E-021
 -3.110000000000000E-002   -1.250083881994226E-021
 -3.100000000000000E-002   -1.329333414235464E-021
 -3.090000000000000E-002   -1.254031422523707E-021
 -3.080000000000000E-002   -9.512196739222387E-022
 -3.070000000000000E-002   -3.436040525736409E-022
 -3.060000000000000E-002    6.410630911660664E-022
 -3.050000000000000E-002    2.056752667516215E-021
 -3.040000000000000E-002    3.922250793789810E-021
 -3.030000000000000E-002    6.201389650837111E-021
 -3.020000000000000E-002    8.782035092785693E-021
 -3.010000000000000E-002    1.145636084239422E-020
 -3.000000000000000E-002    1.390586791900707E-020
 -2.990000000000000E-002    1.569540485930251E-020
 -2.980000000000000E-002    1.628095206236700E-020
 -2.970000000000000E-002    1.503594844820225E-020
 -2.960000000000000E-002    1.130023423323955E-020
 -2.950000000000000E-002    4.454137493257845E-021
 -2.940000000000000E-002   -5.982348056654762E-021
 -2.930000000000000E-002   -2.022886755723622E-020
 -2.920000000000000E-002   -3.811049030863379E-020
 -2.910000000000000E-002   -5.892291943971093E-020
 -2.900000000000000E-002   -8.131501566279248E-020
 -2.890000000000000E-002   -1.032108702145566E-019
 -2.880000000000000E-002   -1.217962695645725E-019
 -2.870000000000000E-002   -1.335948244949303E-019
 -2.860000000000000E-002   -1.346557633828270E-019
 -2.850000000000000E-002   -1.208681958828667E-019
 -2.840000000000000E-002   -8.840509532774420E-020
 -2.830000000000000E-002   -3.428384918473895E-020
 -2.820000000000000E-002    4.298890981323495E-020
 -2.810000000000000E-002    1.427424621784519E-019
 -2.800000000000000E-002    2.615122835542589E-019
 -2.790000000000000E-002    3.925485511096905E-019
 -2.780000000000000E-002    5.255669282804957E-019
 -2.770000000000000E-002    6.468462595825395E-019
 -2.760000000000000E-002    7.397645163795894E-019
 -2.750000000000000E-002    7.858362285396625E-019
 -2.740000000000000E-002    7.662683456343484E-019
 -2.730000000000000E-002    6.639922201296657E-019
 -2.720000000000000E-002    4.660572131749115E-019
 -2.710000000000000E-002    1.661954883116810E-019
 -2.700000000000000E-002   -2.327047839868958E-019
 -2.690000000000000E-002   -7.165381138193740E-019
 -2.680000000000000E-002   -1.258683288751650E-018
 -2.670000000000000E-002   -1.819814236076658E-018
 -2.660000000000000E-002   -2.349114962753556E-018
 -2.650000000000000E-002   -2.787092326605780E-018
 -2.640000000000000E-002   -3.070030207527425E-018
 -2.630000000000000E-002   -3.135938429652449E-018
 -2.620000000000000E-002   -2.931630847838392E-018
 -2.610000000000000E-002   -2.420348453026504E-018
 -2.600000000000000E-002   -1.589146137307488E-018
 -2.590000000000000E-002   -4.551175919430866E-019
 -2.580000000000000E-002    9.305173950720711E-019
 -2.570000000000000E-002    2.481392424556415E-018
 -2.560000000000000E-002    4.078779645884334E-018
 -2.550000000000000E-002    5.578612072557603E-018
 -2.540000000000000E-002    6.822738135353343E-018
 -2.530000000000000E-002    7.653890882843574E-018
 -2.520000000000000E-002    7.933299945833306E-018
 -2.510000000000000E-002    7.559336770604421E-018
 -2.500000000000000E-002    6.485165188160870E-018
 -2.490000000000000E-002    4.733097603835913E-018
 -2.480000000000000E-002    2.403338831173854E-018
 -2.470000000000000E-002   -3.249499779741277E-019
 -2.460000000000000E-002   -3.201774817355215E-018
 -2.450000000000000E-002   -5.924293322198492E-018
 -2.440000000000000E-002   -8.164271367197199E-018
 -2.430000000000000E-002   -9.603413562594864E-018
 -2.420000000000000E-002   -9.973778086756399E-018
 -2.410000000000000E-002   -9.099381580456056E-018
 -2.400000000000000E-002   -6.934336376207760E-018
 -2.390000000000000E-002   -3.592464432086125E-018
 -2.380000000000000E-002    6.365016740591324E-019
 -2.370000000000000E-002    5.288303427846852E-018
 -2.360000000000000E-002    9.745986973590609E-018
 -2.350000000000000E-002    1.328322987734702E-017
 -2.340000000000000E-002    1.512807651231481E-017
 -2.330000000000000E-002    1.454363705296351E-017
 -2.320000000000000E-002    1.092000768950956E-017
 -2.310000000000000E-002    3.869795837736700E-018
 -2.300000000000000E-002   -6.681877476190234E-018
 -2.290000000000000E-002   -2.042270193912633E-017
 -2.280000000000000E-002   -3.660347562693308E-017
 -2.270000000000000E-002   -5.402203853172361E-017
 -2.260000000000000E-002   -7.104761702280624E-017
 -2.250000000000000E-002   -8.568977642561185E-017
 -2.240000000000000E-002   -9.571302301347573E-017
 -2.230000000000000E-002   -9.879468675751143E-017
 -2.220000000000000E-002   -9.272004753931165E-017
 -2.210000000000000E-002   -7.560521611715779E-017
 -2.200000000000000E-002   -4.613494666025614E-017
 -2.190000000000000E-002   -3.799830654810445E-018
 -2.180000000000000E-002    5.088531999903993E-017
 -2.170000000000000E-002    1.162017342059873E-016
 -2.160000000000000E-002    1.891066502892114E-016
 -2.150000000000000E-002    2.651943997481396E-016
 -2.140000000000000E-002    3.387589549983860E-016
 -2.130000000000000E-002    4.029759625646374E-016
 -2.120000000000000E-002    4.502180363701229E-016
 -2.110000000000000E-002    4.725098410566212E-016
 -2.100000000000000E-002    4.621203174526472E-016
 -2.090000000000000E-002    4.122766326176074E-016
 -2.080000000000000E-002    3.179688150032432E-016
 -2.070000000000000E-002    1.767969351213547E-016
 -2.060000000000000E-002   -1.020558610083265E-017
 -2.050000000000000E-002   -2.378561547841086E-016
 -2.040000000000000E-002   -4.963118090400138E-016
 -2.030000000000000E-002   -7.708662493056924E-016
 -2.020000000000000E-002   -1.042156260011681E-015
 -2.010000000000000E-002   -1.286863075645019E-015
 -2.000000000000000E-002   -1.478965674030773E-015
 -1.990000000000000E-002   -1.591556699150614E-015
 -1.980000000000000E-002   -1.599175676169186E-015
 -1.970000000000000E-002   -1.480542402287690E-015
 -1.960000000000000E-002   -1.221502010674425E-015
 -1.950000000000000E-002   -8.179188962871918E-016
 -1.940000000000000E-002   -2.782001416547345E-016
 -1.930000000000000E-002    3.749096170551781E-016
 -1.920000000000000E-002    1.103622749829204E-015
 -1.910000000000000E-002    1.855817165588448E-015
 -1.900000000000000E-002    2.567397105603254E-015
 -1.890000000000000E-002    3.166413711257791E-015
 -1.880000000000000E-002    3.578878766237606E-015
 -1.870000000000000E-002    3.735993122436595E-015
 -1.860000000000000E-002    3.582294080114254E-015
 -1.850000000000000E-002    3.084013818037138E-015
 -1.840000000000000E-002    2.236758126079428E-015
 -1.830000000000000E-002    1.071512927960944E-015
 -1.820000000000000E-002   -3.420372964224879E-016
 -1.810000000000000E-002   -1.895798346988064E-015
 -1.800000000000000E-002   -3.447858624647161E-015
 -1.790000000000000E-002   -4.831727975539929E-015
 -1.780000000000000E-002   -5.870107393724978E-015
 -1.770000000000000E-002   -6.392531797771471E-015
 -1.760000000000000E-002   -6.255652320344246E-015
 -1.750000000000000E-002   -5.364382231780557E-015
 -1.740000000000000E-002   -3.691678583878531E-015
 -1.730000000000000E-002   -1.294454978503841E-015
 -1.720000000000000E-002    1.676922698044463E-015
 -1.710000000000000E-002    4.977864283983045E-015
 -1.700000000000000E-002    8.279269743642388E-015
 -1.690000000000000E-002    1.118861448046157E-014
 -1.680000000000000E-002    1.328220311701738E-014
 -1.670000000000000E-002    1.414703102598276E-014
 -1.660000000000000E-002    1.342937022330496E-014
 -1.650000000000000E-002    1.088585203413295E-014
 -1.640000000000000E-002    6.431788123586718E-015
 -1.630000000000000E-002    1.808047343855765E-016
 -1.620000000000000E-002   -7.530226216531537E-015
 -1.610000000000000E-002   -1.613642463752145E-014
 -1.600000000000000E-002   -2.486448121955921E-014
 -1.590000000000000E-002   -3.277876053191966E-014
 -1.580000000000000E-002   -3.885357557097834E-014
 -1.570000000000000E-002   -4.206824443102026E-014
 -1.560000000000000E-002   -4.151845664637602E-014
 -1.550000000000000E-002   -3.653451697630982E-014
 -1.540000000000000E-002   -2.679471831589704E-014
 -1.530000000000000E-002   -1.242054489453604E-014
 -1.520000000000000E-002    5.959704305889707E-015
 -1.510000000000000E-002    2.719110680328092E-014
 -1.500000000000000E-002    4.962548830927638E-014
 -1.490000000000000E-002    7.121304809232520E-014
 -1.480000000000000E-002    8.965168219561611E-014
 -1.470000000000000E-002    1.025870698434714E-013
 -1.460000000000000E-002    1.078498687758247E-013
 -1.450000000000000E-002    1.037102012032338E-013
 -1.440000000000000E-002    8.912467259690625E-014
 -1.430000000000000E-002    6.394812702331663E-014
 -1.420000000000000E-002    2.908213596318766E-014
 -1.410000000000000E-002   -1.346513548565086E-014
 -1.400000000000000E-002   -6.062701563157049E-014
 -1.390000000000000E-002   -1.084447522555825E-013
 -1.380000000000000E-002   -1.523510690845812E-013
 -1.370000000000000E-002   -1.875568454042600E-013
 -1.360000000000000E-002   -2.095136480871126E-013
 -1.350000000000000E-002   -2.144124739524133E-013
 -1.340000000000000E-002   -1.996702341969323E-013
 -1.330000000000000E-002   -1.643498862860593E-013
 -1.320000000000000E-002   -1.094605452297200E-013
 -1.310000000000000E-002   -3.808998082175623E-014
 -1.300000000000000E-002    4.466574969330374E-014
 -1.290000000000000E-002    1.319928271643377E-013
 -1.280000000000000E-002    2.158655806425035E-013
 -1.270000000000000E-002    2.877385326345933E-013
 -1.260000000000000E-002    3.393712250140794E-013
 -1.250000000000000E-002    3.637111396988562E-013
 -1.240000000000000E-002    3.557452395788682E-013
 -1.230000000000000E-002    3.132233154462199E-013
 -1.220000000000000E-002    2.371596833204825E-013
 -1.210000000000000E-002    1.320348177569999E-013
 -1.200000000000000E-002    5.642649310054171E-015
 -1.190000000000000E-002   -1.314354230031315E-013
 -1.180000000000000E-002   -2.667090614728429E-013
 -1.170000000000000E-002   -3.869460477886654E-013
 -1.160000000000000E-002   -4.795245903122097E-013
 -1.150000000000000E-002   -5.338340987991457E-013
 -1.140000000000000E-002   -5.425690142744339E-013
 -1.130000000000000E-002   -5.027556071598565E-013
 -1.120000000000000E-002   -4.163668539028164E-013
 -1.110000000000000E-002   -2.904146837631802E-013
 -1.100000000000000E-002   -1.364595446397033E-013
 -1.090000000000000E-002    3.045851473896011E-014
 -1.080000000000000E-002    1.933923236689296E-013
 -1.070000000000000E-002    3.354194677456504E-013
 -1.060000000000000E-002    4.417289200921433E-013
 -1.050000000000000E-002    5.016169209204270E-013
 -1.040000000000000E-002    5.101300891360865E-013
 -1.030000000000000E-002    4.691088161476361E-013
 -1.020000000000000E-002    3.874306893778562E-013
 -1.010000000000000E-002    2.803321032474438E-013
 -1.000000000000000E-002    1.677882238881814E-013
 -9.899999999999999E-003    7.205024617024119E-014
 -9.800000000000000E-003    1.455878480617179E-014
 -9.699999999999999E-003    1.255988077466744E-014
 -9.599999999999999E-003    7.583350157868156E-014
 -9.500000000000000E-003    2.039833889588505E-013
 -9.399999999999999E-003    3.847270232892640E-013
 -9.299999999999999E-003    5.935605511015828E-013
 -9.200000000000000E-003    7.950492663206500E-013
 -9.099999999999999E-003    9.458279130239901E-013
 -8.999999999999999E-003    9.991915261146254E-013
 -8.900000000000000E-003    9.109416185043220E-013
 -8.799999999999999E-003    6.459496666418294E-013
 -8.699999999999999E-003    1.847329871310662E-013
 -8.600000000000000E-003   -4.707689481376963E-013
 -8.499999999999999E-003   -1.293048778327363E-012
 -8.399999999999999E-003   -2.227276264649450E-012
 -8.300000000000000E-003   -3.192519690223683E-012
 -8.199999999999999E-003   -4.086265742659025E-012
 -8.100000000000000E-003   -4.792219365710245E-012
 -8.000000000000000E-003   -5.190988412653500E-012
 -7.899999999999999E-003   -5.172871604522962E-012
 -7.800000000000000E-003   -4.651621537156391E-012
 -7.699999999999999E-003   -3.577793679222513E-012
 -7.599999999999999E-003   -1.950154376172597E-012
 -7.499999999999999E-003    1.763673283950368E-013
 -7.399999999999999E-003    2.687514786617444E-012
 -7.299999999999999E-003    5.412306303007913E-012
 -7.199999999999999E-003    8.131879405688332E-012
 -7.100000000000000E-003    1.059445312464423E-011
 -6.999999999999999E-003    1.253559962312067E-011
 -6.899999999999999E-003    1.370238908342700E-011
 -6.800000000000000E-003    1.387937622098862E-011
 -6.699999999999999E-003    1.291400061982089E-011
 -6.599999999999999E-003    1.073875979741697E-011
 -6.499999999999999E-003    7.387583326260214E-012
 -6.399999999999999E-003    3.004156868034572E-012
 -6.299999999999999E-003   -2.159449877089488E-012
 -6.199999999999999E-003   -7.754663239386881E-012
 -6.100000000000000E-003   -1.335862874754999E-011
 -5.999999999999999E-003   -1.850554408989565E-011
 -5.899999999999999E-003   -2.272484416790051E-011
 -5.800000000000000E-003   -2.558311852406464E-011
 -5.699999999999999E-003   -2.672597976573142E-011
 -5.599999999999999E-003   -2.591584826335116E-011
 -5.499999999999999E-003   -2.306170106119723E-011
 -5.399999999999999E-003   -1.823732609177522E-011
 -5.299999999999999E-003   -1.168558578391739E-011
 -5.199999999999999E-003   -3.807342574962136E-012
 -5.099999999999999E-003    4.864788681187916E-012
 -4.999999999999999E-003    1.370621973049170E-011
 -4.899999999999999E-003    2.205059091669508E-011
 -4.799999999999999E-003    2.924605049489932E-011
 -4.699999999999999E-003    3.471246421990257E-011
 -4.599999999999999E-003    3.799400082244213E-011
 -4.499999999999999E-003    3.880177803546003E-011
 -4.399999999999999E-003    3.704199008798490E-011
 -4.299999999999999E-003    3.282622890225139E-011
 -4.199999999999999E-003    2.646240875863359E-011
 -4.099999999999999E-003    1.842666581865706E-011
 -3.999999999999999E-003    9.318585946107032E-012
 -3.899999999999999E-003   -1.960020639728539E-013
 -3.799999999999999E-003   -9.448954488889259E-012
 -3.699999999999999E-003   -1.783379903235108E-011
 -3.599999999999999E-003   -2.486285446687465E-011
 -3.499999999999999E-003   -3.021105531924209E-011
 -3.399999999999999E-003   -3.374125932549655E-011
 -3.299999999999999E-003   -3.550771734739526E-011
 -3.199999999999999E-003   -3.573670536602488E-011
 -3.099999999999999E-003   -3.478592459885206E-011
 -2.999999999999999E-003   -3.308683963210521E-011
 -2.899999999999999E-003   -3.107632648956391E-011
 -2.799999999999999E-003   -2.912568628935493E-011
 -2.699999999999999E-003   -2.747586331865971E-011
 -2.599999999999999E-003   -2.618756161563037E-011
 -2.499999999999999E-003   -2.511380804784210E-011
 -2.399999999999999E-003   -2.390033506272426E-011
 -2.299999999999999E-003   -2.201629492597395E-011
 -2.199999999999999E-003   -1.881432666047262E-011
 -2.099999999999999E-003   -1.361543588701153E-011
 -1.999999999999999E-003   -5.810741701071726E-012
 -1.899999999999999E-003    5.030590588831610E-012
 -1.799999999999999E-003    1.905970169907068E-011
 -1.699999999999999E-003    3.606568725500587E-011
 -1.599999999999999E-003    5.542461882963473E-011
 -1.499999999999999E-003    7.608969160972076E-011
 -1.399999999999999E-003    9.662862720388089E-011
 -1.299999999999999E-003    1.153098367411915E-010
 -1.199999999999999E-003    1.302335671358153E-010
 -1.099999999999999E-003    1.394989682738749E-010
 -9.999999999999989E-004    1.413933139297102E-010
 -8.999999999999990E-004    1.345856495463930E-010
 -7.999999999999990E-004    1.183051457090738E-010
 -6.999999999999989E-004    9.248396421468678E-011
 -5.999999999999990E-004    5.784631167575294E-011
 -4.999999999999989E-004    1.592914114608072E-011
 -3.999999999999989E-004   -3.097428747064371E-011
 -2.999999999999989E-004   -7.994974767352548E-011
 -1.999999999999989E-004   -1.276701716960636E-010
 -9.999999999999892E-005   -1.706624941757773E-010
  1.084202172485504E-018   -2.056122179605465E-010
  1.000000000000011E-004   -2.296788860513237E-010
  2.000000000000011E-004   -2.407925381287176E-010
  3.000000000000011E-004   -2.379005760712857E-010
  4.000000000000011E-004   -2.211369285078466E-010
  5.000000000000011E-004   -1.918905247122450E-010
  6.000000000000011E-004   -1.527584799303625E-010
  7.000000000000011E-004   -1.073791046560521E-010
  8.000000000000011E-004   -6.015113210202675E-011
  9.000000000000012E-004   -1.585706268189386E-011
  1.000000000000001E-003    2.078131456823542E-011
  1.100000000000001E-003    4.557870316970823E-011
  1.200000000000001E-003    5.535122394295141E-011
  1.300000000000001E-003    4.832661657100251E-011
  1.400000000000001E-003    2.445824666738406E-011
  1.500000000000001E-003   -1.439269657429768E-011
  1.600000000000001E-003   -6.443242827273600E-011
  1.700000000000001E-003   -1.200802331982031E-010
  1.800000000000001E-003   -1.742828634784864E-010
  1.900000000000001E-003   -2.189814602046669E-010
  2.000000000000001E-003   -2.457001548615108E-010
  2.100000000000001E-003   -2.462139327862660E-010
  2.200000000000001E-003   -2.132450870924508E-010
  2.300000000000001E-003   -1.411330987719655E-010
  2.400000000000001E-003   -2.642396388194644E-011
  2.500000000000001E-003    1.316698208078915E-010
  2.600000000000001E-003    3.309769287449539E-010
  2.700000000000001E-003    5.662672343686268E-010
  2.800000000000001E-003    8.293534685951731E-010
  2.900000000000001E-003    1.109387015887914E-009
  3.000000000000001E-003    1.393323058379330E-009
  3.100000000000001E-003    1.666519948622844E-009
  3.200000000000001E-003    1.913424718721245E-009
  3.300000000000001E-003    2.118294981153494E-009
  3.400000000000001E-003    2.265905510185794E-009
  3.500000000000001E-003    2.342194427851244E-009
  3.600000000000001E-003    2.334816258728524E-009
  3.700000000000001E-003    2.233578276367238E-009
  3.800000000000001E-003    2.030758139817318E-009
  3.900000000000001E-003    1.721311385677356E-009
  4.000000000000001E-003    1.302995186719289E-009
  4.100000000000001E-003    7.764420377265076E-010
  4.200000000000001E-003    1.452251317704223E-010
  4.300000000000001E-003   -5.840465159488445E-010
  4.400000000000001E-003   -1.401569316757324E-009
  4.500000000000001E-003   -2.294105773530553E-009
  4.600000000000002E-003   -3.244659735126228E-009
  4.700000000000001E-003   -4.232088851439727E-009
  4.800000000000001E-003   -5.230695102365879E-009
  4.900000000000002E-003   -6.209854652508246E-009
  5.000000000000001E-003   -7.133764076654913E-009
  5.100000000000001E-003   -7.961394282375912E-009
  5.200000000000001E-003   -8.646736633604527E-009
  5.300000000000002E-003   -9.139430267070787E-009
  5.400000000000001E-003   -9.385828658247076E-009
  5.500000000000001E-003   -9.330555275483612E-009
  5.600000000000002E-003   -8.918551996982933E-009
  5.700000000000001E-003   -8.097595509032242E-009
  5.800000000000001E-003   -6.821222241762500E-009
  5.900000000000002E-003   -5.051960170214919E-009
  6.000000000000001E-003   -2.764749430099434E-009
  6.100000000000001E-003    4.959520512588373E-011
  6.200000000000002E-003    3.381034832523342E-009
  6.300000000000002E-003    7.197205879257813E-009
  6.400000000000001E-003    1.144071370358035E-008
  6.500000000000001E-003    1.602689749319637E-008
  6.600000000000002E-003    2.084214420876186E-008
  6.700000000000001E-003    2.574275265439473E-008
  6.800000000000001E-003    3.055434451958906E-008
  6.900000000000002E-003    3.507167431255461E-008
  7.000000000000001E-003    3.905882061136347E-008
  7.100000000000001E-003    4.224952713677694E-008
  7.200000000000002E-003    4.434757216169131E-008
  7.300000000000002E-003    4.502704476314545E-008
  7.400000000000001E-003    4.393232171354900E-008
  7.500000000000001E-003    4.067772937577277E-008
  7.600000000000002E-003    3.484674478206299E-008
  7.700000000000001E-003    2.599083071325107E-008
  7.800000000000001E-003    1.362783919153308E-008
  7.900000000000001E-003   -2.759679236787941E-009
  8.000000000000002E-003   -2.372643179343810E-008
  8.100000000000001E-003   -4.986613958490746E-008
  8.200000000000001E-003   -8.181304478886919E-008
  8.300000000000002E-003   -1.202428438190023E-007
  8.400000000000001E-003   -1.658731542008609E-007
  8.500000000000002E-003   -2.194629516070227E-007
  8.600000000000002E-003   -2.818115290514091E-007
  8.700000000000001E-003   -3.537563070365821E-007
  8.800000000000002E-003   -4.361700614239941E-007
  8.900000000000002E-003   -5.299580538790534E-007
  9.000000000000001E-003   -6.360540258777858E-007
  9.100000000000002E-003   -7.554170658683432E-007
  9.200000000000002E-003   -8.890279946209079E-007
  9.300000000000001E-003   -1.037887091464602E-006
  9.400000000000002E-003   -1.203012158526367E-006
  9.500000000000001E-003   -1.385438352324595E-006
  9.600000000000001E-003   -1.586218083471249E-006
  9.700000000000002E-003   -1.806423925214307E-006
  9.800000000000001E-003   -2.047151137130091E-006
  9.900000000000001E-003   -2.309522987849592E-006
  1.000000000000000E-002   -2.594695681455410E-006
  1.010000000000000E-002   -2.903864997615738E-006
  1.020000000000000E-002   -3.238273700939192E-006
  1.030000000000000E-002   -3.599216520881478E-006
  1.040000000000000E-002   -3.988049150372305E-006
  1.050000000000000E-002   -4.406194049439650E-006
  1.060000000000000E-002   -4.855145974179743E-006
  1.070000000000000E-002   -5.336477564745706E-006
  1.080000000000000E-002   -5.851844827808514E-006
  1.090000000000000E-002   -6.402990982486641E-006
  1.100000000000000E-002   -6.991751545533313E-006
  1.110000000000000E-002   -7.620058356038984E-006
  1.120000000000000E-002   -8.289943873021596E-006
  1.130000000000000E-002   -9.003547312328457E-006
  1.140000000000000E-002   -9.763122252485006E-006
  1.150000000000000E-002   -1.057104186428550E-005
  1.160000000000000E-002   -1.142980797643836E-005
  1.170000000000000E-002   -1.234206401720769E-005
  1.180000000000000E-002   -1.331060459590592E-005
  1.190000000000000E-002   -1.433838429221884E-005
  1.200000000000000E-002   -1.542853620127640E-005
  1.210000000000000E-002   -1.658437816474356E-005
  1.220000000000000E-002   -1.780943096535164E-005
  1.230000000000000E-002   -1.910742988235093E-005
  1.240000000000000E-002   -2.048233005806576E-005
  1.250000000000000E-002   -2.193832473633977E-005
  1.260000000000000E-002   -2.347984784812449E-005
  1.270000000000000E-002   -2.511157994590243E-005
  1.280000000000000E-002   -2.683846647430403E-005
  1.290000000000000E-002   -2.866571179703126E-005
  1.300000000000000E-002   -3.059878554758338E-005
  1.310000000000000E-002   -3.264343701649917E-005
  1.320000000000000E-002   -3.480569856586701E-005
  1.330000000000000E-002   -3.709189285798212E-005
  1.340000000000000E-002   -3.950864928528416E-005
  1.350000000000000E-002   -4.206291166239925E-005
  1.360000000000000E-002   -4.476196165879211E-005
  1.370000000000000E-002   -4.761343124341452E-005
  1.380000000000000E-002   -5.062533161247471E-005
  1.390000000000000E-002   -5.380607616022896E-005
  1.400000000000000E-002   -5.716450035906221E-005
  1.410000000000000E-002   -6.070988679745179E-005
  1.420000000000000E-002   -6.445201955869814E-005
  1.430000000000000E-002   -6.840117533419337E-005
  1.440000000000000E-002   -7.256817360570352E-005
  1.450000000000000E-002   -7.696439982866508E-005
  1.460000000000000E-002   -8.160181985609184E-005
  1.470000000000000E-002   -8.649300943637724E-005
  1.480000000000000E-002   -9.165117375029508E-005
  1.490000000000000E-002   -9.709016953119168E-005
  1.500000000000000E-002   -1.028245235017964E-004
  1.510000000000000E-002   -1.088694443385444E-004
  1.520000000000000E-002   -1.152408597985795E-004
  1.530000000000000E-002   -1.219554033630588E-004
  1.540000000000000E-002   -1.290304815584762E-004
  1.550000000000000E-002   -1.364842659726193E-004
  1.560000000000000E-002   -1.443357425111937E-004
  1.570000000000000E-002   -1.526047263540846E-004
  1.580000000000000E-002   -1.613119068980394E-004
  1.590000000000000E-002   -1.704788798689993E-004
  1.600000000000000E-002   -1.801281928837684E-004
  1.610000000000000E-002   -1.902834080672734E-004
  1.620000000000000E-002   -2.009691015602239E-004
  1.630000000000000E-002   -2.122109532996212E-004
  1.640000000000000E-002   -2.240357554657445E-004
  1.650000000000000E-002   -2.364714394686546E-004
  1.660000000000000E-002   -2.495471625475062E-004
  1.670000000000000E-002   -2.632933644233261E-004
  1.680000000000000E-002   -2.777417270778429E-004
  1.690000000000000E-002   -2.929252704169295E-004
  1.700000000000000E-002   -3.088783533652229E-004
  1.710000000000000E-002   -3.256367741011432E-004
  1.720000000000000E-002   -3.432377357599016E-004
  1.730000000000000E-002   -3.617199345769497E-004
  1.740000000000000E-002   -3.811236094700501E-004
  1.750000000000000E-002   -4.014905712337687E-004
  1.760000000000000E-002   -4.228642440157544E-004
  1.770000000000000E-002   -4.452897713044569E-004
  1.780000000000000E-002   -4.688139885664752E-004
  1.790000000000000E-002   -4.934856590970699E-004
  1.800000000000000E-002   -5.193554070050597E-004
  1.810000000000000E-002   -5.464757643585279E-004
  1.820000000000000E-002   -5.749013029128004E-004
  1.830000000000000E-002   -6.046888032547975E-004
  1.840000000000000E-002   -6.358970963853009E-004
  1.850000000000000E-002   -6.685873358058450E-004
  1.860000000000000E-002   -7.028229256740820E-004
  1.870000000000000E-002   -7.386696329082859E-004