 -4.000000000000000E-002    0.000000000000000E+000
 -3.990000000000000E-002    0.000000000000000E+000
 -3.980000000000000E-002    0.000000000000000E+000
 -3.970000000000000E-002    5.331570132157337E-016
 -3.960000000000000E-002    3.679931411059997E-015
 -3.950000000000000E-002    1.418203742087030E-014
 -3.940000000000000E-002    3.958105092425211E-014
 -3.930000000000000E-002    8.733043767923933E-014
 -3.920000000000000E-002    1.559011853232495E-013
 -3.910000000000000E-002    2.165302549184557E-013
 -3.900000000000000E-002    1.830387526606661E-013
 -3.890000000000000E-002   -1.305241892616695E-013
 -3.880000000000000E-002   -1.060544061957853E-012
 -3.870000000000000E-002   -3.143551323856099E-012
 -3.860000000000000E-002   -7.149685658913640E-012
 -3.850000000000000E-002   -1.407960114455083E-011
 -3.840000000000000E-002   -2.510186423100259E-011
 -3.830000000000000E-002   -4.140951922347251E-011
 -3.820000000000000E-002   -6.398144187709003E-011
 -3.810000000000000E-002   -9.324714707041681E-011
 -3.800000000000000E-002   -1.286719122946737E-010
 -3.790000000000000E-002   -1.683011938153649E-010
 -3.780000000000000E-002   -2.083256687815977E-010
 -3.770000000000000E-002   -2.427477276981483E-010
 -3.760000000000000E-002   -2.632424860620668E-010
 -3.750000000000000E-002   -2.593066104752199E-010
 -3.740000000000000E-002   -2.187748643743858E-010
 -3.730000000000000E-002   -1.287546055326021E-010
 -3.720000000000000E-002    2.301591652463712E-011
 -3.710000000000000E-002    2.464355443276317E-010
 -3.700000000000000E-002    5.470471133921947E-010
 -3.690000000000000E-002    9.239572481406715E-010
 -3.680000000000000E-002    1.367894135287687E-009
 -3.670000000000000E-002    1.859662765262206E-009
 -3.660000000000000E-002    2.369264763184173E-009
 -3.650000000000000E-002    2.855928055429437E-009
 -3.640000000000000E-002    3.269237396723270E-009
 -3.630000000000000E-002    3.551471948632427E-009
 -3.620000000000000E-002    3.641143650396883E-009
 -3.610000000000000E-002    3.477609204233850E-009
 -3.600000000000000E-002    3.006493706077943E-009
 -3.590000000000000E-002    2.185548358986613E-009
 -3.580000000000000E-002    9.904676829948829E-010
 -3.570000000000000E-002   -5.798705485631870E-010
 -3.560000000000000E-002   -2.499288045474376E-009
 -3.550000000000000E-002   -4.711825310681770E-009
 -3.540000000000000E-002   -7.131316963044439E-009
 -3.530000000000000E-002   -9.643308543839806E-009
 -3.520000000000000E-002   -1.210941593261181E-008
 -3.510000000000000E-002   -1.437403378718402E-008
 -3.500000000000000E-002   -1.627308367264909E-008
 -3.490000000000000E-002   -1.764428493073656E-008
 -3.480000000000000E-002   -1.833826844011054E-008
 -3.470000000000000E-002   -1.822971483268828E-008
 -3.460000000000000E-002   -1.722764589766387E-008
 -3.450000000000000E-002   -1.528399277390289E-008
 -3.440000000000000E-002   -1.239965666541350E-008
 -3.430000000000000E-002   -8.627442503758383E-009
 -3.420000000000000E-002   -4.071458808799127E-009
 -3.410000000000000E-002    1.117124738903759E-009
 -3.400000000000000E-002    6.747768405012395E-009
 -3.390000000000000E-002    1.260119784694626E-008
 -3.380000000000000E-002    1.844217475540028E-008
 -3.370000000000000E-002    2.403337267979306E-008
 -3.360000000000000E-002    2.914917801243813E-008
 -3.350000000000000E-002    3.358818175928111E-008
 -3.340000000000000E-002    3.718322444564809E-008
 -3.330000000000000E-002    3.980805570529899E-008
 -3.320000000000000E-002    4.137998276955403E-008
 -3.310000000000000E-002    4.185831156269661E-008
 -3.300000000000000E-002    4.123883980249062E-008
 -3.290000000000000E-002    3.954515008943003E-008
 -3.280000000000000E-002    3.681787478391897E-008
 -3.270000000000000E-002    3.310343174876767E-008
 -3.260000000000000E-002    2.844392559646787E-008
 -3.250000000000000E-002    2.286987366197477E-008
 -3.240000000000000E-002    1.639720724921332E-008
 -3.230000000000000E-002    9.029572657827561E-009
 -3.220000000000000E-002    7.663228979480180E-010
 -3.210000000000000E-002   -8.384108750191249E-009
 -3.200000000000000E-002   -1.838657592875561E-008
 -3.190000000000000E-002   -2.915918675433684E-008
 -3.180000000000000E-002   -4.055333346858614E-008
 -3.170000000000000E-002   -5.233661915974243E-008
 -3.160000000000000E-002   -6.418160327359457E-008
 -3.150000000000000E-002   -7.566301975245716E-008
 -3.140000000000000E-002   -8.626546519215292E-008
 -3.130000000000000E-002   -9.540265049419583E-008
 -3.120000000000000E-002   -1.024480986865739E-007
 -3.110000000000000E-002   -1.067758674493749E-007
 -3.100000000000000E-002   -1.078085342477608E-007
 -3.090000000000000E-002   -1.050686253145057E-007
 -3.080000000000000E-002   -9.822876227621320E-008
 -3.070000000000000E-002   -8.715548956534380E-008
 -3.060000000000000E-002   -7.194181865315031E-008
 -3.050000000000000E-002   -5.292428041751034E-008
 -3.040000000000000E-002   -3.068139388594839E-008
 -3.030000000000000E-002   -6.012227504686579E-009
 -3.020000000000000E-002    2.010457693791589E-008
 -3.010000000000000E-002    4.656878774526328E-008
 -3.000000000000000E-002    7.222931645050881E-008
 -2.990000000000000E-002    9.596194110379516E-008
 -2.980000000000000E-002    1.167472188033974E-007
 -2.970000000000000E-002    1.337416521394647E-007
 -2.960000000000000E-002    1.463354040531113E-007
 -2.950000000000000E-002    1.541911309370808E-007
 -2.940000000000000E-002    1.572601753798480E-007
 -2.930000000000000E-002    1.557746197846409E-007
 -2.920000000000000E-002    1.502160051829728E-007
 -2.910000000000000E-002    1.412639513531722E-007
 -2.900000000000000E-002    1.297300301216959E-007
 -2.890000000000000E-002    1.164837183325765E-007
 -2.880000000000000E-002    1.023782013762821E-007
 -2.870000000000000E-002    8.818365932689485E-008
 -2.860000000000000E-002    7.453521238669423E-008
 -2.850000000000000E-002    6.190082462758310E-008
 -2.840000000000000E-002    5.057259026076384E-008
 -2.830000000000000E-002    4.068237854118736E-008
 -2.820000000000000E-002    3.224007809427344E-008
 -2.810000000000000E-002    2.519033087519654E-008
 -2.800000000000000E-002    1.948186597138016E-008
 -2.790000000000000E-002    1.514181161852615E-008
 -2.780000000000000E-002    1.234717649418446E-008
 -2.770000000000000E-002    1.148541924629797E-008
 -2.760000000000000E-002    1.319743593831940E-008
 -2.750000000000000E-002    1.839781743648101E-008
 -2.740000000000000E-002    2.826916717932033E-008
 -2.730000000000000E-002    4.422974626688853E-008
 -2.720000000000000E-002    6.787656462677901E-008
 -2.710000000000000E-002    1.009076126813128E-007
 -2.700000000000000E-002    1.450293809767924E-007
 -2.690000000000000E-002    2.018567760199982E-007
 -2.680000000000000E-002    2.728136033788152E-007
 -2.670000000000000E-002    3.590418382281277E-007
 -2.660000000000000E-002    4.613266058975927E-007
 -2.650000000000000E-002    5.800443443080165E-007
 -2.640000000000000E-002    7.151384534019744E-007
 -2.630000000000000E-002    8.661254351544985E-007
 -2.620000000000000E-002    1.032132626699242E-006
 -2.610000000000000E-002    1.211966748785255E-006
 -2.600000000000000E-002    1.404209513493036E-006
 -2.590000000000000E-002    1.607335453364395E-006
 -2.580000000000000E-002    1.819844944198448E-006
 -2.570000000000000E-002    2.040403787488466E-006
 -2.560000000000000E-002    2.267981134784878E-006
 -2.550000000000000E-002    2.501975204774947E-006
 -2.540000000000000E-002    2.742317703947338E-006
 -2.530000000000000E-002    2.989546711145051E-006
 -2.520000000000000E-002    3.244843635154534E-006
 -2.510000000000000E-002    3.510025594550855E-006
 -2.500000000000000E-002    3.787491726236454E-006
 -2.490000000000000E-002    4.080125116290850E-006
 -2.480000000000000E-002    4.391151343115998E-006
 -2.470000000000000E-002    4.723963837367429E-006
 -2.460000000000000E-002    5.081926502383888E-006
 -2.450000000000000E-002    5.468163398638604E-006
 -2.440000000000000E-002    5.885359462419805E-006
 -2.430000000000000E-002    6.335579134866690E-006
 -2.420000000000000E-002    6.820124124655217E-006
 -2.410000000000000E-002    7.339447245888500E-006
 -2.400000000000000E-002    7.893125304337888E-006
 -2.390000000000000E-002    8.479902302340393E-006
 -2.380000000000000E-002    9.097803351018444E-006
 -2.370000000000000E-002    9.744309129159227E-006
 -2.360000000000000E-002    1.041658582968102E-005
 -2.350000000000000E-002    1.111174587171191E-005
 -2.340000000000000E-002    1.182712330136911E-005
 -2.330000000000000E-002    1.256053691569120E-005
 -2.320000000000000E-002    1.331051711094476E-005
 -2.310000000000000E-002    1.407648185701081E-005
 -2.300000000000000E-002    1.485882814397854E-005
 -2.290000000000000E-002    1.565894453564605E-005
 -2.280000000000000E-002    1.647912819714493E-005
 -2.270000000000000E-002    1.732242596384132E-005
 -2.260000000000000E-002    1.819239470742701E-005
 -2.250000000000000E-002    1.909282004811046E-005
 -2.240000000000000E-002    2.002740171410780E-005
 -2.230000000000000E-002    2.099946200987567E-005
 -2.220000000000000E-002    2.201168077995815E-005
 -2.210000000000000E-002    2.306589965365646E-005
 -2.200000000000000E-002    2.416301938358787E-005
 -2.190000000000000E-002    2.530299961060898E-005
 -2.180000000000000E-002    2.648496323793598E-005
 -2.170000000000000E-002    2.770741186667511E-005
 -2.160000000000000E-002    2.896852038321695E-005
 -2.150000000000000E-002    3.026648645508817E-005
 -2.140000000000000E-002    3.159991428037940E-005
 -2.130000000000000E-002    3.296817997411181E-005
 -2.120000000000000E-002    3.437174599886187E-005
 -2.110000000000000E-002    3.581239619523646E-005
 -2.100000000000000E-002    3.729335411224840E-005
 -2.090000000000000E-002    3.881927743988588E-005
 -2.080000000000000E-002    4.039612058270264E-005
 -2.070000000000000E-002    4.203087165049088E-005
 -2.060000000000000E-002    4.373118532002210E-005
 -2.050000000000000E-002    4.550495073268458E-005
 -2.040000000000000E-002    4.735983374988075E-005
 -2.030000000000000E-002    4.930283194721709E-005
 -2.020000000000000E-002    5.133989544546121E-005
 -2.010000000000000E-002    5.347563840450495E-005
 -2.000000000000000E-002    5.571319419355849E-005
 -1.990000000000000E-002    5.805420657748659E-005
 -1.980000000000000E-002    6.049900432913879E-005
 -1.970000000000000E-002    6.304686657056369E-005
 -1.960000000000000E-002    6.569643641434661E-005
 -1.950000000000000E-002    6.844621114481348E-005
 -1.940000000000000E-002    7.129502439900072E-005
 -1.930000000000000E-002    7.424253749987244E-005
 -1.920000000000000E-002    7.728963647378055E-005
 -1.910000000000000E-002    8.043870360166568E-005
 -1.900000000000000E-002    8.369373089907846E-005
 -1.890000000000000E-002    8.706030123572091E-005
 -1.880000000000000E-002    9.054532630305234E-005
 -1.870000000000000E-002    9.415671233591075E-005
 -1.860000000000000E-002    9.790286228269105E-005
 -1.850000000000000E-002    1.017921185226602E-004
 -1.840000000000000E-002    1.058321950735836E-004
 -1.830000000000000E-002    1.100296386924142E-004
 -1.820000000000000E-002    1.143894572198556E-004
 -1.810000000000000E-002    1.189147667684137E-004
 -1.800000000000000E-002    1.236067568489148E-004
 -1.790000000000000E-002    1.284647517644396E-004
 -1.780000000000000E-002    1.334865007976410E-004
 -1.770000000000000E-002    1.386685667531084E-004
 -1.760000000000000E-002    1.440068870269342E-004
 -1.750000000000000E-002    1.494973023365841E-004
 -1.740000000000000E-002    1.551361807331520E-004
 -1.730000000000000E-002    1.609208342346125E-004
 -1.720000000000000E-002    1.668498475787351E-004
 -1.710000000000000E-002    1.729233095269770E-004
 -1.700000000000000E-002    1.791426324109053E-004
 -1.690000000000000E-002    1.855103461290743E-004
 -1.680000000000000E-002    1.920296589205531E-004
 -1.670000000000000E-002    1.987037307917761E-004
 -1.660000000000000E-002    2.055350731647620E-004
 -1.650000000000000E-002    2.125247386916516E-004
 -1.640000000000000E-002    2.196716709573563E-004
 -1.630000000000000E-002    2.269720973346738E-004
 -1.620000000000000E-002    2.344191757364659E-004
 -1.610000000000000E-002    2.420027800004111E-004
 -1.600000000000000E-002    2.497095668314505E-004
 -1.590000000000000E-002    2.575232269055956E-004
 -1.580000000000000E-002    2.654250020963383E-004
 -1.570000000000000E-002    2.733941902268857E-004
 -1.560000000000000E-002    2.814089271843491E-004
 -1.550000000000000E-002    2.894467102879280E-004
 -1.540000000000000E-002    2.974850775284441E-004
 -1.530000000000000E-002    3.055019323981456E-004
 -1.520000000000000E-002    3.134758114338402E-004
 -1.510000000000000E-002    3.213858115801079E-004
 -1.500000000000000E-002    3.292112964739969E-004
 -1.490000000000000E-002    3.369315814455142E-004
 -1.480000000000000E-002    3.445250633579220E-004
 -1.470000000000000E-002    3.519684428390322E-004
 -1.460000000000000E-002    3.592361387704225E-004
 -1.450000000000000E-002    3.662992805543341E-004
 -1.440000000000000E-002    3.731251218935969E-004
 -1.430000000000000E-002    3.796764299797283E-004
 -1.420000000000000E-002    3.859113906522068E-004
 -1.410000000000000E-002    3.917834114001650E-004
 -1.400000000000000E-002    3.972411814319192E-004
 -1.390000000000000E-002    4.022290510802773E-004
 -1.380000000000000E-002    4.066873167966578E-004
 -1.370000000000000E-002    4.105530496105342E-004
 -1.360000000000000E-002    4.137600728637739E-004
 -1.350000000000000E-002    4.162394946919694E-004
 -1.340000000000000E-002    4.179200069465612E-004
 -1.330000000000000E-002    4.187278749348666E-004
 -1.320000000000000E-002    4.185863845923125E-004
 -1.310000000000000E-002    4.174160676003063E-004
 -1.300000000000000E-002    4.151333232299523E-004
 -1.290000000000000E-002    4.116504575093920E-004
 -1.280000000000000E-002    4.068744236672838E-004
 -1.270000000000000E-002    4.007060171897276E-004
 -1.260000000000000E-002    3.930393494231844E-004
 -1.250000000000000E-002    3.837611189973092E-004
 -1.240000000000000E-002    3.727497157618562E-004
 -1.230000000000000E-002    3.598755484832546E-004
 -1.220000000000000E-002    3.450005896765077E-004
 -1.210000000000000E-002    3.279783569935794E-004
 -1.200000000000000E-002    3.086542130622017E-004
 -1.190000000000000E-002    2.868654651133041E-004
 -1.180000000000000E-002    2.624414191683409E-004
 -1.170000000000000E-002    2.352039945493348E-004
 -1.160000000000000E-002    2.049673689931060E-004
 -1.150000000000000E-002    1.715385603186782E-004
 -1.140000000000000E-002    1.347165055811917E-004
 -1.130000000000000E-002    9.429213122590942E-005
 -1.120000000000000E-002    5.004770601456582E-005
 -1.110000000000000E-002    1.756719512607567E-006
 -1.100000000000000E-002   -5.081802275211496E-005
 -1.090000000000000E-002   -1.079233544329524E-004
 -1.080000000000000E-002   -1.698178347090980E-004
 -1.070000000000000E-002   -2.367722411175589E-004
 -1.060000000000000E-002   -3.090687358667632E-004
 -1.050000000000000E-002   -3.870032956939113E-004
 -1.040000000000000E-002   -4.708842685194891E-004
 -1.030000000000000E-002   -5.610344724289578E-004
 -1.020000000000000E-002   -6.577899211999694E-004
 -1.010000000000000E-002   -7.615006151262944E-004
 -1.000000000000000E-002   -8.725302538558273E-004
 -9.899999999999999E-003   -9.912572176728541E-004
 -9.800000000000000E-003   -1.118074348826959E-003
 -9.699999999999999E-003   -1.253389421499652E-003
 -9.599999999999999E-003   -1.397625005001965E-003
 -9.500000000000000E-003   -1.551219281575862E-003
 -9.399999999999999E-003   -1.714626149594481E-003
 -9.299999999999999E-003   -1.888316350611369E-003
 -9.200000000000000E-003   -2.072778024737405E-003
 -9.099999999999999E-003   -2.268515270048569E-003
 -8.999999999999999E-003   -2.476049635722998E-003
 -8.900000000000000E-003   -2.695922093299833E-003
 -8.799999999999999E-003   -2.928690922896628E-003
 -8.699999999999999E-003   -3.174932916207123E-003
 -8.600000000000000E-003   -3.435243225637696E-003
 -8.499999999999999E-003   -3.710235751201720E-003
 -8.399999999999999E-003   -4.000544223779639E-003
 -8.300000000000000E-003   -4.306821248916739E-003
 -8.199999999999999E-003   -4.629739995115726E-003
 -8.100000000000000E-003   -4.969993084677680E-003
 -8.000000000000000E-003   -5.328294408841874E-003
 -7.899999999999999E-003   -5.705379363329693E-003
 -7.800000000000000E-003   -6.102003834308461E-003
 -7.699999999999999E-003   -6.518946047653508E-003
 -7.599999999999999E-003   -6.957008007940505E-003
 -7.499999999999999E-003   -7.417012772096684E-003
 -7.399999999999999E-003   -7.899807177611311E-003
 -7.299999999999999E-003   -8.406259465143362E-003
 -7.199999999999999E-003   -8.937261725029027E-003
 -7.100000000000000E-003   -9.493727031364241E-003
 -6.999999999999999E-003   -1.007659182169224E-002
 -6.899999999999999E-003   -1.068681330097305E-002
 -6.800000000000000E-003   -1.132537020443025E-002
 -6.699999999999999E-003   -1.199326291012392E-002
 -6.599999999999999E-003   -1.269151324760985E-002
 -6.499999999999999E-003   -1.342116139231808E-002
 -6.399999999999999E-003   -1.418327160270131E-002
 -6.299999999999999E-003   -1.497892807747119E-002
 -6.199999999999999E-003   -1.580923863606733E-002
 -6.100000000000000E-003   -1.667533291729114E-002
 -5.999999999999999E-003   -1.757836262329863E-002
 -5.899999999999999E-003   -1.851950243062071E-002
 -5.800000000000000E-003   -1.949995262412788E-002
 -5.699999999999999E-003   -2.052093545003210E-002
 -5.599999999999999E-003   -2.158369635987093E-002
 -5.499999999999999E-003   -2.268950056419423E-002
 -5.399999999999999E-003   -2.383963634882462E-002
 -5.299999999999999E-003   -2.503541060405249E-002
 -5.199999999999999E-003   -2.627815165015679E-002
 -5.099999999999999E-003   -2.756920266210359E-002
 -4.999999999999999E-003   -2.890992063201146E-002
 -4.899999999999999E-003   -3.030168222274988E-002
 -4.799999999999999E-003   -3.174587455197921E-002
 -4.699999999999999E-003   -3.324390047463077E-002
 -4.599999999999999E-003   -3.479717298847734E-002
 -4.499999999999999E-003   -3.640711281493413E-002
 -4.399999999999999E-003   -3.807515640544468E-002
 -4.299999999999999E-003   -3.980274894137943E-002
 -4.199999999999999E-003   -4.159134953367725E-002
 -4.099999999999999E-003   -4.344242730908791E-002
 -3.999999999999999E-003   -4.535745939338750E-002
 -3.899999999999999E-003   -4.733792926823921E-002
 -3.799999999999999E-003   -4.938532857450757E-002
 -3.699999999999999E-003   -5.150115524242359E-002
 -3.599999999999999E-003   -5.368691128254911E-002
 -3.499999999999999E-003   -5.594409912511331E-002
 -3.399999999999999E-003   -5.827422417739823E-002
 -3.299999999999999E-003   -6.067877626513270E-002
 -3.199999999999999E-003   -6.315925072201972E-002
 -3.099999999999999E-003   -6.571713195887677E-002
 -2.999999999999999E-003   -6.835389248918348E-002
 -2.899999999999999E-003   -7.107099098611720E-002
 -2.799999999999999E-003   -7.386987058239036E-002
 -2.699999999999999E-003   -7.675196422606351E-002
 -2.599999999999999E-003   -7.971868886612536E-002
 -2.499999999999999E-003   -8.277142755267135E-002
 -2.399999999999999E-003   -8.591155689625496E-002
 -2.299999999999999E-003   -8.914042587091731E-002
 -2.199999999999999E-003   -9.245936038328097E-002
 -2.099999999999999E-003   -9.586965698384137E-002
 -1.999999999999999E-003   -9.937258613451472E-002
 -1.899999999999999E-003   -0.102969381763324     
 -1.799999999999999E-003   -0.106661249306095     
 -1.699999999999999E-003   -0.110449350304263     
 -1.599999999999999E-003   -0.114334802946440     
 -1.499999999999999E-003   -0.118318684896121     
 -1.399999999999999E-003   -0.122402015226071     
 -1.299999999999999E-003   -0.126585771833333     
 -1.199999999999999E-003   -0.130870876722019     
 -1.099999999999999E-003   -0.135258190963538     
 -9.999999999999989E-004   -0.139748501296219     
 -8.999999999999990E-004   -0.144342547422735     
 -7.999999999999990E-004   -0.149041000668082     
 -6.999999999999989E-004   -0.153844451828348     
 -5.999999999999990E-004   -0.158753422336291     
 -4.999999999999989E-004   -0.163768365503064     
 -3.999999999999989E-004   -0.168889649162971     
 -2.999999999999989E-004   -0.174117567962284     
 -1.999999999999989E-004   -0.179452328648560     
 -9.999999999999892E-005   -0.184894049694561     
  1.084202172485504E-018   -0.190442753375950     
  1.000000000000011E-004   -0.196098373284240     
  2.000000000000011E-004   -0.201860737762023     
  3.000000000000011E-004   -0.207729580559204     
  4.000000000000011E-004   -0.213704500708337     
  5.000000000000011E-004   -0.219785027581049     
  6.000000000000011E-004   -0.225970537608677     
  7.000000000000011E-004   -0.232260328921149     
  8.000000000000011E-004   -0.238653544586836     
  9.000000000000012E-004   -0.245149231729356     
  1.000000000000001E-003   -0.251746277412110     
  1.100000000000001E-003   -0.258443465500766     
  1.200000000000001E-003   -0.265239443729553     
  1.300000000000001E-003   -0.272132721908184     
  1.400000000000001E-003   -0.279121675823952     
  1.500000000000001E-003   -0.286204550767160     
  1.600000000000001E-003   -0.293379454256998     
  1.700000000000001E-003   -0.300644315082382     
  1.800000000000001E-003   -0.307996937548890     
  1.900000000000001E-003   -0.315434977859689     
  2.000000000000001E-003   -0.322955944276595     
  2.100000000000001E-003   -0.330557140174250     
  2.200000000000001E-003   -0.338235757953455     
  2.300000000000001E-003   -0.345988799350689     
  2.400000000000001E-003   -0.353813133167560     
  2.500000000000001E-003   -0.361705436835148     
  2.600000000000001E-003   -0.369662216674675     
  2.700000000000001E-003   -0.377679842092349     
  2.800000000000001E-003   -0.385754477845723     
  2.900000000000001E-003   -0.393882157312145     
  3.000000000000001E-003   -0.402058730024174     
  3.100000000000001E-003   -0.410279858393582     
  3.200000000000001E-003   -0.418541068668556     
  3.300000000000001E-003   -0.426837692650121     
  3.400000000000001E-003   -0.435164887560915     
  3.500000000000001E-003   -0.443517648918674     
  3.600000000000001E-003   -0.451890806019281     
  3.700000000000001E-003   -0.460278976609919     
  3.800000000000001E-003   -0.468676655966234     
  3.900000000000001E-003   -0.477078121459018     
  4.000000000000001E-003   -0.485477498256333     
  4.100000000000001E-003   -0.493868710858145     
  4.200000000000001E-003   -0.502245568528527     
  4.300000000000001E-003   -0.510601695586208     
  4.400000000000001E-003   -0.518930544491624     
  4.500000000000001E-003   -0.527225387685970     
  4.600000000000002E-003   -0.535479393793825     
  4.700000000000001E-003   -0.543685526437550     
  4.800000000000001E-003   -0.551836658208188     
  4.900000000000002E-003   -0.559925428914248     
  5.000000000000001E-003   -0.567944381275436     
  5.100000000000001E-003   -0.575885900200756     
  5.200000000000001E-003   -0.583742253549790     
  5.300000000000002E-003   -0.591505600260987     
  5.400000000000001E-003   -0.599167891675768     
  5.500000000000001E-003   -0.606721045262230     
  5.600000000000002E-003   -0.614156799530916     
  5.700000000000001E-003   -0.621466781894429     
  5.800000000000001E-003   -0.628642531741874     
  5.900000000000002E-003   -0.635675453506479     
  6.000000000000001E-003   -0.642556851025466     
  6.100000000000001E-003   -0.649278032002054     
  6.200000000000002E-003   -0.655830107602577     
  6.300000000000002E-003   -0.662204197881889     
  6.400000000000001E-003   -0.668391259673059     
  6.500000000000001E-003   -0.674382298056847     
  6.600000000000002E-003   -0.680168151452288     
  6.700000000000001E-003   -0.685739769853494     
  6.800000000000001E-003   -0.691087935398941     
  6.900000000000002E-003   -0.696203439158825     
  7.000000000000001E-003   -0.701077119950389     
  7.100000000000001E-003   -0.705699690377638     
  7.200000000000002E-003   -0.710061971088760     
  7.300000000000002E-003   -0.714154728664897     
  7.400000000000001E-003   -0.717968767033270     
  7.500000000000001E-003   -0.721494940136908     
  7.600000000000002E-003   -0.724724086419508     
  7.700000000000001E-003   -0.727647153081451     
  7.800000000000001E-003   -0.730255085605385     
  7.900000000000001E-003   -0.732538967877910     
  8.000000000000002E-003   -0.734489862315535     
  8.100000000000001E-003   -0.736098992976315     
  8.200000000000001E-003   -0.737357735889241     
  8.300000000000002E-003   -0.738257454271403     
  8.400000000000001E-003   -0.738789692864124     
  8.500000000000002E-003   -0.738946207934618     
  8.600000000000002E-003   -0.738718780046129     
  8.700000000000001E-003   -0.738099445013501     
  8.800000000000002E-003   -0.737080338729566     
  8.900000000000002E-003   -0.735653824936584     
  9.000000000000001E-003   -0.733812440708764     
  9.100000000000002E-003   -0.731548935751816     
  9.200000000000002E-003   -0.728856244368455     
  9.300000000000001E-003   -0.725727510497336     
  9.400000000000002E-003   -0.722156191156517     
  9.500000000000001E-003   -0.718135917953485     
  9.600000000000001E-003   -0.713660624438135     
  9.700000000000002E-003   -0.708724501899726     
  9.800000000000001E-003   -0.703322004595610     
  9.900000000000001E-003   -0.697447858516018     
  1.000000000000000E-002   -0.691097166863134     
  1.010000000000000E-002   -0.684265283833841     
  1.020000000000000E-002   -0.676947907518114     
  1.030000000000000E-002   -0.669141040089806     
  1.040000000000000E-002   -0.660841095748877     
  1.050000000000000E-002   -0.652044796676790     
  1.060000000000000E-002   -0.642749202855824     
  1.070000000000000E-002   -0.632951774083507     
  1.080000000000000E-002   -0.622650331221376     
  1.090000000000000E-002   -0.611843084150744     
  1.100000000000000E-002   -0.600528607932549     
  1.110000000000000E-002   -0.588705951922308     
  1.120000000000000E-002   -0.576374483198830     
  1.130000000000000E-002   -0.563534041370146     
  1.140000000000000E-002   -0.550184894228886     
  1.150000000000000E-002   -0.536327696166051     
  1.160000000000000E-002   -0.521963627951054     
  1.170000000000000E-002   -0.507094262661720     
  1.180000000000000E-002   -0.491721584997976     
  1.190000000000000E-002   -0.475848087520302     
  1.200000000000000E-002   -0.459476678377259     
  1.210000000000000E-002   -0.442610739048642     
  1.220000000000000E-002   -0.425254138725408     
  1.230000000000000E-002   -0.407411185058412     
  1.240000000000000E-002   -0.389086623557838     
  1.250000000000000E-002   -0.370285714171804     
  1.260000000000000E-002   -0.351014151726094     
  1.270000000000000E-002   -0.331278102045363     
  1.280000000000000E-002   -0.311084223908533     
  1.290000000000000E-002   -0.290439596102374     
  1.300000000000000E-002   -0.269351817655476     
  1.310000000000000E-002   -0.247828912199388     
  1.320000000000000E-002   -0.225879391410743     
  1.330000000000000E-002   -0.203512256179995     
  1.340000000000000E-002   -0.180736953768306     
  1.350000000000000E-002   -0.157563365786553     
  1.360000000000000E-002   -0.134001870317965     
  1.370000000000000E-002   -0.110063249090569     
  1.380000000000000E-002   -8.575875767959001E-002
  1.390000000000000E-002   -6.110008180269020E-002
  1.400000000000000E-002   -3.609934531521214E-002
  1.410000000000000E-002   -1.076905041737899E-002
  1.420000000000000E-002    1.487784994805444E-002
  1.430000000000000E-002    4.082801145570167E-002
  1.440000000000000E-002    6.706770810615093E-002
  1.450000000000000E-002    9.358280861878869E-002
  1.460000000000000E-002    0.120358824007301     
  1.470000000000000E-002    0.147380892322736     
  1.480000000000000E-002    0.174633803227549     
  1.490000000000000E-002    0.202101986669362     
  1.500000000000000E-002    0.229769527508101     
  1.510000000000000E-002    0.257620203786911     
  1.520000000000000E-002    0.285637478245165     
  1.530000000000000E-002    0.313804536223224     
  1.540000000000000E-002    0.342104265745223     
  1.550000000000000E-002    0.370519262800381     
  1.560000000000000E-002    0.399031924672788     
  1.570000000000000E-002    0.427624377556801     
  1.580000000000000E-002    0.456278534258174     
  1.590000000000000E-002    0.484976090693216     
  1.600000000000000E-002    0.513698573309735     
  1.610000000000000E-002    0.542427326607441     
  1.620000000000000E-002    0.571143562014746     
  1.630000000000000E-002    0.599828323797901     
  1.640000000000000E-002    0.628462560962636     
  1.650000000000000E-002    0.657027147269465     
  1.660000000000000E-002    0.685502753618112     
  1.670000000000000E-002    0.713870144815982     
  1.680000000000000E-002    0.742109885940894     
  1.690000000000000E-002    0.770202597062638     
  1.700000000000000E-002    0.798128859497605     
  1.710000000000000E-002    0.825869255638353     
  1.720000000000000E-002    0.853404405691668     
  1.730000000000000E-002    0.880715003890990     
  1.740000000000000E-002    0.907781711522131     
  1.750000000000000E-002    0.934585368523072     
  1.760000000000000E-002    0.961106882749542     
  1.770000000000000E-002    0.987327249788394     
  1.780000000000000E-002     1.01322770925940     
  1.790000000000000E-002     1.03878948598558     
  1.800000000000000E-002     1.06399418381235     
  1.810000000000000E-002     1.08882343792450     
  1.820000000000000E-002     1.11325914467111     
  1.830000000000000E-002     1.13728342142834     
  1.840000000000000E-002     1.16087874350397     
  1.850000000000000E-002     1.18402770756561     
  1.860000000000000E-002     1.20671325565469     
  1.870000000000000E-002     1.22891864920505     