 -4.000000000000000E-002    0.000000000000000E+000
 -3.990000000000000E-002    0.000000000000000E+000
 -3.980000000000000E-002    0.000000000000000E+000
 -3.970000000000000E-002    0.000000000000000E+000
 -3.960000000000000E-002    0.000000000000000E+000
 -3.950000000000000E-002    5.940586748124689E-021
 -3.940000000000000E-002    6.012212780712060E-020
 -3.930000000000000E-002    3.252740995780746E-019
 -3.920000000000000E-002    1.241391170987070E-018
 -3.910000000000000E-002    3.718970561562059E-018
 -3.900000000000000E-002    9.210342472512112E-018
 -3.890000000000000E-002    1.930978923717919E-017
 -3.880000000000000E-002    3.430477310022099E-017
 -3.870000000000000E-002    4.991592754370264E-017
 -3.860000000000000E-002    5.145246517690677E-017
 -3.850000000000000E-002    4.943176197566576E-018
 -3.840000000000000E-002   -1.543502993526187E-016
 -3.830000000000000E-002   -5.341641902507851E-016
 -3.820000000000000E-002   -1.294259574335690E-015
 -3.810000000000000E-002   -2.645863592422072E-015
 -3.800000000000000E-002   -4.832838559195980E-015
 -3.790000000000000E-002   -8.084503409438734E-015
 -3.780000000000000E-002   -1.253051208260108E-014
 -3.770000000000000E-002   -1.807165109389900E-014
 -3.760000000000000E-002   -2.420756586434467E-014
 -3.750000000000000E-002   -2.983380379797306E-014
 -3.740000000000000E-002   -3.303554438412123E-014
 -3.730000000000000E-002   -3.092250263486503E-014
 -3.720000000000000E-002   -1.956597556360098E-014
 -3.710000000000000E-002    5.888881627637485E-015
 -3.700000000000000E-002    5.085973655788154E-014
 -3.690000000000000E-002    1.206474693585392E-013
 -3.680000000000000E-002    2.194037034563149E-013
 -3.670000000000000E-002    3.487564685269539E-013
 -3.660000000000000E-002    5.061710161052998E-013
 -3.650000000000000E-002    6.832025595699307E-013
 -3.640000000000000E-002    8.638801969925288E-013
 -3.630000000000000E-002    1.023536925482740E-012
 -3.620000000000000E-002    1.128449044512251E-012
 -3.610000000000000E-002    1.136657823618232E-012
 -3.600000000000000E-002    1.000297367616149E-012
 -3.590000000000000E-002    6.696402506542633E-013
 -3.580000000000000E-002    9.888956064898227E-014
 -3.570000000000000E-002   -7.464934227337516E-013
 -3.560000000000000E-002   -1.881419663835222E-012
 -3.550000000000000E-002   -3.292542068665734E-012
 -3.540000000000000E-002   -4.930402759067283E-012
 -3.530000000000000E-002   -6.703577562862778E-012
 -3.520000000000000E-002   -8.476089202237296E-012
 -3.510000000000000E-002   -1.006926847480626E-011
 -3.500000000000000E-002   -1.126894988167213E-011
 -3.490000000000000E-002   -1.183843107931477E-011
 -3.480000000000000E-002   -1.153700924428643E-011
 -3.470000000000000E-002   -1.014318411412140E-011
 -3.460000000000000E-002   -7.480878992658820E-012
 -3.450000000000000E-002   -3.446349858782159E-012
 -3.440000000000000E-002    1.967040862990401E-012
 -3.430000000000000E-002    8.649240118304752E-012
 -3.420000000000000E-002    1.636206047069896E-011
 -3.410000000000000E-002    2.473831171331962E-011
 -3.400000000000000E-002    3.329310292873936E-011
 -3.390000000000000E-002    4.144768509736249E-011
 -3.380000000000000E-002    4.856482308672163E-011
 -3.370000000000000E-002    5.399325524597837E-011
 -3.360000000000000E-002    5.711745402511194E-011
 -3.350000000000000E-002    5.740797936411518E-011
 -3.340000000000000E-002    5.446716879029055E-011
 -3.330000000000000E-002    4.806511130210898E-011
 -3.320000000000000E-002    3.816164756991241E-011
 -3.310000000000000E-002    2.491162554884721E-011
 -3.300000000000000E-002    8.652636129300403E-012
 -3.290000000000000E-002   -1.012327999446452E-011
 -3.280000000000000E-002   -3.081016924897567E-011
 -3.270000000000000E-002   -5.273516306679228E-011
 -3.260000000000000E-002   -7.520488451044807E-011
 -3.250000000000000E-002   -9.754383878092832E-011
 -3.240000000000000E-002   -1.191180432233427E-010
 -3.230000000000000E-002   -1.393390339082427E-010
 -3.220000000000000E-002   -1.576463320158422E-010
 -3.210000000000000E-002   -1.734701128097972E-010
 -3.200000000000000E-002   -1.861796907278865E-010
 -3.190000000000000E-002   -1.950272249815906E-010
 -3.180000000000000E-002   -1.990989050863168E-010
 -3.170000000000000E-002   -1.972872544695809E-010
 -3.160000000000000E-002   -1.882979576474374E-010
 -3.150000000000000E-002   -1.707018898925391E-010
 -3.140000000000000E-002   -1.430386716154263E-010
 -3.130000000000000E-002   -1.039713687937343E-010
 -3.120000000000000E-002   -5.248453461879334E-011
 -3.110000000000000E-002    1.189019701417353E-011
 -3.100000000000000E-002    8.884424599504615E-011
 -3.090000000000000E-002    1.770863640075077E-010
 -3.080000000000000E-002    2.741924062023751E-010
 -3.070000000000000E-002    3.765407189709272E-010
 -3.060000000000000E-002    4.793583650050116E-010
 -3.050000000000000E-002    5.768940152384733E-010
 -3.040000000000000E-002    6.627206805416140E-010
 -3.030000000000000E-002    7.301569175963761E-010
 -3.020000000000000E-002    7.727784831722760E-010
 -3.010000000000000E-002    7.849782768725250E-010
 -3.000000000000000E-002    7.625207494124867E-010
 -2.990000000000000E-002    7.030298843595660E-010
 -2.980000000000000E-002    6.063503871794464E-010
 -2.970000000000000E-002    4.747282021222288E-010
 -2.960000000000000E-002    3.127722397366970E-010
 -2.950000000000000E-002    1.271794681752998E-010
 -2.940000000000000E-002   -7.376735608214605E-011
 -2.930000000000000E-002   -2.808937957569499E-010
 -2.920000000000000E-002   -4.849539974095387E-010
 -2.910000000000000E-002   -6.774929258063936E-010
 -2.900000000000000E-002   -8.516493360635872E-010
 -2.890000000000000E-002   -1.002796047189781E-009
 -2.880000000000000E-002   -1.128922675809389E-009
 -2.870000000000000E-002   -1.230688310638496E-009
 -2.860000000000000E-002   -1.311105276464944E-009
 -2.850000000000000E-002   -1.374856707552148E-009
 -2.840000000000000E-002   -1.427299039787172E-009
 -2.830000000000000E-002   -1.473247459784242E-009
 -2.820000000000000E-002   -1.515678988883671E-009
 -2.810000000000000E-002   -1.554522521720018E-009
 -2.800000000000000E-002   -1.585707375976221E-009
 -2.790000000000000E-002   -1.600640500203410E-009
 -2.780000000000000E-002   -1.586244551419579E-009
 -2.770000000000000E-002   -1.525642324311406E-009
 -2.760000000000000E-002   -1.399502029939751E-009
 -2.750000000000000E-002   -1.187981264065292E-009
 -2.740000000000000E-002   -8.731255175718785E-010
 -2.730000000000000E-002   -4.415076678279647E-010
 -2.720000000000000E-002    1.131643880463248E-010
 -2.710000000000000E-002    7.877744057634253E-010
 -2.700000000000000E-002    1.568158363828199E-009
 -2.690000000000000E-002    2.428365320692203E-009
 -2.680000000000000E-002    3.331014695965493E-009
 -2.670000000000000E-002    4.228845915253529E-009
 -2.660000000000000E-002    5.067437670901336E-009
 -2.650000000000000E-002    5.788942701523870E-009
 -2.640000000000000E-002    6.336563536266268E-009
 -2.630000000000000E-002    6.659382770325624E-009
 -2.620000000000000E-002    6.717097813654263E-009
 -2.610000000000000E-002    6.484172682055350E-009
 -2.600000000000000E-002    5.952949584755511E-009
 -2.590000000000000E-002    5.135332271795621E-009
 -2.580000000000000E-002    4.062780048282985E-009
 -2.570000000000000E-002    2.784507420958672E-009
 -2.560000000000000E-002    1.363978218742409E-009
 -2.550000000000000E-002   -1.260478459188418E-010
 -2.540000000000000E-002   -1.609469391176732E-009
 -2.530000000000000E-002   -3.013228174127753E-009
 -2.520000000000000E-002   -4.273479206570750E-009
 -2.510000000000000E-002   -5.340885433178964E-009
 -2.500000000000000E-002   -6.184440318287017E-009
 -2.490000000000000E-002   -6.793359677703101E-009
 -2.480000000000000E-002   -7.176773267271510E-009
 -2.470000000000000E-002   -7.361184153213296E-009
 -2.460000000000000E-002   -7.385919793984816E-009
 -2.450000000000000E-002   -7.297031353812237E-009
 -2.440000000000000E-002   -7.140321752348103E-009
 -2.430000000000000E-002   -6.954299625597045E-009
 -2.420000000000000E-002   -6.763926761846821E-009
 -2.410000000000000E-002   -6.575979452148085E-009
 -2.400000000000000E-002   -6.376710085735778E-009
 -2.390000000000000E-002   -6.132252305488901E-009
 -2.380000000000000E-002   -5.791942010515123E-009
 -2.370000000000000E-002   -5.294370119954713E-009
 -2.360000000000000E-002   -4.575656581807386E-009
 -2.350000000000000E-002   -3.579131954779012E-009
 -2.340000000000000E-002   -2.265383177205353E-009
 -2.330000000000000E-002   -6.214889982712486E-010
 -2.320000000000000E-002    1.331727637537232E-009
 -2.310000000000000E-002    3.535480028961568E-009
 -2.300000000000000E-002    5.892619486527717E-009
 -2.290000000000000E-002    8.271492952178166E-009
 -2.280000000000000E-002    1.051405218734201E-008
 -2.270000000000000E-002    1.244774454546672E-008
 -2.260000000000000E-002    1.390027422584077E-008
 -2.250000000000000E-002    1.471593932741648E-008
 -2.240000000000000E-002    1.477200119847395E-008
 -2.230000000000000E-002    1.399340729583376E-008
 -2.220000000000000E-002    1.236425751033804E-008
 -2.210000000000000E-002    9.934629123270879E-009
 -2.200000000000000E-002    6.821753488929516E-009
 -2.190000000000000E-002    3.205042057946845E-009
 -2.180000000000000E-002   -6.849461406392344E-010
 -2.170000000000000E-002   -4.582928998718616E-009
 -2.160000000000000E-002   -8.209458969486009E-009
 -2.150000000000000E-002   -1.129396452050408E-008
 -2.140000000000000E-002   -1.359826905339727E-008
 -2.130000000000000E-002   -1.493854875554664E-008
 -2.120000000000000E-002   -1.520377323990876E-008
 -2.110000000000000E-002   -1.436899845115513E-008
 -2.100000000000000E-002   -1.250240122576870E-008
 -2.090000000000000E-002   -9.765568468683534E-009
 -2.080000000000000E-002   -6.407226801786079E-009
 -2.070000000000000E-002   -2.751345830861700E-009
 -2.060000000000000E-002    8.188809420827658E-010
 -2.050000000000000E-002    3.879234046123701E-009
 -2.040000000000000E-002    5.982602073350995E-009
 -2.030000000000000E-002    6.674816495416135E-009
 -2.020000000000000E-002    5.506205571356178E-009
 -2.010000000000000E-002    2.037338102104295E-009
 -2.000000000000000E-002   -4.161939240602174E-009
 -1.990000000000000E-002   -1.352025491667324E-008
 -1.980000000000000E-002   -2.647857448603117E-008
 -1.970000000000000E-002   -4.350873336274959E-008
 -1.960000000000000E-002   -6.513453794705924E-008
 -1.950000000000000E-002   -9.195297297117304E-008
 -1.940000000000000E-002   -1.246529861140494E-007
 -1.930000000000000E-002   -1.640292114643767E-007
 -1.920000000000000E-002   -2.109887666825668E-007
 -1.910000000000000E-002   -2.665497010868639E-007
 -1.900000000000000E-002   -3.318305422858279E-007
 -1.890000000000000E-002   -4.080315361675752E-007
 -1.880000000000000E-002   -4.964087376106645E-007
 -1.870000000000000E-002   -5.982434411235561E-007
 -1.860000000000000E-002   -7.148095115168940E-007
 -1.850000000000000E-002   -8.473420796761177E-007
 -1.840000000000000E-002   -9.970104928530260E-007
 -1.830000000000000E-002   -1.164898668241491E-006
 -1.820000000000000E-002   -1.351994880640545E-006
 -1.810000000000000E-002   -1.559192267761624E-006
 -1.800000000000000E-002   -1.787300960889524E-006
 -1.790000000000000E-002   -2.037069922512147E-006
 -1.780000000000000E-002   -2.309217659554675E-006
 -1.770000000000000E-002   -2.604468319162919E-006
 -1.760000000000000E-002   -2.923590406890061E-006
 -1.750000000000000E-002   -3.267433976521542E-006
 -1.740000000000000E-002   -3.636963167714211E-006
 -1.730000000000000E-002   -4.033280559250850E-006
 -1.720000000000000E-002   -4.457641866166964E-006
 -1.710000000000000E-002   -4.911459015302820E-006
 -1.700000000000000E-002   -5.396292751013418E-006
 -1.690000000000000E-002   -5.913834314678147E-006
 -1.680000000000000E-002   -6.465879219679350E-006
 -1.670000000000000E-002   -7.054298928740654E-006
 -1.660000000000000E-002   -7.681009632005071E-006
 -1.650000000000000E-002   -8.347944624997172E-006
 -1.640000000000000E-002   -9.057034467782657E-006
 -1.630000000000000E-002   -9.810196691109620E-006
 -1.620000000000000E-002   -1.060933718794654E-005
 -1.610000000000000E-002   -1.145636476140866E-005
 -1.600000000000000E-002   -1.235321775489377E-005
 -1.590000000000000E-002   -1.330190121654546E-005
 -1.580000000000000E-002   -1.430453224111572E-005
 -1.570000000000000E-002   -1.536339043867018E-005
 -1.560000000000000E-002   -1.648096715617422E-005
 -1.550000000000000E-002   -1.766000854046380E-005
 -1.540000000000000E-002   -1.890355476850970E-005
 -1.530000000000000E-002   -2.021496557285918E-005
 -1.520000000000000E-002   -2.159793170351442E-005
 -1.510000000000000E-002   -2.305647607471143E-005
 -1.500000000000000E-002   -2.459493654681625E-005
 -1.490000000000000E-002   -2.621794256445520E-005
 -1.480000000000000E-002   -2.793037805614961E-005
 -1.470000000000000E-002   -2.973734556432007E-005
 -1.460000000000000E-002   -3.164412849759186E-005
 -1.450000000000000E-002   -3.365615560066742E-005
 -1.440000000000000E-002   -3.577897290857610E-005
 -1.430000000000000E-002   -3.801823938775684E-005
 -1.420000000000000E-002   -4.037972143884063E-005
 -1.410000000000000E-002   -4.286931504470630E-005
 -1.400000000000000E-002   -4.549308686953034E-005
 -1.390000000000000E-002   -4.825731120833425E-005
 -1.380000000000000E-002   -5.116854153825714E-005
 -1.370000000000000E-002   -5.423367328038019E-005
 -1.360000000000000E-002   -5.746002234467108E-005
 -1.350000000000000E-002   -6.085540495699469E-005
 -1.340000000000000E-002   -6.442818409210003E-005
 -1.330000000000000E-002   -6.818735461734005E-005
 -1.320000000000000E-002   -7.214257358459723E-005
 -1.310000000000000E-002   -7.630420515604247E-005
 -1.300000000000000E-002   -8.068332329566312E-005
 -1.290000000000000E-002   -8.529173182942332E-005
 -1.280000000000000E-002   -9.014194251816066E-005
 -1.270000000000000E-002   -9.524715242629730E-005
 -1.260000000000000E-002   -1.006212215839014E-004
 -1.250000000000000E-002   -1.062786319597074E-004
 -1.240000000000000E-002   -1.122344514446984E-004
 -1.230000000000000E-002   -1.185043192530972E-004
 -1.220000000000000E-002   -1.251043936327175E-004
 -1.210000000000000E-002   -1.320513618967426E-004
 -1.200000000000000E-002   -1.393624412163842E-004
 -1.190000000000000E-002   -1.470553770840386E-004
 -1.180000000000000E-002   -1.551484916439655E-004
 -1.170000000000000E-002   -1.636607095438836E-004
 -1.160000000000000E-002   -1.726116010245138E-004
 -1.150000000000000E-002   -1.820214782270255E-004
 -1.140000000000000E-002   -1.919114435864908E-004
 -1.130000000000000E-002   -2.023034430097272E-004
 -1.120000000000000E-002   -2.132203476173484E-004
 -1.110000000000000E-002   -2.246860260351172E-004
 -1.100000000000000E-002   -2.367254020423514E-004
 -1.090000000000000E-002   -2.493645180287490E-004
 -1.080000000000000E-002   -2.626305580906878E-004
 -1.070000000000000E-002   -2.765519044898503E-004
 -1.060000000000000E-002   -2.911581397190711E-004
 -1.050000000000000E-002   -3.064801277235600E-004
 -1.040000000000000E-002   -3.225499480896166E-004
 -1.030000000000000E-002   -3.394009777427955E-004
 -1.020000000000000E-002   -3.570678949955927E-004
 -1.010000000000000E-002   -3.755866561667734E-004
 -1.000000000000000E-002   -3.949945351341129E-004
 -9.899999999999999E-003   -4.153301416672392E-004
 -9.800000000000000E-003   -4.366334408569278E-004
 -9.699999999999999E-003   -4.589457762091928E-004
 -9.599999999999999E-003   -4.823099046276397E-004
 -9.500000000000000E-003   -5.067699995164956E-004
 -9.399999999999999E-003   -5.323717198520975E-004
 -9.299999999999999E-003   -5.591621498232772E-004
 -9.200000000000000E-003   -5.871899235940782E-004
 -9.099999999999999E-003   -6.165052013083552E-004
 -8.999999999999999E-003   -6.471597114437829E-004
 -8.900000000000000E-003   -6.792067072235565E-004
 -8.799999999999999E-003   -7.127010835629669E-004
 -8.699999999999999E-003   -7.476993331691921E-004
 -8.600000000000000E-003   -7.842595531596249E-004
 -8.499999999999999E-003   -8.224415970134858E-004
 -8.399999999999999E-003   -8.623069384726771E-004
 -8.300000000000000E-003   -9.039189187882976E-004
 -8.199999999999999E-003   -9.473426871708880E-004
 -8.100000000000000E-003   -9.926452727124124E-004
 -8.000000000000000E-003   -1.039895713149901E-003
 -7.899999999999999E-003   -1.089165136962885E-003
 -7.800000000000000E-003   -1.140526935161797E-003
 -7.699999999999999E-003   -1.194056619164438E-003
 -7.599999999999999E-003   -1.249832269867446E-003
 -7.499999999999999E-003   -1.307934242199439E-003
 -7.399999999999999E-003   -1.368445513375648E-003
 -7.299999999999999E-003   -1.431451461642045E-003
 -7.199999999999999E-003   -1.497040196109249E-003
 -7.100000000000000E-003   -1.565302352911772E-003
 -6.999999999999999E-003   -1.636331029667860E-003
 -6.899999999999999E-003   -1.710221952701650E-003
 -6.800000000000000E-003   -1.787073100349847E-003
 -6.699999999999999E-003   -1.866985061488721E-003
 -6.599999999999999E-003   -1.950060585222661E-003
 -6.499999999999999E-003   -2.036404679557234E-003
 -6.399999999999999E-003   -2.126124618732292E-003
 -6.299999999999999E-003   -2.219329681072154E-003
 -6.199999999999999E-003   -2.316131417600311E-003
 -6.100000000000000E-003   -2.416643244190632E-003
 -5.999999999999999E-003   -2.520980964223309E-003
 -5.899999999999999E-003   -2.629262162649747E-003
 -5.800000000000000E-003   -2.741607169995228E-003
 -5.699999999999999E-003   -2.858138158351349E-003
 -5.599999999999999E-003   -2.978979993967735E-003
 -5.499999999999999E-003   -3.104259432694768E-003
 -5.399999999999999E-003   -3.234106279973455E-003
 -5.299999999999999E-003   -3.368652560510006E-003
 -5.199999999999999E-003   -3.508032806098381E-003
 -5.099999999999999E-003   -3.652383881941468E-003
 -4.999999999999999E-003   -3.801845154512180E-003
 -4.899999999999999E-003   -3.956558243039016E-003
 -4.799999999999999E-003   -4.116666404584593E-003
 -4.699999999999999E-003   -4.282315368899572E-003
 -4.599999999999999E-003   -4.453652378794053E-003
 -4.499999999999999E-003   -4.630825456926952E-003
 -4.399999999999999E-003   -4.813984895765332E-003
 -4.299999999999999E-003   -5.003280672756591E-003
 -4.199999999999999E-003   -5.198864628378578E-003
 -4.099999999999999E-003   -5.400888390972935E-003
 -3.999999999999999E-003   -5.609504850958393E-003
 -3.899999999999999E-003   -5.824866194600922E-003
 -3.799999999999999E-003   -6.047125488880408E-003
 -3.699999999999999E-003   -6.276435811310221E-003
 -3.599999999999999E-003   -6.512950625214294E-003
 -3.499999999999999E-003   -6.756823214221551E-003
 -3.399999999999999E-003   -7.008206907000756E-003
 -3.299999999999999E-003   -7.267255095707592E-003
 -3.199999999999999E-003   -7.534120935529763E-003
 -3.099999999999999E-003   -7.808957610876654E-003
 -2.999999999999999E-003   -8.091917726940036E-003
 -2.899999999999999E-003   -8.383152012336356E-003
 -2.799999999999999E-003   -8.682811995577759E-003
 -2.699999999999999E-003   -8.991046877815240E-003
 -2.599999999999999E-003   -9.308004388705724E-003
 -2.499999999999999E-003   -9.633828974180749E-003
 -2.399999999999999E-003   -9.968663148791112E-003
 -2.299999999999999E-003   -1.031264573666004E-002
 -2.199999999999999E-003   -1.066591272309402E-002
 -2.099999999999999E-003   -1.102859602094511E-002
 -1.999999999999999E-003   -1.140082138076680E-002
 -1.899999999999999E-003   -1.178271154577063E-002
 -1.799999999999999E-003   -1.217438301961367E-002
 -1.699999999999999E-003   -1.257594636513857E-002
 -1.599999999999999E-003   -1.298750710251981E-002
 -1.499999999999999E-003   -1.340916500163115E-002
 -1.399999999999999E-003   -1.384101211671840E-002
 -1.299999999999999E-003   -1.428313445174672E-002
 -1.199999999999999E-003   -1.473561042932533E-002
 -1.099999999999999E-003   -1.519851118581775E-002
 -9.999999999999989E-004   -1.567189916013446E-002
 -8.999999999999990E-004   -1.615582934944076E-002
 -7.999999999999990E-004   -1.665034552733422E-002
 -6.999999999999989E-004   -1.715548419559451E-002
 -5.999999999999990E-004   -1.767126763076480E-002
 -4.999999999999989E-004   -1.819771038556762E-002
 -3.999999999999989E-004   -1.873481459594242E-002
 -2.999999999999989E-004   -1.928256634205677E-002
 -1.999999999999989E-004   -1.984094175134552E-002
 -9.999999999999892E-005   -2.040990166017048E-002
  1.084202172485504E-018   -2.098939330145544E-002
  1.000000000000011E-004   -2.157934820102419E-002
  2.000000000000011E-004   -2.217968304827499E-002
  3.000000000000011E-004   -2.279029760204639E-002
  4.000000000000011E-004   -2.341107437376154E-002
  5.000000000000011E-004   -2.404188032390444E-002
  6.000000000000011E-004   -2.468256467826059E-002
  7.000000000000011E-004   -2.533295850279207E-002
  8.000000000000011E-004   -2.599287205422115E-002
  9.000000000000012E-004   -2.666209795679205E-002
  1.000000000000001E-003   -2.734040655167150E-002
  1.100000000000001E-003   -2.802754664512108E-002
  1.200000000000001E-003   -2.872324640179722E-002
  1.300000000000001E-003   -2.942721008607840E-002
  1.400000000000001E-003   -3.013911487637505E-002
  1.500000000000001E-003   -3.085861777898621E-002
  1.600000000000001E-003   -3.158534408915932E-002
  1.700000000000001E-003   -3.231889484752005E-002
  1.800000000000001E-003   -3.305884419078254E-002
  1.900000000000001E-003   -3.380473783717777E-002
  2.000000000000001E-003   -3.455609136626224E-002
  2.100000000000001E-003   -3.531239072401430E-002
  2.200000000000001E-003   -3.607309062985185E-002
  2.300000000000001E-003   -3.683761900111791E-002
  2.400000000000001E-003   -3.760536763837709E-002
  2.500000000000001E-003   -3.837570015382878E-002
  2.600000000000001E-003   -3.914795069525968E-002
  2.700000000000001E-003   -3.992141474413577E-002
  2.800000000000001E-003   -4.069535700521647E-002
  2.900000000000001E-003   -4.146901062662478E-002
  3.000000000000001E-003   -4.224157141428324E-002
  3.100000000000001E-003   -4.301219898793471E-002
  3.200000000000001E-003   -4.378001610652082E-002
  3.300000000000001E-003   -4.454410974691708E-002
  3.400000000000001E-003   -4.530352849686542E-002
  3.500000000000001E-003   -4.605728441789262E-002
  3.600000000000001E-003   -4.680434499663706E-002
  3.700000000000001E-003   -4.754364351836834E-002
  3.800000000000001E-003   -4.827407322700623E-002
  3.900000000000001E-003   -4.899448077574404E-002
  4.000000000000001E-003   -4.970367685558000E-002
  4.100000000000001E-003   -5.040042914432007E-002
  4.200000000000001E-003   -5.108346838503061E-002
  4.300000000000001E-003   -5.175147719705542E-002
  4.400000000000001E-003   -5.240310083208708E-002
  4.500000000000001E-003   -5.303694414242431E-002
  4.600000000000002E-003   -5.365156711904164E-002
  4.700000000000001E-003   -5.424549053407116E-002
  4.800000000000001E-003   -5.481719182594216E-002
  4.900000000000002E-003   -5.536510675199970E-002
  5.000000000000001E-003   -5.588763281332114E-002
  5.100000000000001E-003   -5.638312030163774E-002
  5.200000000000001E-003   -5.684988088215528E-002
  5.300000000000002E-003   -5.728618002884803E-002
  5.400000000000001E-003   -5.769025013116443E-002
  5.500000000000001E-003   -5.806027417785736E-002
  5.600000000000002E-003   -5.839439917134238E-002
  5.700000000000001E-003   -5.869072947767746E-002
  5.800000000000001E-003   -5.894733222281785E-002
  5.900000000000002E-003   -5.916223130660322E-002
  6.000000000000001E-003   -5.933341851042798E-002
  6.100000000000001E-003   -5.945884631391948E-002
  6.200000000000002E-003   -5.953643029657424E-002
  6.300000000000002E-003   -5.956404742460995E-002
  6.400000000000001E-003   -5.953954218344926E-002
  6.500000000000001E-003   -5.946072930465129E-002
  6.600000000000002E-003   -5.932538562533275E-002
  6.700000000000001E-003   -5.913126235620944E-002
  6.800000000000001E-003   -5.887607341079445E-002
  6.900000000000002E-003   -5.855751296555906E-002
  7.000000000000001E-003   -5.817324383288183E-002
  7.100000000000001E-003   -5.772090205588783E-002
  7.200000000000002E-003   -5.719810059855388E-002
  7.300000000000002E-003   -5.660243086688216E-002
  7.400000000000001E-003   -5.593146810381308E-002
  7.500000000000001E-003   -5.518276225102904E-002
  7.600000000000002E-003   -5.435385436852526E-002
  7.700000000000001E-003   -5.344226045139908E-002
  7.800000000000001E-003   -5.244549471209174E-002
  7.900000000000001E-003   -5.136105509036582E-002
  8.000000000000002E-003   -5.018643423757579E-002
  8.100000000000001E-003   -4.891911545843024E-002
  8.200000000000001E-003   -4.755658127814595E-002
  8.300000000000002E-003   -4.609630963630289E-002
  8.400000000000001E-003   -4.453578149527583E-002
  8.500000000000002E-003   -4.287248131798114E-002
  8.600000000000002E-003   -4.110390528067919E-002
  8.700000000000001E-003   -3.922755003761005E-002
  8.800000000000002E-003   -3.724093298862970E-002
  8.900000000000002E-003   -3.514158185247800E-002
  9.000000000000001E-003   -3.292704700254556E-002
  9.100000000000002E-003   -3.059489833010494E-002
  9.200000000000002E-003   -2.814273202622382E-002
  9.300000000000001E-003   -2.556817589738633E-002
  9.400000000000002E-003   -2.286889043018273E-002
  9.500000000000001E-003   -2.004256400369951E-002
  9.600000000000001E-003   -1.708693637610845E-002
  9.700000000000002E-003   -1.399978400112105E-002
  9.800000000000001E-003   -1.077893096176538E-002
  9.900000000000001E-003   -7.422250524303039E-003
  1.000000000000000E-002   -3.927671141936120E-003
  1.010000000000000E-002   -2.931775472691440E-004
  1.020000000000000E-002    3.483185004753783E-003
  1.030000000000000E-002    7.403305324451845E-003
  1.040000000000000E-002    1.146900260219143E-002
  1.050000000000000E-002    1.568202662275405E-002
  1.060000000000000E-002    2.004404941038952E-002
  1.070000000000000E-002    2.455666169253502E-002
  1.080000000000000E-002    2.922137060745838E-002
  1.090000000000000E-002    3.403959415743422E-002
  1.100000000000000E-002    3.901265643177978E-002
  1.110000000000000E-002    4.414178312519150E-002
  1.120000000000000E-002    4.942810401092954E-002
  1.130000000000000E-002    5.487263807314718E-002
  1.140000000000000E-002    6.047630021191050E-002
  1.150000000000000E-002    6.623988701725238E-002
  1.160000000000000E-002    7.216408432455849E-002
  1.170000000000000E-002    7.824945290294916E-002
  1.180000000000000E-002    8.449643703343793E-002
  1.190000000000000E-002    9.090534804153361E-002
  1.200000000000000E-002    9.747636684764857E-002
  1.210000000000000E-002    0.104209546208984     
  1.220000000000000E-002    0.111104786448932     
  1.230000000000000E-002    0.118161867548840     
  1.240000000000000E-002    0.125380404646101     
  1.250000000000000E-002    0.132759880080541     
  1.260000000000000E-002    0.140299614544158     
  1.270000000000000E-002    0.147998772486286     
  1.280000000000000E-002    0.155856362797246     
  1.290000000000000E-002    0.163871229720882     
  1.300000000000000E-002    0.172042043719950     
  1.310000000000000E-002    0.180367326793003     
  1.320000000000000E-002    0.188845415792184     
  1.330000000000000E-002    0.197474463295123     
  1.340000000000000E-002    0.206252466726366     
  1.350000000000000E-002    0.215177232303441     
  1.360000000000000E-002    0.224246394542892     
  1.370000000000000E-002    0.233457401722574     
  1.380000000000000E-002    0.242807501448059     
  1.390000000000000E-002    0.252293776783825     
  1.400000000000000E-002    0.261913125643821     
  1.410000000000000E-002    0.271662232553832     
  1.420000000000000E-002    0.281537617393338     
  1.430000000000000E-002    0.291535595774200     
  1.440000000000000E-002    0.301652283475129     
  1.450000000000000E-002    0.311883624918041     
  1.460000000000000E-002    0.322225354473888     
  1.470000000000000E-002    0.332673023852750     
  1.480000000000000E-002    0.343221991565144     
  1.490000000000000E-002    0.353867402843869     
  1.500000000000000E-002    0.364604225232303     
  1.510000000000000E-002    0.375427208261010     
  1.520000000000000E-002    0.386330965412949     
  1.530000000000000E-002    0.397309876337424     
  1.540000000000000E-002    0.408358138644377     
  1.550000000000000E-002    0.419469772144461     
  1.560000000000000E-002    0.430638610868077     
  1.570000000000000E-002    0.441858266267090     
  1.580000000000000E-002    0.453122222605844     
  1.590000000000000E-002    0.464423762118739     
  1.600000000000000E-002    0.475755989139436     
  1.610000000000000E-002    0.487111838579415     
  1.620000000000000E-002    0.498484069347725     
  1.630000000000000E-002    0.509865271305823     
  1.640000000000000E-002    0.521247867999688     
  1.650000000000000E-002    0.532624127710452     
  1.660000000000000E-002    0.543986175241340     
  1.670000000000000E-002    0.555325936297339     
  1.680000000000000E-002    0.566635249071614     
  1.690000000000000E-002    0.577905797668175     
  1.700000000000000E-002    0.589129056038592     
  1.710000000000000E-002    0.600296471051661     
  1.720000000000000E-002    0.611399287044011     
  1.730000000000000E-002    0.622428647474186     
  1.740000000000000E-002    0.633375631346091     
  1.750000000000000E-002    0.644231147147164     
  1.760000000000000E-002    0.654985992225155     
  1.770000000000000E-002    0.665630924625896     
  1.780000000000000E-002    0.676156530083760     
  1.790000000000000E-002    0.686553403433710     
  1.800000000000000E-002    0.696812024513249     
  1.810000000000000E-002    0.706922802657416     
  1.820000000000000E-002    0.716876045137339     
  1.830000000000000E-002    0.726662070906203     
  1.840000000000000E-002    0.736271118097537     
  1.850000000000000E-002    0.745693353242501     
  1.860000000000000E-002    0.754919000706673     
  1.870000000000000E-002    0.763938225197480     