 -4.000000000000000E-002    0.000000000000000E+000
 -3.990000000000000E-002    0.000000000000000E+000
 -3.980000000000000E-002    0.000000000000000E+000
 -3.970000000000000E-002    0.000000000000000E+000
 -3.960000000000000E-002    0.000000000000000E+000
 -3.950000000000000E-002    0.000000000000000E+000
 -3.940000000000000E-002    0.000000000000000E+000
 -3.930000000000000E-002   -6.703812492740693E-026
 -3.920000000000000E-002   -8.618694442735896E-025
 -3.910000000000000E-002   -5.718988545918675E-024
 -3.900000000000000E-002   -2.578051628760608E-023
 -3.890000000000000E-002   -8.714367036840001E-023
 -3.880000000000000E-002   -2.277654428359733E-022
 -3.870000000000000E-002   -4.433898947334874E-022
 -3.860000000000000E-002   -4.875575948716174E-022
 -3.850000000000000E-002    6.507931546850615E-022
 -3.840000000000000E-002    5.862262925484035E-021
 -3.830000000000000E-002    2.195765674126773E-020
 -3.820000000000000E-002    6.292399298032961E-020
 -3.810000000000000E-002    1.544310925368711E-019
 -3.800000000000000E-002    3.390497228638669E-019
 -3.790000000000000E-002    6.806769661657898E-019
 -3.780000000000000E-002    1.265337102683692E-018
 -3.770000000000000E-002    2.194029157243855E-018
 -3.760000000000000E-002    3.562032109809440E-018
 -3.750000000000000E-002    5.418686749709542E-018
 -3.740000000000000E-002    7.702930984647779E-018
 -3.730000000000000E-002    1.015358254099556E-017
 -3.720000000000000E-002    1.220008906722502E-017
 -3.710000000000000E-002    1.284925635224239E-017
 -3.700000000000000E-002    1.059553645075547E-017
 -3.690000000000000E-002    3.394914494156302E-018
 -3.680000000000000E-002   -1.124763302436725E-017
 -3.670000000000000E-002   -3.602369337505586E-017
 -3.660000000000000E-002   -7.335386668122835E-017
 -3.650000000000000E-002   -1.246828711448986E-016
 -3.640000000000000E-002   -1.895519493730258E-016
 -3.630000000000000E-002   -2.645183804330281E-016
 -3.620000000000000E-002   -3.420596659672061E-016
 -3.610000000000000E-002   -4.096709653990229E-016
 -3.600000000000000E-002   -4.494264841866718E-016
 -3.590000000000000E-002   -4.383117162490153E-016
 -3.580000000000000E-002   -3.496266153201736E-016
 -3.570000000000000E-002   -1.556935191348438E-016
 -3.560000000000000E-002    1.680322263911792E-016
 -3.550000000000000E-002    6.375579944198665E-016
 -3.540000000000000E-002    1.254034233433544E-015
 -3.530000000000000E-002    1.997199310214780E-015
 -3.520000000000000E-002    2.819567928770837E-015
 -3.510000000000000E-002    3.642584292715129E-015
 -3.500000000000000E-002    4.356084864855088E-015
 -3.490000000000000E-002    4.822364085093796E-015
 -3.480000000000000E-002    4.885865181462526E-015
 -3.470000000000000E-002    4.388987962385510E-015
 -3.460000000000000E-002    3.193733833876237E-015
 -3.450000000000000E-002    1.207932124319864E-015
 -3.440000000000000E-002   -1.586302330662142E-015
 -3.430000000000000E-002   -5.105318962922893E-015
 -3.420000000000000E-002   -9.142224832774422E-015
 -3.410000000000000E-002   -1.335560671251294E-014
 -3.400000000000000E-002   -1.727358144660781E-014
 -3.390000000000000E-002   -2.031736962485378E-014
 -3.380000000000000E-002   -2.184711626287687E-014
 -3.370000000000000E-002   -2.123038163469540E-014
 -3.360000000000000E-002   -1.793072499468916E-014
 -3.350000000000000E-002   -1.161030558392584E-014
 -3.340000000000000E-002   -2.236748183049074E-015
 -3.330000000000000E-002    9.818825156679504E-015
 -3.320000000000000E-002    2.370823236157442E-014
 -3.310000000000000E-002    3.807398965953895E-014
 -3.300000000000000E-002    5.107442907342596E-014
 -3.290000000000000E-002    6.047928825796017E-014
 -3.280000000000000E-002    6.384326962339056E-014
 -3.270000000000000E-002    5.875725229501710E-014
 -3.260000000000000E-002    4.316681944395885E-014
 -3.250000000000000E-002    1.573663979760095E-014
 -3.240000000000000E-002   -2.377202842841916E-014
 -3.230000000000000E-002   -7.415332126865559E-014
 -3.220000000000000E-002   -1.324881080298585E-013
 -3.210000000000000E-002   -1.940069051743390E-013
 -3.200000000000000E-002   -2.521335384036136E-013
 -3.190000000000000E-002   -2.987486399540569E-013
 -3.180000000000000E-002   -3.246948339576229E-013
 -3.170000000000000E-002   -3.205222700898010E-013
 -3.160000000000000E-002   -2.774446055275858E-013
 -3.150000000000000E-002   -1.884441222754850E-013
 -3.140000000000000E-002   -4.943599620825304E-014
 -3.130000000000000E-002    1.396244163387805E-013
 -3.120000000000000E-002    3.738226057330913E-013
 -3.110000000000000E-002    6.426893527671365E-013
 -3.100000000000000E-002    9.300512341971617E-013
 -3.090000000000000E-002    1.214420698047937E-012
 -3.080000000000000E-002    1.469975526603595E-012
 -3.070000000000000E-002    1.668117417993754E-012
 -3.060000000000000E-002    1.779535182976016E-012
 -3.050000000000000E-002    1.776632301445259E-012
 -3.040000000000000E-002    1.636117418782397E-012
 -3.030000000000000E-002    1.341517740971530E-012
 -3.020000000000000E-002    8.853536467338234E-013
 -3.010000000000000E-002    2.707304891337110E-013
 -3.000000000000000E-002   -4.878547429156842E-013
 -2.990000000000000E-002   -1.364616347204574E-012
 -2.980000000000000E-002   -2.323514660288875E-012
 -2.970000000000000E-002   -3.320136145492156E-012
 -2.960000000000000E-002   -4.304211972325836E-012
 -2.950000000000000E-002   -5.222485555513036E-012
 -2.940000000000000E-002   -6.021569605815525E-012
 -2.930000000000000E-002   -6.650434093262142E-012
 -2.920000000000000E-002   -7.062212402801112E-012
 -2.910000000000000E-002   -7.215115806046905E-012
 -2.900000000000000E-002   -7.072420112849424E-012
 -2.890000000000000E-002   -6.601666494176578E-012
 -2.880000000000000E-002   -5.773427545545897E-012
 -2.870000000000000E-002   -4.560171514703504E-012
 -2.860000000000000E-002   -2.935859820605953E-012
 -2.850000000000000E-002   -8.769514427398005E-013
 -2.840000000000000E-002    1.634601657761451E-012
 -2.830000000000000E-002    4.606009041894196E-012
 -2.820000000000000E-002    8.025912798246548E-012
 -2.810000000000000E-002    1.185467164299666E-011
 -2.800000000000000E-002    1.601354710048467E-011
 -2.790000000000000E-002    2.037412179703099E-011
 -2.780000000000000E-002    2.474967960840961E-011
 -2.770000000000000E-002    2.889048125994704E-011
 -2.760000000000000E-002    3.248488791508779E-011
 -2.750000000000000E-002    3.516797073916985E-011
 -2.740000000000000E-002    3.653870353179761E-011
 -2.730000000000000E-002    3.618599232476714E-011
 -2.720000000000000E-002    3.372272562091972E-011
 -2.710000000000000E-002    2.882590703950412E-011
 -2.700000000000000E-002    2.127973343033933E-011
 -2.690000000000000E-002    1.101756403802071E-011
 -2.680000000000000E-002   -1.841940350556362E-012
 -2.670000000000000E-002   -1.696941990382212E-011
 -2.660000000000000E-002   -3.381469790016782E-011
 -2.650000000000000E-002   -5.161547027273932E-011
 -2.640000000000000E-002   -6.942682653115534E-011
 -2.630000000000000E-002   -8.617156848160738E-011
 -2.620000000000000E-002   -1.007090156957951E-010
 -2.610000000000000E-002   -1.119176324312334E-010
 -2.600000000000000E-002   -1.187847216330169E-010
 -2.590000000000000E-002   -1.204948082422690E-010
 -2.580000000000000E-002   -1.165076135931366E-010
 -2.570000000000000E-002   -1.066166579788030E-010
 -2.560000000000000E-002   -9.098079281056449E-011
 -2.550000000000000E-002   -7.012332589495807E-011
 -2.540000000000000E-002   -4.489651601886361E-011
 -2.530000000000000E-002   -1.641314307658343E-011
 -2.520000000000000E-002    1.404932045472990E-011
 -2.510000000000000E-002    4.516255240529046E-011
 -2.500000000000000E-002    7.566699538571276E-011
 -2.490000000000000E-002    1.044832342096690E-010
 -2.480000000000000E-002    1.308009571924784E-010
 -2.470000000000000E-002    1.541328436702743E-010
 -2.460000000000000E-002    1.743241730431528E-010
 -2.450000000000000E-002    1.915135670159646E-010
 -2.440000000000000E-002    2.060462152942549E-010
 -2.430000000000000E-002    2.183472751728245E-010
 -2.420000000000000E-002    2.287692027203257E-010
 -2.410000000000000E-002    2.374315334081182E-010
 -2.400000000000000E-002    2.440749318844079E-010
 -2.390000000000000E-002    2.479519489012163E-010
 -2.380000000000000E-002    2.477751943025982E-010
 -2.370000000000000E-002    2.417385351473152E-010
 -2.360000000000000E-002    2.276202133705886E-010
 -2.350000000000000E-002    2.029674415164425E-010
 -2.340000000000000E-002    1.653522986813189E-010
 -2.330000000000000E-002    1.126788037814677E-010
 -2.320000000000000E-002    4.351307380530014E-011
 -2.310000000000000E-002   -4.259804066549614E-011
 -2.300000000000000E-002   -1.448564035774716E-010
 -2.290000000000000E-002   -2.610255315776064E-010
 -2.280000000000000E-002   -3.873567409951081E-010
 -2.270000000000000E-002   -5.186487862133965E-010
 -2.260000000000000E-002   -6.484489245985355E-010
 -2.250000000000000E-002   -7.693889286284007E-010
 -2.240000000000000E-002   -8.736352248337236E-010
 -2.230000000000000E-002   -9.534189014688878E-010
 -2.220000000000000E-002   -1.001601418853358E-009
 -2.210000000000000E-002   -1.012225514356964E-009
 -2.200000000000000E-002   -9.810002784021290E-010
 -2.190000000000000E-002   -9.056740657016110E-010
 -2.180000000000000E-002   -7.862585706481016E-010
 -2.170000000000000E-002   -6.250827170134068E-010
 -2.160000000000000E-002   -4.266702426484598E-010
 -2.150000000000000E-002   -1.974551019203386E-010
 -2.140000000000000E-002    5.463583164521471E-011
 -2.130000000000000E-002    3.206894445622335E-010
 -2.120000000000000E-002    5.913492987304419E-010
 -2.110000000000000E-002    8.573403654706742E-010
 -2.100000000000000E-002    1.109924126182326E-009
 -2.090000000000000E-002    1.341242792538168E-009
 -2.080000000000000E-002    1.544526959914072E-009
 -2.070000000000000E-002    1.714158878557396E-009
 -2.060000000000000E-002    1.845603978638682E-009
 -2.050000000000000E-002    1.935240440449565E-009
 -2.040000000000000E-002    1.980131606807022E-009
 -2.030000000000000E-002    1.977792655907583E-009
 -2.020000000000000E-002    1.926007407509731E-009
 -2.010000000000000E-002    1.822741202866636E-009
 -2.000000000000000E-002    1.666183624484873E-009
 -1.990000000000000E-002    1.454937926880355E-009
 -1.980000000000000E-002    1.188348463196461E-009
 -1.970000000000000E-002    8.669366457993291E-010
 -1.960000000000000E-002    4.928964865056522E-010
 -1.950000000000000E-002    7.058423305371965E-011
 -1.940000000000000E-002   -3.930692112680352E-010
 -1.930000000000000E-002   -8.882935532770757E-010
 -1.920000000000000E-002   -1.402421473967332E-009
 -1.910000000000000E-002   -1.920078489037675E-009
 -1.900000000000000E-002   -2.423636986007881E-009
 -1.890000000000000E-002   -2.893920155775637E-009
 -1.880000000000000E-002   -3.311116181294095E-009
 -1.870000000000000E-002   -3.655836519044361E-009
 -1.860000000000000E-002   -3.910233540488722E-009
 -1.850000000000000E-002   -4.059085057701325E-009
 -1.840000000000000E-002   -4.090753771797747E-009
 -1.830000000000000E-002   -3.997940069406739E-009
 -1.820000000000000E-002   -3.778167087766244E-009
 -1.810000000000000E-002   -3.433967065137905E-009
 -1.800000000000000E-002   -2.972759581986760E-009
 -1.790000000000000E-002   -2.406452172593095E-009
 -1.780000000000000E-002   -1.750811644527047E-009
 -1.770000000000000E-002   -1.024673680820204E-009
 -1.760000000000000E-002   -2.490702534403827E-010
 -1.750000000000000E-002    5.536502463093972E-010
 -1.740000000000000E-002    1.360644551513215E-009
 -1.730000000000000E-002    2.149291194988665E-009
 -1.720000000000000E-002    2.897777264666286E-009
 -1.710000000000000E-002    3.585556531134542E-009
 -1.700000000000000E-002    4.193698719808751E-009
 -1.690000000000000E-002    4.705168306982906E-009
 -1.680000000000000E-002    5.105074039483022E-009
 -1.670000000000000E-002    5.380932747619098E-009
 -1.660000000000000E-002    5.522975103965565E-009
 -1.650000000000000E-002    5.524504427150443E-009
 -1.640000000000000E-002    5.382299063902136E-009
 -1.630000000000000E-002    5.097020414749090E-009
 -1.620000000000000E-002    4.673576709499224E-009
 -1.610000000000000E-002    4.121373974834426E-009
 -1.600000000000000E-002    3.454388357392742E-009
 -1.590000000000000E-002    2.691003521702547E-009
 -1.580000000000000E-002    1.853572218278504E-009
 -1.570000000000000E-002    9.676958029037509E-010
 -1.560000000000000E-002    6.124396491001723E-011
 -1.550000000000000E-002   -8.368306961104949E-010
 -1.540000000000000E-002   -1.697796244007280E-009
 -1.530000000000000E-002   -2.494463337939391E-009
 -1.520000000000000E-002   -3.202415762516970E-009
 -1.510000000000000E-002   -3.801051142804665E-009
 -1.500000000000000E-002   -4.274355693107144E-009
 -1.490000000000000E-002   -4.611366868740849E-009
 -1.480000000000000E-002   -4.806323650755499E-009
 -1.470000000000000E-002   -4.858536423609739E-009
 -1.460000000000000E-002   -4.772050588112695E-009
 -1.450000000000000E-002   -4.555194885378476E-009
 -1.440000000000000E-002   -4.220113505018010E-009
 -1.430000000000000E-002   -3.782372831363139E-009
 -1.420000000000000E-002   -3.260697783085850E-009
 -1.410000000000000E-002   -2.676859125118035E-009
 -1.400000000000000E-002   -2.055672246674001E-009
 -1.390000000000000E-002   -1.425025727093377E-009
 -1.380000000000000E-002   -8.158081227836796E-010
 -1.370000000000000E-002   -2.615842272488249E-010
 -1.360000000000000E-002    2.021366540170483E-010
 -1.350000000000000E-002    5.391717805725248E-010
 -1.340000000000000E-002    7.145518186866085E-010
 -1.330000000000000E-002    6.970313710484435E-010
 -1.320000000000000E-002    4.621317717920409E-010
 -1.310000000000000E-002   -4.449307901965969E-012
 -1.300000000000000E-002   -7.033184902893419E-010
 -1.290000000000000E-002   -1.618086566751750E-009
 -1.280000000000000E-002   -2.712605423932170E-009
 -1.270000000000000E-002   -3.929084210860797E-009
 -1.260000000000000E-002   -5.187343355677414E-009
 -1.250000000000000E-002   -6.385338797124581E-009
 -1.240000000000000E-002   -7.401038247481925E-009
 -1.230000000000000E-002   -8.095453319709689E-009
 -1.220000000000000E-002   -8.316617236497531E-009
 -1.210000000000000E-002   -7.904027591352778E-009
 -1.200000000000000E-002   -6.693100845850102E-009
 -1.190000000000000E-002   -4.519062011917187E-009
 -1.180000000000000E-002   -1.219762351947775E-009
 -1.170000000000000E-002    3.363041044339583E-009
 -1.160000000000000E-002    9.384137812986336E-009
 -1.150000000000000E-002    1.699727223586864E-008
 -1.140000000000000E-002    2.635925722506529E-008
 -1.130000000000000E-002    3.763547596983617E-008
 -1.120000000000000E-002    5.100622526036712E-008
 -1.110000000000000E-002    6.667322221021152E-008
 -1.100000000000000E-002    8.486547626926606E-008
 -1.090000000000000E-002    1.058438557516712E-007
 -1.080000000000000E-002    1.299037326362279E-007
 -1.070000000000000E-002    1.573751080784234E-007
 -1.060000000000000E-002    1.886204689230135E-007
 -1.050000000000000E-002    2.240299785284707E-007
 -1.040000000000000E-002    2.640147803709404E-007
 -1.030000000000000E-002    3.089990682374890E-007
 -1.020000000000000E-002    3.594115878119278E-007
 -1.010000000000000E-002    4.156777781639235E-007
 -1.000000000000000E-002    4.782133017210604E-007
 -9.899999999999999E-003    5.474199365175913E-007
 -9.800000000000000E-003    6.236841357415569E-007
 -9.699999999999999E-003    7.073791752560131E-007
 -9.599999999999999E-003    7.988699735737507E-007
 -9.500000000000000E-003    8.985205050463544E-007
 -9.399999999999999E-003    1.006703385876806E-006
 -9.299999999999999E-003    1.123810213930563E-006
 -9.200000000000000E-003    1.250261321253473E-006
 -9.099999999999999E-003    1.386514855320413E-006
 -8.999999999999999E-003    1.533073180922478E-006
 -8.900000000000000E-003    1.690486048427195E-006
 -8.799999999999999E-003    1.859351294259044E-006
 -8.699999999999999E-003    2.040311337548487E-006
 -8.600000000000000E-003    2.234048055990838E-006
 -8.499999999999999E-003    2.441274926338462E-006
 -8.399999999999999E-003    2.662728766573272E-006
 -8.300000000000000E-003    2.899162909085906E-006
 -8.199999999999999E-003    3.151340599143343E-006
 -8.100000000000000E-003    3.420032367581825E-006
 -8.000000000000000E-003    3.706017214202317E-006
 -7.899999999999999E-003    4.010086992748514E-006
 -7.800000000000000E-003    4.333054546058016E-006
 -7.699999999999999E-003    4.675766294087005E-006
 -7.599999999999999E-003    5.039115314235627E-006
 -7.499999999999999E-003    5.424057126191645E-006
 -7.399999999999999E-003    5.831622743733002E-006
 -7.299999999999999E-003    6.262931742444308E-006
 -7.199999999999999E-003    6.719200508872149E-006
 -7.100000000000000E-003    7.201748859845049E-006
 -6.999999999999999E-003    7.711998904246272E-006
 -6.899999999999999E-003    8.251474064823304E-006
 -6.800000000000000E-003    8.821789845977452E-006
 -6.699999999999999E-003    9.424648373102930E-006
 -6.599999999999999E-003    1.006182682702033E-005
 -6.499999999999999E-003    1.073516950824394E-005
 -6.399999999999999E-003    1.144658263329676E-005
 -6.299999999999999E-003    1.219803261859671E-005
 -6.199999999999999E-003    1.299154937312234E-005
 -6.100000000000000E-003    1.382923271133882E-005
 -5.999999999999999E-003    1.471326940277684E-005
 -5.899999999999999E-003    1.564594546077419E-005
 -5.800000000000000E-003    1.662967100328824E-005
 -5.699999999999999E-003    1.766700034693927E-005
 -5.599999999999999E-003    1.876064895459713E-005
 -5.499999999999999E-003    1.991351784755667E-005
 -5.399999999999999E-003    2.112870344188950E-005
 -5.299999999999999E-003    2.240951276989447E-005
 -5.199999999999999E-003    2.375946471113067E-005
 -5.099999999999999E-003    2.518228862488555E-005
 -4.999999999999999E-003    2.668192842496752E-005
 -4.899999999999999E-003    2.826253044843852E-005
 -4.799999999999999E-003    2.992844357058119E-005
 -4.699999999999999E-003    3.168420766695086E-005
 -4.599999999999999E-003    3.353456366956574E-005
 -4.499999999999999E-003    3.548445033768256E-005
 -4.399999999999999E-003    3.753901210153578E-005
 -4.299999999999999E-003    3.970362509876700E-005
 -4.199999999999999E-003    4.198391388894756E-005
 -4.099999999999999E-003    4.438577619950613E-005
 -3.999999999999999E-003    4.691541835285514E-005
 -3.899999999999999E-003    4.957937768930142E-005
 -3.799999999999999E-003    5.238455803872004E-005
 -3.699999999999999E-003    5.533825320635017E-005
 -3.599999999999999E-003    5.844816614570430E-005
 -3.499999999999999E-003    6.172241683020190E-005
 -3.399999999999999E-003    6.516955772733246E-005
 -3.299999999999999E-003    6.879856015122774E-005
 -3.199999999999999E-003    7.261880522509167E-005
 -3.099999999999999E-003    7.664007480709014E-005
 -2.999999999999999E-003    8.087253026216996E-005
 -2.899999999999999E-003    8.532669266574086E-005
 -2.799999999999999E-003    9.001342284551830E-005
 -2.699999999999999E-003    9.494391603811502E-005
 -2.599999999999999E-003    1.001296932066415E-004
 -2.499999999999999E-003    1.055826032216921E-004
 -2.399999999999999E-003    1.113148305090828E-004
 -2.299999999999999E-003    1.173389184683784E-004
 -2.199999999999999E-003    1.236678004278801E-004
 -2.099999999999999E-003    1.303148296848832E-004
 -1.999999999999999E-003    1.372938103227272E-004
 -1.899999999999999E-003    1.446190605447924E-004
 -1.799999999999999E-003    1.523054349199134E-004
 -1.699999999999999E-003    1.603683989493876E-004
 -1.599999999999999E-003    1.688240212014060E-004
 -1.499999999999999E-003    1.776890678665269E-004
 -1.399999999999999E-003    1.869809963744043E-004
 -1.299999999999999E-003    1.967180088319772E-004
 -1.199999999999999E-003    2.069190605429641E-004
 -1.099999999999999E-003    2.176038860861422E-004
 -9.999999999999989E-004    2.287930126940641E-004
 -8.999999999999990E-004    2.405077992355412E-004
 -7.999999999999990E-004    2.527704187382881E-004
 -6.999999999999989E-004    2.656039045066243E-004
 -5.999999999999990E-004    2.790321334078809E-004
 -4.999999999999989E-004    2.930798952880454E-004
 -3.999999999999989E-004    3.077728813355761E-004
 -2.999999999999989E-004    3.231376764016445E-004
 -1.999999999999989E-004    3.392018779606674E-004
 -9.999999999999892E-005    3.559940462210093E-004
  1.084202172485504E-018    3.735437649385985E-004
  1.000000000000011E-004    3.918817004865731E-004
  2.000000000000011E-004    4.110395600136871E-004
  3.000000000000011E-004    4.310502085682746E-004
  4.000000000000011E-004    4.519476317680933E-004
  5.000000000000011E-004    4.737669628540226E-004
  6.000000000000011E-004    4.965445388528921E-004
  7.000000000000011E-004    5.203177991336715E-004
  8.000000000000011E-004    5.451254598622349E-004
  9.000000000000012E-004    5.710073266951977E-004
  1.000000000000001E-003    5.980044179703475E-004
  1.100000000000001E-003    6.261588689395178E-004
  1.200000000000001E-003    6.555139475889350E-004
  1.300000000000001E-003    6.861140920365707E-004
  1.400000000000001E-003    7.180048570829028E-004
  1.500000000000001E-003    7.512329025184343E-004
  1.600000000000001E-003    7.858460824192619E-004
  1.700000000000001E-003    8.218934757714333E-004
  1.800000000000001E-003    8.594253857628816E-004
  1.900000000000001E-003    8.984934807046127E-004
  2.000000000000001E-003    9.391507236098580E-004
  2.100000000000001E-003    9.814516548684548E-004
  2.200000000000001E-003    1.025452558956595E-003
  2.300000000000001E-003    1.071211057808232E-003
  2.400000000000001E-003    1.118786672945017E-003
  2.500000000000001E-003    1.168240974782450E-003
  2.600000000000001E-003    1.219636993289438E-003
  2.700000000000001E-003    1.273040023115264E-003
  2.800000000000001E-003    1.328517065091550E-003
  2.900000000000001E-003    1.386137159352744E-003
  3.000000000000001E-003    1.445971162358277E-003
  3.100000000000001E-003    1.508091776050539E-003
  3.200000000000001E-003    1.572573558167900E-003
  3.300000000000001E-003    1.639492791758377E-003
  3.400000000000001E-003    1.708927269112272E-003
  3.500000000000001E-003    1.780956555886173E-003
  3.600000000000001E-003    1.855661804743109E-003
  3.700000000000001E-003    1.933125363837769E-003
  3.800000000000001E-003    2.013431569474972E-003
  3.900000000000001E-003    2.096665865360392E-003
  4.000000000000001E-003    2.182915526434555E-003
  4.100000000000001E-003    2.272269103823736E-003
  4.200000000000001E-003    2.364816898178656E-003
  4.300000000000001E-003    2.460650655391116E-003
  4.400000000000001E-003    2.559863562876926E-003
  4.500000000000001E-003    2.662550633774201E-003
  4.600000000000002E-003    2.768808180684042E-003
  4.700000000000001E-003    2.878733959041083E-003
  4.800000000000001E-003    2.992427545423474E-003
  4.900000000000002E-003    3.109989488399161E-003
  5.000000000000001E-003    3.231522089861657E-003
  5.100000000000001E-003    3.357128685444993E-003
  5.200000000000001E-003    3.486913911741904E-003
  5.300000000000002E-003    3.620983469740944E-003
  5.400000000000001E-003    3.759444331515377E-003
  5.500000000000001E-003    3.902404492218413E-003
  5.600000000000002E-003    4.049973150056716E-003
  5.700000000000001E-003    4.202260621266289E-003
  5.800000000000001E-003    4.359378012965494E-003
  5.900000000000002E-003    4.521438285140509E-003
  6.000000000000001E-003    4.688555003805862E-003
  6.100000000000001E-003    4.860843716308655E-003
  6.200000000000002E-003    5.038420480290544E-003
  6.300000000000002E-003    5.221403082368201E-003
  6.400000000000001E-003    5.409910304421623E-003
  6.500000000000001E-003    5.604062444686710E-003
  6.600000000000002E-003    5.803980528163612E-003
  6.700000000000001E-003    6.009787166819320E-003
  6.800000000000001E-003    6.221605384954888E-003
  6.900000000000002E-003    6.439559348994690E-003
  7.000000000000001E-003    6.663773519507575E-003
  7.100000000000001E-003    6.894372925683714E-003
  7.200000000000002E-003    7.131483115285865E-003
  7.300000000000002E-003    7.375229869462015E-003
  7.400000000000001E-003    7.625739050803262E-003
  7.500000000000001E-003    7.883136083048480E-003
  7.600000000000002E-003    8.147545738210122E-003
  7.700000000000001E-003    8.419092453777213E-003
  7.800000000000001E-003    8.697901000433430E-003
  7.900000000000001E-003    8.984094014971692E-003
  8.000000000000002E-003    9.277794571269708E-003
  8.100000000000001E-003    9.579123019985576E-003
  8.200000000000001E-003    9.888200064464595E-003
  8.300000000000002E-003    1.020514457259493E-002
  8.400000000000001E-003    1.053007341024535E-002
  8.500000000000002E-003    1.086310199590070E-002
  8.600000000000002E-003    1.120434425109349E-002
  8.700000000000001E-003    1.155391213858169E-002
  8.800000000000002E-003    1.191191455702922E-002
  8.900000000000002E-003    1.227845957009706E-002
  9.000000000000001E-003    1.265365223894403E-002
  9.100000000000002E-003    1.303759465558895E-002
  9.200000000000002E-003    1.343038732397363E-002
  9.300000000000001E-003    1.383212786668862E-002
  9.400000000000002E-003    1.424290932545747E-002
  9.500000000000001E-003    1.466282346023185E-002
  9.600000000000001E-003    1.509195794552457E-002
  9.700000000000002E-003    1.553039786499479E-002
  9.800000000000001E-003    1.597822519389088E-002
  9.900000000000001E-003    1.643551624128394E-002
  1.000000000000000E-002    1.690234348293330E-002
  1.010000000000000E-002    1.737877709287054E-002
  1.020000000000000E-002    1.786488232435054E-002
  1.030000000000000E-002    1.836071867153101E-002
  1.040000000000000E-002    1.886634326668407E-002
  1.050000000000000E-002    1.938180474502134E-002
  1.060000000000000E-002    1.990715043658725E-002
  1.070000000000000E-002    2.044241940759413E-002
  1.080000000000000E-002    2.098764632754201E-002
  1.090000000000000E-002    2.154286073637834E-002
  1.100000000000000E-002    2.210808665497577E-002
  1.110000000000000E-002    2.268334214498986E-002
  1.120000000000000E-002    2.326863608219662E-002
  1.130000000000000E-002    2.386397452117057E-002
  1.140000000000000E-002    2.446935479343384E-002
  1.150000000000000E-002    2.508476734993847E-002
  1.160000000000000E-002    2.571019632069277E-002
  1.170000000000000E-002    2.634561684615573E-002
  1.180000000000000E-002    2.699099487456722E-002
  1.190000000000000E-002    2.764629229616049E-002
  1.200000000000000E-002    2.831145785222797E-002
  1.210000000000000E-002    2.898643696869422E-002
  1.220000000000000E-002    2.967116269956983E-002
  1.230000000000000E-002    3.036556099502849E-002
  1.240000000000000E-002    3.106955152267025E-002
  1.250000000000000E-002    3.178304175215300E-002
  1.260000000000000E-002    3.250593533720957E-002
  1.270000000000000E-002    3.323812680057203E-002
  1.280000000000000E-002    3.397950217556379E-002
  1.290000000000000E-002    3.472994057763845E-002
  1.300000000000000E-002    3.548931646554248E-002
  1.310000000000000E-002    3.625749564993099E-002
  1.320000000000000E-002    3.703433336420998E-002
  1.330000000000000E-002    3.781968463669865E-002
  1.340000000000000E-002    3.861339101778777E-002
  1.350000000000000E-002    3.941529276464163E-002
  1.360000000000000E-002    4.022521771712982E-002
  1.370000000000000E-002    4.104299119294168E-002
  1.380000000000000E-002    4.186842570154095E-002
  1.390000000000000E-002    4.270133146556766E-002
  1.400000000000000E-002    4.354151223552009E-002
  1.410000000000000E-002    4.438875969929124E-002
  1.420000000000000E-002    4.524286303426524E-002
  1.430000000000000E-002    4.610360147243497E-002
  1.440000000000000E-002    4.697075153802033E-002
  1.450000000000000E-002    4.784408109634292E-002
  1.460000000000000E-002    4.872335388101937E-002
  1.470000000000000E-002    4.960832504621687E-002
  1.480000000000000E-002    5.049874626808990E-002
  1.490000000000000E-002    5.139436566769726E-002
  1.500000000000000E-002    5.229492229552497E-002
  1.510000000000000E-002    5.320015288714364E-002
  1.520000000000000E-002    5.410979065034106E-002
  1.530000000000000E-002    5.502356325855260E-002
  1.540000000000000E-002    5.594119351002413E-002
  1.550000000000000E-002    5.686239955000458E-002
  1.560000000000000E-002    5.778689873351283E-002
  1.570000000000000E-002    5.871439945666132E-002
  1.580000000000000E-002    5.964461418215952E-002
  1.590000000000000E-002    6.057725121903695E-002
  1.600000000000000E-002    6.151201406553469E-002
  1.610000000000000E-002    6.244860501022909E-002
  1.620000000000000E-002    6.338672839371491E-002
  1.630000000000000E-002    6.432609202515240E-002
  1.640000000000000E-002    6.526639390258338E-002
  1.650000000000000E-002    6.620733964802526E-002
  1.660000000000000E-002    6.714863373167905E-002
  1.670000000000000E-002    6.808998911532760E-002
  1.680000000000000E-002    6.903111385875038E-002
  1.690000000000000E-002    6.997172337029539E-002
  1.700000000000000E-002    7.091154001323195E-002
  1.710000000000000E-002    7.185028983429710E-002
  1.720000000000000E-002    7.278769568863579E-002
  1.730000000000000E-002    7.372350047435353E-002
  1.740000000000000E-002    7.465744399139239E-002
  1.750000000000000E-002    7.558927427227360E-002
  1.760000000000000E-002    7.651874699962509E-002
  1.770000000000000E-002    7.744562319070546E-002
  1.780000000000000E-002    7.836967954466556E-002
  1.790000000000000E-002    7.929069583795505E-002
  1.800000000000000E-002    8.020846398324674E-002
  1.810000000000000E-002    8.112278720442467E-002
  1.820000000000000E-002    8.203347351941526E-002
  1.830000000000000E-002    8.294034683207083E-002
  1.840000000000000E-002    8.384324675561582E-002
  1.850000000000000E-002    8.474202067852307E-002
  1.860000000000000E-002    8.563653117827710E-002
  1.870000000000000E-002    8.652664911682957E-002