 -4.000000000000000E-002    0.000000000000000E+000
 -3.990000000000000E-002    0.000000000000000E+000
 -3.980000000000000E-002    0.000000000000000E+000
 -3.970000000000000E-002    0.000000000000000E+000
 -3.960000000000000E-002    0.000000000000000E+000
 -3.950000000000000E-002    0.000000000000000E+000
 -3.940000000000000E-002    0.000000000000000E+000
 -3.930000000000000E-002    0.000000000000000E+000
 -3.920000000000000E-002    0.000000000000000E+000
 -3.910000000000000E-002    0.000000000000000E+000
 -3.900000000000000E-002   -2.076163143466049E-034
 -3.890000000000000E-002   -3.942320590816145E-033
 -3.880000000000000E-002   -3.874815386226652E-032
 -3.870000000000000E-002   -2.620692971886130E-031
 -3.860000000000000E-002   -1.368044289317860E-030
 -3.850000000000000E-002   -5.861008791394598E-030
 -3.840000000000000E-002   -2.139369334146528E-029
 -3.830000000000000E-002   -6.817109689139830E-029
 -3.820000000000000E-002   -1.926938452455991E-028
 -3.810000000000000E-002   -4.879515425697144E-028
 -3.800000000000000E-002   -1.111779588680811E-027
 -3.790000000000000E-002   -2.274474892202928E-027
 -3.780000000000000E-002   -4.126701020280636E-027
 -3.770000000000000E-002   -6.414073298422435E-027
 -3.760000000000000E-002   -7.679419474661648E-027
 -3.750000000000000E-002   -3.710998799194275E-027
 -3.740000000000000E-002    1.508910118323544E-026
 -3.730000000000000E-002    6.760818510929094E-026
 -3.720000000000000E-002    1.869543533328693E-025
 -3.710000000000000E-002    4.252697854842766E-025
 -3.700000000000000E-002    8.557752952175763E-025
 -3.690000000000000E-002    1.567282658689720E-024
 -3.680000000000000E-002    2.643950265241061E-024
 -3.670000000000000E-002    4.120926337479063E-024
 -3.660000000000000E-002    5.905945639579251E-024
 -3.650000000000000E-002    7.659719749548356E-024
 -3.640000000000000E-002    8.636265495102636E-024
 -3.630000000000000E-002    7.500302936761265E-024
 -3.620000000000000E-002    2.163707313035989E-024
 -3.610000000000000E-002   -1.028401434631983E-023
 -3.600000000000000E-002   -3.343941637467905E-023
 -3.590000000000000E-002   -7.109925620466506E-023
 -3.580000000000000E-002   -1.262685360217857E-022
 -3.570000000000000E-002   -1.995309717640873E-022
 -3.560000000000000E-002   -2.867345812395721E-022
 -3.550000000000000E-002   -3.761071250896429E-022
 -3.540000000000000E-002   -4.451657975427826E-022
 -3.530000000000000E-002   -4.581122105160843E-022
 -3.520000000000000E-002   -3.647734177725283E-022
 -3.510000000000000E-002   -1.024855023813995E-022
 -3.500000000000000E-002    3.974868032851904E-022
 -3.490000000000000E-002    1.197489619495220E-021
 -3.480000000000000E-002    2.333998724344869E-021
 -3.470000000000000E-002    3.791238680337658E-021
 -3.460000000000000E-002    5.469770267637583E-021
 -3.450000000000000E-002    7.154264128074197E-021
 -3.440000000000000E-002    8.487413669951132E-021
 -3.430000000000000E-002    8.959632826881989E-021
 -3.420000000000000E-002    7.926181350680567E-021
 -3.410000000000000E-002    4.663834307040672E-021
 -3.400000000000000E-002   -1.522794255421506E-021
 -3.390000000000000E-002   -1.114044439127825E-020
 -3.380000000000000E-002   -2.429627615697377E-020
 -3.370000000000000E-002   -4.045412519775931E-020
 -3.360000000000000E-002   -5.819121318818253E-020
 -3.350000000000000E-002   -7.500556663969850E-020
 -3.340000000000000E-002   -8.723929782460116E-020
 -3.330000000000000E-002   -9.019178772126775E-020
 -3.320000000000000E-002   -7.849491062949908E-020
 -3.310000000000000E-002   -4.680514574515865E-020
 -3.300000000000000E-002    9.168663146099229E-021
 -3.290000000000000E-002    9.133955212808631E-020
 -3.280000000000000E-002    1.977308122995192E-019
 -3.270000000000000E-002    3.209768755223485E-019
 -3.260000000000000E-002    4.471215753276887E-019
 -3.250000000000000E-002    5.550690442904023E-019
 -3.240000000000000E-002    6.170774972022266E-019
 -3.230000000000000E-002    6.006642404618500E-019
 -3.220000000000000E-002    4.721927311898724E-019
 -3.210000000000000E-002    2.022271961571140E-019
 -3.200000000000000E-002   -2.275340433359218E-019
 -3.190000000000000E-002   -8.162858939830098E-019
 -3.180000000000000E-002   -1.536034876375216E-018
 -3.170000000000000E-002   -2.324723255570243E-018
 -3.160000000000000E-002   -3.082177464036888E-018
 -3.150000000000000E-002   -3.670646867568136E-018
 -3.140000000000000E-002   -3.921607648148735E-018
 -3.130000000000000E-002   -3.650109236588597E-018
 -3.120000000000000E-002   -2.677195906640627E-018
 -3.110000000000000E-002   -8.598517969895554E-019
 -3.100000000000000E-002    1.873454396622769E-018
 -3.090000000000000E-002    5.485067533418289E-018
 -3.080000000000000E-002    9.793223024169354E-018
 -3.070000000000000E-002    1.444605099987628E-017
 -3.060000000000000E-002    1.891131103748577E-017
 -3.050000000000000E-002    2.248851930953431E-017
 -3.040000000000000E-002    2.434890792689784E-017
 -3.030000000000000E-002    2.360632010633820E-017
 -3.020000000000000E-002    1.941863568366492E-017
 -3.010000000000000E-002    1.111485981639527E-017
 -3.000000000000000E-002   -1.661973317895783E-018
 -2.990000000000000E-002   -1.881091787632709E-017
 -2.980000000000000E-002   -3.964729283371352E-017
 -2.970000000000000E-002   -6.281662980129079E-017
 -2.960000000000000E-002   -8.627038207029667E-017
 -2.950000000000000E-002   -1.073228311456223E-016
 -2.940000000000000E-002   -1.228025423472902E-016
 -2.930000000000000E-002   -1.293026062789252E-016
 -2.920000000000000E-002   -1.235219512331268E-016
 -2.910000000000000E-002   -1.026763304369703E-016
 -2.900000000000000E-002   -6.494383981780571E-017
 -2.890000000000000E-002   -9.897713195155818E-018
 -2.880000000000000E-002    6.112918528817548E-017
 -2.870000000000000E-002    1.448064596262603E-016
 -2.860000000000000E-002    2.357485332595995E-016
 -2.850000000000000E-002    3.266787149863816E-016
 -2.840000000000000E-002    4.088357324739423E-016
 -2.830000000000000E-002    4.726170548091329E-016
 -2.820000000000000E-002    5.084223671006950E-016
 -2.810000000000000E-002    5.076295443533928E-016
 -2.800000000000000E-002    4.636078851556979E-016
 -2.790000000000000E-002    3.726548879128574E-016
 -2.780000000000000E-002    2.347354313444576E-016
 -2.770000000000000E-002    5.391212499064421E-017
 -2.760000000000000E-002   -1.616198788881643E-016
 -2.750000000000000E-002   -3.999381094796397E-016
 -2.740000000000000E-002   -6.462300125095063E-016
 -2.730000000000000E-002   -8.839930606820023E-016
 -2.720000000000000E-002   -1.096472328499910E-015
 -2.710000000000000E-002   -1.268160022538949E-015
 -2.700000000000000E-002   -1.386156476807821E-015
 -2.690000000000000E-002   -1.441188636367806E-015
 -2.680000000000000E-002   -1.428116295911555E-015
 -2.670000000000000E-002   -1.345817635990879E-015
 -2.660000000000000E-002   -1.196438598020199E-015
 -2.650000000000000E-002   -9.841000572923526E-016
 -2.640000000000000E-002   -7.132693922136137E-016
 -2.630000000000000E-002   -3.871024467670181E-016
 -2.620000000000000E-002   -6.126159139583146E-018
 -2.610000000000000E-002    4.323531797782481E-016
 -2.600000000000000E-002    9.337830346932331E-016
 -2.590000000000000E-002    1.504624310108311E-015
 -2.580000000000000E-002    2.149308924485712E-015
 -2.570000000000000E-002    2.866097512609962E-015
 -2.560000000000000E-002    3.642297149801125E-015
 -2.550000000000000E-002    4.449533107787006E-015
 -2.540000000000000E-002    5.239959350473787E-015
 -2.530000000000000E-002    5.944365394308158E-015
 -2.520000000000000E-002    6.473095862794443E-015
 -2.510000000000000E-002    6.720490141897227E-015
 -2.500000000000000E-002    6.573180881886401E-015
 -2.490000000000000E-002    5.922088267530567E-015
 -2.480000000000000E-002    4.677355684396839E-015
 -2.470000000000000E-002    2.784843042619225E-015
 -2.460000000000000E-002    2.422494637195730E-016
 -2.450000000000000E-002   -2.887457650256416E-015
 -2.440000000000000E-002   -6.467773877551318E-015
 -2.430000000000000E-002   -1.028782382596404E-014
 -2.420000000000000E-002   -1.407068816843597E-014
 -2.410000000000000E-002   -1.749170066997603E-014
 -2.400000000000000E-002   -2.020630785320996E-014
 -2.390000000000000E-002   -2.188568288082979E-014
 -2.380000000000000E-002   -2.225684158025473E-014
 -2.370000000000000E-002   -2.114277728559070E-014
 -2.360000000000000E-002   -1.849722416709510E-014
 -2.350000000000000E-002   -1.442841343509680E-014
 -2.340000000000000E-002   -9.206617384264722E-015
 -2.330000000000000E-002   -3.251538405271113E-015
 -2.320000000000000E-002    2.902333743566865E-015
 -2.310000000000000E-002    8.661556593004868E-015
 -2.300000000000000E-002    1.344684124479835E-014
 -2.290000000000000E-002    1.677636593342771E-014
 -2.280000000000000E-002    1.834949574716834E-014
 -2.270000000000000E-002    1.811919917105749E-014
 -2.260000000000000E-002    1.634086847585208E-014
 -2.250000000000000E-002    1.358617726019266E-014
 -2.240000000000000E-002    1.071332473653057E-014
 -2.230000000000000E-002    8.789405417269924E-015
 -2.220000000000000E-002    8.966396891622384E-015
 -2.210000000000000E-002    1.231891983162037E-014
 -2.200000000000000E-002    1.965859552941291E-014
 -2.190000000000000E-002    3.134583813595880E-014
 -2.180000000000000E-002    4.712409381370325E-014
 -2.170000000000000E-002    6.600319234711782E-014
 -2.160000000000000E-002    8.621692172635916E-014
 -2.150000000000000E-002    1.052747198660391E-013
 -2.140000000000000E-002    1.201187216714582E-013
 -2.130000000000000E-002    1.273857958259583E-013
 -2.120000000000000E-002    1.237606767148334E-013
 -2.110000000000000E-002    1.063923122140624E-013
 -2.100000000000000E-002    7.333283205577437E-014
 -2.090000000000000E-002    2.394902794711915E-014
 -2.080000000000000E-002   -4.074857806787131E-014
 -2.070000000000000E-002   -1.179125466885330E-013
 -2.060000000000000E-002   -2.028462236496771E-013
 -2.050000000000000E-002   -2.892021831850803E-013
 -2.040000000000000E-002   -3.693997162856478E-013
 -2.030000000000000E-002   -4.352445217308762E-013
 -2.020000000000000E-002   -4.787065167375789E-013
 -2.010000000000000E-002   -4.927864506940757E-013
 -2.000000000000000E-002   -4.723816754969207E-013
 -1.990000000000000E-002   -4.150495371619271E-013
 -1.980000000000000E-002   -3.215660156647885E-013
 -1.970000000000000E-002   -1.961883460403736E-013
 -1.960000000000000E-002   -4.655549620640721E-014
 -1.950000000000000E-002    1.168046509941166E-013
 -1.940000000000000E-002    2.813478589042439E-013
 -1.930000000000000E-002    4.337044956375967E-013
 -1.920000000000000E-002    5.610807716051532E-013
 -1.910000000000000E-002    6.527242801127432E-013
 -1.900000000000000E-002    7.012810412242648E-013
 -1.890000000000000E-002    7.038663026919433E-013
 -1.880000000000000E-002    6.626844940347496E-013
 -1.870000000000000E-002    5.850718682072960E-013
 -1.860000000000000E-002    4.828925488525982E-013
 -1.850000000000000E-002    3.712921377116653E-013
 -1.840000000000000E-002    2.668948035715278E-013
 -1.830000000000000E-002    1.856110935322624E-013
 -1.820000000000000E-002    1.402927856459940E-013
 -1.810000000000000E-002    1.385207414552060E-013
 -1.800000000000000E-002    1.808293769144602E-013
 -1.790000000000000E-002    2.596541392352031E-013
 -1.780000000000000E-002    3.592329971939454E-013
 -1.770000000000000E-002    4.566007471186147E-013
 -1.760000000000000E-002    5.236949737467802E-013
 -1.750000000000000E-002    5.304544129559035E-013
 -1.740000000000000E-002    4.486504233518931E-013
 -1.730000000000000E-002    2.560672471596178E-013
 -1.720000000000000E-002   -5.944648120959076E-014
 -1.710000000000000E-002   -4.965780157175258E-013
 -1.700000000000000E-002   -1.038312311584790E-012
 -1.690000000000000E-002   -1.651287900116293E-012
 -1.680000000000000E-002   -2.287039580760158E-012
 -1.670000000000000E-002   -2.885228729765851E-012
 -1.660000000000000E-002   -3.378735471906227E-012
 -1.650000000000000E-002   -3.700246245088179E-012
 -1.640000000000000E-002   -3.789748798512456E-012
 -1.630000000000000E-002   -3.602168260851728E-012
 -1.620000000000000E-002   -3.114268485788628E-012
 -1.610000000000000E-002   -2.329930420411709E-012
 -1.600000000000000E-002   -1.283004107401410E-012
 -1.590000000000000E-002   -3.712685625728231E-014
 -1.580000000000000E-002    1.317813923174911E-012
 -1.570000000000000E-002    2.672540491748028E-012
 -1.560000000000000E-002    3.908142091528300E-012
 -1.550000000000000E-002    4.907923566462439E-012
 -1.540000000000000E-002    5.570211825677114E-012
 -1.530000000000000E-002    5.820753490473670E-012
 -1.520000000000000E-002    5.623244396669319E-012
 -1.510000000000000E-002    4.986596296925900E-012
 -1.500000000000000E-002    3.967781188557975E-012
 -1.490000000000000E-002    2.669484968232232E-012
 -1.480000000000000E-002    1.232325578227808E-012
 -1.470000000000000E-002   -1.780111329338592E-013
 -1.460000000000000E-002   -1.387740490685083E-012
 -1.450000000000000E-002   -2.234511385182030E-012
 -1.440000000000000E-002   -2.587512118839721E-012
 -1.430000000000000E-002   -2.365903576586458E-012
 -1.420000000000000E-002   -1.553309612075206E-012
 -1.410000000000000E-002   -2.063204157962692E-013
 -1.400000000000000E-002    1.544534409537947E-012
 -1.390000000000000E-002    3.502183910795131E-012
 -1.380000000000000E-002    5.418746907358594E-012
 -1.370000000000000E-002    7.018606249022192E-012
 -1.360000000000000E-002    8.026918293176603E-012
 -1.350000000000000E-002    8.200853206995734E-012
 -1.340000000000000E-002    7.360312531959141E-012
 -1.330000000000000E-002    5.414640489805291E-012
 -1.320000000000000E-002    2.381983167517747E-012
 -1.310000000000000E-002   -1.601506287728530E-012
 -1.300000000000000E-002   -6.284526129201037E-012
 -1.290000000000000E-002   -1.131625964062752E-011
 -1.280000000000000E-002   -1.627412537458440E-011
 -1.270000000000000E-002   -2.070156947477894E-011
 -1.260000000000000E-002   -2.415252443659091E-011
 -1.250000000000000E-002   -2.623815034950539E-011
 -1.240000000000000E-002   -2.667085928862983E-011
 -1.230000000000000E-002   -2.530052836821803E-011
 -1.220000000000000E-002   -2.213831254654848E-011
 -1.210000000000000E-002   -1.736449310534790E-011
 -1.200000000000000E-002   -1.131832822694214E-011
 -1.190000000000000E-002   -4.469789515120627E-012
 -1.180000000000000E-002    2.624926808717805E-012
 -1.170000000000000E-002    9.380185308451598E-012
 -1.160000000000000E-002    1.524437291907674E-011
 -1.150000000000000E-002    1.976322791368482E-011
 -1.140000000000000E-002    2.263568461625879E-011
 -1.130000000000000E-002    2.375518194377957E-011
 -1.120000000000000E-002    2.323051220488838E-011
 -1.110000000000000E-002    2.138215898321203E-011
 -1.100000000000000E-002    1.871260492166443E-011
 -1.090000000000000E-002    1.585199998968431E-011
 -1.080000000000000E-002    1.348352414322089E-011
 -1.070000000000000E-002    1.225557892262303E-011
 -1.060000000000000E-002    1.269004187934256E-011
 -1.050000000000000E-002    1.509712964734115E-011
 -1.040000000000000E-002    1.950760154268964E-011
 -1.030000000000000E-002    2.563198594492612E-011
 -1.020000000000000E-002    3.285432790876132E-011
 -1.010000000000000E-002    4.026466902324784E-011
 -1.000000000000000E-002    4.673045852989989E-011
 -9.899999999999999E-003    5.100268839494457E-011
 -9.800000000000000E-003    5.184821976709823E-011
 -9.699999999999999E-003    4.819604366050473E-011
 -9.599999999999999E-003    3.928250256879889E-011
 -9.500000000000000E-003    2.477924723279020E-011
 -9.399999999999999E-003    4.888094905901221E-012
 -9.299999999999999E-003   -1.961083690466053E-011
 -9.200000000000000E-003   -4.736745483520225E-011
 -9.099999999999999E-003   -7.653099209533206E-011
 -8.999999999999999E-003   -1.048785461799272E-010
 -8.900000000000000E-003   -1.299946724340093E-010
 -8.799999999999999E-003   -1.494876261833146E-010
 -8.699999999999999E-003   -1.612228269040962E-010
 -8.600000000000000E-003   -1.635506893729052E-010
 -8.499999999999999E-003   -1.555047397982260E-010
 -8.399999999999999E-003   -1.369472610918973E-010
 -8.300000000000000E-003   -1.086434542365325E-010
 -8.199999999999999E-003   -7.225125209371480E-011
 -8.100000000000000E-003   -3.022179910964217E-011
 -8.000000000000000E-003    1.438538838425131E-011
 -7.899999999999999E-003    5.815935344630077E-011
 -7.800000000000000E-003    9.764508637504028E-011
 -7.699999999999999E-003    1.296730402989780E-010
 -7.599999999999999E-003    1.516782648398836E-010
 -7.499999999999999E-003    1.619757882627560E-010
 -7.399999999999999E-003    1.599611605718061E-010
 -7.299999999999999E-003    1.462112405790470E-010
 -7.199999999999999E-003    1.224691771144693E-010
 -7.100000000000000E-003    9.150861994002579E-011
 -6.999999999999999E-003    5.688479490934142E-011
 -6.899999999999999E-003    2.259222324406705E-011
 -6.800000000000000E-003   -7.340005364149392E-012
 -6.699999999999999E-003   -2.927634503644561E-011
 -6.599999999999999E-003   -4.038234867852073E-011
 -6.499999999999999E-003   -3.896771646658807E-011
 -6.399999999999999E-003   -2.472503233147835E-011
 -6.299999999999999E-003    1.166542816745540E-012
 -6.199999999999999E-003    3.609078767907304E-011
 -6.100000000000000E-003    7.620004794168006E-011
 -5.999999999999999E-003    1.167633357866814E-010
 -5.899999999999999E-003    1.526274774666245E-010
 -5.800000000000000E-003    1.787481856338585E-010
 -5.699999999999999E-003    1.907382391970523E-010
 -5.599999999999999E-003    1.853752515471455E-010
 -5.499999999999999E-003    1.610129593750423E-010
 -5.399999999999999E-003    1.178471156488199E-010
 -5.299999999999999E-003    5.800027798734703E-011
 -5.199999999999999E-003   -1.459288005306059E-011
 -5.099999999999999E-003   -9.449751447481117E-011
 -4.999999999999999E-003   -1.752643660781093E-010
 -4.899999999999999E-003   -2.500461258210704E-010
 -4.799999999999999E-003   -3.122847398044410E-010
 -4.699999999999999E-003   -3.563996352170080E-010
 -4.599999999999999E-003   -3.784027435073218E-010
 -4.499999999999999E-003   -3.763709122852562E-010
 -4.399999999999999E-003   -3.507176016488546E-010
 -4.299999999999999E-003   -3.042251037523553E-010
 -4.199999999999999E-003   -2.418222681370858E-010
 -4.099999999999999E-003   -1.701197415004399E-010
 -3.999999999999999E-003   -9.674180156138433E-011
 -3.899999999999999E-003   -2.951820552199414E-011
 -3.799999999999999E-003    2.438199885929130E-011
 -3.699999999999999E-003    5.928169191779375E-011
 -3.599999999999999E-003    7.169818617607096E-011
 -3.499999999999999E-003    6.083181429636706E-011
 -3.399999999999999E-003    2.877487456484741E-011
 -3.299999999999999E-003   -1.959835013453654E-011
 -3.199999999999999E-003   -7.706593554234988E-011
 -3.099999999999999E-003   -1.347872525802092E-010
 -2.999999999999999E-003   -1.832620414650672E-010
 -2.899999999999999E-003   -2.134254767841477E-010
 -2.799999999999999E-003   -2.177641492676413E-010
 -2.699999999999999E-003   -1.913275968074399E-010
 -2.599999999999999E-003   -1.325137709892685E-010
 -2.499999999999999E-003   -4.352303625010511E-011
 -2.399999999999999E-003    6.959524472102424E-011
 -2.299999999999999E-003    1.973397132154315E-010
 -2.199999999999999E-003    3.275883965763676E-010
 -2.099999999999999E-003    4.468055570670700E-010
 -1.999999999999999E-003    5.415216754498871E-010
 -1.899999999999999E-003    5.999438342880266E-010
 -1.799999999999999E-003    6.135321057041790E-010
 -1.699999999999999E-003    5.783644531598357E-010
 -1.599999999999999E-003    4.961233717183605E-010
 -1.499999999999999E-003    3.745637449718070E-010
 -1.399999999999999E-003    2.273626032108740E-010
 -1.299999999999999E-003    7.330924237398780E-011
 -1.199999999999999E-003   -6.514156573508603E-011
 -1.099999999999999E-003   -1.638664972338150E-010
 -9.999999999999989E-004   -1.994692352056996E-010
 -8.999999999999990E-004   -1.518737671593963E-010
 -7.999999999999990E-004   -6.880293557514161E-012
 -6.999999999999989E-004    2.415654045175250E-010
 -5.999999999999990E-004    5.896273156077165E-010
 -4.999999999999989E-004    1.022565398894661E-009
 -3.999999999999989E-004    1.514602534615095E-009
 -2.999999999999989E-004    2.029749810569239E-009
 -1.999999999999989E-004    2.523587290004374E-009
 -9.999999999999892E-005    2.945909986725688E-009
  1.084202172485504E-018    3.244069719865213E-009
  1.000000000000011E-004    3.366777730036573E-009
  2.000000000000011E-004    3.268082766325372E-009
  3.000000000000011E-004    2.911226063788330E-009
  4.000000000000011E-004    2.272073746825992E-009
  5.000000000000011E-004    1.341871304064665E-009
  6.000000000000011E-004    1.291210116047378E-010
  7.000000000000011E-004   -1.339536204131165E-009
  8.000000000000011E-004   -3.019441150221844E-009
  9.000000000000012E-004   -4.848977272475603E-009
  1.000000000000001E-003   -6.751394772964540E-009
  1.100000000000001E-003   -8.637157766746695E-009
  1.200000000000001E-003   -1.040651091053996E-008
  1.300000000000001E-003   -1.195196245133850E-008
  1.400000000000001E-003   -1.316038339918198E-008
  1.500000000000001E-003   -1.391442570343313E-008
  1.600000000000001E-003   -1.409315021691893E-008
  1.700000000000001E-003   -1.357167733993497E-008
  1.800000000000001E-003   -1.221997461954126E-008
  1.900000000000001E-003   -9.900796046200087E-009
  2.000000000000001E-003   -6.467117529457630E-009
  2.100000000000001E-003   -1.759240618543256E-009
  2.200000000000001E-003    4.397982356282746E-009
  2.300000000000001E-003    1.219756867538499E-008
  2.400000000000001E-003    2.185202256115151E-008
  2.500000000000001E-003    3.359400196297363E-008
  2.600000000000001E-003    4.767582612089442E-008
  2.700000000000001E-003    6.436780564423143E-008
  2.800000000000001E-003    8.395545496400035E-008
  2.900000000000001E-003    1.067358933123659E-007
  3.000000000000001E-003    1.330135979524047E-007
  3.100000000000001E-003    1.630961599005515E-007
  3.200000000000001E-003    1.972902514892333E-007
  3.300000000000001E-003    2.358983574238027E-007
  3.400000000000001E-003    2.792168221835912E-007
  3.500000000000001E-003    3.275350941464566E-007
  3.600000000000001E-003    3.811366638850975E-007
  3.700000000000001E-003    4.403016928410591E-007
  3.800000000000001E-003    5.053109664707738E-007
  3.900000000000001E-003    5.764512818986236E-007
  4.000000000000001E-003    6.540209426006179E-007
  4.100000000000001E-003    7.383362777094813E-007
  4.200000000000001E-003    8.297368970105293E-007
  4.300000000000001E-003    9.285903938109116E-007
  4.400000000000001E-003    1.035295768211477E-006
  4.500000000000001E-003    1.150285185955164E-006
  4.600000000000002E-003    1.274023095309072E-006
  4.700000000000001E-003    1.407004302306155E-006
  4.800000000000001E-003    1.549750125319607E-006
  4.900000000000002E-003    1.702803077334386E-006
  5.000000000000001E-003    1.866721689027398E-006
  5.100000000000001E-003    2.042074383133337E-006
  5.200000000000001E-003    2.229434770912342E-006
  5.300000000000002E-003    2.429379111529611E-006
  5.400000000000001E-003    2.642483892987918E-006
  5.500000000000001E-003    2.869328722394544E-006
  5.600000000000002E-003    3.110499944265092E-006
  5.700000000000001E-003    3.366596977415443E-006
  5.800000000000001E-003    3.638242373445734E-006
  5.900000000000002E-003    3.926093092214124E-006
  6.000000000000001E-003    4.230852292168314E-006
  6.100000000000001E-003    4.553282718977269E-006
  6.200000000000002E-003    4.894219056333964E-006
  6.300000000000002E-003    5.254576355491603E-006
  6.400000000000001E-003    5.635361649303351E-006
  6.500000000000001E-003    6.037676486821222E-006
  6.600000000000002E-003    6.462722423004992E-006
  6.700000000000001E-003    6.911797463910401E-006
  6.800000000000001E-003    7.386293904504261E-006
  6.900000000000002E-003    7.887694741502547E-006
  7.000000000000001E-003    8.417563352565251E-006
  7.100000000000001E-003    8.977539209874932E-006
  7.200000000000002E-003    9.569329810461574E-006
  7.300000000000002E-003    1.019470716667148E-005
  7.400000000000001E-003    1.085550657924814E-005
  7.500000000000001E-003    1.155362591537429E-005
  7.600000000000002E-003    1.229103154057562E-005
  7.700000000000001E-003    1.306976688296019E-005
  7.800000000000001E-003    1.389196829608790E-005
  7.900000000000001E-003    1.475987394908792E-005
  8.000000000000002E-003    1.567584759415053E-005
  8.100000000000001E-003    1.664238953041376E-005
  8.200000000000001E-003    1.766215745888782E-005
  8.300000000000002E-003    1.873798421227808E-005
  8.400000000000001E-003    1.987288646296576E-005
  8.500000000000002E-003    2.107007962213678E-005
  8.600000000000002E-003    2.233297982954503E-005
  8.700000000000001E-003    2.366521178434207E-005
  8.800000000000002E-003    2.507060239434076E-005
  8.900000000000002E-003    2.655318200913497E-005
  9.000000000000001E-003    2.811717596892775E-005
  9.100000000000002E-003    2.976700219150638E-005
  9.200000000000002E-003    3.150726644539154E-005
  9.300000000000001E-003    3.334275167466524E-005
  9.400000000000002E-003    3.527842932722533E-005
  9.500000000000001E-003    3.731945817240999E-005
  9.600000000000001E-003    3.947119148985448E-005
  9.700000000000002E-003    4.173919122723398E-005
  9.800000000000001E-003    4.412924848742562E-005
  9.900000000000001E-003    4.664738987933001E-005
  1.000000000000000E-002    4.929991976566073E-005
  1.010000000000000E-002    5.209341925326436E-005
  1.020000000000000E-002    5.503479207099803E-005
  1.030000000000000E-002    5.813126486408214E-005
  1.040000000000000E-002    6.139041680697697E-005
  1.050000000000000E-002    6.482018640794691E-005
  1.060000000000000E-002    6.842888938415857E-005
  1.070000000000000E-002    7.222521028047789E-005
  1.080000000000000E-002    7.621822030307545E-005
  1.090000000000000E-002    8.041737537775008E-005
  1.100000000000000E-002    8.483250014453343E-005
  1.110000000000000E-002    8.947380730849366E-005
  1.120000000000000E-002    9.435187669189901E-005
  1.130000000000000E-002    9.947769158452463E-005
  1.140000000000000E-002    1.048626214668657E-004
  1.150000000000000E-002    1.105184535945559E-004
  1.160000000000000E-002    1.164573973384523E-004
  1.170000000000000E-002    1.226921218499478E-004
  1.180000000000000E-002    1.292357859205801E-004
  1.190000000000000E-002    1.361020494490512E-004
  1.200000000000000E-002    1.433051675640442E-004
  1.210000000000000E-002    1.508599565382156E-004
  1.220000000000000E-002    1.587818792728497E-004
  1.230000000000000E-002    1.670870326899952E-004
  1.240000000000000E-002    1.757922349916775E-004
  1.250000000000000E-002    1.849149876803402E-004
  1.260000000000000E-002    1.944734891642536E-004
  1.270000000000000E-002    2.044866985291633E-004
  1.280000000000000E-002    2.149742767483637E-004
  1.290000000000000E-002    2.259566027335562E-004
  1.300000000000000E-002    2.374548375517637E-004
  1.310000000000000E-002    2.494907591264432E-004
  1.320000000000000E-002    2.620869168013583E-004
  1.330000000000000E-002    2.752665631300550E-004
  1.340000000000000E-002    2.890536848618130E-004
  1.350000000000000E-002    3.034730093282721E-004
  1.360000000000000E-002    3.185499874446636E-004
  1.370000000000000E-002    3.343109513494381E-004
  1.380000000000000E-002    3.507830015952432E-004
  1.390000000000000E-002    3.679941473198198E-004
  1.400000000000000E-002    3.859733135115794E-004
  1.410000000000000E-002    4.047504608161340E-004
  1.420000000000000E-002    4.243565325489339E-004
  1.430000000000000E-002    4.448235707998214E-004
  1.440000000000000E-002    4.661847931404293E-004
  1.450000000000000E-002    4.884745031126928E-004
  1.460000000000000E-002    5.117281671898379E-004
  1.470000000000000E-002    5.359825059387181E-004
  1.480000000000000E-002    5.612754742875094E-004
  1.490000000000000E-002    5.876461348461861E-004
  1.500000000000000E-002    6.151348596779332E-004
  1.510000000000000E-002    6.437831283714206E-004
  1.520000000000000E-002    6.736336739564325E-004
  1.530000000000000E-002    7.047304201384580E-004
  1.540000000000000E-002    7.371184241065737E-004
  1.550000000000000E-002    7.708439720431405E-004
  1.560000000000000E-002    8.059546568082872E-004
  1.570000000000000E-002    8.424991957188613E-004
  1.580000000000000E-002    8.805276621376165E-004
  1.590000000000000E-002    9.200914502768301E-004
  1.600000000000000E-002    9.612432955690428E-004
  1.610000000000000E-002    1.004037319293525E-003
  1.620000000000000E-002    1.048529169773595E-003
  1.630000000000000E-002    1.094776082154318E-003
  1.640000000000000E-002    1.142836526226049E-003
  1.650000000000000E-002    1.192770786787255E-003
  1.660000000000000E-002    1.244640583152019E-003
  1.670000000000000E-002    1.298509224618230E-003
  1.680000000000000E-002    1.354441614732770E-003
  1.690000000000000E-002    1.412504253192641E-003
  1.700000000000000E-002    1.472765172256033E-003
  1.710000000000000E-002    1.535293889316790E-003
  1.720000000000000E-002    1.600161539476672E-003
  1.730000000000000E-002    1.667440500680815E-003
  1.740000000000000E-002    1.737204828411595E-003
  1.750000000000000E-002    1.809530123229942E-003
  1.760000000000000E-002    1.884493060080137E-003
  1.770000000000000E-002    1.962172340133615E-003
  1.780000000000000E-002    2.042647749636301E-003
  1.790000000000000E-002    2.126000740393941E-003
  1.800000000000000E-002    2.212314118591484E-003
  1.810000000000000E-002    2.301672677577019E-003
  1.820000000000000E-002    2.394162350175635E-003
  1.830000000000000E-002    2.489870954683703E-003
  1.840000000000000E-002    2.588887898720308E-003
  1.850000000000000E-002    2.691303952792513E-003
  1.860000000000000E-002    2.797211874806252E-003
  1.870000000000000E-002    2.906705514992781E-003