 -4.000000000000000E-002    0.000000000000000E+000
 -3.990000000000000E-002    0.000000000000000E+000
 -3.980000000000000E-002    0.000000000000000E+000
 -3.970000000000000E-002    0.000000000000000E+000
 -3.960000000000000E-002    0.000000000000000E+000
 -3.950000000000000E-002    0.000000000000000E+000
 -3.940000000000000E-002    0.000000000000000E+000
 -3.930000000000000E-002    0.000000000000000E+000
 -3.920000000000000E-002    0.000000000000000E+000
 -3.910000000000000E-002    0.000000000000000E+000
 -3.900000000000000E-002    0.000000000000000E+000
 -3.890000000000000E-002    0.000000000000000E+000
 -3.880000000000000E-002    0.000000000000000E+000
 -3.870000000000000E-002    0.000000000000000E+000
 -3.860000000000000E-002    0.000000000000000E+000
 -3.850000000000000E-002    0.000000000000000E+000
 -3.840000000000000E-002    0.000000000000000E+000
 -3.830000000000000E-002    0.000000000000000E+000
 -3.820000000000000E-002    0.000000000000000E+000
 -3.810000000000000E-002    0.000000000000000E+000
 -3.800000000000000E-002   -2.080988656599277E-046
 -3.790000000000000E-002   -1.478961400407182E-045
 -3.780000000000000E-002   -8.698900489754218E-045
 -3.770000000000000E-002   -4.553962477746364E-044
 -3.760000000000000E-002   -2.108310671348247E-043
 -3.750000000000000E-002   -8.831788658238437E-043
 -3.740000000000000E-002   -3.381777807541490E-042
 -3.730000000000000E-002   -1.194051284012183E-041
 -3.720000000000000E-002   -3.916015215348306E-041
 -3.710000000000000E-002   -1.200047793677690E-040
 -3.700000000000000E-002   -3.452865601707711E-040
 -3.690000000000000E-002   -9.364099908913299E-040
 -3.680000000000000E-002   -2.400993766845493E-039
 -3.670000000000000E-002   -5.834042016927337E-039
 -3.660000000000000E-002   -1.345570861439870E-038
 -3.650000000000000E-002   -2.948362814816555E-038
 -3.640000000000000E-002   -6.137557251236415E-038
 -3.630000000000000E-002   -1.212485343271012E-037
 -3.620000000000000E-002   -2.267154247274191E-037
 -3.610000000000000E-002   -3.992329909321805E-037
 -3.600000000000000E-002   -6.560229612795883E-037
 -3.590000000000000E-002   -9.884578889735445E-037
 -3.580000000000000E-002   -1.315518675888761E-036
 -3.570000000000000E-002   -1.396256184717965E-036
 -3.560000000000000E-002   -6.821942932011925E-037
 -3.550000000000000E-002    1.906459348362270E-036
 -3.540000000000000E-002    8.280829610936934E-036
 -3.530000000000000E-002    2.151973357618011E-035
 -3.520000000000000E-002    4.612546888817190E-035
 -3.510000000000000E-002    8.795497732159467E-035
 -3.500000000000000E-002    1.533989816028733E-034
 -3.490000000000000E-002    2.471535028569400E-034
 -3.480000000000000E-002    3.677010317288433E-034
 -3.470000000000000E-002    4.994904775757141E-034
 -3.460000000000000E-002    6.009474684972314E-034
 -3.450000000000000E-002    5.881110191474841E-034
 -3.440000000000000E-002    3.151982932998901E-034
 -3.430000000000000E-002   -4.439167911783736E-034
 -3.420000000000000E-002   -2.005231664286326E-033
 -3.410000000000000E-002   -4.761607170907829E-033
 -3.400000000000000E-002   -9.127451852892908E-033
 -3.390000000000000E-002   -1.541577484782054E-032
 -3.380000000000000E-002   -2.362001316134691E-032
 -3.370000000000000E-002   -3.307800332904924E-032
 -3.360000000000000E-002   -4.201274869759293E-032
 -3.350000000000000E-002   -4.697994762264876E-032
 -3.340000000000000E-002   -4.231045241090170E-032
 -3.330000000000000E-002   -1.971870910199416E-032
 -3.320000000000000E-002    3.164868086815287E-032
 -3.310000000000000E-002    1.243410763174062E-031
 -3.300000000000000E-002    2.704388221409035E-031
 -3.290000000000000E-002    4.776052898022328E-031
 -3.280000000000000E-002    7.429730732762764E-031
 -3.270000000000000E-002    1.044786257414540E-030
 -3.260000000000000E-002    1.332292967729798E-030
 -3.250000000000000E-002    1.515269353975396E-030
 -3.240000000000000E-002    1.455751770987710E-030
 -3.230000000000000E-002    9.659677130886349E-031
 -3.220000000000000E-002   -1.821369093306481E-031
 -3.210000000000000E-002   -2.229349180549786E-030
 -3.200000000000000E-002   -5.377098652484270E-030
 -3.190000000000000E-002   -9.705823001298257E-030
 -3.180000000000000E-002   -1.506267771537654E-029
 -3.170000000000000E-002   -2.092440053391482E-029
 -3.160000000000000E-002   -2.625143698157526E-029
 -3.150000000000000E-002   -2.936287603124569E-029
 -3.140000000000000E-002   -2.787713703628954E-029
 -3.130000000000000E-002   -1.877826463202475E-029
 -3.120000000000000E-002    1.321689446089765E-030
 -3.110000000000000E-002    3.565267942949838E-029
 -3.100000000000000E-002    8.643248615054743E-029
 -3.090000000000000E-002    1.536691342655324E-028
 -3.080000000000000E-002    2.336661433656037E-028
 -3.070000000000000E-002    3.173726859052556E-028
 -3.060000000000000E-002    3.888445452004403E-028
 -3.050000000000000E-002    4.242222438518969E-028
 -3.040000000000000E-002    3.917708434188902E-028
 -3.030000000000000E-002    2.536286666102460E-028
 -3.020000000000000E-002   -3.006064883398080E-029
 -3.010000000000000E-002   -4.940574449365678E-028
 -3.000000000000000E-002   -1.157675677818082E-027
 -2.990000000000000E-002   -2.011364925044949E-027
 -2.980000000000000E-002   -3.001146056298928E-027
 -2.970000000000000E-002   -4.012773614074502E-027
 -2.960000000000000E-002   -4.858599632250983E-027
 -2.950000000000000E-002   -5.271226557063075E-027
 -2.940000000000000E-002   -4.908959764639696E-027
 -2.930000000000000E-002   -3.378508708723318E-027
 -2.920000000000000E-002   -2.800329575940031E-028
 -2.910000000000000E-002    4.721879609994365E-027
 -2.900000000000000E-002    1.180065313143627E-026
 -2.890000000000000E-002    2.084747014328718E-026
 -2.880000000000000E-002    3.133832297717434E-026
 -2.870000000000000E-002    4.220564877154223E-026
 -2.860000000000000E-002    5.173960972795732E-026
 -2.850000000000000E-002    5.755110406214897E-026
 -2.840000000000000E-002    5.663342093355886E-026
 -2.830000000000000E-002    4.556003275377758E-026
 -2.820000000000000E-002    2.085049849631028E-026
 -2.810000000000000E-002   -2.047706903802890E-026
 -2.800000000000000E-002   -8.017120396931899E-026
 -2.790000000000000E-002   -1.578663820421587E-025
 -2.780000000000000E-002   -2.501330458510152E-025
 -2.770000000000000E-002   -3.495802661585434E-025
 -2.760000000000000E-002   -4.441774056904334E-025
 -2.750000000000000E-002   -5.169984745222233E-025
 -2.740000000000000E-002   -5.466120858250484E-025
 -2.730000000000000E-002   -5.083331682588658E-025
 -2.720000000000000E-002   -3.765078845379691E-025
 -2.710000000000000E-002   -1.279151398843044E-025
 -2.700000000000000E-002    2.537683277987220E-025
 -2.690000000000000E-002    7.726734780168330E-025
 -2.680000000000000E-002    1.415064770550205E-024
 -2.670000000000000E-002    2.143964470438806E-024
 -2.660000000000000E-002    2.894969697239253E-024
 -2.650000000000000E-002    3.574315148661006E-024
 -2.640000000000000E-002    4.060301561269786E-024
 -2.630000000000000E-002    4.209136481256019E-024
 -2.620000000000000E-002    3.865984211577252E-024
 -2.610000000000000E-002    2.881573654089469E-024
 -2.600000000000000E-002    1.134061495996443E-024
 -2.590000000000000E-002   -1.444976671486643E-024
 -2.580000000000000E-002   -4.842496929133743E-024
 -2.570000000000000E-002   -8.936907494875684E-024
 -2.560000000000000E-002   -1.347584686167576E-023
 -2.550000000000000E-002   -1.806329389346565E-023
 -2.540000000000000E-002   -2.216066483839911E-023
 -2.530000000000000E-002   -2.510617189586754E-023
 -2.520000000000000E-002   -2.615563202443419E-023
 -2.510000000000000E-002   -2.454614337537844E-023
 -2.500000000000000E-002   -1.958152757163322E-023
 -2.490000000000000E-002   -1.073541073487428E-023
 -2.480000000000000E-002    2.235565949065958E-024
 -2.470000000000000E-002    1.917921091245375E-023
 -2.460000000000000E-002    3.944962007781553E-023
 -2.450000000000000E-002    6.183889033346147E-023
 -2.440000000000000E-002    8.455474609815135E-023
 -2.430000000000000E-002    1.052586331945408E-022
 -2.420000000000000E-002    1.211754015582288E-022
 -2.410000000000000E-002    1.292799929581224E-022
 -2.400000000000000E-002    1.265589403576252E-022
 -2.390000000000000E-002    1.103353578547059E-022
 -2.380000000000000E-002    7.863636242577876E-023
 -2.370000000000000E-002    3.057227723311593E-023
 -2.360000000000000E-002   -3.331093353560006E-023
 -2.350000000000000E-002   -1.107498421989310E-022
 -2.340000000000000E-002   -1.975976796878625E-022
 -2.330000000000000E-002   -2.878162483353763E-022
 -2.320000000000000E-002   -3.736590178325933E-022
 -2.310000000000000E-002   -4.460647150695343E-022
 -2.300000000000000E-002   -4.952625657149854E-022
 -2.290000000000000E-002   -5.115682296371031E-022
 -2.280000000000000E-002   -4.863260782194444E-022
 -2.270000000000000E-002   -4.129309422605404E-022
 -2.260000000000000E-002   -2.878424026514573E-022
 -2.250000000000000E-002   -1.114914575146018E-022
 -2.240000000000000E-002    1.110270097780517E-022
 -2.230000000000000E-002    3.695782323069547E-022
 -2.220000000000000E-002    6.490161411303769E-022
 -2.210000000000000E-002    9.296784965489226E-022
 -2.200000000000000E-002    1.188376940304641E-021
 -2.190000000000000E-002    1.399865350359124E-021
 -2.180000000000000E-002    1.538725615337753E-021
 -2.170000000000000E-002    1.581558950554840E-021
 -2.160000000000000E-002    1.509329783560435E-021
 -2.150000000000000E-002    1.309670027741424E-021
 -2.140000000000000E-002    9.789311118020114E-022
 -2.130000000000000E-002    5.237617934991320E-022
 -2.120000000000000E-002   -3.799811821401223E-023
 -2.110000000000000E-002   -6.772843847147298E-022
 -2.100000000000000E-002   -1.354761977700339E-021
 -2.090000000000000E-002   -2.022819182846353E-021
 -2.080000000000000E-002   -2.628570673258218E-021
 -2.070000000000000E-002   -3.117744252942142E-021
 -2.060000000000000E-002   -3.439227539650523E-021
 -2.050000000000000E-002   -3.549958517864930E-021
 -2.040000000000000E-002   -3.419769505526078E-021
 -2.030000000000000E-002   -3.035736007134418E-021
 -2.020000000000000E-002   -2.405564351346972E-021
 -2.010000000000000E-002   -1.559563431160981E-021
 -2.000000000000000E-002   -5.508063635694815E-022
 -1.990000000000000E-002    5.468120569869939E-022
 -1.980000000000000E-002    1.642775040481215E-021
 -1.970000000000000E-002    2.636377173477955E-021
 -1.960000000000000E-002    3.425163642004775E-021
 -1.950000000000000E-002    3.914942897543220E-021
 -1.940000000000000E-002    4.030724530661737E-021
 -1.930000000000000E-002    3.727750594431186E-021
 -1.920000000000000E-002    3.001634033284838E-021
 -1.910000000000000E-002    1.896520382372717E-021
 -1.900000000000000E-002    5.101542526766462E-022
 -1.890000000000000E-002   -1.005228100319624E-021
 -1.880000000000000E-002   -2.447128866134268E-021
 -1.870000000000000E-002   -3.572874034233470E-021
 -1.860000000000000E-002   -4.115968944915153E-021
 -1.850000000000000E-002   -3.808716776674076E-021
 -1.840000000000000E-002   -2.410588090580927E-021
 -1.830000000000000E-002    2.588074932843724E-022
 -1.820000000000000E-002    4.283970709165317E-021
 -1.810000000000000E-002    9.617580514133162E-021
 -1.800000000000000E-002    1.604773452871461E-020
 -1.790000000000000E-002    2.317241360086533E-020
 -1.780000000000000E-002    3.038576713021660E-020
 -1.770000000000000E-002    3.688107160868265E-020
 -1.760000000000000E-002    4.167503079178082E-020
 -1.750000000000000E-002    4.365734038578929E-020
 -1.740000000000000E-002    4.166795270203654E-020
 -1.730000000000000E-002    3.460226920213760E-020
 -1.720000000000000E-002    2.154134997261872E-020
 -1.710000000000000E-002    1.900625067941285E-021
 -1.700000000000000E-002   -2.441370091753296E-020
 -1.690000000000000E-002   -5.685541438220246E-020
 -1.680000000000000E-002   -9.411483272375151E-020
 -1.670000000000000E-002   -1.340421171886126E-019
 -1.660000000000000E-002   -1.736388727525910E-019
 -1.650000000000000E-002   -2.091377606747897E-019
 -1.640000000000000E-002   -2.361843811263108E-019
 -1.630000000000000E-002   -2.501279048896845E-019
 -1.620000000000000E-002   -2.464151369344704E-019
 -1.610000000000000E-002   -2.210692524951678E-019
 -1.600000000000000E-002   -1.712195597680959E-019
 -1.590000000000000E-002   -9.563426603460784E-020
 -1.580000000000000E-002    4.803148898141091E-021
 -1.570000000000000E-002    1.267404049294906E-019
 -1.560000000000000E-002    2.641919463102534E-019
 -1.550000000000000E-002    4.086208374410821E-019
 -1.540000000000000E-002    5.493065233112816E-019
 -1.530000000000000E-002    6.740110946502130E-019
 -1.520000000000000E-002    7.699223286456996E-019
 -1.510000000000000E-002    8.248136445860630E-019
 -1.500000000000000E-002    8.283233642549415E-019
 -1.490000000000000E-002    7.732228088284396E-019
 -1.480000000000000E-002    6.565222419712583E-019
 -1.470000000000000E-002    4.802579493772894E-019
 -1.460000000000000E-002    2.518194748255974E-019
 -1.450000000000000E-002   -1.628754463522763E-020
 -1.440000000000000E-002   -3.072894581166639E-019
 -1.430000000000000E-002   -6.015767326832503E-019
 -1.420000000000000E-002   -8.786092717079512E-019
 -1.410000000000000E-002   -1.119104063042429E-018
 -1.400000000000000E-002   -1.307244435917801E-018
 -1.390000000000000E-002   -1.432608036082771E-018
 -1.380000000000000E-002   -1.491504082022566E-018
 -1.370000000000000E-002   -1.487447576402199E-018
 -1.360000000000000E-002   -1.430581445418649E-018
 -1.350000000000000E-002   -1.335983108594634E-018
 -1.340000000000000E-002   -1.220951571483677E-018
 -1.330000000000000E-002   -1.101539051765665E-018
 -1.320000000000000E-002   -9.887586310858466E-019
 -1.310000000000000E-002   -8.850268421868577E-019
 -1.300000000000000E-002   -7.814701238631761E-019
 -1.290000000000000E-002   -6.567179292278998E-019
 -1.280000000000000E-002   -4.776962272204237E-019
 -1.270000000000000E-002   -2.027430109772558E-019
 -1.260000000000000E-002    2.129227465981349E-019
 -1.250000000000000E-002    8.096863753393134E-019
 -1.240000000000000E-002    1.614652088869733E-018
 -1.230000000000000E-002    2.632399091114831E-018
 -1.220000000000000E-002    3.836656252839757E-018
 -1.210000000000000E-002    5.164297391003013E-018
 -1.200000000000000E-002    6.513029528923989E-018
 -1.190000000000000E-002    7.743905736076193E-018
 -1.180000000000000E-002    8.689372964827531E-018
 -1.170000000000000E-002    9.166958188984704E-018
 -1.160000000000000E-002    8.997978594136602E-018
 -1.150000000000000E-002    8.029887958352235E-018
 -1.140000000000000E-002    6.160157508351378E-018
 -1.130000000000000E-002    3.359015824767561E-018
 -1.120000000000000E-002   -3.119539237851192E-019
 -1.110000000000000E-002   -4.688353123528845E-018
 -1.100000000000000E-002   -9.501265533250944E-018
 -1.090000000000000E-002   -1.438717335754692E-017
 -1.080000000000000E-002   -1.891024639477924E-017
 -1.070000000000000E-002   -2.259639975833574E-017
 -1.060000000000000E-002   -2.497704004211772E-017
 -1.050000000000000E-002   -2.563896621922819E-017
 -1.040000000000000E-002   -2.427569506118198E-017
 -1.030000000000000E-002   -2.073465472102248E-017
 -1.020000000000000E-002   -1.505441887533399E-017
 -1.010000000000000E-002   -7.486549310415229E-018
 -1.000000000000000E-002    1.502336799560803E-018
 -9.899999999999999E-003    1.125095686236594E-017
 -9.800000000000000E-003    2.094669196795451E-017
 -9.699999999999999E-003    2.968982977831396E-017
 -9.599999999999999E-003    3.657416468229172E-017
 -9.500000000000000E-003    4.077707771303808E-017
 -9.399999999999999E-003    4.165049355186692E-017
 -9.299999999999999E-003    3.880313498683068E-017
 -9.200000000000000E-003    3.216456333054322E-017
 -9.099999999999999E-003    2.202256321628255E-017
 -8.999999999999999E-003    9.027610576121720E-018
 -8.900000000000000E-003   -5.838790285686067E-018
 -8.799999999999999E-003   -2.133149416487952E-017
 -8.699999999999999E-003   -3.604050102581902E-017
 -8.600000000000000E-003   -4.851314553361795E-017
 -8.499999999999999E-003   -5.738857671920020E-017
 -8.399999999999999E-003   -6.153147542228873E-017
 -8.300000000000000E-003   -6.015117683534768E-017
 -8.199999999999999E-003   -5.289331577945117E-017
 -8.100000000000000E-003   -3.989337175809640E-017
 -8.000000000000000E-003   -2.178532698597882E-017
 -7.899999999999999E-003    3.367516031306674E-019
 -7.800000000000000E-003    2.500111547944988E-017
 -7.699999999999999E-003    5.047664040175215E-017
 -7.599999999999999E-003    7.491455337233252E-017
 -7.499999999999999E-003    9.649816954746574E-017
 -7.399999999999999E-003    1.135840667740062E-016
 -7.299999999999999E-003    1.248189368691294E-016
 -7.199999999999999E-003    1.292194871178803E-016
 -7.100000000000000E-003    1.262074216084181E-016
 -6.999999999999999E-003    1.155979274037660E-016
 -6.899999999999999E-003    9.754674566724570E-017
 -6.800000000000000E-003    7.246741212975692E-017
 -6.699999999999999E-003    4.093574622208694E-017
 -6.599999999999999E-003    3.601548299369506E-018
 -6.499999999999999E-003   -3.887180278897158E-017
 -6.399999999999999E-003   -8.582207587172754E-017
 -6.299999999999999E-003   -1.365453202506998E-016
 -6.199999999999999E-003   -1.901922960198981E-016
 -6.100000000000000E-003   -2.456115522255669E-016
 -5.999999999999999E-003   -3.011577188729143E-016
 -5.899999999999999E-003   -3.544946437881648E-016
 -5.800000000000000E-003   -4.024304905649082E-016
 -5.699999999999999E-003   -4.408265761674588E-016
 -5.599999999999999E-003   -4.646215771520270E-016
 -5.499999999999999E-003   -4.680049572854008E-016
 -5.399999999999999E-003   -4.447625470361994E-016
 -5.299999999999999E-003   -3.887981569360777E-016
 -5.199999999999999E-003   -2.948144326458915E-016
 -5.099999999999999E-003   -1.591115238609423E-016
 -4.999999999999999E-003    1.956044020852163E-017
 -4.899999999999999E-003    2.391794542001496E-016
 -4.799999999999999E-003    4.937582655673369E-016
 -4.699999999999999E-003    7.728832190770431E-016
 -4.599999999999999E-003    1.061583097486139E-015
 -4.499999999999999E-003    1.340609521497433E-015
 -4.399999999999999E-003    1.587183259338675E-015
 -4.299999999999999E-003    1.776222051380764E-015
 -4.199999999999999E-003    1.882021462278281E-015
 -4.099999999999999E-003    1.880311307342492E-015
 -3.999999999999999E-003    1.750562007062940E-015
 -3.899999999999999E-003    1.478373866269485E-015
 -3.799999999999999E-003    1.057747634110116E-015
 -3.699999999999999E-003    4.930197107771241E-016
 -3.599999999999999E-003   -1.997578244039801E-016
 -3.499999999999999E-003   -9.921904444130804E-016
 -3.399999999999999E-003   -1.843828477138503E-015
 -3.299999999999999E-003   -2.703471265643280E-015
 -3.199999999999999E-003   -3.511516833132430E-015
 -3.099999999999999E-003   -4.203306165736977E-015
 -2.999999999999999E-003   -4.713317969561426E-015
 -2.899999999999999E-003   -4.979990815874462E-015
 -2.799999999999999E-003   -4.950869987665637E-015
 -2.699999999999999E-003   -4.587718925200108E-015
 -2.599999999999999E-003   -3.871197678072911E-015
 -2.499999999999999E-003   -2.804703156765971E-015
 -2.399999999999999E-003   -1.416984942796384E-015
 -2.299999999999999E-003    2.367962750383821E-016
 -2.199999999999999E-003    2.075819571371262E-015
 -2.099999999999999E-003    3.996308837564695E-015
 -1.999999999999999E-003    5.876204548160890E-015
 -1.899999999999999E-003    7.581681811852300E-015
 -1.799999999999999E-003    8.975239593519819E-015
 -1.699999999999999E-003    9.924953357855633E-015
 -1.599999999999999E-003    1.031435560566364E-014
 -1.499999999999999E-003    1.005231992617648E-014
 -1.399999999999999E-003    9.082247287345963E-015
 -1.299999999999999E-003    7.389850977629953E-015
 -1.199999999999999E-003    5.008848434007329E-015
 -1.099999999999999E-003    2.023959264690372E-015
 -9.999999999999989E-004   -1.429279169566153E-015
 -8.999999999999990E-004   -5.168182925710703E-015
 -7.999999999999990E-004   -8.970185265558642E-015
 -6.999999999999989E-004   -1.258356110833029E-014
 -5.999999999999990E-004   -1.574124132076111E-014
 -4.999999999999989E-004   -1.817708409215785E-014
 -3.999999999999989E-004   -1.964378069333292E-014
 -2.999999999999989E-004   -1.993134472537596E-014
 -1.999999999999989E-004   -1.888504801938075E-014
 -9.999999999999892E-005   -1.642155331314279E-014
  1.084202172485504E-018   -1.254203498069913E-014
  1.000000000000011E-004   -7.341148732806953E-015
  2.000000000000011E-004   -1.010890023263296E-015
  3.000000000000011E-004    6.161385741907159E-015
  4.000000000000011E-004    1.380119363366259E-014
  5.000000000000011E-004    2.146146036211925E-014
  6.000000000000011E-004    2.864305483576215E-014
  7.000000000000011E-004    3.482058632685293E-014
  8.000000000000011E-004    3.947238920171163E-014
  9.000000000000012E-004    4.211327537425186E-014
  1.000000000000001E-003    4.232836324474424E-014
  1.100000000000001E-003    3.980608776037299E-014
  1.200000000000001E-003    3.436841118878797E-014
  1.300000000000001E-003    2.599625664035108E-014
  1.400000000000001E-003    1.484826730411034E-014
  1.500000000000001E-003    1.271229874688487E-015
  1.600000000000001E-003   -1.419923049334876E-014
  1.700000000000001E-003   -3.084865973381632E-014
  1.800000000000001E-003   -4.780501667994782E-014
  1.900000000000001E-003   -6.407117457042190E-014
  2.000000000000001E-003   -7.856811076184725E-014
  2.100000000000001E-003   -9.018765156684340E-014
  2.200000000000001E-003   -9.785306522233265E-014
  2.300000000000001E-003   -1.005851837504669E-013
  2.400000000000001E-003   -9.757118065820784E-014
  2.500000000000001E-003   -8.823269902256356E-014
  2.600000000000001E-003   -7.228952018194618E-014
  2.700000000000001E-003   -4.981476534410581E-014
  2.800000000000001E-003   -2.127741815691346E-014
  2.900000000000001E-003    1.243197216417241E-014
  3.000000000000001E-003    4.999633272093667E-014
  3.100000000000001E-003    8.969115132070795E-014
  3.200000000000001E-003    1.294301891114680E-013
  3.300000000000001E-003    1.668392691308954E-013
  3.400000000000001E-003    1.993580255257132E-013
  3.500000000000001E-003    2.243680265438897E-013
  3.600000000000001E-003    2.393435218568128E-013
  3.700000000000001E-003    2.420190576070696E-013
  3.800000000000001E-003    2.305661949810029E-013
  3.900000000000001E-003    2.037694438190687E-013
  4.000000000000001E-003    1.611899120268871E-013
  4.100000000000001E-003    1.033040067009628E-013
  4.200000000000001E-003    3.160406082475860E-014
  4.300000000000001E-003   -5.135200260879403E-014
  4.400000000000001E-003   -1.419531788688355E-013
  4.500000000000001E-003   -2.356191389399675E-013
  4.600000000000002E-003   -3.269604140828102E-013
  4.700000000000001E-003   -4.100156197793172E-013
  4.800000000000001E-003   -4.785610328395125E-013
  4.900000000000002E-003   -5.264815403907163E-013
  5.000000000000001E-003   -5.481861563267445E-013
  5.100000000000001E-003   -5.390450751940947E-013
  5.200000000000001E-003   -4.958206132703972E-013
  5.300000000000002E-003   -4.170606055769738E-013
  5.400000000000001E-003   -3.034211057098617E-013
  5.500000000000001E-003   -1.578860901961284E-013
  5.600000000000002E-003    1.414495243278960E-014
  5.700000000000001E-003    2.049249049884236E-013
  5.800000000000001E-003    4.045964867825186E-013
  5.900000000000002E-003    6.016033888129186E-013
  6.000000000000001E-003    7.832662215429596E-013
  6.100000000000001E-003    9.365005461632803E-013
  6.200000000000002E-003    1.048642472802381E-012
  6.300000000000002E-003    1.108333590304379E-012
  6.400000000000001E-003    1.106409089778896E-012
  6.500000000000001E-003    1.036725572578105E-012
  6.600000000000002E-003    8.968636612765653E-013
  6.700000000000001E-003    6.886435782810716E-013
  6.800000000000001E-003    4.183996016506006E-013
  6.900000000000002E-003    9.697244689129951E-014
  7.000000000000001E-003   -2.606033627963034E-013
  7.100000000000001E-003   -6.357217226211026E-013
  7.200000000000002E-003   -1.007115418108314E-012
  7.300000000000002E-003   -1.352015026311787E-012
  7.400000000000001E-003   -1.647490895433471E-012
  7.500000000000001E-003   -1.871899453298715E-012
  7.600000000000002E-003   -2.006339740092732E-012
  7.700000000000001E-003   -2.036020807412573E-012
  7.800000000000001E-003   -1.951441686541269E-012
  7.900000000000001E-003   -1.749293561637968E-012
  8.000000000000002E-003   -1.433010819395839E-012
  8.100000000000001E-003   -1.012917657194829E-012
  8.200000000000001E-003   -5.059453440465268E-013
  8.300000000000002E-003    6.507672777195073E-014
  8.400000000000001E-003    6.725217238085243E-013
  8.500000000000002E-003    1.285397420958210E-012
  8.600000000000002E-003    1.871022736990357E-012
  8.700000000000001E-003    2.396845565760378E-012
  8.800000000000002E-003    2.832288520298494E-012
  8.900000000000002E-003    3.150506106941216E-012
  9.000000000000001E-003    3.329944842274493E-012
  9.100000000000002E-003    3.355608326684205E-012
  9.200000000000002E-003    3.219956383927435E-012
  9.300000000000001E-003    2.923384843829876E-012
  9.400000000000002E-003    2.474268226099185E-012
  9.500000000000001E-003    1.888569958206557E-012
  9.600000000000001E-003    1.189053572043469E-012
  9.700000000000002E-003    4.041514192082757E-013
  9.800000000000001E-003   -4.334382538143819E-013
  9.900000000000001E-003   -1.288339142968391E-012
  1.000000000000000E-002   -2.124186964696710E-012
  1.010000000000000E-002   -2.905326498763157E-012
  1.020000000000000E-002   -3.598442175113583E-012
  1.030000000000000E-002   -4.174043714385660E-012
  1.040000000000000E-002   -4.607749612138393E-012
  1.050000000000000E-002   -4.881317773695146E-012
  1.060000000000000E-002   -4.983383727545428E-012
  1.070000000000000E-002   -4.909880391500991E-012
  1.080000000000000E-002   -4.664117527901630E-012
  1.090000000000000E-002   -4.256509699730401E-012
  1.100000000000000E-002   -3.703949198237584E-012
  1.110000000000000E-002   -3.028828115184108E-012
  1.120000000000000E-002   -2.257730072040915E-012
  1.130000000000000E-002   -1.419819824872501E-012
  1.140000000000000E-002   -5.449961671146469E-013
  1.150000000000000E-002    3.381231948816588E-013
  1.160000000000000E-002    1.204265388822874E-012
  1.170000000000000E-002    2.033483335040106E-012
  1.180000000000000E-002    2.812894390241336E-012
  1.190000000000000E-002    3.537986074153362E-012
  1.200000000000000E-002    4.213307221268714E-012
  1.210000000000000E-002    4.852365162401758E-012
  1.220000000000000E-002    5.476569505076548E-012
  1.230000000000000E-002    6.113132300877561E-012
  1.240000000000000E-002    6.791894406621352E-012
  1.250000000000000E-002    7.541126170247963E-012
  1.260000000000000E-002    8.382498178953223E-012
  1.270000000000000E-002    9.325484358601469E-012
  1.280000000000000E-002    1.036160812646615E-011
  1.290000000000000E-002    1.145902154163395E-011
  1.300000000000000E-002    1.255800312474069E-011
  1.310000000000000E-002    1.356795962147670E-011
  1.320000000000000E-002    1.436656012298288E-011
  1.330000000000000E-002    1.480150648557001E-011
  1.340000000000000E-002    1.469538232243449E-011
  1.350000000000000E-002    1.385379130527411E-011
  1.360000000000000E-002    1.207680954064089E-011
  1.370000000000000E-002    9.173466564682456E-012
  1.380000000000000E-002    4.978771545429117E-012
  1.390000000000000E-002   -6.276465620578491E-013
  1.400000000000000E-002   -7.702269643775018E-012
  1.410000000000000E-002   -1.621916560838561E-011
  1.420000000000000E-002   -2.605364926854266E-011
  1.430000000000000E-002   -3.696958462087078E-011
  1.440000000000000E-002   -4.861183548000015E-011
  1.450000000000000E-002   -6.050512822605192E-011
  1.460000000000000E-002   -7.206032842998335E-011
  1.470000000000000E-002   -8.258879839404438E-011
  1.480000000000000E-002   -9.132505175011358E-011
  1.490000000000000E-002   -9.745732523863904E-011
  1.500000000000000E-002   -1.001653161216794E-010
  1.510000000000000E-002   -9.866363352584501E-011
  1.520000000000000E-002   -9.224927542658479E-011
  1.530000000000000E-002   -8.035072248757505E-011
  1.540000000000000E-002   -6.257634385297965E-011
  1.550000000000000E-002   -3.875940182745385E-011
  1.560000000000000E-002   -8.996972359689057E-012
  1.570000000000000E-002    2.631954053960319E-011
  1.580000000000000E-002    6.648465564295639E-011
  1.590000000000000E-002    1.104715542652566E-010
  1.600000000000000E-002    1.569384593808564E-010
  1.610000000000000E-002    2.042495440300212E-010
  1.620000000000000E-002    2.505102229886216E-010
  1.630000000000000E-002    2.936164687229877E-010
  1.640000000000000E-002    3.313170596869669E-010
  1.650000000000000E-002    3.612869649332585E-010
  1.660000000000000E-002    3.812101109537018E-010
  1.670000000000000E-002    3.888690128227682E-010
  1.680000000000000E-002    3.822386667558342E-010
  1.690000000000000E-002    3.595821399983700E-010
  1.700000000000000E-002    3.195445785671188E-010
  1.710000000000000E-002    2.612434470605499E-010
  1.720000000000000E-002    1.843513721700470E-010
  1.730000000000000E-002    8.916949234266769E-011
  1.740000000000000E-002   -2.331197707666251E-011
  1.750000000000000E-002   -1.513684882224860E-010
  1.760000000000000E-002   -2.925137244652845E-010
  1.770000000000000E-002   -4.434927260596217E-010
  1.780000000000000E-002   -6.002977933081624E-010
  1.790000000000000E-002   -7.582095673984120E-010
  1.800000000000000E-002   -9.118645055065177E-010
  1.810000000000000E-002   -1.055350854535947E-009
  1.820000000000000E-002   -1.182333103161877E-009
  1.830000000000000E-002   -1.286205174089136E-009
  1.840000000000000E-002   -1.360271478226959E-009
  1.850000000000000E-002   -1.397952864247686E-009
  1.860000000000000E-002   -1.393015506862075E-009
  1.870000000000000E-002   -1.339816707763212E-009