 -4.000000000000000E-002    0.000000000000000E+000
 -3.990000000000000E-002    0.000000000000000E+000
 -3.980000000000000E-002    0.000000000000000E+000
 -3.970000000000000E-002    0.000000000000000E+000
 -3.960000000000000E-002    0.000000000000000E+000
 -3.950000000000000E-002    0.000000000000000E+000
 -3.940000000000000E-002    0.000000000000000E+000
 -3.930000000000000E-002    0.000000000000000E+000
 -3.920000000000000E-002    0.000000000000000E+000
 -3.910000000000000E-002    0.000000000000000E+000
 -3.900000000000000E-002    0.000000000000000E+000
 -3.890000000000000E-002    0.000000000000000E+000
 -3.880000000000000E-002    0.000000000000000E+000
 -3.870000000000000E-002    0.000000000000000E+000
 -3.860000000000000E-002    0.000000000000000E+000
 -3.850000000000000E-002    0.000000000000000E+000
 -3.840000000000000E-002    0.000000000000000E+000
 -3.830000000000000E-002    0.000000000000000E+000
 -3.820000000000000E-002    0.000000000000000E+000
 -3.810000000000000E-002    0.000000000000000E+000
 -3.800000000000000E-002    0.000000000000000E+000
 -3.790000000000000E-002    0.000000000000000E+000
 -3.780000000000000E-002    0.000000000000000E+000
 -3.770000000000000E-002    0.000000000000000E+000
 -3.760000000000000E-002    0.000000000000000E+000
 -3.750000000000000E-002    0.000000000000000E+000
 -3.740000000000000E-002    0.000000000000000E+000
 -3.730000000000000E-002    0.000000000000000E+000
 -3.720000000000000E-002    0.000000000000000E+000
 -3.710000000000000E-002    0.000000000000000E+000
 -3.700000000000000E-002    0.000000000000000E+000
 -3.690000000000000E-002    0.000000000000000E+000
 -3.680000000000000E-002    0.000000000000000E+000
 -3.670000000000000E-002    0.000000000000000E+000
 -3.660000000000000E-002    0.000000000000000E+000
 -3.650000000000000E-002    0.000000000000000E+000
 -3.640000000000000E-002    0.000000000000000E+000
 -3.630000000000000E-002    0.000000000000000E+000
 -3.620000000000000E-002    0.000000000000000E+000
 -3.610000000000000E-002    0.000000000000000E+000
 -3.600000000000000E-002    0.000000000000000E+000
 -3.590000000000000E-002    0.000000000000000E+000
 -3.580000000000000E-002    0.000000000000000E+000
 -3.570000000000000E-002    0.000000000000000E+000
 -3.560000000000000E-002    0.000000000000000E+000
 -3.550000000000000E-002    0.000000000000000E+000
 -3.540000000000000E-002    0.000000000000000E+000
 -3.530000000000000E-002    0.000000000000000E+000
 -3.520000000000000E-002    0.000000000000000E+000
 -3.510000000000000E-002    0.000000000000000E+000
 -3.500000000000000E-002    0.000000000000000E+000
 -3.490000000000000E-002    0.000000000000000E+000
 -3.480000000000000E-002    0.000000000000000E+000
 -3.470000000000000E-002    0.000000000000000E+000
 -3.460000000000000E-002    0.000000000000000E+000
 -3.450000000000000E-002    0.000000000000000E+000
 -3.440000000000000E-002    0.000000000000000E+000
 -3.430000000000000E-002    0.000000000000000E+000
 -3.420000000000000E-002    0.000000000000000E+000
 -3.410000000000000E-002    0.000000000000000E+000
 -3.400000000000000E-002    0.000000000000000E+000
 -3.390000000000000E-002    0.000000000000000E+000
 -3.380000000000000E-002    0.000000000000000E+000
 -3.370000000000000E-002    0.000000000000000E+000
 -3.360000000000000E-002    0.000000000000000E+000
 -3.350000000000000E-002    0.000000000000000E+000
 -3.340000000000000E-002    0.000000000000000E+000
 -3.330000000000000E-002    0.000000000000000E+000
 -3.320000000000000E-002    0.000000000000000E+000
 -3.310000000000000E-002    0.000000000000000E+000
 -3.300000000000000E-002    0.000000000000000E+000
 -3.290000000000000E-002    0.000000000000000E+000
 -3.280000000000000E-002    0.000000000000000E+000
 -3.270000000000000E-002    0.000000000000000E+000
 -3.260000000000000E-002    0.000000000000000E+000
 -3.250000000000000E-002    0.000000000000000E+000
 -3.240000000000000E-002    0.000000000000000E+000
 -3.230000000000000E-002    0.000000000000000E+000
 -3.220000000000000E-002    0.000000000000000E+000
 -3.210000000000000E-002    0.000000000000000E+000
 -3.200000000000000E-002    0.000000000000000E+000
 -3.190000000000000E-002    0.000000000000000E+000
 -3.180000000000000E-002    7.810515784463656E-048
 -3.170000000000000E-002    1.828370736043259E-047
 -3.160000000000000E-002    2.609422314489624E-047
 -3.150000000000000E-002    2.609422314489624E-047
 -3.140000000000000E-002    1.562103156892731E-047
 -3.130000000000000E-002   -3.495647522014179E-047
 -3.120000000000000E-002   -8.412751073563266E-047
 -3.110000000000000E-002   -3.044925830067429E-046
 -3.100000000000000E-002   -6.972767991837325E-046
 -3.090000000000000E-002   -1.262690351082491E-045
 -3.080000000000000E-002   -2.102435097255800E-045
 -3.070000000000000E-002   -3.135500354691535E-045
 -3.060000000000000E-002   -4.145215159249663E-045
 -3.050000000000000E-002   -4.697067019931261E-045
 -3.040000000000000E-002   -4.408531341812326E-045
 -3.030000000000000E-002   -2.715652137692030E-045
 -3.020000000000000E-002    2.094993126746329E-045
 -3.010000000000000E-002    1.229752046328606E-044
 -3.000000000000000E-002    2.887770723094877E-044
 -2.990000000000000E-002    5.383560686966884E-044
 -2.980000000000000E-002    8.799707023504843E-044
 -2.970000000000000E-002    1.298732802684763E-043
 -2.960000000000000E-002    1.744946920693850E-043
 -2.950000000000000E-002    2.094421871888016E-043
 -2.940000000000000E-002    2.119697371919550E-043
 -2.930000000000000E-002    1.489413110868022E-043
 -2.920000000000000E-002   -2.661449638759706E-044
 -2.910000000000000E-002   -3.706706198198237E-043
 -2.900000000000000E-002   -9.433486422217822E-043
 -2.890000000000000E-002   -1.793039651832471E-042
 -2.880000000000000E-002   -2.930554770970944E-042
 -2.870000000000000E-002   -4.291472006625318E-042
 -2.860000000000000E-002   -5.685515479841815E-042
 -2.850000000000000E-002   -6.732515260259464E-042
 -2.840000000000000E-002   -6.807763042466104E-042
 -2.830000000000000E-002   -4.993285382105932E-042
 -2.820000000000000E-002   -8.339531382356499E-044
 -2.810000000000000E-002    9.337016239722263E-042
 -2.800000000000000E-002    2.467817402212205E-041
 -2.790000000000000E-002    4.695658543014138E-041
 -2.780000000000000E-002    7.618682122584631E-041
 -2.770000000000000E-002    1.105303131393283E-040
 -2.760000000000000E-002    1.452454432586488E-040
 -2.750000000000000E-002    1.715336196296769E-040
 -2.740000000000000E-002    1.755205329445354E-040
 -2.730000000000000E-002    1.377187167633834E-040
 -2.720000000000000E-002    3.349124442905361E-041
 -2.710000000000000E-002   -1.648399423896218E-040
 -2.700000000000000E-002   -4.835252074770843E-040
 -2.690000000000000E-002   -9.398919663959472E-040
 -2.680000000000000E-002   -1.531402477952777E-039
 -2.670000000000000E-002   -2.221377562237956E-039
 -2.660000000000000E-002   -2.922359072841691E-039
 -2.650000000000000E-002   -3.479306588565964E-039
 -2.640000000000000E-002   -3.656377242566426E-039
 -2.630000000000000E-002   -3.132770241049524E-039
 -2.620000000000000E-002   -1.514750581420286E-039
 -2.610000000000000E-002    1.627935037745474E-039
 -2.600000000000000E-002    6.692995172067468E-039
 -2.590000000000000E-002    1.393739280229482E-038
 -2.580000000000000E-002    2.332777400009672E-038
 -2.570000000000000E-002    3.435460371695909E-038
 -2.560000000000000E-002    4.582583801452082E-038
 -2.550000000000000E-002    5.566986694835531E-038
 -2.540000000000000E-002    6.079360029851721E-038
 -2.530000000000000E-002    5.705787385027158E-038
 -2.520000000000000E-002    3.944581172829800E-038
 -2.510000000000000E-002    2.506070657897981E-039
 -2.500000000000000E-002   -5.885307213546522E-038
 -2.490000000000000E-002   -1.481667445146106E-037
 -2.480000000000000E-002   -2.658082999131569E-037
 -2.470000000000000E-002   -4.070438794913595E-037
 -2.460000000000000E-002   -5.599153318512516E-037
 -2.450000000000000E-002   -7.032430162017384E-037
 -2.440000000000000E-002   -8.051772107994824E-037
 -2.430000000000000E-002   -8.228577758952184E-037
 -2.420000000000000E-002   -7.038453223001824E-037
 -2.410000000000000E-002   -3.900259039892382E-037
 -2.400000000000000E-002    1.753678408378478E-037
 -2.390000000000000E-002    1.037177127375431E-036
 -2.380000000000000E-002    2.214114515101596E-036
 -2.370000000000000E-002    3.681453131285571E-036
 -2.360000000000000E-002    5.351905361705625E-036
 -2.350000000000000E-002    7.056959521536675E-036
 -2.340000000000000E-002    8.532010671255386E-036
 -2.330000000000000E-002    9.409697106916713E-036
 -2.320000000000000E-002    9.226717744816649E-036
 -2.310000000000000E-002    7.449859843646922E-036
 -2.300000000000000E-002    3.526694043231788E-036
 -2.290000000000000E-002   -3.034915853107466E-036
 -2.280000000000000E-002   -1.255696760411933E-035
 -2.270000000000000E-002   -2.505383865179421E-035
 -2.260000000000000E-002   -4.007570743148169E-035
 -2.250000000000000E-002   -5.654879440650341E-035
 -2.240000000000000E-002   -7.263667905025382E-035
 -2.230000000000000E-002   -8.565543508123330E-035
 -2.220000000000000E-002   -9.208248318145072E-035
 -2.210000000000000E-002   -8.770302381374819E-035
 -2.200000000000000E-002   -6.793653120174105E-035
 -2.190000000000000E-002   -2.837654027572466E-035
 -2.180000000000000E-002    3.444230055089558E-035
 -2.170000000000000E-002    1.220665652325193E-034
 -2.160000000000000E-002    2.329948482276589E-034
 -2.150000000000000E-002    3.615081187402303E-034
 -2.140000000000000E-002    4.966280199394678E-034
 -2.130000000000000E-002    6.214265907350518E-034
 -2.120000000000000E-002    7.129530284504486E-034
 -2.110000000000000E-002    7.430603526130056E-034
 -2.100000000000000E-002    6.803907497911990E-034
 -2.090000000000000E-002    4.937030966450575E-034
 -2.080000000000000E-002    1.565877611193083E-034
 -2.070000000000000E-002   -3.465892863649057E-034
 -2.060000000000000E-002   -1.013930707637805E-033
 -2.050000000000000E-002   -1.819152959568511E-033
 -2.040000000000000E-002   -2.705641191775644E-033
 -2.030000000000000E-002   -3.582671025481737E-033
 -2.020000000000000E-002   -4.325192313299070E-033
 -2.010000000000000E-002   -4.778544677365999E-033
 -2.000000000000000E-002   -4.769219727512233E-033
 -1.990000000000000E-002   -4.122269259085301E-033
 -1.980000000000000E-002   -2.685179423942248E-033
 -1.970000000000000E-002   -3.570122439530186E-034
 -1.960000000000000E-002    2.879546488323551E-033
 -1.950000000000000E-002    6.926774353993961E-033
 -1.940000000000000E-002    1.154569713832830E-032
 -1.930000000000000E-002    1.634030504590215E-032
 -1.920000000000000E-002    2.075755797789781E-032
 -1.910000000000000E-002    2.410795610978188E-032
 -1.900000000000000E-002    2.561008524049280E-032
 -1.890000000000000E-002    2.446038727164206E-032
 -1.880000000000000E-002    1.992659328440856E-032
 -1.870000000000000E-002    1.145997231394765E-032
 -1.860000000000000E-002   -1.181808196549657E-033
 -1.850000000000000E-002   -1.781257932617229E-032
 -1.840000000000000E-002   -3.771024117422292E-032
 -1.830000000000000E-002   -5.953958389371792E-032
 -1.820000000000000E-002   -8.132147780024455E-032
 -1.810000000000000E-002   -1.004639494891062E-031
 -1.800000000000000E-002   -1.138688405839415E-031
 -1.790000000000000E-002   -1.181247459947853E-031
 -1.780000000000000E-002   -1.097926776012785E-031
 -1.770000000000000E-002   -8.578523052546573E-032
 -1.760000000000000E-002   -4.383230741086059E-032
 -1.750000000000000E-002    1.698393039054981E-032
 -1.740000000000000E-002    9.565596421960296E-032
 -1.730000000000000E-002    1.886883786350906E-031
 -1.720000000000000E-002    2.896161419409739E-031
 -1.710000000000000E-002    3.886974400241583E-031
 -1.700000000000000E-002    4.728976037613683E-031
 -1.690000000000000E-002    5.262966523735374E-031
 -1.680000000000000E-002    5.310553636113019E-031
 -1.670000000000000E-002    4.690540048094922E-031
 -1.660000000000000E-002    3.242653702665516E-031
 -1.650000000000000E-002    8.583167616932851E-032
 -1.640000000000000E-002   -2.483177650713134E-031
 -1.630000000000000E-002   -6.676410296031769E-031
 -1.620000000000000E-002   -1.145472717263343E-030
 -1.610000000000000E-002   -1.636533197174560E-030
 -1.600000000000000E-002   -2.076301210475614E-030
 -1.590000000000000E-002   -2.383137164288483E-030
 -1.580000000000000E-002   -2.463948464006989E-030
 -1.570000000000000E-002   -2.223904456524723E-030
 -1.560000000000000E-002   -1.580222325974750E-030
 -1.550000000000000E-002   -4.793527750982927E-031
 -1.540000000000000E-002    1.083945417734216E-030
 -1.530000000000000E-002    3.048051709808409E-030
 -1.520000000000000E-002    5.269671129682236E-030
 -1.510000000000000E-002    7.516522870353042E-030
 -1.500000000000000E-002    9.471380144536927E-030
 -1.490000000000000E-002    1.075075065776184E-029
 -1.480000000000000E-002    1.094018454371048E-029
 -1.470000000000000E-002    9.646110973690894E-030
 -1.460000000000000E-002    6.561359147850282E-030
 -1.450000000000000E-002    1.538379817468439E-030
 -1.440000000000000E-002   -5.338914765643222E-030
 -1.430000000000000E-002   -1.369630427426469E-029
 -1.420000000000000E-002   -2.283635719609042E-029
 -1.410000000000000E-002   -3.174399131431126E-029
 -1.400000000000000E-002   -3.914043592282147E-029
 -1.390000000000000E-002   -4.359059961525164E-029
 -1.380000000000000E-002   -4.366179879663997E-029
 -1.370000000000000E-002   -3.812332393491752E-029
 -1.360000000000000E-002   -2.616736849271689E-029
 -1.350000000000000E-002   -7.623969713386371E-030
 -1.340000000000000E-002    1.686280064654265E-029
 -1.330000000000000E-002    4.573147590673632E-029
 -1.320000000000000E-002    7.650296065585837E-029
 -1.310000000000000E-002    1.059043981321692E-028
 -1.300000000000000E-002    1.301235209733287E-028
 -1.290000000000000E-002    1.451818034736769E-028
 -1.280000000000000E-002    1.473949469168219E-028
 -1.270000000000000E-002    1.338714851552225E-028
 -1.260000000000000E-002    1.029874542780217E-028
 -1.250000000000000E-002    5.477004945005511E-029
 -1.240000000000000E-002   -8.871523595348622E-030
 -1.230000000000000E-002   -8.411400305379380E-029
 -1.220000000000000E-002   -1.654078834704527E-028
 -1.210000000000000E-002   -2.458752711280611E-028
 -1.200000000000000E-002   -3.178760324074506E-028
 -1.190000000000000E-002   -3.736740617365779E-028
 -1.180000000000000E-002   -4.061191313318099E-028
 -1.170000000000000E-002   -4.092595322462882E-028
 -1.160000000000000E-002   -3.788169251376271E-028
 -1.150000000000000E-002   -3.124863760258178E-028
 -1.140000000000000E-002   -2.100665672989043E-028
 -1.130000000000000E-002   -7.346734284275760E-029
 -1.120000000000000E-002    9.332571250171057E-029
 -1.110000000000000E-002    2.842378168991788E-028
 -1.100000000000000E-002    4.909681659090212E-028
 -1.090000000000000E-002    7.027036079814011E-028
 -1.080000000000000E-002    9.057334577833750E-028
 -1.070000000000000E-002    1.083106538102141E-027
 -1.060000000000000E-002    1.214556218061314E-027
 -1.050000000000000E-002    1.276976380612907E-027
 -1.040000000000000E-002    1.245729543594595E-027
 -1.030000000000000E-002    1.096997035679078E-027
 -1.020000000000000E-002    8.112231593830802E-028
 -1.010000000000000E-002    3.774780484143236E-028
 -1.000000000000000E-002   -2.017122077329627E-028
 -9.899999999999999E-003   -9.057915595096493E-028
 -9.800000000000000E-003   -1.692793392070941E-027
 -9.699999999999999E-003   -2.498181787624173E-027
 -9.599999999999999E-003   -3.236849072514631E-027
 -9.500000000000000E-003   -3.808909834823643E-027
 -9.399999999999999E-003   -4.109420270692991E-027
 -9.299999999999999E-003   -4.041480765996515E-027
 -9.200000000000000E-003   -3.531446111689250E-027
 -9.099999999999999E-003   -2.544276406302860E-027
 -8.999999999999999E-003   -1.096591178284415E-027
 -8.900000000000000E-003    7.351534801319325E-028
 -8.799999999999999E-003    2.813633447967660E-027
 -8.699999999999999E-003    4.948243829638520E-027
 -8.600000000000000E-003    6.911566768084303E-027
 -8.499999999999999E-003    8.463483110833237E-027
 -8.399999999999999E-003    9.380152409179258E-027
 -8.300000000000000E-003    9.483827004770488E-027
 -8.199999999999999E-003    8.668749306876613E-027
 -8.100000000000000E-003    6.918494114960131E-027
 -8.000000000000000E-003    4.311174940934320E-027
 -7.899999999999999E-003    1.010890220936934E-027
 -7.800000000000000E-003   -2.753590963564506E-027
 -7.699999999999999E-003   -6.719073717847593E-027
 -7.599999999999999E-003   -1.062080842816054E-026
 -7.499999999999999E-003   -1.422022103175179E-026
 -7.399999999999999E-003   -1.731981177989810E-026
 -7.299999999999999E-003   -1.975955495358447E-026
 -7.199999999999999E-003   -2.139296993352090E-026
 -7.100000000000000E-003   -2.204646812655464E-026
 -6.999999999999999E-003   -2.147145126492618E-026
 -6.899999999999999E-003   -1.930409332585252E-026
 -6.800000000000000E-003   -1.505098322367631E-026
 -6.699999999999999E-003   -8.118790069189042E-027
 -6.599999999999999E-003    2.098242470992232E-027
 -6.499999999999999E-003    1.606821418204347E-026
 -6.399999999999999E-003    3.391708968622003E-026
 -6.299999999999999E-003    5.519361357812275E-026
 -6.199999999999999E-003    7.864265893281534E-026
 -6.100000000000000E-003    1.020383281801622E-025
 -5.999999999999999E-003    1.221333987516285E-025
 -5.899999999999999E-003    1.347782523534105E-025
 -5.800000000000000E-003    1.352467426209215E-025
 -5.699999999999999E-003    1.187804273336675E-025
 -5.599999999999999E-003    8.132658113082759E-026
 -5.499999999999999E-003    2.040498732440558E-026
 -5.399999999999999E-003   -6.400146998826670E-026
 -5.299999999999999E-003   -1.686683648909609E-025
 -5.199999999999999E-003   -2.866156967681516E-025
 -5.099999999999999E-003   -4.070040275209440E-025
 -4.999999999999999E-003   -5.155562971436603E-025
 -4.899999999999999E-003   -5.955649027271095E-025
 -4.799999999999999E-003   -6.294687503113567E-025
 -4.699999999999999E-003   -6.008964535807554E-025
 -4.599999999999999E-003   -4.969870167122026E-025
 -4.499999999999999E-003   -3.107267614808908E-025
 -4.399999999999999E-003   -4.299804643043837E-026
 -4.299999999999999E-003    2.959698136642471E-025
 -4.199999999999999E-003    6.860165192313023E-025
 -4.099999999999999E-003    1.097520719799857E-024
 -3.999999999999999E-003    1.492993488776126E-024
 -3.899999999999999E-003    1.829727036317277E-024
 -3.799999999999999E-003    2.063294954122224E-024
 -3.699999999999999E-003    2.151586180627299E-024
 -3.599999999999999E-003    2.058982530545027E-024
 -3.499999999999999E-003    1.760272597360310E-024
 -3.399999999999999E-003    1.243936487394489E-024
 -3.299999999999999E-003    5.145279679725040E-025
 -3.199999999999999E-003   -4.059893518645813E-025
 -3.099999999999999E-003   -1.477963985280791E-024
 -2.999999999999999E-003   -2.644732969269278E-024
 -2.899999999999999E-003   -3.834088914706091E-024
 -2.799999999999999E-003   -4.960377333711531E-024
 -2.699999999999999E-003   -5.927143504675982E-024
 -2.599999999999999E-003   -6.630380742561389E-024
 -2.499999999999999E-003   -6.962603331660082E-024
 -2.399999999999999E-003   -6.818096776392159E-024
 -2.299999999999999E-003   -6.099778738337238E-024
 -2.199999999999999E-003   -4.728043716619671E-024
 -2.099999999999999E-003   -2.651740510769950E-024
 -1.999999999999999E-003    1.389407705115158E-025
 -1.899999999999999E-003    3.598438657834167E-024
 -1.799999999999999E-003    7.612023559224618E-024
 -1.699999999999999E-003    1.198421512042286E-023
 -1.599999999999999E-003    1.643186545492542E-023
 -1.499999999999999E-003    2.058459020412061E-023
 -1.399999999999999E-003    2.399508081007631E-023
 -1.299999999999999E-003    2.616123960860467E-023
 -1.199999999999999E-003    2.656112062008921E-023
 -1.099999999999999E-003    2.470014946617422E-023
 -9.999999999999989E-004    2.016848487506826E-023
 -8.999999999999990E-004    1.270457072112891E-023
 -7.999999999999990E-004    2.259271758755693E-024
 -6.999999999999989E-004   -1.094626022604460E-023
 -5.999999999999990E-004   -2.637657041168468E-023
 -4.999999999999989E-004   -4.315919442921491E-023
 -3.999999999999989E-004   -6.008992397805708E-023
 -2.999999999999989E-004   -7.567093042133175E-023
 -1.999999999999989E-004   -8.818435335469780E-023
 -9.999999999999892E-005   -9.580094317033669E-023
  1.084202172485504E-018   -9.672033187299312E-023
  1.000000000000011E-004   -8.933630446942122E-023
  2.000000000000011E-004   -7.241754827046587E-023
  3.000000000000011E-004   -4.529195915700062E-023
  4.000000000000011E-004   -8.020610285352741E-024
  5.000000000000011E-004    3.845367710939681E-023
  6.000000000000011E-004    9.219894330845476E-023
  7.000000000000011E-004    1.502433866009433E-022
  8.000000000000011E-004    2.085963705461535E-022
  9.000000000000012E-004    2.623541508159490E-022
  1.000000000000001E-003    3.059009919159133E-022
  1.100000000000001E-003    3.332118848327567E-022
  1.200000000000001E-003    3.382577144613167E-022
  1.300000000000001E-003    3.155057897502290E-022
  1.400000000000001E-003    2.604992809532031E-022
  1.500000000000001E-003    1.704874458333519E-022
  1.600000000000001E-003    4.506616412401330E-023
  1.700000000000001E-003   -1.132248876004521E-022
  1.800000000000001E-003   -2.984130553009883E-022
  1.900000000000001E-003   -5.007849569985258E-022
  2.000000000000001E-003   -7.068360551480495E-022
  2.100000000000001E-003   -8.995504679537343E-022
  2.200000000000001E-003   -1.059068532015044E-021
  2.300000000000001E-003   -1.163779327650263E-021
  2.400000000000001E-003   -1.191839928036483E-021
  2.500000000000001E-003   -1.123083345428336E-021
  2.600000000000001E-003   -9.412272133092341E-022
  2.700000000000001E-003   -6.362460580200241E-022
  2.800000000000001E-003   -2.067217433788969E-022
  2.900000000000001E-003    3.380553663930435E-022
  3.000000000000001E-003    9.764864005754023E-022
  3.100000000000001E-003    1.673826215934744E-021
  3.200000000000001E-003    2.382353804894949E-021
  3.300000000000001E-003    3.042752765280405E-021
  3.400000000000001E-003    3.586837885422748E-021
  3.500000000000001E-003    3.941664013145667E-021
  3.600000000000001E-003    4.034942014112298E-021
  3.700000000000001E-003    3.801550742848390E-021
  3.800000000000001E-003    3.190792582293239E-021
  3.900000000000001E-003    2.173911566150774E-021
  4.000000000000001E-003    7.512629455373805E-022
  4.100000000000001E-003   -1.041559020407822E-021
  4.200000000000001E-003   -3.129386823180986E-021
  4.300000000000001E-003   -5.395683739942166E-021
  4.400000000000001E-003   -7.683966054099188E-021
  4.500000000000001E-003   -9.802982364373674E-021
  4.600000000000002E-003   -1.153597968681547E-020
  4.700000000000001E-003   -1.265410348034184E-020
  4.800000000000001E-003   -1.293362209017905E-020
  4.900000000000002E-003   -1.217627431042316E-020
  5.000000000000001E-003   -1.023162254027887E-020
  5.100000000000001E-003   -7.019877355579300E-021
  5.200000000000001E-003   -2.553293370466502E-021
  5.300000000000002E-003    3.046027137276312E-021
  5.400000000000001E-003    9.534221177023462E-021
  5.500000000000001E-003    1.654189936326700E-020
  5.600000000000002E-003    2.358053420728862E-020
  5.700000000000001E-003    3.006049602216278E-020
  5.800000000000001E-003    3.532148028934339E-020
  5.900000000000002E-003    3.867518534313938E-020
  6.000000000000001E-003    3.945886849791537E-020
  6.100000000000001E-003    3.709725266765901E-020
  6.200000000000002E-003    3.116898602160751E-020
  6.300000000000002E-003    2.147271343574827E-020
  6.400000000000001E-003    8.086913910911632E-021
  6.500000000000001E-003   -8.582881696011506E-021
  6.600000000000002E-003   -2.777599257530926E-020
  6.700000000000001E-003   -4.837360079707092E-020
  6.800000000000001E-003   -6.892578559184095E-020
  6.900000000000002E-003   -8.771181761408675E-020
  7.000000000000001E-003   -1.028345619309877E-019
  7.100000000000001E-003   -1.123472033715070E-019
  7.200000000000002E-003   -1.144073630212322E-019
  7.300000000000002E-003   -1.074504101742760E-019
  7.400000000000001E-003   -9.037095356698322E-020
  7.500000000000001E-003   -6.269859283251677E-020
  7.600000000000002E-003   -2.475235533495373E-020
  7.700000000000001E-003    2.224281107850216E-020
  7.800000000000001E-003    7.609398439945132E-020
  7.900000000000001E-003    1.336470452699759E-019
  8.000000000000002E-003    1.908741735314384E-019
  8.100000000000001E-003    2.430487426931168E-019
  8.200000000000001E-003    2.850086403478972E-019
  8.300000000000002E-003    3.115017576602222E-019
  8.400000000000001E-003    3.175999706482520E-019
  8.500000000000002E-003    2.991592448850808E-019
  8.600000000000002E-003    2.532964657082266E-019
  8.700000000000001E-003    1.788466698017918E-019
  8.800000000000002E-003    7.675988178798078E-020
  8.900000000000002E-003   -4.960581297123319E-020
  9.000000000000001E-003   -1.943368717581713E-019
  9.100000000000002E-003   -3.490002761886881E-019
  9.200000000000002E-003   -5.028913343408622E-019
  9.300000000000001E-003   -6.435102760305588E-019
  9.400000000000002E-003   -7.572674113444054E-019
  9.500000000000001E-003   -8.303981471285539E-019
  9.600000000000001E-003   -8.500488486721612E-019
  9.700000000000002E-003   -8.054728355057486E-019
  9.800000000000001E-003   -6.892573046226210E-019
  9.900000000000001E-003   -4.984854783079534E-019
  1.000000000000000E-002   -2.357274650698787E-019
  1.010000000000000E-002    9.024924343765044E-020
  1.020000000000000E-002    4.641546547083091E-019
  1.030000000000000E-002    8.643257200332562E-019
  1.040000000000000E-002    1.263416370532582E-018
  1.050000000000000E-002    1.629657853399178E-018
  1.060000000000000E-002    1.928680417362686E-018
  1.070000000000000E-002    2.125836656528565E-018
  1.080000000000000E-002    2.188919573833845E-018
  1.090000000000000E-002    2.091117256478595E-018
  1.100000000000000E-002    1.814004746892389E-018
  1.110000000000000E-002    1.350337820658989E-018
  1.120000000000000E-002    7.063960586634512E-019
  1.130000000000000E-002   -9.638215974137823E-020
  1.140000000000000E-002   -1.020711120113435E-018
  1.150000000000000E-002   -2.013913857696816E-018
  1.160000000000000E-002   -3.009661341178063E-018
  1.170000000000000E-002   -3.931053036885789E-018
  1.180000000000000E-002   -4.694996436307290E-018
  1.190000000000000E-002   -5.217738300181775E-018
  1.200000000000000E-002   -5.421287707840966E-018
  1.210000000000000E-002   -5.240361990684056E-018
  1.220000000000000E-002   -4.629389779975953E-018
  1.230000000000000E-002   -3.569036436542651E-018
  1.240000000000000E-002   -2.071671537720252E-018
  1.250000000000000E-002   -1.851955829843558E-019
  1.260000000000000E-002    2.005309350338663E-018
  1.270000000000000E-002    4.378563354156509E-018
  1.280000000000000E-002    6.781009182472370E-018
  1.290000000000000E-002    9.033806893119563E-018
  1.300000000000000E-002    1.094280808511469E-017
  1.310000000000000E-002    1.231118104544585E-017
  1.320000000000000E-002    1.295409330336547E-017
  1.330000000000000E-002    1.271462649091332E-017
  1.340000000000000E-002    1.147986809140348E-017
  1.350000000000000E-002    9.195976609437103E-018
  1.360000000000000E-002    5.880896265623933E-018
  1.370000000000000E-002    1.633425163535886E-018
  1.380000000000000E-002   -3.362597530331339E-018
  1.390000000000000E-002   -8.839996117686295E-018
  1.400000000000000E-002   -1.445657127753793E-017
  1.410000000000000E-002   -1.981031044735810E-017
  1.420000000000000E-002   -2.446131506779352E-017
  1.430000000000000E-002   -2.795970008497270E-017
  1.440000000000000E-002   -2.987819576238669E-017
  1.450000000000000E-002   -2.984759045720627E-017
  1.460000000000000E-002   -2.759273796805407E-017
  1.470000000000000E-002   -2.296645374014201E-017
  1.480000000000000E-002   -1.597843969512744E-017
  1.490000000000000E-002   -6.816371441468227E-018
  1.500000000000000E-002    4.143543594932394E-018
  1.510000000000000E-002    1.633873850535625E-017
  1.520000000000000E-002    2.903676840216432E-017
  1.530000000000000E-002    4.136678550547334E-017
  1.540000000000000E-002    5.236566477416180E-017
  1.550000000000000E-002    6.103726793516367E-017
  1.560000000000000E-002    6.642214001899816E-017
  1.570000000000000E-002    6.767381907598852E-017
  1.580000000000000E-002    6.413691045942761E-017
  1.590000000000000E-002    5.542131364847695E-017
  1.600000000000000E-002    4.146656760575072E-017
  1.610000000000000E-002    2.259016168938531E-017
  1.620000000000000E-002   -4.858179102811208E-019
  1.630000000000000E-002   -2.663458476847454E-017
  1.640000000000000E-002   -5.435451768761536E-017
  1.650000000000000E-002   -8.183059606538007E-017
  1.660000000000000E-002   -1.070271153428868E-016
  1.670000000000000E-002   -1.278085113221845E-016
  1.680000000000000E-002   -1.420832346030372E-016
  1.690000000000000E-002   -1.479628085925433E-016
  1.700000000000000E-002   -1.439262174262885E-016
  1.710000000000000E-002   -1.289782426049500E-016
  1.720000000000000E-002   -1.027892181410679E-016
  1.730000000000000E-002   -6.580368898189553E-017
  1.740000000000000E-002   -1.930589551185475E-017
  1.750000000000000E-002    3.456779754284602E-017
  1.760000000000000E-002    9.287734036276526E-017
  1.770000000000000E-002    1.519919591777663E-016
  1.780000000000000E-002    2.077673401065636E-016
  1.790000000000000E-002    2.557820524432307E-016
  1.800000000000000E-002    2.916229485220586E-016
  1.810000000000000E-002    3.112046777830909E-016
  1.820000000000000E-002    3.111043843418270E-016
  1.830000000000000E-002    2.888887514688147E-016
  1.840000000000000E-002    2.434090647236057E-016
  1.850000000000000E-002    1.750389137145430E-016
  1.860000000000000E-002    8.583082268886694E-017
  1.870000000000000E-002   -2.042924805683285E-017