 -4.000000000000000E-002    0.000000000000000E+000
 -3.990000000000000E-002    0.000000000000000E+000
 -3.980000000000000E-002    0.000000000000000E+000
 -3.970000000000000E-002    0.000000000000000E+000
 -3.960000000000000E-002    0.000000000000000E+000
 -3.950000000000000E-002    0.000000000000000E+000
 -3.940000000000000E-002    0.000000000000000E+000
 -3.930000000000000E-002    0.000000000000000E+000
 -3.920000000000000E-002    0.000000000000000E+000
 -3.910000000000000E-002    0.000000000000000E+000
 -3.900000000000000E-002    0.000000000000000E+000
 -3.890000000000000E-002    0.000000000000000E+000
 -3.880000000000000E-002    0.000000000000000E+000
 -3.870000000000000E-002   -3.706772182694513E-044
 -3.860000000000000E-002   -8.458955179022850E-043
 -3.850000000000000E-002   -9.771994219672573E-042
 -3.840000000000000E-002   -7.588201121098902E-041
 -3.830000000000000E-002   -4.415978374129703E-040
 -3.820000000000000E-002   -2.027486148088824E-039
 -3.810000000000000E-002   -7.476920754524948E-039
 -3.800000000000000E-002   -2.170914227759170E-038
 -3.790000000000000E-002   -4.401182331258635E-038
 -3.780000000000000E-002   -1.867635594120437E-038
 -3.770000000000000E-002    3.614069656831728E-037
 -3.760000000000000E-002    2.282173196110781E-036
 -3.750000000000000E-002    9.529421652236647E-036
 -3.740000000000000E-002    3.265636585470926E-035
 -3.730000000000000E-002    9.799565929716438E-035
 -3.720000000000000E-002    2.650581274950484E-034
 -3.710000000000000E-002    6.560987020720840E-034
 -3.700000000000000E-002    1.498475043431709E-033
 -3.690000000000000E-002    3.168862548782346E-033
 -3.680000000000000E-002    6.199992972346117E-033
 -3.670000000000000E-002    1.115324962042959E-032
 -3.660000000000000E-002    1.816025221628520E-032
 -3.650000000000000E-002    2.578384188821953E-032
 -3.640000000000000E-002    2.865083201114644E-032
 -3.630000000000000E-002    1.310997735872133E-032
 -3.620000000000000E-002   -4.991691397365221E-032
 -3.610000000000000E-002   -2.154800908508601E-031
 -3.600000000000000E-002   -5.782093057122093E-031
 -3.590000000000000E-002   -1.286558321998037E-030
 -3.580000000000000E-002   -2.551426692935686E-030
 -3.570000000000000E-002   -4.636816054062076E-030
 -3.560000000000000E-002   -7.811667374426499E-030
 -3.550000000000000E-002   -1.223176541417969E-029
 -3.540000000000000E-002   -1.771065559010116E-029
 -3.530000000000000E-002   -2.333299986595072E-029
 -3.520000000000000E-002   -2.686993625072543E-029
 -3.510000000000000E-002   -2.398326273338293E-029
 -3.500000000000000E-002   -7.266579840343585E-030
 -3.490000000000000E-002    3.472062612889832E-029
 -3.480000000000000E-002    1.181055196676577E-028
 -3.470000000000000E-002    2.634989575953750E-028
 -3.460000000000000E-002    4.941314038056101E-028
 -3.450000000000000E-002    8.312607984954994E-028
 -3.440000000000000E-002    1.285601839524116E-027
 -3.430000000000000E-002    1.843543449335917E-027
 -3.420000000000000E-002    2.447294430480149E-027
 -3.410000000000000E-002    2.969025691008183E-027
 -3.400000000000000E-002    3.180736194003323E-027
 -3.390000000000000E-002    2.724120616101555E-027
 -3.380000000000000E-002    1.088145771614287E-027
 -3.370000000000000E-002   -2.393776076591448E-027
 -3.360000000000000E-002   -8.510784349490799E-027
 -3.350000000000000E-002   -1.808574127928964E-026
 -3.340000000000000E-002   -3.180893288744762E-026
 -3.330000000000000E-002   -4.997450567377149E-026
 -3.320000000000000E-002   -7.210782129986621E-026
 -3.310000000000000E-002   -9.648728023862052E-026
 -3.300000000000000E-002   -1.195894582966578E-025
 -3.290000000000000E-002   -1.355214315584648E-025
 -3.280000000000000E-002   -1.355486049273267E-025
 -3.270000000000000E-002   -1.078763547899971E-025
 -3.260000000000000E-002   -3.789201717072715E-026
 -3.250000000000000E-002    9.088816426286549E-026
 -3.240000000000000E-002    2.949103352432289E-025
 -3.230000000000000E-002    5.874853658523229E-025
 -3.220000000000000E-002    9.743608754792995E-025
 -3.210000000000000E-002    1.447985376143450E-024
 -3.200000000000000E-002    1.980730882631295E-024
 -3.190000000000000E-002    2.517669503437169E-024
 -3.180000000000000E-002    2.969901845019887E-024
 -3.170000000000000E-002    3.209861896699227E-024
 -3.160000000000000E-002    3.070444497901746E-024
 -3.150000000000000E-002    2.350101102281220E-024
 -3.140000000000000E-002    8.261811537652066E-025
 -3.130000000000000E-002   -1.721427228395427E-024
 -3.120000000000000E-002   -5.474905881755415E-024
 -3.110000000000000E-002   -1.053103699398743E-023
 -3.100000000000000E-002   -1.684307477135479E-023
 -3.090000000000000E-002   -2.415554602579895E-023
 -3.080000000000000E-002   -3.193833169019699E-023
 -3.070000000000000E-002   -3.932928997191649E-023
 -3.060000000000000E-002   -4.509745750257618E-023
 -3.050000000000000E-002   -4.764119558229631E-023
 -3.040000000000000E-002   -4.503679581028757E-023
 -3.030000000000000E-002   -3.515249500887292E-023
 -3.020000000000000E-002   -1.584005870649253E-023
 -3.010000000000000E-002    1.478938730479863E-023
 -3.000000000000000E-002    5.800750450739494E-023
 -2.990000000000000E-002    1.140421997197295E-022
 -2.980000000000000E-002    1.816109163424311E-022
 -2.970000000000000E-002    2.574566581355639E-022
 -2.960000000000000E-002    3.359469306047222E-022
 -2.950000000000000E-002    4.088094376088314E-022
 -2.940000000000000E-002    4.650879167959272E-022
 -2.930000000000000E-002    4.914047510447026E-022
 -2.920000000000000E-002    4.726101847450341E-022
 -2.910000000000000E-002    3.928787120111389E-022
 -2.900000000000000E-002    2.372813070921273E-022
 -2.890000000000000E-002   -6.185029658365365E-024
 -2.880000000000000E-002   -3.441893736572894E-022
 -2.870000000000000E-002   -7.754283278149007E-022
 -2.860000000000000E-002   -1.287981372112956E-021
 -2.850000000000000E-002   -1.856957332945317E-021
 -2.840000000000000E-002   -2.442791269600881E-021
 -2.830000000000000E-002   -2.990589414243796E-021
 -2.820000000000000E-002   -3.430931033544427E-021
 -2.810000000000000E-002   -3.682492106378526E-021
 -2.800000000000000E-002   -3.656770119220710E-021
 -2.790000000000000E-002   -3.265039634683032E-021
 -2.780000000000000E-002   -2.427448376841205E-021
 -2.770000000000000E-002   -1.083925939913521E-021
 -2.760000000000000E-002    7.937469699370278E-022
 -2.750000000000000E-002    3.189669511234841E-021
 -2.740000000000000E-002    6.032591252929768E-021
 -2.730000000000000E-002    9.187236634353809E-021
 -2.720000000000000E-002    1.244981082779886E-020
 -2.710000000000000E-002    1.554932029829101E-020
 -2.700000000000000E-002    1.815616354836567E-020
 -2.690000000000000E-002    1.989902287197981E-020
 -2.680000000000000E-002    2.039045426093333E-020
 -2.670000000000000E-002    1.926073913158295E-020
 -2.660000000000000E-002    1.619846913693352E-020
 -2.650000000000000E-002    1.099526280807441E-020
 -2.640000000000000E-002    3.590815411713924E-021
 -2.630000000000000E-002   -5.886513086723260E-021
 -2.620000000000000E-002   -1.708906740999555E-020
 -2.610000000000000E-002   -2.943500658028628E-020
 -2.600000000000000E-002   -4.211453918858146E-020
 -2.590000000000000E-002   -5.412154216623341E-020
 -2.580000000000000E-002   -6.431316090427333E-020
 -2.570000000000000E-002   -7.149688435442437E-020
 -2.560000000000000E-002   -7.454192366061616E-020
 -2.550000000000000E-002   -7.250720244498768E-020
 -2.540000000000000E-002   -6.477525241400179E-020
 -2.530000000000000E-002   -5.117743706889411E-020
 -2.520000000000000E-002   -3.209370735813389E-020
 -2.510000000000000E-002   -8.508893471137818E-021
 -2.500000000000000E-002    1.799136761101082E-020
 -2.490000000000000E-002    4.529849084726601E-020
 -2.480000000000000E-002    7.094111730782963E-020
 -2.470000000000000E-002    9.232587876753076E-020
 -2.460000000000000E-002    1.070492868917362E-019
 -2.450000000000000E-002    1.132576810240526E-019
 -2.440000000000000E-002    1.100206063025106E-019
 -2.430000000000000E-002    9.767378002705300E-020
 -2.420000000000000E-002    7.807825200233371E-020
 -2.410000000000000E-002    5.474035223385223E-020
 -2.400000000000000E-002    3.273907121913125E-020
 -2.390000000000000E-002    1.841810145130986E-020
 -2.380000000000000E-002    1.881641417911012E-020
 -2.370000000000000E-002    4.083842256623255E-020
 -2.360000000000000E-002    9.019438799363170E-020
 -2.350000000000000E-002    1.701807887384436E-019
 -2.340000000000000E-002    2.804055362614024E-019
 -2.330000000000000E-002    4.155999623042242E-019
 -2.320000000000000E-002    5.646855316344951E-019
 -2.310000000000000E-002    7.102805084975876E-019
 -2.300000000000000E-002    8.288265591008466E-019
 -2.290000000000000E-002    8.914975998052930E-019
 -2.280000000000000E-002    8.660017583020729E-019
 -2.270000000000000E-002    7.193183602826011E-019
 -2.260000000000000E-002    4.213189243420988E-019
 -2.250000000000000E-002   -5.088860467449017E-020
 -2.240000000000000E-002   -7.081792791866427E-019
 -2.230000000000000E-002   -1.544595475320629E-018
 -2.220000000000000E-002   -2.533009779375828E-018
 -2.210000000000000E-002   -3.621854146849020E-018
 -2.200000000000000E-002   -4.733542648380231E-018
 -2.190000000000000E-002   -5.765188097947398E-018
 -2.180000000000000E-002   -6.592126812279859E-018
 -2.170000000000000E-002   -7.074588932345762E-018
 -2.160000000000000E-002   -7.067615612720853E-018
 -2.150000000000000E-002   -6.434002689295664E-018
 -2.140000000000000E-002   -5.059693479496023E-018
 -2.130000000000000E-002   -2.870645152046890E-018
 -2.120000000000000E-002    1.502058361071108E-019
 -2.110000000000000E-002    3.947546425252679E-018
 -2.100000000000000E-002    8.381794725312521E-018
 -2.090000000000000E-002    1.322271352634233E-017
 -2.080000000000000E-002    1.815042030213166E-017
 -2.070000000000000E-002    2.276535224496318E-017
 -2.060000000000000E-002    2.660817791287910E-017
 -2.050000000000000E-002    2.918981324194007E-017
 -2.040000000000000E-002    3.003070784017410E-017
 -2.030000000000000E-002    2.870740968496005E-017
 -2.020000000000000E-002    2.490323562374681E-017
 -2.010000000000000E-002    1.845874722537125E-017
 -2.000000000000000E-002    9.416836150256065E-018
 -1.990000000000000E-002   -1.943236786667306E-018
 -1.980000000000000E-002   -1.508860937815138E-017
 -1.970000000000000E-002   -2.923748038754895E-017
 -1.960000000000000E-002   -4.338947489309619E-017
 -1.950000000000000E-002   -5.638353365062179E-017
 -1.940000000000000E-002   -6.698253041694749E-017
 -1.930000000000000E-002   -7.398076137397013E-017
 -1.920000000000000E-002   -7.632720680059931E-017
 -1.910000000000000E-002   -7.325429367646205E-017
 -1.900000000000000E-002   -6.439925368744289E-017
 -1.890000000000000E-002   -4.990346645415810E-017
 -1.880000000000000E-002   -3.047486581264121E-017
 -1.870000000000000E-002   -7.399555484896564E-018
 -1.860000000000000E-002    1.750801256301083E-017
 -1.850000000000000E-002    4.202217888035162E-017
 -1.840000000000000E-002    6.368973151202695E-017
 -1.830000000000000E-002    8.007163468787271E-017
 -1.820000000000000E-002    8.902607214082574E-017
 -1.810000000000000E-002    8.900770716587641E-017
 -1.800000000000000E-002    7.935188950367104E-017
 -1.790000000000000E-002    6.050738970653498E-017
 -1.780000000000000E-002    3.418053327249221E-017
 -1.770000000000000E-002    3.356857022367708E-018
 -1.760000000000000E-002   -2.782675776807601E-017
 -1.750000000000000E-002   -5.437372118363087E-017
 -1.740000000000000E-002   -7.088150828831048E-017
 -1.730000000000000E-002   -7.213666601876361E-017
 -1.720000000000000E-002   -5.380977614077071E-017
 -1.710000000000000E-002   -1.318929529408486E-017
 -1.700000000000000E-002    5.012360777525598E-017
 -1.690000000000000E-002    1.336466323155611E-016
 -1.680000000000000E-002    2.316664033408381E-016
 -1.670000000000000E-002    3.351896054126675E-016
 -1.660000000000000E-002    4.322616719245665E-016
 -1.650000000000000E-002    5.086890171130589E-016
 -1.640000000000000E-002    5.491632990270851E-016
 -1.630000000000000E-002    5.387412617668525E-016
 -1.620000000000000E-002    4.645837835505784E-016
 -1.610000000000000E-002    3.178135198800387E-016
 -1.600000000000000E-002    9.531063084212481E-017
 -1.590000000000000E-002   -1.987605360287658E-016
 -1.580000000000000E-002   -5.519049077055435E-016
 -1.570000000000000E-002   -9.429317818524748E-016
 -1.560000000000000E-002   -1.342428970269694E-015
 -1.550000000000000E-002   -1.714174379982165E-015
 -1.540000000000000E-002   -2.017497519181811E-015
 -1.530000000000000E-002   -2.210505431896947E-015
 -1.520000000000000E-002   -2.253983801633034E-015
 -1.510000000000000E-002   -2.115679706649441E-015
 -1.500000000000000E-002   -1.774591625656153E-015
 -1.490000000000000E-002   -1.224828496969740E-015
 -1.480000000000000E-002   -4.785872089977205E-016
 -1.470000000000000E-002    4.321873001665528E-016
 -1.460000000000000E-002    1.455813509088936E-015
 -1.450000000000000E-002    2.522790200140123E-015
 -1.440000000000000E-002    3.549694809301729E-015
 -1.430000000000000E-002    4.444938377488415E-015
 -1.420000000000000E-002    5.116054288251452E-015
 -1.410000000000000E-002    5.478006779854945E-015
 -1.400000000000000E-002    5.461814911215168E-015
 -1.390000000000000E-002    5.022715647280990E-015
 -1.380000000000000E-002    4.146995941995908E-015
 -1.370000000000000E-002    2.856703395499572E-015
 -1.360000000000000E-002    1.211551040686625E-015
 -1.350000000000000E-002   -6.924550770455934E-016
 -1.340000000000000E-002   -2.727846869498550E-015
 -1.330000000000000E-002   -4.743848251775683E-015
 -1.320000000000000E-002   -6.577364227641755E-015
 -1.310000000000000E-002   -8.065997297826860E-015
 -1.300000000000000E-002   -9.062019635702441E-015
 -1.290000000000000E-002   -9.446035957289025E-015
 -1.280000000000000E-002   -9.139059337807385E-015
 -1.270000000000000E-002   -8.111742657221463E-015
 -1.260000000000000E-002   -6.389775629095757E-015
 -1.250000000000000E-002   -4.054769838643080E-015
 -1.240000000000000E-002   -1.240388785214872E-015
 -1.230000000000000E-002    1.876046908105064E-015
 -1.220000000000000E-002    5.085748043507189E-015
 -1.210000000000000E-002    8.163343595691105E-015
 -1.200000000000000E-002    1.088302814150796E-014
 -1.190000000000000E-002    1.303445020275067E-014
 -1.180000000000000E-002    1.443680188598075E-014
 -1.170000000000000E-002    1.494991025381907E-014
 -1.160000000000000E-002    1.448147817701633E-014
 -1.150000000000000E-002    1.299019775399742E-014
 -1.140000000000000E-002    1.048504923389850E-014
 -1.130000000000000E-002    7.021684144086622E-015
 -1.120000000000000E-002    2.697208443112848E-015
 -1.110000000000000E-002   -2.355017255706365E-015
 -1.100000000000000E-002   -7.969020230677999E-015
 -1.090000000000000E-002   -1.394705791698065E-014
 -1.080000000000000E-002   -2.005701791659806E-014
 -1.070000000000000E-002   -2.602666660200730E-014
 -1.060000000000000E-002   -3.153595953874275E-014
 -1.050000000000000E-002   -3.620977508478796E-014
 -1.040000000000000E-002   -3.961415638795407E-014
 -1.030000000000000E-002   -4.125981695658801E-014
 -1.020000000000000E-002   -4.061665258959699E-014
 -1.010000000000000E-002   -3.714241025058664E-014
 -1.000000000000000E-002   -3.032753883140151E-014
 -9.899999999999999E-003   -1.975621399436595E-014
 -9.800000000000000E-003   -5.181240065667625E-015
 -9.699999999999999E-003    1.339233217464661E-014
 -9.599999999999999E-003    3.562269861245731E-014
 -9.500000000000000E-003    6.075625908134952E-014
 -9.399999999999999E-003    8.757405031861341E-014
 -9.299999999999999E-003    1.143722865782377E-013
 -9.200000000000000E-003    1.389888366013229E-013
 -9.099999999999999E-003    1.588849649473323E-013
 -8.999999999999999E-003    1.712875843376129E-013
 -8.900000000000000E-003    1.733916797104552E-013
 -8.799999999999999E-003    1.626157014569757E-013
 -8.699999999999999E-003    1.368953256658253E-013
 -8.600000000000000E-003    9.499373052117216E-014
 -8.499999999999999E-003    3.680020024044203E-014
 -8.399999999999999E-003   -3.641555988317515E-014
 -8.300000000000000E-003   -1.218279715017410E-013
 -8.199999999999999E-003   -2.149918096719530E-013
 -8.100000000000000E-003   -3.099180838125663E-013
 -8.000000000000000E-003   -3.993080533262859E-013
 -7.899999999999999E-003   -4.749516479750297E-013
 -7.800000000000000E-003   -5.282815570187982E-013
 -7.699999999999999E-003   -5.510567160757162E-013
 -7.599999999999999E-003   -5.361336054710458E-013
 -7.499999999999999E-003   -4.782662935497284E-013
 -7.399999999999999E-003   -3.748678262434090E-013
 -7.299999999999999E-003   -2.266549180114693E-013
 -7.199999999999999E-003   -3.810145359065268E-014
 -7.100000000000000E-003    1.823688823235086E-013
 -6.999999999999999E-003    4.225048583885190E-013
 -6.899999999999999E-003    6.666972207350349E-013
 -6.800000000000000E-003    8.967997929547301E-013
 -6.699999999999999E-003    1.093275701034007E-012
 -6.599999999999999E-003    1.236608563937637E-012
 -6.499999999999999E-003    1.308888812085790E-012
 -6.399999999999999E-003    1.295457140271598E-012
 -6.299999999999999E-003    1.186471978641241E-012
 -6.199999999999999E-003    9.782583276910964E-013
 -6.100000000000000E-003    6.742991726935931E-013
 -5.999999999999999E-003    2.857516728161072E-013
 -5.899999999999999E-003   -1.686039461814293E-013
 -5.800000000000000E-003   -6.630299150516268E-013
 -5.699999999999999E-003   -1.166112813195178E-012
 -5.599999999999999E-003   -1.642608963982716E-012
 -5.499999999999999E-003   -2.055749580959543E-012
 -5.399999999999999E-003   -2.369855277587465E-012
 -5.299999999999999E-003   -2.553072745761150E-012
 -5.199999999999999E-003   -2.580026022103646E-012
 -5.099999999999999E-003   -2.434166268928028E-012
 -4.999999999999999E-003   -2.109621863612501E-012
 -4.899999999999999E-003   -1.612378229186133E-012
 -4.799999999999999E-003   -9.606611017016568E-013
 -4.699999999999999E-003   -1.844668043871081E-013
 -4.599999999999999E-003    6.757631127407326E-013
 -4.499999999999999E-003    1.571250423106322E-012
 -4.399999999999999E-003    2.447638500485524E-012
 -4.299999999999999E-003    3.248216088218293E-012
 -4.199999999999999E-003    3.917386580676510E-012
 -4.099999999999999E-003    4.404144507428402E-012
 -3.999999999999999E-003    4.665327429203151E-012
 -3.899999999999999E-003    4.668434682751360E-012
 -3.799999999999999E-003    4.393841452185421E-012
 -3.699999999999999E-003    3.836298576271856E-012
 -3.599999999999999E-003    3.005658297490778E-012
 -3.499999999999999E-003    1.926829671090998E-012
 -3.399999999999999E-003    6.390190141393820E-013
 -3.299999999999999E-003   -8.056496620455689E-013
 -3.199999999999999E-003   -2.344020630440020E-012
 -3.099999999999999E-003   -3.904178468893926E-012
 -2.999999999999999E-003   -5.408000063942385E-012
 -2.899999999999999E-003   -6.773905832737513E-012
 -2.799999999999999E-003   -7.919766446672570E-012
 -2.699999999999999E-003   -8.765958357864445E-012
 -2.599999999999999E-003   -9.238580014597837E-012
 -2.499999999999999E-003   -9.272861986401033E-012
 -2.399999999999999E-003   -8.816785720028724E-012
 -2.299999999999999E-003   -7.834900329085146E-012
 -2.199999999999999E-003   -6.312249631227542E-012
 -2.099999999999999E-003   -4.258265484992125E-012
 -1.999999999999999E-003   -1.710365858451967E-012
 -1.899999999999999E-003    1.263080153147307E-012
 -1.799999999999999E-003    4.560839064180705E-012
 -1.699999999999999E-003    8.048423516796016E-012
 -1.599999999999999E-003    1.155969737398174E-011
 -1.499999999999999E-003    1.490089855774719E-011
 -1.399999999999999E-003    1.785737940523658E-011
 -1.299999999999999E-003    2.020319888704189E-011
 -1.199999999999999E-003    2.171344458384143E-011
 -1.099999999999999E-003    2.217891255353919E-011
 -9.999999999999989E-004    2.142244878556559E-011
 -8.999999999999990E-004    1.931596771744336E-011
 -7.999999999999990E-004    1.579693961654547E-011
 -6.999999999999989E-004    1.088292545446072E-011
 -5.999999999999990E-004    4.682665388326793E-012
 -4.999999999999989E-004   -2.597712323013553E-012
 -3.999999999999989E-004   -1.065462458177596E-011
 -2.999999999999989E-004   -1.909403714372593E-011
 -1.999999999999989E-004   -2.744601193691097E-011
 -9.999999999999892E-005   -3.518672392315184E-011
  1.084202172485504E-018   -4.176722061268601E-011
  1.000000000000011E-004   -4.664756823170238E-011
  2.000000000000011E-004   -4.933444655064224E-011
  3.000000000000011E-004   -4.941968283515238E-011
  4.000000000000011E-004   -4.661695963656591E-011
  5.000000000000011E-004   -4.079369636893790E-011
  6.000000000000011E-004   -3.199526750289006E-011
  7.000000000000011E-004   -2.045896355679605E-011
  8.000000000000011E-004   -6.615782254490572E-012
  9.000000000000012E-004    8.921149099923989E-012
  1.000000000000001E-003    2.538172958080918E-011
  1.100000000000001E-003    4.187681621285327E-011
  1.200000000000001E-003    5.744707450528142E-011
  1.300000000000001E-003    7.111988265738228E-011
  1.400000000000001E-003    8.197070817461846E-011
  1.500000000000001E-003    8.918473926196943E-011
  1.600000000000001E-003    9.211437763078186E-011
  1.700000000000001E-003    9.032825186228382E-011
  1.800000000000001E-003    8.364789146506602E-011
  1.900000000000001E-003    7.216902781923973E-011
  2.000000000000001E-003    5.626540610715115E-011
  2.100000000000001E-003    3.657450319822372E-011
  2.200000000000001E-003    1.396556552582104E-011
  2.300000000000001E-003   -1.050791772284120E-011
  2.400000000000001E-003   -3.566825395927124E-011
  2.500000000000001E-003   -6.028192665800446E-011
  2.600000000000001E-003   -8.313153160561966E-011
  2.700000000000001E-003   -1.030861680778413E-010
  2.800000000000001E-003   -1.191654182027455E-010
  2.900000000000001E-003   -1.305924016835453E-010
  3.000000000000001E-003   -1.368325161189046E-010
  3.100000000000001E-003   -1.376154278755131E-010
  3.200000000000001E-003   -1.329392911022112E-010
  3.300000000000001E-003   -1.230576559274830E-010
  3.400000000000001E-003   -1.084507010524234E-010
  3.500000000000001E-003   -8.978371055619453E-011
  3.600000000000001E-003   -6.785644602317079E-011
  3.700000000000001E-003   -4.354777262440554E-011
  3.800000000000001E-003   -1.775985140690905E-011
  3.900000000000001E-003    8.633902888753262E-012
  4.000000000000001E-003    3.483353060332161E-011
  4.100000000000001E-003    6.014708141447744E-011
  4.200000000000001E-003    8.401327713429182E-011
  4.300000000000001E-003    1.060116395115077E-010
  4.400000000000001E-003    1.258602488362815E-010
  4.500000000000001E-003    1.434024647464425E-010
  4.600000000000002E-003    1.585843095766206E-010
  4.700000000000001E-003    1.714248050097201E-010
  4.800000000000001E-003    1.819816699935484E-010
  4.900000000000002E-003    1.903146516313179E-010
  5.000000000000001E-003    1.964485022746879E-010
  5.100000000000001E-003    2.003373717904383E-010
  5.200000000000001E-003    2.018319124171701E-010
  5.300000000000002E-003    2.006503996001110E-010
  5.400000000000001E-003    1.963548676987729E-010
  5.500000000000001E-003    1.883335150595083E-010
  5.600000000000002E-003    1.757910580984868E-010
  5.700000000000001E-003    1.577490718138852E-010
  5.800000000000001E-003    1.330591894020452E-010
  5.900000000000002E-003    1.004320456839399E-010
  6.000000000000001E-003    5.848574339253347E-011
  6.100000000000001E-003    5.817043736023462E-012
  6.200000000000002E-003   -5.890179592900757E-011
  6.300000000000002E-003   -1.367992768742164E-010
  6.400000000000001E-003   -2.286541372662873E-010
  6.500000000000001E-003   -3.347211762308124E-010
  6.600000000000002E-003   -4.545395017304046E-010
  6.700000000000001E-003   -5.867326599646910E-010
  6.800000000000001E-003   -7.288135580935372E-010
  6.900000000000002E-003   -8.770101178795496E-010
  7.000000000000001E-003   -1.026130619315622E-009
  7.100000000000001E-003   -1.169488385789866E-009
  7.200000000000002E-003   -1.298906266565795E-009
  7.300000000000002E-003   -1.404818700271304E-009
  7.400000000000001E-003   -1.476487638285730E-009
  7.500000000000001E-003   -1.502341167249691E-009
  7.600000000000002E-003   -1.470438666051672E-009
  7.700000000000001E-003   -1.369058255702589E-009
  7.800000000000001E-003   -1.187390935830635E-009
  7.900000000000001E-003   -9.163209546974001E-010
  8.000000000000002E-003   -5.492586041420033E-010
  8.100000000000001E-003   -8.298701109964771E-011
  8.200000000000001E-003    4.815226367385159E-010
  8.300000000000002E-003    1.138376706335004E-009
  8.400000000000001E-003    1.876154608357398E-009
  8.500000000000002E-003    2.677483906876080E-009
  8.600000000000002E-003    3.518834589237208E-009
  8.700000000000001E-003    4.370572394578222E-009
  8.800000000000002E-003    5.197289723882674E-009
  8.900000000000002E-003    5.958433463814192E-009
  9.000000000000001E-003    6.609226755281207E-009
  9.100000000000002E-003    7.101872934213662E-009
  9.200000000000002E-003    7.387021199664699E-009
  9.300000000000001E-003    7.415456222111748E-009
  9.400000000000002E-003    7.139976882697270E-009
  9.500000000000001E-003    6.517413653091032E-009
  9.600000000000001E-003    5.510743038551990E-009
  9.700000000000002E-003    4.091252864401699E-009
  9.800000000000001E-003    2.240718789176062E-009
  9.900000000000001E-003   -4.644227460891015E-011
  1.000000000000000E-002   -2.761066523412204E-009
  1.010000000000000E-002   -5.877199342193661E-009
  1.020000000000000E-002   -9.350131555272963E-009
  1.030000000000000E-002   -1.311450934994444E-008
  1.040000000000000E-002   -1.708252188681218E-008
  1.050000000000000E-002   -2.114216426669059E-008
  1.060000000000000E-002   -2.515557290185555E-008
  1.070000000000000E-002   -2.895743248786456E-008
  1.080000000000000E-002   -3.235346303962782E-008
  1.090000000000000E-002   -3.511900577649006E-008
  1.100000000000000E-002   -3.699772491954317E-008
  1.110000000000000E-002   -3.770044316789092E-008
  1.120000000000000E-002   -3.690417552986977E-008
  1.130000000000000E-002   -3.425136370850265E-008
  1.140000000000000E-002   -2.934935123817580E-008
  1.150000000000000E-002   -2.177016990277461E-008
  1.160000000000000E-002   -1.105060842115479E-008
  1.170000000000000E-002    3.307388518386916E-009
  1.180000000000000E-002    2.183602425206685E-008
  1.190000000000000E-002    4.510060492994743E-008
  1.200000000000000E-002    7.369828572905687E-008
  1.210000000000000E-002    1.082565351423427E-007
  1.220000000000000E-002    1.494315058107002E-007
  1.230000000000000E-002    1.979062640483468E-007
  1.240000000000000E-002    2.543891067502537E-007
  1.250000000000000E-002    3.196117165693143E-007
  1.260000000000000E-002    3.943278591803795E-007
  1.270000000000000E-002    4.793119390823979E-007
  1.280000000000000E-002    5.753581237421319E-007
  1.290000000000000E-002    6.832795358031118E-007
  1.300000000000000E-002    8.039081269325465E-007
  1.310000000000000E-002    9.380945641758825E-007
  1.320000000000000E-002    1.086708971651021E-006
  1.330000000000000E-002    1.250641595063177E-006
  1.340000000000000E-002    1.430804201685150E-006
  1.350000000000000E-002    1.628131781151295E-006
  1.360000000000000E-002    1.843584482279332E-006
  1.370000000000000E-002    2.078149959074837E-006
  1.380000000000000E-002    2.332845977318244E-006
  1.390000000000000E-002    2.608723797081062E-006
  1.400000000000000E-002    2.906871363444653E-006
  1.410000000000000E-002    3.228417295561511E-006
  1.420000000000000E-002    3.574535110321669E-006
  1.430000000000000E-002    3.946447606379589E-006
  1.440000000000000E-002    4.345432881873631E-006
  1.450000000000000E-002    4.772828801085651E-006
  1.460000000000000E-002    5.230040134539434E-006
  1.470000000000000E-002    5.718545234371176E-006
  1.480000000000000E-002    6.239901559105956E-006
  1.490000000000000E-002    6.795754530213967E-006
  1.500000000000000E-002    7.387843136297590E-006
  1.510000000000000E-002    8.018010253472090E-006
  1.520000000000000E-002    8.688208098386280E-006
  1.530000000000000E-002    9.400506329963537E-006
  1.540000000000000E-002    1.015709959108546E-005
  1.550000000000000E-002    1.096031637292141E-005
  1.560000000000000E-002    1.181262335927999E-005
  1.570000000000000E-002    1.271663561086138E-005
  1.580000000000000E-002    1.367511944547693E-005
  1.590000000000000E-002    1.469100266001228E-005
  1.600000000000000E-002    1.576737952325204E-005
  1.610000000000000E-002    1.690751752183148E-005
  1.620000000000000E-002    1.811486337451907E-005
  1.630000000000000E-002    1.939305197265580E-005
  1.640000000000000E-002    2.074591402847606E-005
  1.650000000000000E-002    2.217748361431809E-005
  1.660000000000000E-002    2.369200910259547E-005
  1.670000000000000E-002    2.529395998255792E-005
  1.680000000000000E-002    2.698804282176606E-005
  1.690000000000000E-002    2.877920979854861E-005
  1.700000000000000E-002    3.067267103816061E-005
  1.710000000000000E-002    3.267391099779055E-005
  1.720000000000000E-002    3.478869766912513E-005
  1.730000000000000E-002    3.702309983434337E-005
  1.740000000000000E-002    3.938350411195024E-005
  1.750000000000000E-002    4.187662908054472E-005
  1.760000000000000E-002    4.450953224918751E-005
  1.770000000000000E-002    4.728963994532065E-005
  1.780000000000000E-002    5.022474463264007E-005
  1.790000000000000E-002    5.332303975991447E-005
  1.800000000000000E-002    5.659312161142027E-005
  1.810000000000000E-002    6.004400699694718E-005
  1.820000000000000E-002    6.368515502519271E-005
  1.830000000000000E-002    6.752648729147589E-005
  1.840000000000000E-002    7.157838845559993E-005
  1.850000000000000E-002    7.585174985273825E-005
  1.860000000000000E-002    8.035795875501761E-005
  1.870000000000000E-002    8.510895905110067E-005