 -4.000000000000000E-002    0.000000000000000E+000
 -3.990000000000000E-002    0.000000000000000E+000
 -3.980000000000000E-002    0.000000000000000E+000
 -3.970000000000000E-002    0.000000000000000E+000
 -3.960000000000000E-002    0.000000000000000E+000
 -3.950000000000000E-002    0.000000000000000E+000
 -3.940000000000000E-002    0.000000000000000E+000
 -3.930000000000000E-002    0.000000000000000E+000
 -3.920000000000000E-002    0.000000000000000E+000
 -3.910000000000000E-002    0.000000000000000E+000
 -3.900000000000000E-002    0.000000000000000E+000
 -3.890000000000000E-002    0.000000000000000E+000
 -3.880000000000000E-002    0.000000000000000E+000
 -3.870000000000000E-002    0.000000000000000E+000
 -3.860000000000000E-002    0.000000000000000E+000
 -3.850000000000000E-002    0.000000000000000E+000
 -3.840000000000000E-002    2.079212583287437E-046
 -3.830000000000000E-002    2.650590978533299E-045
 -3.820000000000000E-002    2.570992590598348E-044
 -3.810000000000000E-002    1.936507908963658E-043
 -3.800000000000000E-002    1.192225710564912E-042
 -3.790000000000000E-002    6.235953971112959E-042
 -3.780000000000000E-002    2.844979380447814E-041
 -3.770000000000000E-002    1.153641905577004E-040
 -3.760000000000000E-002    4.216851318797982E-040
 -3.750000000000000E-002    1.404077405940438E-039
 -3.740000000000000E-002    4.292240870144964E-039
 -3.730000000000000E-002    1.211494789270080E-038
 -3.720000000000000E-002    3.168810952353798E-038
 -3.710000000000000E-002    7.693250940459491E-038
 -3.700000000000000E-002    1.732142139658468E-037
 -3.690000000000000E-002    3.600657844261887E-037
 -3.680000000000000E-002    6.837347395362619E-037
 -3.670000000000000E-002    1.158435131985007E-036
 -3.660000000000000E-002    1.651821354961227E-036
 -3.650000000000000E-002    1.612014612005812E-036
 -3.640000000000000E-002   -5.003715372786424E-037
 -3.630000000000000E-002   -8.272827462245378E-036
 -3.620000000000000E-002   -2.913184246553859E-035
 -3.610000000000000E-002   -7.705870958679336E-035
 -3.600000000000000E-002   -1.761870209036810E-034
 -3.590000000000000E-002   -3.646346819984149E-034
 -3.580000000000000E-002   -6.967302863482206E-034
 -3.570000000000000E-002   -1.239783806273124E-033
 -3.560000000000000E-002   -2.058601493785876E-033
 -3.550000000000000E-002   -3.177231958821037E-033
 -3.540000000000000E-002   -4.503727021529770E-033
 -3.530000000000000E-002   -5.701749730241151E-033
 -3.520000000000000E-002   -5.995725665932460E-033
 -3.510000000000000E-002   -3.908524275573470E-033
 -3.500000000000000E-002    3.041754137132550E-033
 -3.490000000000000E-002    1.861021254084239E-032
 -3.480000000000000E-002    4.790831104365268E-032
 -3.470000000000000E-002    9.705194955300896E-032
 -3.460000000000000E-002    1.720129454578022E-031
 -3.450000000000000E-002    2.762169089271639E-031
 -3.440000000000000E-002    4.064030207730396E-031
 -3.430000000000000E-002    5.463777683919995E-031
 -3.420000000000000E-002    6.586556366186481E-031
 -3.410000000000000E-002    6.746903484179797E-031
 -3.400000000000000E-002    4.855496703328522E-031
 -3.390000000000000E-002   -6.350759718362348E-032
 -3.380000000000000E-002   -1.169142712749135E-030
 -3.370000000000000E-002   -3.049344847723337E-030
 -3.360000000000000E-002   -5.897324554574697E-030
 -3.350000000000000E-002   -9.801129009246178E-030
 -3.340000000000000E-002   -1.462292439682297E-029
 -3.330000000000000E-002   -1.983861207214668E-029
 -3.320000000000000E-002   -2.435043262528751E-029
 -3.310000000000000E-002   -2.630313486908521E-029
 -3.300000000000000E-002   -2.295765484018656E-029
 -3.290000000000000E-002   -1.070272020255186E-029
 -3.280000000000000E-002    1.469058987737505E-029
 -3.270000000000000E-002    5.745159869597820E-029
 -3.260000000000000E-002    1.207165425900811E-028
 -3.250000000000000E-002    2.048856948329067E-028
 -3.240000000000000E-002    3.054461568170224E-028
 -3.230000000000000E-002    4.104216003134718E-028
 -3.220000000000000E-002    4.978177240151024E-028
 -3.210000000000000E-002    5.336896845063326E-028
 -3.200000000000000E-002    4.717355607454427E-028
 -3.190000000000000E-002    2.555639688001620E-028
 -3.180000000000000E-002   -1.750867755949543E-028
 -3.170000000000000E-002   -8.729889637287225E-028
 -3.160000000000000E-002   -1.866159313148203E-027
 -3.150000000000000E-002   -3.134786846470936E-027
 -3.140000000000000E-002   -4.583840368186997E-027
 -3.130000000000000E-002   -6.014744431464440E-027
 -3.120000000000000E-002   -7.101820011637520E-027
 -3.110000000000000E-002   -7.381625859516733E-027
 -3.100000000000000E-002   -6.265455450615617E-027
 -3.090000000000000E-002   -3.086406660549111E-027
 -3.080000000000000E-002    2.808167802643191E-027
 -3.070000000000000E-002    1.191121414417922E-026
 -3.060000000000000E-002    2.435654304109426E-026
 -3.050000000000000E-002    3.967489758298831E-026
 -3.040000000000000E-002    5.652937603053748E-026
 -3.030000000000000E-002    7.247144851849481E-026
 -3.020000000000000E-002    8.377737356076934E-026
 -3.010000000000000E-002    8.544150722061467E-026
 -3.000000000000000E-002    7.141363357748522E-026
 -2.990000000000000E-002    3.516677401375494E-026
 -2.980000000000000E-002   -2.933525810759507E-026
 -2.970000000000000E-002   -1.262405134619621E-025
 -2.960000000000000E-002   -2.560158521865345E-025
 -2.950000000000000E-002   -4.133818335016855E-025
 -2.940000000000000E-002   -5.852100928814671E-025
 -2.930000000000000E-002   -7.487393633227226E-025
 -2.920000000000000E-002   -8.705831666896388E-025
 -2.910000000000000E-002   -9.070892345470311E-025
 -2.900000000000000E-002   -8.066419217499344E-025
 -2.890000000000000E-002   -5.144413045547475E-025
 -2.880000000000000E-002    1.988193426101548E-026
 -2.870000000000000E-002    8.317688562615922E-025
 -2.860000000000000E-002    1.928764125999299E-024
 -2.850000000000000E-002    3.276075229739350E-024
 -2.840000000000000E-002    4.782337349160883E-024
 -2.830000000000000E-002    6.287946812623480E-024
 -2.820000000000000E-002    7.558922704446014E-024
 -2.810000000000000E-002    8.289626297825359E-024
 -2.800000000000000E-002    8.117654979056604E-024
 -2.790000000000000E-002    6.653700345958600E-024
 -2.780000000000000E-002    3.527983828116431E-024
 -2.770000000000000E-002   -1.546991511969429E-024
 -2.760000000000000E-002   -8.700183419025719E-024
 -2.750000000000000E-002   -1.781816550102325E-023
 -2.740000000000000E-002   -2.846293797623560E-023
 -2.730000000000000E-002   -3.980387492092792E-023
 -2.720000000000000E-002   -5.057883024850244E-023
 -2.710000000000000E-002   -5.910064506604245E-023
 -2.700000000000000E-002   -6.332466557476804E-023
 -2.690000000000000E-002   -6.098975946866895E-023
 -2.680000000000000E-002   -4.983937539879879E-023
 -2.670000000000000E-002   -2.792036578942233E-023
 -2.660000000000000E-002    6.054113338940285E-024
 -2.650000000000000E-002    5.230449185588454E-023
 -2.640000000000000E-002    1.095879249691215E-022
 -2.630000000000000E-002    1.748575455270504E-022
 -2.620000000000000E-002    2.430397102449835E-022
 -2.610000000000000E-002    3.069944821443682E-022
 -2.600000000000000E-002    3.577202835458413E-022
 -2.590000000000000E-002    3.848504501416119E-022
 -2.580000000000000E-002    3.774655160567967E-022
 -2.570000000000000E-002    3.252125070045516E-022
 -2.560000000000000E-002    2.196811502409031E-022
 -2.550000000000000E-002    5.594209804613201E-023
 -2.540000000000000E-002   -1.658928040604730E-022
 -2.530000000000000E-002   -4.392669785981301E-022
 -2.520000000000000E-002   -7.501373526429234E-022
 -2.510000000000000E-002   -1.076505621842348E-021
 -2.500000000000000E-002   -1.388718484058426E-021
 -2.490000000000000E-002   -1.650686231194137E-021
 -2.480000000000000E-002   -1.822098131628022E-021
 -2.470000000000000E-002   -1.861615757515008E-021
 -2.460000000000000E-002   -1.730908748742153E-021
 -2.450000000000000E-002   -1.399277153798575E-021
 -2.440000000000000E-002   -8.484855748764453E-022
 -2.430000000000000E-002   -7.733993059716085E-023
 -2.420000000000000E-002    8.945237997600653E-022
 -2.410000000000000E-002    2.024177828736075E-021
 -2.400000000000000E-002    3.244762241823423E-021
 -2.390000000000000E-002    4.467047974049118E-021
 -2.380000000000000E-002    5.583420328003764E-021
 -2.370000000000000E-002    6.474282155933191E-021
 -2.360000000000000E-002    7.016637072406834E-021
 -2.350000000000000E-002    7.094359671168112E-021
 -2.340000000000000E-002    6.609435768172517E-021
 -2.330000000000000E-002    5.493279539548295E-021
 -2.320000000000000E-002    3.717125465593125E-021
 -2.310000000000000E-002    1.300480006725788E-021
 -2.300000000000000E-002   -1.683303578617946E-021
 -2.290000000000000E-002   -5.105086084763306E-021
 -2.280000000000000E-002   -8.782162425916003E-021
 -2.270000000000000E-002   -1.248483389567594E-020
 -2.260000000000000E-002   -1.594722930506591E-020
 -2.250000000000000E-002   -1.888192979041553E-020
 -2.240000000000000E-002   -2.099767891028378E-020
 -2.230000000000000E-002   -2.201924361432182E-020
 -2.220000000000000E-002   -2.170833493224059E-020
 -2.210000000000000E-002   -1.988440540997746E-020
 -2.200000000000000E-002   -1.644412668010258E-020
 -2.190000000000000E-002   -1.137834572814590E-020
 -2.180000000000000E-002   -4.785338441649270E-021
 -2.170000000000000E-002    3.120797511228268E-021
 -2.160000000000000E-002    1.200776609417564E-020
 -2.150000000000000E-002    2.142984834950652E-020
 -2.140000000000000E-002    3.084088191007068E-020
 -2.130000000000000E-002    3.961636448666317E-020
 -2.120000000000000E-002    4.708523583692573E-020
 -2.110000000000000E-002    5.257134373423744E-020
 -2.100000000000000E-002    5.544378554033746E-020
 -2.090000000000000E-002    5.517417233783119E-020
 -2.080000000000000E-002    5.139748958342100E-020
 -2.070000000000000E-002    4.397179026447404E-020
 -2.060000000000000E-002    3.303045674779069E-020
 -2.050000000000000E-002    1.901963479288336E-020
 -2.040000000000000E-002    2.712831480515763E-021
 -2.030000000000000E-002   -1.480498872532678E-020
 -2.020000000000000E-002   -3.219026473940218E-020
 -2.010000000000000E-002   -4.793429613245020E-020
 -2.000000000000000E-002   -6.049714176952063E-020
 -1.990000000000000E-002   -6.847660481945588E-020
 -1.980000000000000E-002   -7.080122536873406E-020
 -1.970000000000000E-002   -6.692998459883959E-020
 -1.960000000000000E-002   -5.703594011590197E-020
 -1.950000000000000E-002   -4.214690580727606E-020
 -1.940000000000000E-002   -2.421438618744313E-020
 -1.930000000000000E-002   -6.083481450173368E-021
 -1.920000000000000E-002    8.658602380659030E-021
 -1.910000000000000E-002    1.596834153634826E-020
 -1.900000000000000E-002    1.176571163930783E-020
 -1.890000000000000E-002   -7.528452030503833E-021
 -1.880000000000000E-002   -4.437316222469925E-020
 -1.870000000000000E-002   -9.945980208745715E-020
 -1.860000000000000E-002   -1.711075185302786E-019
 -1.850000000000000E-002   -2.547850029366550E-019
 -1.840000000000000E-002   -3.428474930119397E-019
 -1.830000000000000E-002   -4.245743185942636E-019
 -1.820000000000000E-002   -4.865782517030502E-019
 -1.810000000000000E-002   -5.136310439296907E-019
 -1.800000000000000E-002   -4.899132027604997E-019
 -1.790000000000000E-002   -4.006490857242013E-019
 -1.780000000000000E-002   -2.340353274670731E-019
 -1.770000000000000E-002    1.668211872425157E-020
 -1.760000000000000E-002    3.511785815383702E-019
 -1.750000000000000E-002    7.603014279619893E-019
 -1.740000000000000E-002    1.224854344046725E-018
 -1.730000000000000E-002    1.715166177747052E-018
 -1.720000000000000E-002    2.191658510047253E-018
 -1.710000000000000E-002    2.606566566198781E-018
 -1.700000000000000E-002    2.906868853640131E-018
 -1.690000000000000E-002    3.038361984252875E-018
 -1.680000000000000E-002    2.950680636612089E-018
 -1.670000000000000E-002    2.602914967895936E-018
 -1.660000000000000E-002    1.969350308791385E-018
 -1.650000000000000E-002    1.044747899896343E-018
 -1.640000000000000E-002   -1.514697026963435E-019
 -1.630000000000000E-002   -1.572761161537151E-018
 -1.620000000000000E-002   -3.145286998559717E-018
 -1.610000000000000E-002   -4.770402072537394E-018
 -1.600000000000000E-002   -6.329982475958370E-018
 -1.590000000000000E-002   -7.694454960989846E-018
 -1.580000000000000E-002   -8.733068544831589E-018
 -1.570000000000000E-002   -9.325629071517615E-018
 -1.560000000000000E-002   -9.374614803596052E-018
 -1.550000000000000E-002   -8.816407594155981E-018
 -1.540000000000000E-002   -7.630274762083850E-018
 -1.530000000000000E-002   -5.843825176305241E-018
 -1.520000000000000E-002   -3.533909592968763E-018
 -1.510000000000000E-002   -8.223504577578174E-019
 -1.500000000000000E-002    2.133539578689095E-018
 -1.490000000000000E-002    5.155048793754182E-018
 -1.480000000000000E-002    8.059468596790384E-018
 -1.470000000000000E-002    1.067891931421342E-017
 -1.460000000000000E-002    1.287824161026334E-017
 -1.450000000000000E-002    1.456941077180106E-017
 -1.440000000000000E-002    1.572006011880835E-017
 -1.430000000000000E-002    1.635417401912437E-017
 -1.420000000000000E-002    1.654386500192869E-017
 -1.410000000000000E-002    1.639229470347941E-017
 -1.400000000000000E-002    1.600912396110240E-017
 -1.390000000000000E-002    1.548124831974169E-017
 -1.380000000000000E-002    1.484278390473405E-017
 -1.370000000000000E-002    1.404914762089384E-017
 -1.360000000000000E-002    1.296035291262341E-017
 -1.350000000000000E-002    1.133829991359853E-017
 -1.340000000000000E-002    8.861680855626304E-018
 -1.330000000000000E-002    5.160240389592424E-018
 -1.320000000000000E-002   -1.323565645275839E-019
 -1.310000000000000E-002   -7.310694943334041E-018
 -1.300000000000000E-002   -1.652138201471117E-017
 -1.290000000000000E-002   -2.768756717521790E-017
 -1.280000000000000E-002   -4.044516214356342E-017
 -1.270000000000000E-002   -5.410238462478697E-017
 -1.260000000000000E-002   -6.763343983018784E-017
 -1.250000000000000E-002   -7.971474860406958E-017
 -1.240000000000000E-002   -8.880817958381221E-017
 -1.230000000000000E-002   -9.329045242697585E-017
 -1.220000000000000E-002   -9.162175126627889E-017
 -1.210000000000000E-002   -8.254028033748920E-017
 -1.200000000000000E-002   -6.526383094731051E-017
 -1.190000000000000E-002   -3.967509460159098E-017
 -1.180000000000000E-002   -6.465504558053202E-018
 -1.170000000000000E-002    3.278695133317871E-017
 -1.160000000000000E-002    7.562643742504316E-017
 -1.150000000000000E-002    1.188279912682792E-016
 -1.140000000000000E-002    1.586099342447774E-016
 -1.130000000000000E-002    1.909418319268671E-016
 -1.120000000000000E-002    2.119275573051419E-016
 -1.110000000000000E-002    2.182310174348522E-016
 -1.100000000000000E-002    2.075027791858171E-016
 -1.090000000000000E-002    1.787597584404559E-016
 -1.080000000000000E-002    1.326692204762085E-016
 -1.070000000000000E-002    7.169276640651983E-017
 -1.060000000000000E-002    5.651842225813991E-020
 -1.050000000000000E-002   -7.647105833653323E-017
 -1.040000000000000E-002   -1.509925963219122E-016
 -1.030000000000000E-002   -2.160637261644403E-016
 -1.020000000000000E-002   -2.643995868893189E-016
 -1.010000000000000E-002   -2.896429048641975E-016
 -1.000000000000000E-002   -2.871174651698946E-016
 -9.899999999999999E-003   -2.544844230955204E-016
 -9.800000000000000E-003   -1.922215426554253E-016
 -9.699999999999999E-003   -1.038571779277556E-016
 -9.599999999999999E-003    4.088364351290041E-018
 -9.500000000000000E-003    1.224739003536322E-016
 -9.399999999999999E-003    2.402080576428936E-016
 -9.299999999999999E-003    3.451732649301893E-016
 -9.200000000000000E-003    4.253258851686891E-016
 -9.099999999999999E-003    4.698703878334773E-016
 -8.999999999999999E-003    4.703910505847334E-016
 -8.900000000000000E-003    4.218216382522415E-016
 -8.799999999999999E-003    3.231441143887049E-016
 -8.699999999999999E-003    1.777316296875034E-016
 -8.600000000000000E-003   -6.715083135632678E-018
 -8.499999999999999E-003   -2.186457162351682E-016
 -8.399999999999999E-003   -4.435158574690520E-016
 -8.300000000000000E-003   -6.649394615966747E-016
 -8.199999999999999E-003   -8.660225497737168E-016
 -8.100000000000000E-003   -1.030739411892613E-015
 -8.000000000000000E-003   -1.145204756520047E-015
 -7.899999999999999E-003   -1.198706597875347E-015
 -7.800000000000000E-003   -1.184391632341644E-015
 -7.699999999999999E-003   -1.099538650028167E-015
 -7.599999999999999E-003   -9.454071381987312E-016
 -7.499999999999999E-003   -7.267059041924631E-016
 -7.399999999999999E-003   -4.507788732631648E-016
 -7.299999999999999E-003   -1.266490450473679E-016
 -7.199999999999999E-003    2.359163739664852E-016
 -7.100000000000000E-003    6.271506358136946E-016
 -6.999999999999999E-003    1.037698329890687E-015
 -6.899999999999999E-003    1.458592817447962E-015
 -6.800000000000000E-003    1.880767518424225E-015
 -6.699999999999999E-003    2.294146621329666E-015
 -6.599999999999999E-003    2.686442875419207E-015
 -6.499999999999999E-003    3.041865191061476E-015
 -6.399999999999999E-003    3.339993064038577E-015
 -6.299999999999999E-003    3.555104362923452E-015
 -6.199999999999999E-003    3.656230151438761E-015
 -6.100000000000000E-003    3.608165689791228E-015
 -5.999999999999999E-003    3.373573125767211E-015
 -5.899999999999999E-003    2.916199101093272E-015
 -5.800000000000000E-003    2.205077696515102E-015
 -5.699999999999999E-003    1.219442352183674E-015
 -5.599999999999999E-003   -4.606930192300194E-017
 -5.499999999999999E-003   -1.576457036148300E-015
 -5.399999999999999E-003   -3.332251360999029E-015
 -5.299999999999999E-003   -5.246878497404662E-015
 -5.199999999999999E-003   -7.226073630131752E-015
 -5.099999999999999E-003   -9.149790105199034E-015
 -4.999999999999999E-003   -1.087687628973906E-014
 -4.899999999999999E-003   -1.225256011362544E-014
 -4.799999999999999E-003   -1.311850218964585E-014
 -4.699999999999999E-003   -1.332492232101443E-014
 -4.599999999999999E-003   -1.274402339166447E-014
 -4.499999999999999E-003   -1.128373002601339E-014
 -4.399999999999999E-003   -8.900605762219405E-015
 -4.299999999999999E-003   -5.610745103955786E-015
 -4.199999999999999E-003   -1.497472368263266E-015
 -4.099999999999999E-003    3.285188514304929E-015
 -3.999999999999999E-003    8.514064872123514E-015
 -3.899999999999999E-003    1.390388538191755E-014
 -3.799999999999999E-003    1.911992292717920E-014
 -3.699999999999999E-003    2.379587977383239E-014
 -3.599999999999999E-003    2.755625852309534E-014
 -3.499999999999999E-003    3.004202031576164E-014
 -3.399999999999999E-003    3.093801029989911E-014
 -3.299999999999999E-003    3.000033024767159E-014
 -3.199999999999999E-003    2.708168039943661E-014
 -3.099999999999999E-003    2.215266766907862E-014
 -2.999999999999999E-003    1.531714731292936E-014
 -2.899999999999999E-003    6.819907152684986E-015
 -2.799999999999999E-003   -2.954630066825036E-015
 -2.699999999999999E-003   -1.349354023434448E-014
 -2.599999999999999E-003   -2.417663254967791E-014
 -2.499999999999999E-003   -3.430738747803477E-014
 -2.399999999999999E-003   -4.315251759899893E-014
 -2.299999999999999E-003   -4.998834673538309E-014
 -2.199999999999999E-003   -5.415156582261371E-014
 -2.099999999999999E-003   -5.509132642366557E-014
 -1.999999999999999E-003   -5.241923109012353E-014
 -1.899999999999999E-003   -4.595349558860866E-014
 -1.799999999999999E-003   -3.575355390335323E-014
 -1.699999999999999E-003   -2.214162939422203E-014
 -1.599999999999999E-003   -5.708287935360849E-015
 -1.499999999999999E-003    1.270016877417525E-014
 -1.399999999999999E-003    3.201356906070718E-014
 -1.299999999999999E-003    5.098880453966617E-014
 -1.199999999999999E-003    6.827819889626572E-014
 -1.099999999999999E-003    8.251226186250753E-014
 -9.999999999999989E-004    9.239226769136162E-014
 -8.999999999999990E-004    9.678704429272879E-014
 -7.999999999999990E-004    9.482729422807609E-014
 -6.999999999999989E-004    8.599046056847291E-014
 -5.999999999999990E-004    7.016908376043319E-014
 -4.999999999999989E-004    4.771633261146977E-014
 -3.999999999999989E-004    1.946347545484146E-014
 -2.999999999999989E-004   -1.329413262136299E-014
 -1.999999999999989E-004   -4.884396131531477E-014
 -9.999999999999892E-005   -8.513497259703658E-014
  1.084202172485504E-018   -1.198846909505254E-013
  1.000000000000011E-004   -1.507087545475952E-013
  2.000000000000011E-004   -1.752652530804759E-013
  3.000000000000011E-004   -1.914047377305298E-013
  4.000000000000011E-004   -1.973159981318510E-013
  5.000000000000011E-004   -1.916577783953850E-013
  6.000000000000011E-004   -1.736676626248175E-013
  7.000000000000011E-004   -1.432406324345461E-013
  8.000000000000011E-004   -1.009722903209310E-013
  9.000000000000012E-004   -4.816395507886645E-014
  1.000000000000001E-003    1.321026685665152E-014
  1.100000000000001E-003    8.057212092427552E-014
  1.200000000000001E-003    1.508389653751802E-013
  1.300000000000001E-003    2.205487962648804E-013
  1.400000000000001E-003    2.860038882130459E-013
  1.500000000000001E-003    3.434264098221987E-013
  1.600000000000001E-003    3.891200303994566E-013
  1.700000000000001E-003    4.196326702435121E-013
  1.800000000000001E-003    4.319169088428559E-013
  1.900000000000001E-003    4.234856441821665E-013
  2.000000000000001E-003    3.925613947788186E-013
  2.100000000000001E-003    3.382175812306712E-013
  2.200000000000001E-003    2.605094730567338E-013
  2.300000000000001E-003    1.605905601998214E-013
  2.400000000000001E-003    4.080772060255858E-014
  2.500000000000001E-003   -9.523422800390266E-014
  2.600000000000001E-003   -2.426512182520100E-013
  2.700000000000001E-003   -3.953162097600073E-013
  2.800000000000001E-003   -5.459690186611820E-013
  2.900000000000001E-003   -6.864138184199096E-013
  3.000000000000001E-003   -8.078162616071809E-013
  3.100000000000001E-003   -9.011050629523191E-013
  3.200000000000001E-003   -9.574754219974182E-013
  3.300000000000001E-003   -9.689802479413851E-013
  3.400000000000001E-003   -9.291828920601598E-013
  3.500000000000001E-003   -8.338332034483487E-013
  3.600000000000001E-003   -6.815158121422191E-013
  3.700000000000001E-003   -4.742118445410632E-013
  3.800000000000001E-003   -2.177092557171374E-013
  3.900000000000001E-003    7.820243314766201E-014
  4.000000000000001E-003    3.998099725644296E-013
  4.100000000000001E-003    7.298707619901117E-013
  4.200000000000001E-003    1.048345496513563E-012
  4.300000000000001E-003    1.333466296021627E-012
  4.400000000000001E-003    1.563104660038581E-012
  4.500000000000001E-003    1.716372906457002E-012
  4.600000000000002E-003    1.775358761906866E-012
  4.700000000000001E-003    1.726868469032643E-012
  4.800000000000001E-003    1.564032139287405E-012
  4.900000000000002E-003    1.287615968646148E-012
  5.000000000000001E-003    9.068922667002954E-013
  5.100000000000001E-003    4.399337597086690E-013
  5.200000000000001E-003   -8.676667808429261E-014
  5.300000000000002E-003   -6.394039969351463E-013
  5.400000000000001E-003   -1.178695591869240E-012
  5.500000000000001E-003   -1.662374025406799E-012
  5.600000000000002E-003   -2.048210644444570E-012
  5.700000000000001E-003   -2.297379139351209E-012
  5.800000000000001E-003   -2.377917782118486E-012
  5.900000000000002E-003   -2.268019530537573E-012
  6.000000000000001E-003   -1.958860145273429E-012
  6.100000000000001E-003   -1.456688692387160E-012
  6.200000000000002E-003   -7.839347476953751E-013
  6.300000000000002E-003    2.084947078971159E-014
  6.400000000000001E-003    9.043204362150721E-013
  6.500000000000001E-003    1.800959610663622E-012
  6.600000000000002E-003    2.636883118654421E-012
  6.700000000000001E-003    3.334655359260202E-012
  6.800000000000001E-003    3.818818550437949E-012
  6.900000000000002E-003    4.021777948093032E-012
  7.000000000000001E-003    3.889627035182844E-012
  7.100000000000001E-003    3.387485358979190E-012
  7.200000000000002E-003    2.503917746120827E-012
  7.300000000000002E-003    1.254065655893020E-012
  7.400000000000001E-003   -3.188118050646228E-013
  7.500000000000001E-003   -2.143588044587758E-012
  7.600000000000002E-003   -4.123387128021245E-012
  7.700000000000001E-003   -6.139524540573001E-012
  7.800000000000001E-003   -8.057101915356993E-012
  7.900000000000001E-003   -9.731971143758711E-012
  8.000000000000002E-003   -1.101869440631547E-011
  8.100000000000001E-003   -1.177906675783925E-011
  8.200000000000001E-003   -1.189073399174201E-011
  8.300000000000002E-003   -1.125543591173974E-011
  8.400000000000001E-003   -9.806445874180573E-012
  8.500000000000002E-003   -7.514824496406711E-012
  8.600000000000002E-003   -4.394183481026652E-012
  8.700000000000001E-003   -5.037388519781028E-013
  8.800000000000002E-003    4.050489001078830E-012
  8.900000000000002E-003    9.116391235851083E-012
  9.000000000000001E-003    1.449840568840116E-011
  9.100000000000002E-003    1.996203265181520E-011
  9.200000000000002E-003    2.524015818363528E-011
  9.300000000000001E-003    3.004109682181872E-011
  9.400000000000002E-003    3.405826184564887E-011
  9.500000000000001E-003    3.698134894663601E-011
  9.600000000000001E-003    3.850891139820085E-011
  9.700000000000002E-003    3.836215284703315E-011
  9.800000000000001E-003    3.629969101343090E-011
  9.900000000000001E-003    3.213296541968225E-011
  1.000000000000000E-002    2.574184301040699E-011
  1.010000000000000E-002    1.708980395079363E-011
  1.020000000000000E-002    6.237973754312825E-012
  1.030000000000000E-002   -6.642869591072430E-012
  1.040000000000000E-002   -2.126334150808149E-011
  1.050000000000000E-002   -3.721056368018868E-011
  1.060000000000000E-002   -5.394842200387715E-011
  1.070000000000000E-002   -7.082390587611771E-011
  1.080000000000000E-002   -8.708026667563068E-011
  1.090000000000000E-002   -1.018774942651268E-010
  1.100000000000000E-002   -1.143201413541700E-010
  1.110000000000000E-002   -1.234921624149455E-010
  1.120000000000000E-002   -1.284978663743714E-010
  1.130000000000000E-002   -1.285075497707743E-010
  1.140000000000000E-002   -1.228059311833475E-010
  1.150000000000000E-002   -1.108411138268561E-010
  1.160000000000000E-002   -9.227138358654315E-011
  1.170000000000000E-002   -6.700708778088710E-011
  1.180000000000000E-002   -3.524486434762242E-011
  1.190000000000000E-002    2.508395274341060E-012
  1.200000000000000E-002    4.542395547542573E-011
  1.210000000000000E-002    9.235367560425019E-011
  1.220000000000000E-002    1.418473430717645E-010
  1.230000000000000E-002    1.921851062336269E-010
  1.240000000000000E-002    2.414240700160310E-010
  1.250000000000000E-002    2.874578590432990E-010
  1.260000000000000E-002    3.280867233193574E-010
  1.270000000000000E-002    3.610954286015707E-010
  1.280000000000000E-002    3.843358354115055E-010
  1.290000000000000E-002    3.958108244548906E-010
  1.300000000000000E-002    3.937562092878097E-010
  1.310000000000000E-002    3.767176631022841E-010
  1.320000000000000E-002    3.436201527924648E-010
  1.330000000000000E-002    2.938277719227237E-010
  1.340000000000000E-002    2.271925921227259E-010
  1.350000000000000E-002    1.440918549180176E-010
  1.360000000000000E-002    4.545336132602656E-011
  1.370000000000000E-002   -6.723118570755962E-011
  1.380000000000000E-002   -1.919035345493880E-010
  1.390000000000000E-002   -3.259472593699396E-010
  1.400000000000000E-002   -4.662062623053066E-010
  1.410000000000000E-002   -6.090134951636736E-010
  1.420000000000000E-002   -7.502301898475732E-010
  1.430000000000000E-002   -8.852969043918944E-010
  1.440000000000000E-002   -1.009297320201816E-009
  1.450000000000000E-002   -1.117036878873999E-009
  1.460000000000000E-002   -1.203138342988503E-009
  1.470000000000000E-002   -1.262156365454082E-009
  1.480000000000000E-002   -1.288712038797252E-009
  1.490000000000000E-002   -1.277649441018628E-009
  1.500000000000000E-002   -1.224213124146037E-009
  1.510000000000000E-002   -1.124245532718467E-009
  1.520000000000000E-002   -9.744014703816578E-010
  1.530000000000000E-002   -7.723739906484700E-010
  1.540000000000000E-002   -5.171271224797761E-010
  1.550000000000000E-002   -2.091258122067872E-010
  1.560000000000000E-002    1.494458439418693E-010
  1.570000000000000E-002    5.544870040832955E-010
  1.580000000000000E-002    9.998167494093525E-010
  1.590000000000000E-002    1.477052817826826E-009
  1.600000000000000E-002    1.975545961538769E-009
  1.610000000000000E-002    2.482376739582412E-009
  1.620000000000000E-002    2.982425073011947E-009
  1.630000000000000E-002    3.458519253422702E-009
  1.640000000000000E-002    3.891667228778364E-009
  1.650000000000000E-002    4.261376656085988E-009
  1.660000000000000E-002    4.546059685918414E-009
  1.670000000000000E-002    4.723526821034441E-009
  1.680000000000000E-002    4.771562647687476E-009
  1.690000000000000E-002    4.668581347422284E-009
  1.700000000000000E-002    4.394359782128931E-009
  1.710000000000000E-002    3.930833348504934E-009
  1.720000000000000E-002    3.262959515890543E-009
  1.730000000000000E-002    2.379631601899437E-009
  1.740000000000000E-002    1.274637169435877E-009
  1.750000000000000E-002   -5.233711946111976E-011
  1.760000000000000E-002   -1.594684969165331E-009
  1.770000000000000E-002   -3.337831179462326E-009
  1.780000000000000E-002   -5.258180280219673E-009
  1.790000000000000E-002   -7.322072899966672E-009
  1.800000000000000E-002   -9.484755962399855E-009
  1.810000000000000E-002   -1.168939220154559E-008
  1.820000000000000E-002   -1.386612110772429E-008
  1.830000000000000E-002   -1.593117849466708E-008
  1.840000000000000E-002   -1.778611495728340E-008
  1.850000000000000E-002   -1.931709943155676E-008
  1.860000000000000E-002   -2.039434115820689E-008
  1.870000000000000E-002   -2.087165759078645E-008