 -4.000000000000000E-002    0.000000000000000E+000
 -3.990000000000000E-002    0.000000000000000E+000
 -3.980000000000000E-002    5.777347530894400E-012
 -3.970000000000000E-002    1.976316997393389E-011
 -3.960000000000000E-002    2.604931320699223E-011
 -3.950000000000000E-002   -2.321678772944839E-011
 -3.940000000000000E-002   -2.105348026258229E-010
 -3.930000000000000E-002   -6.350503725507932E-010
 -3.920000000000000E-002   -1.365876697965973E-009
 -3.910000000000000E-002   -2.362834557704583E-009
 -3.900000000000000E-002   -3.365995552456502E-009
 -3.890000000000000E-002   -3.762034850285120E-009
 -3.880000000000000E-002   -2.441752383458343E-009
 -3.870000000000000E-002    2.333071297887385E-009
 -3.860000000000000E-002    1.303028972376211E-008
 -3.850000000000000E-002    3.289525383755409E-008
 -3.840000000000000E-002    6.592577778687181E-008
 -3.830000000000000E-002    1.167626133989860E-007
 -3.820000000000000E-002    1.904917796019592E-007
 -3.810000000000000E-002    2.923650589994771E-007
 -3.800000000000000E-002    4.274553103953916E-007
 -3.790000000000000E-002    6.002748811800747E-007
 -3.780000000000000E-002    8.143899042108010E-007
 -3.770000000000000E-002    1.072068905272095E-006
 -3.760000000000000E-002    1.374001904982361E-006
 -3.750000000000000E-002    1.719128002702171E-006
 -3.740000000000000E-002    2.104587779286537E-006
 -3.730000000000000E-002    2.525820523941034E-006
 -3.720000000000000E-002    2.976801576495850E-006
 -3.710000000000000E-002    3.450402355280327E-006
 -3.700000000000000E-002    3.938848656416056E-006
 -3.690000000000000E-002    4.434234013278771E-006
 -3.680000000000000E-002    4.929043772554923E-006
 -3.670000000000000E-002    5.416645215413808E-006
 -3.660000000000000E-002    5.891691317895229E-006
 -3.650000000000000E-002    6.350415480948583E-006
 -3.640000000000000E-002    6.790781874648528E-006
 -3.630000000000000E-002    7.212485792958360E-006
 -3.620000000000000E-002    7.616812350056405E-006
 -3.610000000000000E-002    8.006371456878431E-006
 -3.600000000000000E-002    8.384738196684569E-006
 -3.590000000000000E-002    8.756046787648468E-006
 -3.580000000000000E-002    9.124579383620569E-006
 -3.570000000000000E-002    9.494384049898048E-006
 -3.560000000000000E-002    9.868963626033932E-006
 -3.550000000000000E-002    1.025107768414658E-005
 -3.540000000000000E-002    1.064263973474755E-005
 -3.530000000000000E-002    1.104473873622065E-005
 -3.520000000000000E-002    1.145775360447437E-005
 -3.510000000000000E-002    1.188154594988368E-005
 -3.500000000000000E-002    1.231569873766603E-005
 -3.490000000000000E-002    1.275976570325242E-005
 -3.480000000000000E-002    1.321349170513914E-005
 -3.470000000000000E-002    1.367699416417841E-005
 -3.460000000000000E-002    1.415085117281648E-005
 -3.450000000000000E-002    1.463612358506041E-005
 -3.440000000000000E-002    1.513428909926707E-005
 -3.430000000000000E-002    1.564712091319589E-005
 -3.420000000000000E-002    1.617649928077162E-005
 -3.410000000000000E-002    1.672422435440464E-005
 -3.400000000000000E-002    1.729180842538045E-005
 -3.390000000000000E-002    1.788037118762370E-005
 -3.380000000000000E-002    1.849050757711752E-005
 -3.370000000000000E-002    1.912229275277239E-005
 -3.360000000000000E-002    1.977537278117147E-005
 -3.350000000000000E-002    2.044906274027818E-005
 -3.340000000000000E-002    2.114255751253849E-005
 -3.330000000000000E-002    2.185517256651190E-005
 -3.320000000000000E-002    2.258657786286515E-005
 -3.310000000000000E-002    2.333700816113237E-005
 -3.300000000000000E-002    2.410741524754774E-005
 -3.290000000000000E-002    2.489958632358996E-005
 -3.280000000000000E-002    2.571614478645810E-005
 -3.270000000000000E-002    2.656048958069904E-005
 -3.260000000000000E-002    2.743666224497751E-005
 -3.250000000000000E-002    2.834909113782590E-005
 -3.240000000000000E-002    2.930240432896799E-005
 -3.230000000000000E-002    3.030112091392077E-005
 -3.220000000000000E-002    3.134946564866820E-005
 -3.210000000000000E-002    3.245112124272078E-005
 -3.200000000000000E-002    3.360907434844352E-005
 -3.190000000000000E-002    3.482556281228913E-005
 -3.180000000000000E-002    3.610214024989887E-005
 -3.170000000000000E-002    3.743962045405211E-005
 -3.160000000000000E-002    3.883829821971307E-005
 -3.150000000000000E-002    4.029810848629746E-005
 -3.140000000000000E-002    4.181873386472711E-005
 -3.130000000000000E-002    4.339983694284360E-005
 -3.120000000000000E-002    4.504115475533106E-005
 -3.110000000000000E-002    4.674248450482369E-005
 -3.100000000000000E-002    4.850384871683992E-005
 -3.090000000000000E-002    5.032535723380732E-005
 -3.080000000000000E-002    5.220707430104092E-005
 -3.070000000000000E-002    5.414896293121481E-005
 -3.060000000000000E-002    5.615056033842218E-005
 -3.050000000000000E-002    5.821097037841059E-005
 -3.040000000000000E-002    6.032865744847355E-005
 -3.030000000000000E-002    6.250122668065588E-005
 -3.020000000000000E-002    6.472558966192458E-005
 -3.010000000000000E-002    6.699771769970838E-005
 -3.000000000000000E-002    6.931281530486106E-005
 -2.990000000000000E-002    7.166559108085561E-005
 -2.980000000000000E-002    7.405011021135402E-005
 -2.970000000000000E-002    7.646022696680658E-005
 -2.960000000000000E-002    7.888945259844486E-005
 -2.950000000000000E-002    8.133143441489834E-005
 -2.940000000000000E-002    8.377968280015855E-005
 -2.930000000000000E-002    8.622799068383220E-005
 -2.920000000000000E-002    8.867005639988410E-005
 -2.910000000000000E-002    9.109953924061599E-005
 -2.900000000000000E-002    9.350990656049912E-005
 -2.890000000000000E-002    9.589422122305423E-005
 -2.880000000000000E-002    9.824473112039826E-005
 -2.870000000000000E-002    1.005529770900973E-004
 -2.860000000000000E-002    1.028096657433790E-004
 -2.850000000000000E-002    1.050040605395655E-004
 -2.840000000000000E-002    1.071242333867491E-004
 -2.830000000000000E-002    1.091568894850398E-004
 -2.820000000000000E-002    1.110875715029224E-004
 -2.810000000000000E-002    1.129003605653784E-004
 -2.800000000000000E-002    1.145781482168618E-004
 -2.790000000000000E-002    1.161027672459762E-004
 -2.780000000000000E-002    1.174544206552611E-004
 -2.770000000000000E-002    1.186126402798429E-004
 -2.760000000000000E-002    1.195557224734768E-004
 -2.750000000000000E-002    1.202602121746508E-004
 -2.740000000000000E-002    1.207011462424409E-004
 -2.730000000000000E-002    1.208519700663293E-004
 -2.720000000000000E-002    1.206838210289248E-004
 -2.710000000000000E-002    1.201660472562965E-004
 -2.700000000000000E-002    1.192649266469443E-004
 -2.690000000000000E-002    1.179442788642226E-004
 -2.680000000000000E-002    1.161648128583364E-004
 -2.670000000000000E-002    1.138848317719538E-004
 -2.660000000000000E-002    1.110591951699402E-004
 -2.650000000000000E-002    1.076400377434820E-004
 -2.640000000000000E-002    1.035774922037799E-004
 -2.630000000000000E-002    9.881881308756851E-005
 -2.620000000000000E-002    9.330873574797257E-005
 -2.610000000000000E-002    8.699077068210396E-005
 -2.600000000000000E-002    7.980509935921546E-005
 -2.590000000000000E-002    7.169123319127585E-005
 -2.580000000000000E-002    6.258515742625766E-005
 -2.570000000000000E-002    5.242122653055552E-005
 -2.560000000000000E-002    4.113029227457532E-005
 -2.550000000000000E-002    2.864027770360287E-005
 -2.540000000000000E-002    1.487490748718857E-005
 -2.530000000000000E-002   -2.469115709868981E-007
 -2.520000000000000E-002   -1.681113387599389E-005
 -2.510000000000000E-002   -3.490982220786775E-005
 -2.500000000000000E-002   -5.463985957157524E-005
 -2.490000000000000E-002   -7.610506397346967E-005
 -2.480000000000000E-002   -9.941557302621465E-005
 -2.470000000000000E-002   -1.246881095813682E-004
 -2.460000000000000E-002   -1.520451041438409E-004
 -2.450000000000000E-002   -1.816138929711087E-004
 -2.440000000000000E-002   -2.135295008876307E-004
 -2.430000000000000E-002   -2.479313832949678E-004
 -2.420000000000000E-002   -2.849626800412929E-004
 -2.410000000000000E-002   -3.247739219542988E-004
 -2.400000000000000E-002   -3.675193286226118E-004
 -2.390000000000000E-002   -4.133594858109544E-004
 -2.380000000000000E-002   -4.624611493483716E-004
 -2.370000000000000E-002   -5.149960727057838E-004
 -2.360000000000000E-002   -5.711427546179195E-004
 -2.350000000000000E-002   -6.310873932583697E-004
 -2.340000000000000E-002   -6.950254148155501E-004
 -2.330000000000000E-002   -7.631601691451402E-004
 -2.320000000000000E-002   -8.357033504292784E-004
 -2.310000000000000E-002   -9.128772380583823E-004
 -2.300000000000000E-002   -9.949124624284208E-004
 -2.290000000000000E-002   -1.082051083575503E-003
 -2.280000000000000E-002   -1.174543550287832E-003
 -2.270000000000000E-002   -1.272650967071137E-003
 -2.260000000000000E-002   -1.376644266835581E-003
 -2.250000000000000E-002   -1.486803297886935E-003
 -2.240000000000000E-002   -1.603415469815022E-003
 -2.230000000000000E-002   -1.726780082236453E-003
 -2.220000000000000E-002   -1.857204756493119E-003
 -2.210000000000000E-002   -1.995006488640641E-003
 -2.200000000000000E-002   -2.140511831149892E-003
 -2.190000000000000E-002   -2.294060116240749E-003
 -2.180000000000000E-002   -2.456000522564063E-003
 -2.170000000000000E-002   -2.626690255600072E-003
 -2.160000000000000E-002   -2.806506842697292E-003
 -2.150000000000000E-002   -2.995831739143904E-003
 -2.140000000000000E-002   -3.195064780628121E-003
 -2.130000000000000E-002   -3.404616921364855E-003
 -2.120000000000000E-002   -3.624913870298634E-003
 -2.110000000000000E-002   -3.856391680620561E-003
 -2.100000000000000E-002   -4.099499165509626E-003
 -2.090000000000000E-002   -4.354701332268662E-003
 -2.080000000000000E-002   -4.622474548379113E-003
 -2.070000000000000E-002   -4.903306874565270E-003
 -2.060000000000000E-002   -5.197694533386742E-003
 -2.050000000000000E-002   -5.506156481972053E-003
 -2.040000000000000E-002   -5.829213514256255E-003
 -2.030000000000000E-002   -6.167403483939179E-003
 -2.020000000000000E-002   -6.521278285044476E-003
 -2.010000000000000E-002   -6.891402173711371E-003
 -2.000000000000000E-002   -7.278349773734582E-003
 -1.990000000000000E-002   -7.682710024426958E-003
 -1.980000000000000E-002   -8.105090307274757E-003
 -1.970000000000000E-002   -8.546107302782498E-003
 -1.960000000000000E-002   -9.006395899491889E-003
 -1.950000000000000E-002   -9.486594200558586E-003
 -1.940000000000000E-002   -9.987369506206555E-003
 -1.930000000000000E-002   -1.050938850787249E-002
 -1.920000000000000E-002   -1.105333681071850E-002
 -1.910000000000000E-002   -1.161991177850884E-002
 -1.900000000000000E-002   -1.220981961792332E-002
 -1.890000000000000E-002   -1.282377843018613E-002
 -1.880000000000000E-002   -1.346252278107360E-002
 -1.870000000000000E-002   -1.412679145916346E-002
 -1.860000000000000E-002   -1.481733370211852E-002
 -1.850000000000000E-002   -1.553491357447300E-002
 -1.840000000000000E-002   -1.628030608468956E-002
 -1.830000000000000E-002   -1.705429522629509E-002
 -1.820000000000000E-002   -1.785766885630825E-002
 -1.810000000000000E-002   -1.869123388775436E-002
 -1.800000000000000E-002   -1.955580513876068E-002
 -1.790000000000000E-002   -2.045219927137074E-002
 -1.780000000000000E-002   -2.138124699678920E-002
 -1.770000000000000E-002   -2.234378518303784E-002
 -1.760000000000000E-002   -2.334065106115987E-002
 -1.750000000000000E-002   -2.437270731143642E-002
 -1.740000000000000E-002   -2.544079256978504E-002
 -1.730000000000000E-002   -2.654576063754365E-002
 -1.720000000000000E-002   -2.768847671695377E-002
 -1.710000000000000E-002   -2.886978763659879E-002
 -1.700000000000000E-002   -3.009056239282142E-002
 -1.690000000000000E-002   -3.135165251087468E-002
 -1.680000000000000E-002   -3.265391107566452E-002
 -1.670000000000000E-002   -3.399818620944833E-002
 -1.660000000000000E-002   -3.538534721075340E-002
 -1.650000000000000E-002   -3.681621809607400E-002
 -1.640000000000000E-002   -3.829164393038238E-002
 -1.630000000000000E-002   -3.981246258696279E-002
 -1.620000000000000E-002   -4.137949307653995E-002
 -1.610000000000000E-002   -4.299356451416433E-002
 -1.600000000000000E-002   -4.465547901658455E-002
 -1.590000000000000E-002   -4.636603164230825E-002
 -1.580000000000000E-002   -4.812600219309514E-002
 -1.570000000000000E-002   -4.993615670765528E-002
 -1.560000000000000E-002   -5.179723524514866E-002
 -1.550000000000000E-002   -5.370997706790975E-002
 -1.540000000000000E-002   -5.567508349336037E-002
 -1.530000000000000E-002   -5.769324084708529E-002
 -1.520000000000000E-002   -5.976512140408618E-002
 -1.510000000000000E-002   -6.189136422397736E-002
 -1.500000000000000E-002   -6.407258883636571E-002
 -1.490000000000000E-002   -6.630936981906382E-002
 -1.480000000000000E-002   -6.860227666691923E-002
 -1.470000000000000E-002   -7.095183180685227E-002
 -1.460000000000000E-002   -7.335853765591682E-002
 -1.450000000000000E-002   -7.582285432087195E-002
 -1.440000000000000E-002   -7.834519048519736E-002
 -1.430000000000000E-002   -8.092592629783836E-002
 -1.420000000000000E-002   -8.356540760847410E-002
 -1.410000000000000E-002   -8.626394096302065E-002
 -1.400000000000000E-002   -8.902176883734572E-002
 -1.390000000000000E-002   -9.183907966361220E-002
 -1.380000000000000E-002   -9.471605297210960E-002
 -1.370000000000000E-002   -9.765273529387687E-002
 -1.360000000000000E-002   -0.100649198267797     
 -1.350000000000000E-002   -0.103705424379432     
 -1.340000000000000E-002   -0.106821307389702     
 -1.330000000000000E-002   -0.109996752430684     
 -1.320000000000000E-002   -0.113231527058835     
 -1.310000000000000E-002   -0.116525390923768     
 -1.300000000000000E-002   -0.119877993261781     
 -1.290000000000000E-002   -0.123288949437067     
 -1.280000000000000E-002   -0.126757788373600     
 -1.270000000000000E-002   -0.130283981967111     
 -1.260000000000000E-002   -0.133866895546536     
 -1.250000000000000E-002   -0.137505846369316     
 -1.240000000000000E-002   -0.141200057222731     
 -1.230000000000000E-002   -0.144948673065276     
 -1.220000000000000E-002   -0.148750748693789     
 -1.210000000000000E-002   -0.152605260084751     
 -1.200000000000000E-002   -0.156511101659036     
 -1.190000000000000E-002   -0.160467056053195     
 -1.180000000000000E-002   -0.164471819853234     
 -1.170000000000000E-002   -0.168524036972927     
 -1.160000000000000E-002   -0.172622221411424     
 -1.150000000000000E-002   -0.176764774557797     
 -1.140000000000000E-002   -0.180950037188354     
 -1.130000000000000E-002   -0.185176266584422     
 -1.120000000000000E-002   -0.189441567878182     
 -1.110000000000000E-002   -0.193744005515694     
 -1.100000000000000E-002   -0.198081490461877     
 -1.090000000000000E-002   -0.202451858931800     
 -1.080000000000000E-002   -0.206852845769468     
 -1.070000000000000E-002   -0.211282053198853     
 -1.060000000000000E-002   -0.215737024300697     
 -1.050000000000000E-002   -0.220215155737380     
 -1.040000000000000E-002   -0.224713768636651     
 -1.030000000000000E-002   -0.229230055973291     
 -1.020000000000000E-002   -0.233761113812904     
 -1.010000000000000E-002   -0.238303929204159     
 -1.000000000000000E-002   -0.242855358704608     
 -9.899999999999999E-003   -0.247412217431468     
 -9.800000000000000E-003   -0.251971124457871     
 -9.699999999999999E-003   -0.256528673333804     
 -9.599999999999999E-003   -0.261081324093931     
 -9.500000000000000E-003   -0.265625442111826     
 -9.399999999999999E-003   -0.270157243730893     
 -9.299999999999999E-003   -0.274672913963048     
 -9.200000000000000E-003   -0.279168474657238     
 -9.099999999999999E-003   -0.283639915833495     
 -8.999999999999999E-003   -0.288083083596081     
 -8.900000000000000E-003   -0.292493715563515     
 -8.799999999999999E-003   -0.296867483454299     
 -8.699999999999999E-003   -0.301199963752024     
 -8.600000000000000E-003   -0.305486633877774     
 -8.499999999999999E-003   -0.309722915408027     
 -8.399999999999999E-003   -0.313904111524583     
 -8.300000000000000E-003   -0.318025435669992     
 -8.199999999999999E-003   -0.322082048928884     
 -8.100000000000000E-003   -0.326069043117610     
 -8.000000000000000E-003   -0.329981438621128     
 -7.899999999999999E-003   -0.333814168208450     
 -7.800000000000000E-003   -0.337562156130267     
 -7.699999999999999E-003   -0.341220224021758     
 -7.599999999999999E-003   -0.344783113403717     
 -7.499999999999999E-003   -0.348245574329143     
 -7.399999999999999E-003   -0.351602308289226     
 -7.299999999999999E-003   -0.354847928211713     
 -7.199999999999999E-003   -0.357977022684456     
 -7.100000000000000E-003   -0.360984176597131     
 -6.999999999999999E-003   -0.363863931772015     
 -6.899999999999999E-003   -0.366610802622133     
 -6.800000000000000E-003   -0.369219279448424     
 -6.699999999999999E-003   -0.371683866925844     
 -6.599999999999999E-003   -0.373999046846478     
 -6.499999999999999E-003   -0.376159312120951     
 -6.399999999999999E-003   -0.378159179929252     
 -6.299999999999999E-003   -0.379993141111320     
 -6.199999999999999E-003   -0.381655747143735     
 -6.100000000000000E-003   -0.383141598131168     
 -5.999999999999999E-003   -0.384445301063077     
 -5.899999999999999E-003   -0.385561494242476     
 -5.800000000000000E-003   -0.386484888883716     
 -5.699999999999999E-003   -0.387210256963610     
 -5.599999999999999E-003   -0.387732406713754     
 -5.499999999999999E-003   -0.388046237273908     
 -5.399999999999999E-003   -0.388146721376512     
 -5.299999999999999E-003   -0.388028923671949     
 -5.199999999999999E-003   -0.387687965346353     
 -5.099999999999999E-003   -0.387119128512003     
 -4.999999999999999E-003   -0.386317733193117     
 -4.899999999999999E-003   -0.385279231225672     
 -4.799999999999999E-003   -0.383999237966438     
 -4.699999999999999E-003   -0.382473468686042     
 -4.599999999999999E-003   -0.380697755679701     
 -4.499999999999999E-003   -0.378668118005909     
 -4.399999999999999E-003   -0.376380708651309     
 -4.299999999999999E-003   -0.373831811308857     
 -4.199999999999999E-003   -0.371017938590642     
 -4.099999999999999E-003   -0.367935725330163     
 -3.999999999999999E-003   -0.364582012404424     
 -3.899999999999999E-003   -0.360953812310049     
 -3.799999999999999E-003   -0.357048361753456     
 -3.699999999999999E-003   -0.352863053236627     
 -3.599999999999999E-003   -0.348395523602189     
 -3.499999999999999E-003   -0.343643613516799     
 -3.399999999999999E-003   -0.338605374191181     
 -3.299999999999999E-003   -0.333279089508955     
 -3.199999999999999E-003   -0.327663291925146     
 -3.099999999999999E-003   -0.321756755594460     
 -2.999999999999999E-003   -0.315558491743947     
 -2.899999999999999E-003   -0.309067752121941     
 -2.799999999999999E-003   -0.302284064816828     
 -2.699999999999999E-003   -0.295207212936047     
 -2.599999999999999E-003   -0.287837257271938     
 -2.499999999999999E-003   -0.280174509564207     
 -2.399999999999999E-003   -0.272219582188449     
 -2.299999999999999E-003   -0.263973339153812     
 -2.199999999999999E-003   -0.255436947901222     
 -2.099999999999999E-003   -0.246611849597771     
 -1.999999999999999E-003   -0.237499766038146     
 -1.899999999999999E-003   -0.228102711442102     
 -1.799999999999999E-003   -0.218422994114445     
 -1.699999999999999E-003   -0.208463228936820     
 -1.599999999999999E-003   -0.198226313886137     
 -1.499999999999999E-003   -0.187715455200300     
 -1.399999999999999E-003   -0.176934158837187     
 -1.299999999999999E-003   -0.165886225032253     
 -1.199999999999999E-003   -0.154575765429719     
 -1.099999999999999E-003   -0.143007174092401     
 -9.999999999999989E-004   -0.131185179322218     
 -8.999999999999990E-004   -0.119114780182764     
 -7.999999999999990E-004   -0.106801313204146     
 -6.999999999999989E-004   -9.425039718892832E-002
 -5.999999999999990E-004   -8.146794216855245E-002
 -4.999999999999989E-004   -6.846018068855501E-002
 -3.999999999999989E-004   -5.523356703144915E-002
 -2.999999999999989E-004   -4.179485626517847E-002
 -1.999999999999989E-004   -2.815115946865802E-002
 -9.999999999999892E-005   -1.430977821076396E-002
  1.084202172485504E-018   -2.783384138051168E-004
  1.000000000000011E-004    1.393529434558142E-002
  2.000000000000011E-004    2.832296028614479E-002
  3.000000000000011E-004    4.287628388746170E-002
  4.000000000000011E-004    5.758658674609875E-002
  5.000000000000011E-004    7.244496943050634E-002
  6.000000000000011E-004    8.744230578973612E-002
  7.000000000000011E-004    0.102569198941264     
  8.000000000000011E-004    0.117816015497218     
  9.000000000000012E-004    0.133172946873776     
  1.000000000000001E-003    0.148629988206582     
  1.100000000000001E-003    0.164176916821165     
  1.200000000000001E-003    0.179803255136387     
  1.300000000000001E-003    0.195498423991510     
  1.400000000000001E-003    0.211251689371681     
  1.500000000000001E-003    0.227052110373166     
  1.600000000000001E-003    0.242888636967455     
  1.700000000000001E-003    0.258749971122346     
  1.800000000000001E-003    0.274624843724755     
  1.900000000000001E-003    0.290501704350262     
  2.000000000000001E-003    0.306369037244999     
  2.100000000000001E-003    0.322215138794903     
  2.200000000000001E-003    0.338028235698610     
  2.300000000000001E-003    0.353796532184721     
  2.400000000000001E-003    0.369508081228912     
  2.500000000000001E-003    0.385150989021809     
  2.600000000000001E-003    0.400713257895508     
  2.700000000000001E-003    0.416182874849129     
  2.800000000000001E-003    0.431547861778547     
  2.900000000000001E-003    0.446796180408160     
  3.000000000000001E-003    0.461915844373023     
  3.100000000000001E-003    0.476894882332820     
  3.200000000000001E-003    0.491721428233155     
  3.300000000000001E-003    0.506383593979187     
  3.400000000000001E-003    0.520869602270132     
  3.500000000000001E-003    0.535167662500463     
  3.600000000000001E-003    0.549266253464185     
  3.700000000000001E-003    0.563153805711631     
  3.800000000000001E-003    0.576818959742348     
  3.900000000000001E-003    0.590250431250810     
  4.000000000000001E-003    0.603437225326710     
  4.100000000000001E-003    0.616368212965590     
  4.200000000000001E-003    0.629032765932094     
  4.300000000000001E-003    0.641420178897615     
  4.400000000000001E-003    0.653520065167289     
  4.500000000000001E-003    0.665322238572788     
  4.600000000000002E-003    0.676816711060619     
  4.700000000000001E-003    0.687993712951736     
  4.800000000000001E-003    0.698843768802508     
  4.900000000000002E-003    0.709357674896229     
  5.000000000000001E-003    0.719526413777229     
  5.100000000000001E-003    0.729341332456435     
  5.200000000000001E-003    0.738793952468212     
  5.300000000000002E-003    0.747876277432630     
  5.400000000000001E-003    0.756580473397101     
  5.500000000000001E-003    0.764899031216459     
  5.600000000000002E-003    0.772824900325586     
  5.700000000000001E-003    0.780351172064742     
  5.800000000000001E-003    0.787471409645058     
  5.900000000000002E-003    0.794179434788706     
  6.000000000000001E-003    0.800469402424336     
  6.100000000000001E-003    0.806335931966755     
  6.200000000000002E-003    0.811774023900583     
  6.300000000000002E-003    0.816778980924778     
  6.400000000000001E-003    0.821346414499333     
  6.500000000000001E-003    0.825472518926683     
  6.600000000000002E-003    0.829153688432945     
  6.700000000000001E-003    0.832386824410297     
  6.800000000000001E-003    0.835169178469316     
  6.900000000000002E-003    0.837498457897420     
  7.000000000000001E-003    0.839372764287890     
  7.100000000000001E-003    0.840790518373220     
  7.200000000000002E-003    0.841750695339772     
  7.300000000000002E-003    0.842252520067815     
  7.400000000000001E-003    0.842295728847212     
  7.500000000000001E-003    0.841880489415979     
  7.600000000000002E-003    0.841007303677141     
  7.700000000000001E-003    0.839677085319028     
  7.800000000000001E-003    0.837891158063171     
  7.900000000000001E-003    0.835651332382489     
  8.000000000000002E-003    0.832959707285270     
  8.100000000000001E-003    0.829818829438773     
  8.200000000000001E-003    0.826231668388028     
  8.300000000000002E-003    0.822201558538611     
  8.400000000000001E-003    0.817732252362387     
  8.500000000000002E-003    0.812827843318062     
  8.600000000000002E-003    0.807492767993684     
  8.700000000000001E-003    0.801731937760441     
  8.800000000000002E-003    0.795550566026199     
  8.900000000000002E-003    0.788954193900839     
  9.000000000000001E-003    0.781948789197901     
  9.100000000000002E-003    0.774540591310963     
  9.200000000000002E-003    0.766736249383795     
  9.300000000000001E-003    0.758542646924351     
  9.400000000000002E-003    0.749967048611258     
  9.500000000000001E-003    0.741017042374986     
  9.600000000000001E-003    0.731700511643393     
  9.700000000000002E-003    0.722025638316733     
  9.800000000000001E-003    0.712000845032104     
  9.900000000000001E-003    0.701634862264455     
  1.000000000000000E-002    0.690936675825569     
  1.010000000000000E-002    0.679915521533262     
  1.020000000000000E-002    0.668580887487883     
  1.030000000000000E-002    0.656942445357813     
  1.040000000000000E-002    0.645010101916029     
  1.050000000000000E-002    0.632794000646602     
  1.060000000000000E-002    0.620304439875782     
  1.070000000000000E-002    0.607551853043928     
  1.080000000000000E-002    0.594546923097328     
  1.090000000000000E-002    0.581300433405354     
  1.100000000000000E-002    0.567823330950714     
  1.110000000000000E-002    0.554126687131645     
  1.120000000000000E-002    0.540221675250546     
  1.130000000000000E-002    0.526119591501904     
  1.140000000000000E-002    0.511831829618717     
  1.150000000000000E-002    0.497369847992848     
  1.160000000000000E-002    0.482745213435902     
  1.170000000000000E-002    0.467969513108443     
  1.180000000000000E-002    0.453054403669175     
  1.190000000000000E-002    0.438011534713996     
  1.200000000000000E-002    0.422852597172925     
  1.210000000000000E-002    0.407589274618199     
  1.220000000000000E-002    0.392233246505833     
  1.230000000000000E-002    0.376796175294321     
  1.240000000000000E-002    0.361289649095189     
  1.250000000000000E-002    0.345725258372543     
  1.260000000000000E-002    0.330114497823978     
  1.270000000000000E-002    0.314468826791919     
  1.280000000000000E-002    0.298799591686893     
  1.290000000000000E-002    0.283118043265570     
  1.300000000000000E-002    0.267435363887354     
  1.310000000000000E-002    0.251762589500130     
  1.320000000000000E-002    0.236110661009803     
  1.330000000000000E-002    0.220490377446438     
  1.340000000000000E-002    0.204912369723076     
  1.350000000000000E-002    0.189387133086417     
  1.360000000000000E-002    0.173924999208945     
  1.370000000000000E-002    0.158536155569413     
  1.380000000000000E-002    0.143230572992804     
  1.390000000000000E-002    0.128018062391418     
  1.400000000000000E-002    0.112908194519604     
  1.410000000000000E-002    9.791036550157972E-002
  1.420000000000000E-002    8.303374626020192E-002
  1.430000000000000E-002    6.828726643226309E-002
  1.440000000000000E-002    5.367968841473984E-002
  1.450000000000000E-002    3.921948189859036E-002
  1.460000000000000E-002    2.491489292919730E-002
  1.470000000000000E-002    1.077396561171540E-002
  1.480000000000000E-002   -3.195576442715573E-003
  1.490000000000000E-002   -1.698620190801119E-002
  1.500000000000000E-002   -3.059072358505379E-002
  1.510000000000000E-002   -4.400210087864703E-002
  1.520000000000000E-002   -5.721366974115746E-002
  1.530000000000000E-002   -7.021898118244904E-002
  1.540000000000000E-002   -8.301188329562573E-002
  1.550000000000000E-002   -9.558650199624229E-002
  1.560000000000000E-002   -0.107937266646996     
  1.570000000000000E-002   -0.120058820862427     
  1.580000000000000E-002   -0.131946158515935     
  1.590000000000000E-002   -0.143594543697408     
  1.600000000000000E-002   -0.154999480066872     
  1.610000000000000E-002   -0.166156823321306     
  1.620000000000000E-002   -0.177062685424969     
  1.630000000000000E-002   -0.187713426648732     
  1.640000000000000E-002   -0.198105731359749     
  1.650000000000000E-002   -0.208236562843420     
  1.660000000000000E-002   -0.218103137245458     
  1.670000000000000E-002   -0.227702949250415     
  1.680000000000000E-002   -0.237033802810604     
  1.690000000000000E-002   -0.246093768329403     
  1.700000000000000E-002   -0.254881176663945     
  1.710000000000000E-002   -0.263394640520917     
  1.720000000000000E-002   -0.271633061743436     
  1.730000000000000E-002   -0.279595554465622     
  1.740000000000000E-002   -0.287281538463097     
  1.750000000000000E-002   -0.294690687554370     
  1.760000000000000E-002   -0.301822964925703     
  1.770000000000000E-002   -0.308678482938813     
  1.780000000000000E-002   -0.315257693508828     
  1.790000000000000E-002   -0.321561173053456     
  1.800000000000000E-002   -0.327589869607803     
  1.810000000000000E-002   -0.333344825864424     
  1.820000000000000E-002   -0.338827385839898     
  1.830000000000000E-002   -0.344039110631201     
  1.840000000000000E-002   -0.348981730915601     
  1.850000000000000E-002   -0.353657194320938     
  1.860000000000000E-002   -0.358067625859995     
  1.870000000000000E-002   -0.362215427606025     