 -4.000000000000000E-002    0.000000000000000E+000
 -3.990000000000000E-002    0.000000000000000E+000
 -3.980000000000000E-002    0.000000000000000E+000
 -3.970000000000000E-002    0.000000000000000E+000
 -3.960000000000000E-002    9.820712138457716E-019
 -3.950000000000000E-002    7.569591210014972E-018
 -3.940000000000000E-002    3.087089279698215E-017
 -3.930000000000000E-002    8.653408051422998E-017
 -3.920000000000000E-002    1.801815440782403E-016
 -3.910000000000000E-002    2.728741655669215E-016
 -3.900000000000000E-002    2.256106259288971E-016
 -3.890000000000000E-002   -2.648151759568221E-016
 -3.880000000000000E-002   -1.707441941513359E-015
 -3.870000000000000E-002   -4.785335448620710E-015
 -3.860000000000000E-002   -1.018622509690864E-014
 -3.850000000000000E-002   -1.823396945956908E-014
 -3.840000000000000E-002   -2.828580642769047E-014
 -3.830000000000000E-002   -3.791596879463985E-014
 -3.820000000000000E-002   -4.199013753596942E-014
 -3.810000000000000E-002   -3.183653452112950E-014
 -3.800000000000000E-002    5.179407411030715E-015
 -3.790000000000000E-002    8.529599060438292E-014
 -3.780000000000000E-002    2.268160861999421E-013
 -3.770000000000000E-002    4.470628431594690E-013
 -3.760000000000000E-002    7.576851002608987E-013
 -3.750000000000000E-002    1.158457712198990E-012
 -3.740000000000000E-002    1.630105831886416E-012
 -3.730000000000000E-002    2.127118994668843E-012
 -3.720000000000000E-002    2.571934414121379E-012
 -3.710000000000000E-002    2.852179728944833E-012
 -3.700000000000000E-002    2.822783152229321E-012
 -3.690000000000000E-002    2.314578591449132E-012
 -3.680000000000000E-002    1.150517732292526E-012
 -3.670000000000000E-002   -8.302793913553540E-013
 -3.660000000000000E-002   -3.741601501210823E-012
 -3.650000000000000E-002   -7.614733343673226E-012
 -3.640000000000000E-002   -1.236238071219152E-011
 -3.630000000000000E-002   -1.774704283304912E-011
 -3.620000000000000E-002   -2.335974983065387E-011
 -3.610000000000000E-002   -2.861528311456450E-011
 -3.600000000000000E-002   -3.276926485398235E-011
 -3.590000000000000E-002   -3.496086679318935E-011
 -3.580000000000000E-002   -3.428223592327694E-011
 -3.570000000000000E-002   -2.987238148985914E-011
 -3.560000000000000E-002   -2.102941341102047E-011
 -3.550000000000000E-002   -7.331182288770864E-012
 -3.540000000000000E-002    1.124896162983360E-011
 -3.530000000000000E-002    3.424667627585106E-011
 -3.520000000000000E-002    6.064738835742811E-011
 -3.510000000000000E-002    8.887773969274809E-011
 -3.500000000000000E-002    1.168584672847679E-010
 -3.490000000000000E-002    1.421237402951936E-010
 -3.480000000000000E-002    1.620042298476352E-010
 -3.470000000000000E-002    1.738632343359121E-010
 -3.460000000000000E-002    1.753662165493544E-010
 -3.450000000000000E-002    1.647574480005033E-010
 -3.440000000000000E-002    1.411119797664770E-010
 -3.430000000000000E-002    1.045299649587496E-010
 -3.420000000000000E-002    5.624252190188866E-011
 -3.410000000000000E-002   -1.394824991702924E-012
 -3.400000000000000E-002   -6.503433821480249E-011
 -3.390000000000000E-002   -1.305931560151429E-010
 -3.380000000000000E-002   -1.936187002312296E-010
 -3.370000000000000E-002   -2.497302663936918E-010
 -3.360000000000000E-002   -2.950908215188115E-010
 -3.350000000000000E-002   -3.268538488043208E-010
 -3.340000000000000E-002   -3.435265455808195E-010
 -3.330000000000000E-002   -3.451945666642786E-010
 -3.320000000000000E-002   -3.335647049942371E-010
 -3.310000000000000E-002   -3.118005944668745E-010
 -3.300000000000000E-002   -2.841506546784369E-010
 -3.290000000000000E-002   -2.553939137421493E-010
 -3.280000000000000E-002   -2.301570532608531E-010
 -3.270000000000000E-002   -2.121787575493629E-010
 -3.260000000000000E-002   -2.036133737349949E-010
 -3.250000000000000E-002   -2.044719219907366E-010
 -3.240000000000000E-002   -2.122927858408618E-010
 -3.230000000000000E-002   -2.221136140315696E-010
 -3.220000000000000E-002   -2.267879931261469E-010
 -3.210000000000000E-002   -2.176478068106457E-010
 -3.200000000000000E-002   -1.854697844203165E-010
 -3.190000000000000E-002   -1.216588244895200E-010
 -3.180000000000000E-002   -1.952253530956900E-011
 -3.170000000000000E-002    1.245140128655796E-010
 -3.160000000000000E-002    3.099165240261313E-010
 -3.150000000000000E-002    5.314244105030935E-010
 -3.140000000000000E-002    7.789313478765423E-010
 -3.130000000000000E-002    1.037937500983181E-009
 -3.120000000000000E-002    1.290582115358616E-009
 -3.110000000000000E-002    1.517196199183505E-009
 -3.100000000000000E-002    1.698238930951128E-009
 -3.090000000000000E-002    1.816423483254269E-009
 -3.080000000000000E-002    1.858788525921014E-009
 -3.070000000000000E-002    1.818455813741385E-009
 -3.060000000000000E-002    1.695823769530194E-009
 -3.050000000000000E-002    1.498992780071224E-009
 -3.040000000000000E-002    1.243287370822473E-009
 -3.030000000000000E-002    9.498456721384754E-010
 -3.020000000000000E-002    6.433520547066089E-010
 -3.010000000000000E-002    3.491070433448719E-010
 -3.000000000000000E-002    8.973138501151448E-011
 -2.990000000000000E-002   -1.181250377490924E-010
 -2.980000000000000E-002   -2.666541700715656E-010
 -2.970000000000000E-002   -3.589397359665996E-010
 -2.960000000000000E-002   -4.098325863200041E-010
 -2.950000000000000E-002   -4.454087547483693E-010
 -2.940000000000000E-002   -5.009059198457535E-010
 -2.930000000000000E-002   -6.172096574908343E-010
 -2.920000000000000E-002   -8.361345487146251E-010
 -2.910000000000000E-002   -1.194915386052927E-009
 -2.900000000000000E-002   -1.720454543728409E-009
 -2.890000000000000E-002   -2.423964502967904E-009
 -2.880000000000000E-002   -3.296654651359812E-009
 -2.870000000000000E-002   -4.307065326697586E-009
 -2.860000000000000E-002   -5.400523751903856E-009
 -2.850000000000000E-002   -6.501006060709416E-009
 -2.840000000000000E-002   -7.515454658337906E-009
 -2.830000000000000E-002   -8.340336131616453E-009
 -2.820000000000000E-002   -8.869966768261439E-009
 -2.810000000000000E-002   -9.005901673733978E-009
 -2.800000000000000E-002   -8.666526162310308E-009
 -2.790000000000000E-002   -7.795888518848996E-009
 -2.780000000000000E-002   -6.370839589647902E-009
 -2.770000000000000E-002   -4.405653214028397E-009
 -2.760000000000000E-002   -1.953513734536258E-009
 -2.750000000000000E-002    8.954482895878477E-010
 -2.740000000000000E-002    4.019551148153970E-009
 -2.730000000000000E-002    7.274005842558050E-009
 -2.720000000000000E-002    1.050169108443319E-008
 -2.710000000000000E-002    1.354525393943276E-008
 -2.700000000000000E-002    1.625936049376858E-008
 -2.690000000000000E-002    1.852184368014621E-008
 -2.680000000000000E-002    2.024257110871009E-008
 -2.670000000000000E-002    2.136905571078761E-008
 -2.660000000000000E-002    2.188815219044786E-008
 -2.650000000000000E-002    2.182358389523732E-008
 -2.640000000000000E-002    2.122949617760403E-008
 -2.630000000000000E-002    2.018071223362367E-008
 -2.620000000000000E-002    1.876072566186429E-008
 -2.610000000000000E-002    1.704881922375589E-008
 -2.600000000000000E-002    1.510781859263271E-008
 -2.590000000000000E-002    1.297404556303689E-008
 -2.580000000000000E-002    1.065082440794000E-008
 -2.570000000000000E-002    8.106598787502321E-009
 -2.560000000000000E-002    5.278249183122612E-009
 -2.550000000000000E-002    2.079644237577244E-009
 -2.540000000000000E-002   -1.585115213567993E-009
 -2.530000000000000E-002   -5.804847619508534E-009
 -2.520000000000000E-002   -1.064239177719047E-008
 -2.510000000000000E-002   -1.611552205224202E-008
 -2.500000000000000E-002   -2.217964345676253E-008
 -2.490000000000000E-002   -2.871417245250860E-008
 -2.480000000000000E-002   -3.551416898536557E-008
 -2.470000000000000E-002   -4.228831732160160E-008
 -2.460000000000000E-002   -4.866369980192204E-008
 -2.450000000000000E-002   -5.419710647203846E-008
 -2.440000000000000E-002   -5.839186905166085E-008
 -2.430000000000000E-002   -6.071858683225435E-008
 -2.420000000000000E-002   -6.063759780439589E-008
 -2.410000000000000E-002   -5.762077438289418E-008
 -2.400000000000000E-002   -5.117015275705103E-008
 -2.390000000000000E-002   -4.083116219466304E-008
 -2.380000000000000E-002   -2.619873064382085E-008
 -2.370000000000000E-002   -6.915230675716064E-009
 -2.360000000000000E-002    1.734002755161506E-008
 -2.350000000000000E-002    4.686878873262822E-008
 -2.340000000000000E-002    8.197798523658454E-008
 -2.330000000000000E-002    1.230073890574933E-007
 -2.320000000000000E-002    1.703580288934170E-007
 -2.310000000000000E-002    2.245181157855687E-007
 -2.300000000000000E-002    2.860833881083404E-007
 -2.290000000000000E-002    3.557692595279880E-007
 -2.280000000000000E-002    4.344126493117595E-007
 -2.270000000000000E-002    5.229625981422166E-007
 -2.260000000000000E-002    6.224596967989454E-007
 -2.250000000000000E-002    7.340055539937640E-007
 -2.240000000000000E-002    8.587248850087084E-007
 -2.230000000000000E-002    9.977229569365155E-007
 -2.220000000000000E-002    1.152042719694549E-006
 -2.210000000000000E-002    1.322625642933800E-006
 -2.200000000000000E-002    1.510279612880065E-006
 -2.190000000000000E-002    1.715658499207660E-006
 -2.180000000000000E-002    1.939253783854616E-006
 -2.170000000000000E-002    2.181402415622149E-006
 -2.160000000000000E-002    2.442307515124321E-006
 -2.150000000000000E-002    2.722073381404013E-006
 -2.140000000000000E-002    3.020750111403268E-006
 -2.130000000000000E-002    3.338384394783493E-006
 -2.120000000000000E-002    3.675072688130044E-006
 -2.110000000000000E-002    4.031010581919495E-006
 -2.100000000000000E-002    4.406536126876362E-006
 -2.090000000000000E-002    4.802159960582721E-006
 -2.080000000000000E-002    5.218581514147014E-006
 -2.070000000000000E-002    5.656690363441924E-006
 -2.060000000000000E-002    6.117549761114033E-006
 -2.050000000000000E-002    6.602367790129080E-006
 -2.040000000000000E-002    7.112456454723996E-006
 -2.030000000000000E-002    7.649183107359339E-006
 -2.020000000000000E-002    8.213922589390976E-006
 -2.010000000000000E-002    8.808010070387638E-006
 -2.000000000000000E-002    9.432703689852897E-006
 -1.990000000000000E-002    1.008916261952047E-005
 -1.980000000000000E-002    1.077843762422463E-005
 -1.970000000000000E-002    1.150148367286742E-005
 -1.960000000000000E-002    1.225918913635008E-005
 -1.950000000000000E-002    1.305242222583923E-005
 -1.940000000000000E-002    1.388208906788644E-005
 -1.930000000000000E-002    1.474920400918911E-005
 -1.920000000000000E-002    1.565495928666563E-005
 -1.910000000000000E-002    1.660079196624888E-005
 -1.900000000000000E-002    1.758844611048881E-005
 -1.890000000000000E-002    1.862001362966017E-005
 -1.880000000000000E-002    1.969796402718126E-005
 -1.870000000000000E-002    2.082515046424480E-005
 -1.860000000000000E-002    2.200479555502374E-005
 -1.850000000000000E-002    2.324045533544949E-005
 -1.840000000000000E-002    2.453597577451309E-005
 -1.830000000000000E-002    2.589542486236449E-005
 -1.820000000000000E-002    2.732303197892728E-005
 -1.810000000000000E-002    2.882312065837820E-005
 -1.800000000000000E-002    3.040005196578849E-005
 -1.790000000000000E-002    3.205817946684123E-005
 -1.780000000000000E-002    3.380182296027667E-005
 -1.770000000000000E-002    3.563525697762715E-005
 -1.760000000000000E-002    3.756272600712971E-005
 -1.750000000000000E-002    3.958847417614049E-005
 -1.740000000000000E-002    4.171679272258306E-005
 -1.730000000000000E-002    4.395208336291466E-005
 -1.720000000000000E-002    4.629891667470561E-005
 -1.710000000000000E-002    4.876210111666287E-005
 -1.700000000000000E-002    5.134673262800687E-005
 -1.690000000000000E-002    5.405824963198663E-005
 -1.680000000000000E-002    5.690245219059667E-005
 -1.670000000000000E-002    5.988552358041159E-005
 -1.660000000000000E-002    6.301400972844983E-005
 -1.650000000000000E-002    6.629480458541335E-005
 -1.640000000000000E-002    6.973510413902676E-005
 -1.630000000000000E-002    7.334235282128811E-005
 -1.620000000000000E-002    7.712421512197511E-005
 -1.610000000000000E-002    8.108850475324524E-005
 -1.600000000000000E-002    8.524315770081452E-005
 -1.590000000000000E-002    8.959621187087219E-005
 -1.580000000000000E-002    9.415580092454540E-005
 -1.570000000000000E-002    9.893016706072423E-005
 -1.560000000000000E-002    1.039276892640339E-004
 -1.550000000000000E-002    1.091569520678271E-004
 -1.540000000000000E-002    1.146267928594994E-004
 -1.530000000000000E-002    1.203463837837869E-004
 -1.520000000000000E-002    1.263252895663382E-004
 -1.510000000000000E-002    1.325735492469014E-004
 -1.500000000000000E-002    1.391017127470693E-004
 -1.490000000000000E-002    1.459208881577161E-004
 -1.480000000000000E-002    1.530427770467851E-004
 -1.470000000000000E-002    1.604796227140318E-004
 -1.460000000000000E-002    1.682442316224730E-004
 -1.450000000000000E-002    1.763499314283537E-004
 -1.440000000000000E-002    1.848104830377720E-004
 -1.430000000000000E-002    1.936400490251638E-004
 -1.420000000000000E-002    2.028531447505976E-004
 -1.410000000000000E-002    2.124645713811473E-004
 -1.400000000000000E-002    2.224893672814329E-004
 -1.390000000000000E-002    2.329427722553864E-004
 -1.380000000000000E-002    2.438402490701655E-004
 -1.370000000000000E-002    2.551974726794942E-004
 -1.360000000000000E-002    2.670303583003906E-004
 -1.350000000000000E-002    2.793550990378568E-004
 -1.340000000000000E-002    2.921881860348125E-004
 -1.330000000000000E-002    3.055465272227242E-004
 -1.320000000000000E-002    3.194474200349803E-004
 -1.310000000000000E-002    3.339086314356073E-004
 -1.300000000000000E-002    3.489484403222463E-004
 -1.290000000000000E-002    3.645856146122767E-004
 -1.280000000000000E-002    3.808393883557059E-004
 -1.270000000000000E-002    3.977295186740844E-004
 -1.260000000000000E-002    4.152761626570015E-004
 -1.250000000000000E-002    4.334998652817130E-004
 -1.240000000000000E-002    4.524214580815305E-004
 -1.230000000000000E-002    4.720620223281871E-004
 -1.220000000000000E-002    4.924427551359145E-004
 -1.210000000000000E-002    5.135849801784681E-004
 -1.200000000000000E-002    5.355099941371440E-004
 -1.190000000000000E-002    5.582390905015687E-004
 -1.180000000000000E-002    5.817934032214069E-004
 -1.170000000000000E-002    6.061939593578119E-004
 -1.160000000000000E-002    6.314615816374516E-004
 -1.150000000000000E-002    6.576170306604498E-004
 -1.140000000000000E-002    6.846807637433852E-004
 -1.130000000000000E-002    7.126730395815878E-004
 -1.120000000000000E-002    7.416140428400077E-004
 -1.110000000000000E-002    7.715236629606716E-004
 -1.100000000000000E-002    8.024216014684551E-004
 -1.090000000000000E-002    8.343272727254996E-004
 -1.080000000000000E-002    8.672599397187976E-004
 -1.070000000000000E-002    9.012384066891576E-004
 -1.060000000000000E-002    9.362811782790863E-004
 -1.050000000000000E-002    9.724061485776006E-004
 -1.040000000000000E-002    1.009630668208681E-003
 -1.030000000000000E-002    1.047971372524025E-003
 -1.020000000000000E-002    1.087444061158953E-003
 -1.010000000000000E-002    1.128063397592200E-003
 -1.000000000000000E-002    1.169842930550829E-003
 -9.899999999999999E-003    1.212794998003063E-003
 -9.800000000000000E-003    1.256930347163756E-003
 -9.699999999999999E-003    1.302258179772183E-003
 -9.599999999999999E-003    1.348785894972659E-003
 -9.500000000000000E-003    1.396519044738659E-003
 -9.399999999999999E-003    1.445461221267321E-003
 -9.299999999999999E-003    1.495613864071502E-003
 -9.200000000000000E-003    1.546976312439433E-003
 -9.099999999999999E-003    1.599545749066031E-003
 -8.999999999999999E-003    1.653316902307017E-003
 -8.900000000000000E-003    1.708282043868775E-003
 -8.799999999999999E-003    1.764431007830280E-003
 -8.699999999999999E-003    1.821750903064924E-003
 -8.600000000000000E-003    1.880226032487682E-003
 -8.499999999999999E-003    1.939837731489400E-003
 -8.399999999999999E-003    2.000564019625642E-003
 -8.300000000000000E-003    2.062379309394455E-003
 -8.199999999999999E-003    2.125254438239627E-003
 -8.100000000000000E-003    2.189156017440787E-003
 -8.000000000000000E-003    2.254046381320941E-003
 -7.899999999999999E-003    2.319883146187413E-003
 -7.800000000000000E-003    2.386618660143141E-003
 -7.699999999999999E-003    2.454200305282121E-003
 -7.599999999999999E-003    2.522569686765075E-003
 -7.499999999999999E-003    2.591662468186262E-003
 -7.399999999999999E-003    2.661408561678535E-003
 -7.299999999999999E-003    2.731731724429442E-003
 -7.199999999999999E-003    2.802549099705215E-003
 -7.100000000000000E-003    2.873771565685936E-003
 -6.999999999999999E-003    2.945302877711240E-003
 -6.899999999999999E-003    3.017040345242888E-003
 -6.800000000000000E-003    3.088873844661815E-003
 -6.699999999999999E-003    3.160685993703656E-003
 -6.599999999999999E-003    3.232351628289450E-003
 -6.499999999999999E-003    3.303737296562670E-003
 -6.399999999999999E-003    3.374701350660259E-003
 -6.299999999999999E-003    3.445092699030391E-003
 -6.199999999999999E-003    3.514750948489449E-003
 -6.100000000000000E-003    3.583505045440724E-003
 -5.999999999999999E-003    3.651173508282273E-003
 -5.899999999999999E-003    3.717563603708352E-003
 -5.800000000000000E-003    3.782470174565829E-003
 -5.699999999999999E-003    3.845676625525108E-003
 -5.599999999999999E-003    3.906952842268885E-003
 -5.499999999999999E-003    3.966056077542111E-003
 -5.399999999999999E-003    4.022729528145689E-003
 -5.299999999999999E-003    4.076702704687690E-003
 -5.199999999999999E-003    4.127691171672730E-003
 -5.099999999999999E-003    4.175396176134494E-003
 -4.999999999999999E-003    4.219504501571375E-003
 -4.899999999999999E-003    4.259688112621876E-003
 -4.799999999999999E-003    4.295603135036659E-003
 -4.699999999999999E-003    4.326891074576140E-003
 -4.599999999999999E-003    4.353177160211886E-003
 -4.499999999999999E-003    4.374070299187181E-003
 -4.399999999999999E-003    4.389161935918818E-003
 -4.299999999999999E-003    4.398026517503999E-003
 -4.199999999999999E-003    4.400220181847829E-003
 -4.099999999999999E-003    4.395280608224184E-003
 -3.999999999999999E-003    4.382725176632810E-003
 -3.899999999999999E-003    4.362052230125683E-003
 -3.799999999999999E-003    4.332738542984637E-003
 -3.699999999999999E-003    4.294240713665388E-003
 -3.599999999999999E-003    4.245993082281396E-003
 -3.499999999999999E-003    4.187408432333615E-003
 -3.399999999999999E-003    4.117877127238034E-003
 -3.299999999999999E-003    4.036767131656265E-003
 -3.199999999999999E-003    3.943423402401954E-003
 -3.099999999999999E-003    3.837167846772527E-003
 -2.999999999999999E-003    3.717299058612314E-003
 -2.899999999999999E-003    3.583092371692291E-003
 -2.799999999999999E-003    3.433798554581723E-003
 -2.699999999999999E-003    3.268644486156997E-003
 -2.599999999999999E-003    3.086833353735372E-003
 -2.499999999999999E-003    2.887542323506443E-003
 -2.399999999999999E-003    2.669923711567172E-003
 -2.299999999999999E-003    2.433104569032863E-003
 -2.199999999999999E-003    2.176185050813839E-003
 -2.099999999999999E-003    1.898239483524575E-003
 -1.999999999999999E-003    1.598315586077338E-003
 -1.899999999999999E-003    1.275433578860527E-003
 -1.799999999999999E-003    9.285863672885294E-004
 -1.699999999999999E-003    5.567399472245156E-004
 -1.599999999999999E-003    1.588320773838900E-004
 -1.499999999999999E-003   -2.662268481985567E-004
 -1.399999999999999E-003   -7.195538726196861E-004
 -1.299999999999999E-003   -1.202293759631640E-003
 -1.199999999999999E-003   -1.715618630616885E-003
 -1.099999999999999E-003   -2.260727624684654E-003
 -9.999999999999989E-004   -2.838847828491736E-003
 -8.999999999999990E-004   -3.451232260517124E-003
 -7.999999999999990E-004   -4.099161027347852E-003
 -6.999999999999989E-004   -4.783940635257418E-003
 -5.999999999999990E-004   -5.506904148565275E-003
 -4.999999999999989E-004   -6.269410499685012E-003
 -3.999999999999989E-004   -7.072843329739415E-003
 -2.999999999999989E-004   -7.918612111502335E-003
 -1.999999999999989E-004   -8.808152116500004E-003
 -9.999999999999892E-005   -9.742920956650959E-003
  1.084202172485504E-018   -1.072440051438794E-002
  1.000000000000011E-004   -1.175409707702253E-002
  2.000000000000011E-004   -1.283353885754421E-002
  3.000000000000011E-004   -1.396427584821113E-002
  4.000000000000011E-004   -1.514787819360303E-002
  5.000000000000011E-004   -1.638593706845055E-002
  6.000000000000011E-004   -1.768006291630786E-002
  7.000000000000011E-004   -1.903188568047252E-002
  8.000000000000011E-004   -2.044305116949012E-002
  9.000000000000012E-004   -2.191522345229871E-002
  1.000000000000001E-003   -2.345007925172448E-002
  1.100000000000001E-003   -2.504931298646689E-002
  1.200000000000001E-003   -2.671462998412245E-002
  1.300000000000001E-003   -2.844774615640241E-002
  1.400000000000001E-003   -3.025038990790489E-002
  1.500000000000001E-003   -3.212429588263983E-002
  1.600000000000001E-003   -3.407120806015399E-002
  1.700000000000001E-003   -3.609287301767511E-002
  1.800000000000001E-003   -3.819104530015673E-002
  1.900000000000001E-003   -4.036747415874641E-002
  2.000000000000001E-003   -4.262391591254368E-002
  2.100000000000001E-003   -4.496211990778077E-002
  2.200000000000001E-003   -4.738383266905597E-002
  2.300000000000001E-003   -4.989079567931279E-002
  2.400000000000001E-003   -5.248474122865261E-002
  2.500000000000001E-003   -5.516739287311884E-002
  2.600000000000001E-003   -5.794045835421167E-002
  2.700000000000001E-003   -6.080562971112421E-002
  2.800000000000001E-003   -6.376458422969689E-002
  2.900000000000001E-003   -6.681898412177209E-002
  3.000000000000001E-003   -6.997045897389612E-002
  3.100000000000001E-003   -7.322061937469339E-002
  3.200000000000001E-003   -7.657104946318687E-002
  3.300000000000001E-003   -8.002330034370478E-002
  3.400000000000001E-003   -8.357888441185485E-002
  3.500000000000001E-003   -8.723928815095397E-002
  3.600000000000001E-003   -9.100595148852433E-002
  3.700000000000001E-003   -9.488027457760440E-002
  3.800000000000001E-003   -9.886361149625816E-002
  3.900000000000001E-003   -0.102957269709446     
  4.000000000000001E-003   -0.107162496366540     
  4.100000000000001E-003   -0.111480490701215     
  4.200000000000001E-003   -0.115912393487086     
  4.300000000000001E-003   -0.120459284433108     
  4.400000000000001E-003   -0.125122169692509     
  4.500000000000001E-003   -0.129902000179863     
  4.600000000000002E-003   -0.134799652476637     
  4.700000000000001E-003   -0.139815914976651     
  4.800000000000001E-003   -0.144951524336709     
  4.900000000000002E-003   -0.150207097795087     
  5.000000000000001E-003   -0.155583202830985     
  5.100000000000001E-003   -0.161080305655578     
  5.200000000000001E-003   -0.166698773278799     
  5.300000000000002E-003   -0.172438882019065     
  5.400000000000001E-003   -0.178300812335653     
  5.500000000000001E-003   -0.184284629122883     
  5.600000000000002E-003   -0.190390301258398     
  5.700000000000001E-003   -0.196617671814015     
  5.800000000000001E-003   -0.202966485422416     
  5.900000000000002E-003   -0.209436369927302     
  6.000000000000001E-003   -0.216026819793213     
  6.100000000000001E-003   -0.222737218717423     
  6.200000000000002E-003   -0.229566808988567     
  6.300000000000002E-003   -0.236514705471190     
  6.400000000000001E-003   -0.243579903507308     
  6.500000000000001E-003   -0.250761245493994     
  6.600000000000002E-003   -0.258057422406140     
  6.700000000000001E-003   -0.265467005248142     
  6.800000000000001E-003   -0.272988388322312     
  6.900000000000002E-003   -0.280619861673590     
  7.000000000000001E-003   -0.288359531621706     
  7.100000000000001E-003   -0.296205336478542     
  7.200000000000002E-003   -0.304155072981620     
  7.300000000000002E-003   -0.312206415259527     
  7.400000000000001E-003   -0.320356799886350     
  7.500000000000001E-003   -0.328603532486524     
  7.600000000000002E-003   -0.336943762538388     
  7.700000000000001E-003   -0.345374456543592     
  7.800000000000001E-003   -0.353892374279692     
  7.900000000000001E-003   -0.362494173655708     
  8.000000000000002E-003   -0.371176273181797     
  8.100000000000001E-003   -0.379934973508465     
  8.200000000000001E-003   -0.388766345181338     
  8.300000000000002E-003   -0.397666297995198     
  8.400000000000001E-003   -0.406630539536122     
  8.500000000000002E-003   -0.415654678898720     
  8.600000000000002E-003   -0.424734054524381     
  8.700000000000001E-003   -0.433863853992160     
  8.800000000000002E-003   -0.443039091854061     
  8.900000000000002E-003   -0.452254587562636     
  9.000000000000001E-003   -0.461504966786407     
  9.100000000000002E-003   -0.470784715876294     
  9.200000000000002E-003   -0.480088094609754     
  9.300000000000001E-003   -0.489409223835960     
  9.400000000000002E-003   -0.498742012134427     
  9.500000000000001E-003   -0.508080183393254     
  9.600000000000001E-003   -0.517417313352568     
  9.700000000000002E-003   -0.526746827047447     
  9.800000000000001E-003   -0.536061882964778     
  9.900000000000001E-003   -0.545355569477400     
  1.000000000000000E-002   -0.554620776294560     
  1.010000000000000E-002   -0.563850195847854     
  1.020000000000000E-002   -0.573036412260122     
  1.030000000000000E-002   -0.582171830968248     
  1.040000000000000E-002   -0.591248691646598     
  1.050000000000000E-002   -0.600259064277200     
  1.060000000000000E-002   -0.609194945214234     
  1.070000000000000E-002   -0.618048114903655     
  1.080000000000000E-002   -0.626810272696262     
  1.090000000000000E-002   -0.635472959386930     
  1.100000000000000E-002   -0.644027551384764     
  1.110000000000000E-002   -0.652465397210554     
  1.120000000000000E-002   -0.660777656689144     
  1.130000000000000E-002   -0.668955414881664     
  1.140000000000000E-002   -0.676989639235558     
  1.150000000000000E-002   -0.684871165574209     
  1.160000000000000E-002   -0.692590795473001     
  1.170000000000000E-002   -0.700139210651232     
  1.180000000000000E-002   -0.707507066167778     
  1.190000000000000E-002   -0.714684906491741     
  1.200000000000000E-002   -0.721663248045318     
  1.210000000000000E-002   -0.728432511811587     
  1.220000000000000E-002   -0.734983147624200     
  1.230000000000000E-002   -0.741305478719917     
  1.240000000000000E-002   -0.747389886022476     
  1.250000000000000E-002   -0.753226658613221     
  1.260000000000000E-002   -0.758806069499135     
  1.270000000000000E-002   -0.764118489381355     
  1.280000000000000E-002   -0.769154239390394     
  1.290000000000000E-002   -0.773903689434971     
  1.300000000000000E-002   -0.778357209680447     
  1.310000000000000E-002   -0.782505200073874     
  1.320000000000000E-002   -0.786338119205570     
  1.330000000000000E-002   -0.789846528442451     
  1.340000000000000E-002   -0.793020989324872     
  1.350000000000000E-002   -0.795852258631991     
  1.360000000000000E-002   -0.798331040466941     
  1.370000000000000E-002   -0.800448259103389     
  1.380000000000000E-002   -0.802194901005721     
  1.390000000000000E-002   -0.803562053337677     
  1.400000000000000E-002   -0.804541016304645     
  1.410000000000000E-002   -0.805123171654710     
  1.420000000000000E-002   -0.805300048671154     
  1.430000000000000E-002   -0.805063402905155     
  1.440000000000000E-002   -0.804405136229958     
  1.450000000000000E-002   -0.803317376849742     
  1.460000000000000E-002   -0.801792353348552     
  1.470000000000000E-002   -0.799822639574374     
  1.480000000000000E-002   -0.797400946981260     
  1.490000000000000E-002   -0.794520243322008     
  1.500000000000000E-002   -0.791173754312194     
  1.510000000000000E-002   -0.787354976141879     
  1.520000000000000E-002   -0.783057626897266     
  1.530000000000000E-002   -0.778275742762823     
  1.540000000000000E-002   -0.773003637623763     
  1.550000000000000E-002   -0.767235915392588     
  1.560000000000000E-002   -0.760967519852011     
  1.570000000000000E-002   -0.754193709787897     
  1.580000000000000E-002   -0.746910010788965     
  1.590000000000000E-002   -0.739112322960284     
  1.600000000000000E-002   -0.730796943178190     
  1.610000000000000E-002   -0.721960481504695     
  1.620000000000000E-002   -0.712599914250123     
  1.630000000000000E-002   -0.702712600379309     
  1.640000000000000E-002   -0.692296222553011     
  1.650000000000000E-002   -0.681348971102238     
  1.660000000000000E-002   -0.669869302779161     
  1.670000000000000E-002   -0.657856174070506     
  1.680000000000000E-002   -0.645308980855603     
  1.690000000000000E-002   -0.632227403729075     
  1.700000000000000E-002   -0.618611644791461     
  1.710000000000000E-002   -0.604462335877327     
  1.720000000000000E-002   -0.589780526259100     
  1.730000000000000E-002   -0.574567683880177     
  1.740000000000000E-002   -0.558825804915169     
  1.750000000000000E-002   -0.542557242139987     
  1.760000000000000E-002   -0.525764823653898     
  1.770000000000000E-002   -0.508451910413198     
  1.780000000000000E-002   -0.490622245774221     
  1.790000000000000E-002   -0.472280029482147     
  1.800000000000000E-002   -0.453430003931396     
  1.810000000000000E-002   -0.434077303514775     
  1.820000000000000E-002   -0.414227556983121     
  1.830000000000000E-002   -0.393886896734749     
  1.840000000000000E-002   -0.373061876038873     
  1.850000000000000E-002   -0.351759549101118     
  1.860000000000000E-002   -0.329987422562060     
  1.870000000000000E-002   -0.307753463459245     