 -4.000000000000000E-002    0.000000000000000E+000
 -3.990000000000000E-002    0.000000000000000E+000
 -3.980000000000000E-002    0.000000000000000E+000
 -3.970000000000000E-002    0.000000000000000E+000
 -3.960000000000000E-002    0.000000000000000E+000
 -3.950000000000000E-002    0.000000000000000E+000
 -3.940000000000000E-002    0.000000000000000E+000
 -3.930000000000000E-002    0.000000000000000E+000
 -3.920000000000000E-002    0.000000000000000E+000
 -3.910000000000000E-002    0.000000000000000E+000
 -3.900000000000000E-002    0.000000000000000E+000
 -3.890000000000000E-002    0.000000000000000E+000
 -3.880000000000000E-002    0.000000000000000E+000
 -3.870000000000000E-002    0.000000000000000E+000
 -3.860000000000000E-002    0.000000000000000E+000
 -3.850000000000000E-002    0.000000000000000E+000
 -3.840000000000000E-002    0.000000000000000E+000
 -3.830000000000000E-002    0.000000000000000E+000
 -3.820000000000000E-002    0.000000000000000E+000
 -3.810000000000000E-002    0.000000000000000E+000
 -3.800000000000000E-002    0.000000000000000E+000
 -3.790000000000000E-002    0.000000000000000E+000
 -3.780000000000000E-002    0.000000000000000E+000
 -3.770000000000000E-002    0.000000000000000E+000
 -3.760000000000000E-002    0.000000000000000E+000
 -3.750000000000000E-002    0.000000000000000E+000
 -3.740000000000000E-002    0.000000000000000E+000
 -3.730000000000000E-002    0.000000000000000E+000
 -3.720000000000000E-002    0.000000000000000E+000
 -3.710000000000000E-002    0.000000000000000E+000
 -3.700000000000000E-002    0.000000000000000E+000
 -3.690000000000000E-002    0.000000000000000E+000
 -3.680000000000000E-002    0.000000000000000E+000
 -3.670000000000000E-002    0.000000000000000E+000
 -3.660000000000000E-002    0.000000000000000E+000
 -3.650000000000000E-002    0.000000000000000E+000
 -3.640000000000000E-002    0.000000000000000E+000
 -3.630000000000000E-002    0.000000000000000E+000
 -3.620000000000000E-002    0.000000000000000E+000
 -3.610000000000000E-002    0.000000000000000E+000
 -3.600000000000000E-002    0.000000000000000E+000
 -3.590000000000000E-002    0.000000000000000E+000
 -3.580000000000000E-002    0.000000000000000E+000
 -3.570000000000000E-002    0.000000000000000E+000
 -3.560000000000000E-002    0.000000000000000E+000
 -3.550000000000000E-002    0.000000000000000E+000
 -3.540000000000000E-002    0.000000000000000E+000
 -3.530000000000000E-002    0.000000000000000E+000
 -3.520000000000000E-002    0.000000000000000E+000
 -3.510000000000000E-002    0.000000000000000E+000
 -3.500000000000000E-002    0.000000000000000E+000
 -3.490000000000000E-002    0.000000000000000E+000
 -3.480000000000000E-002    0.000000000000000E+000
 -3.470000000000000E-002    0.000000000000000E+000
 -3.460000000000000E-002    0.000000000000000E+000
 -3.450000000000000E-002    0.000000000000000E+000
 -3.440000000000000E-002    0.000000000000000E+000
 -3.430000000000000E-002    0.000000000000000E+000
 -3.420000000000000E-002    0.000000000000000E+000
 -3.410000000000000E-002    0.000000000000000E+000
 -3.400000000000000E-002    0.000000000000000E+000
 -3.390000000000000E-002    0.000000000000000E+000
 -3.380000000000000E-002    0.000000000000000E+000
 -3.370000000000000E-002    0.000000000000000E+000
 -3.360000000000000E-002    0.000000000000000E+000
 -3.350000000000000E-002    0.000000000000000E+000
 -3.340000000000000E-002    0.000000000000000E+000
 -3.330000000000000E-002    0.000000000000000E+000
 -3.320000000000000E-002    0.000000000000000E+000
 -3.310000000000000E-002    0.000000000000000E+000
 -3.300000000000000E-002    0.000000000000000E+000
 -3.290000000000000E-002    2.078066899868995E-047
 -3.280000000000000E-002    4.156133799737989E-047
 -3.270000000000000E-002    9.916449907279895E-047
 -3.260000000000000E-002    2.849788979407029E-046
 -3.250000000000000E-002    5.605815960097935E-046
 -3.240000000000000E-002    9.643955318713690E-046
 -3.230000000000000E-002    1.432888456667765E-045
 -3.220000000000000E-002    1.701596426881186E-045
 -3.210000000000000E-002    1.767102382735380E-045
 -3.200000000000000E-002    1.020946220501012E-045
 -3.190000000000000E-002   -1.238590903804099E-045
 -3.180000000000000E-002   -7.515276422600515E-045
 -3.170000000000000E-002   -1.691530393414116E-044
 -3.160000000000000E-002   -3.129358520803131E-044
 -3.150000000000000E-002   -5.203193467540687E-044
 -3.140000000000000E-002   -7.745317321894321E-044
 -3.130000000000000E-002   -1.040767743207322E-043
 -3.120000000000000E-002   -1.243817837862314E-043
 -3.110000000000000E-002   -1.227028061482414E-043
 -3.100000000000000E-002   -7.447415389261578E-044
 -3.090000000000000E-002    5.592832049101524E-044
 -3.080000000000000E-002    3.144986258059486E-043
 -3.070000000000000E-002    7.552504431159981E-043
 -3.060000000000000E-002    1.424637244829337E-042
 -3.050000000000000E-002    2.346706316105150E-042
 -3.040000000000000E-002    3.477417984415404E-042
 -3.030000000000000E-002    4.663344591406756E-042
 -3.020000000000000E-002    5.567922231480491E-042
 -3.010000000000000E-002    5.601892393414461E-042
 -3.000000000000000E-002    3.852565339231326E-042
 -2.990000000000000E-002   -9.395734780023292E-043
 -2.980000000000000E-002   -1.032961082377899E-041
 -2.970000000000000E-002   -2.596320742031319E-041
 -2.960000000000000E-002   -4.915238294186965E-041
 -2.950000000000000E-002   -8.014057607084253E-041
 -2.940000000000000E-002   -1.170110467760778E-040
 -2.930000000000000E-002   -1.542193043856197E-040
 -2.920000000000000E-002   -1.808542845454941E-040
 -2.910000000000000E-002   -1.789068187929381E-040
 -2.900000000000000E-002   -1.220526721442008E-040
 -2.890000000000000E-002    2.423720505010320E-041
 -2.880000000000000E-002    3.001138278693219E-040
 -2.870000000000000E-002    7.448796210772470E-040
 -2.860000000000000E-002    1.385096455579393E-039
 -2.850000000000000E-002    2.215992608539679E-039
 -2.840000000000000E-002    3.175616527280838E-039
 -2.830000000000000E-002    4.112793615896442E-039
 -2.820000000000000E-002    4.752418824486752E-039
 -2.810000000000000E-002    4.665220334945311E-039
 -2.800000000000000E-002    3.253626272771090E-039
 -2.790000000000000E-002   -2.296936252459407E-040
 -2.780000000000000E-002   -6.609588858689299E-039
 -2.770000000000000E-002   -1.663905081755383E-038
 -2.760000000000000E-002   -3.075101127598831E-038
 -2.750000000000000E-002   -4.869809903459504E-038
 -2.740000000000000E-002   -6.908512072370994E-038
 -2.730000000000000E-002   -8.882886569769865E-038
 -2.720000000000000E-002   -1.026226201869032E-037
 -2.710000000000000E-002   -1.025370672452659E-037
 -2.700000000000000E-002   -7.795027540397295E-038
 -2.690000000000000E-002   -1.605709805611519E-038
 -2.680000000000000E-002    9.675309076566691E-038
 -2.670000000000000E-002    2.723627538538145E-037
 -2.660000000000000E-002    5.170175376299266E-037
 -2.650000000000000E-002    8.259849794391296E-037
 -2.640000000000000E-002    1.177002026485641E-036
 -2.630000000000000E-002    1.523141973036931E-036
 -2.620000000000000E-002    1.786260740261762E-036
 -2.610000000000000E-002    1.852793639359195E-036
 -2.600000000000000E-002    1.574285690961193E-036
 -2.590000000000000E-002    7.755237734908972E-037
 -2.580000000000000E-002   -7.266790497111233E-037
 -2.570000000000000E-002   -3.091326051397126E-036
 -2.560000000000000E-002   -6.406059954430625E-036
 -2.550000000000000E-002   -1.062533423148593E-035
 -2.540000000000000E-002   -1.549740051033694E-035
 -2.530000000000000E-002   -2.048774343301780E-035
 -2.520000000000000E-002   -2.471159370338611E-035
 -2.510000000000000E-002   -2.689354190930704E-035
 -2.500000000000000E-002   -2.537715799676008E-035
 -2.490000000000000E-002   -1.821083715272818E-035
 -2.480000000000000E-002   -3.336348533230095E-036
 -2.470000000000000E-002    2.109786639666231E-035
 -2.460000000000000E-002    5.628719460024008E-035
 -2.450000000000000E-002    1.021919259084868E-034
 -2.440000000000000E-002    1.568618547265627E-034
 -2.430000000000000E-002    2.157312292629405E-034
 -2.420000000000000E-002    2.709903315919101E-034
 -2.410000000000000E-002    3.111808073104894E-034
 -2.400000000000000E-002    3.211985278768059E-034
 -2.390000000000000E-002    2.829115390427775E-034
 -2.380000000000000E-002    1.766015842327671E-034
 -2.370000000000000E-002   -1.659513868797346E-035
 -2.360000000000000E-002   -3.111497550340290E-034
 -2.350000000000000E-002   -7.125386468244235E-034
 -2.340000000000000E-002   -1.211799958731934E-033
 -2.330000000000000E-002   -1.779716250315020E-033
 -2.320000000000000E-002   -2.361377338202885E-033
 -2.310000000000000E-002   -2.872180254232896E-033
 -2.300000000000000E-002   -3.196600231905712E-033
 -2.290000000000000E-002   -3.191262901396902E-033
 -2.280000000000000E-002   -2.693886465259654E-033
 -2.270000000000000E-002   -1.539471993884852E-033
 -2.260000000000000E-002    4.153879908103948E-034
 -2.250000000000000E-002    3.260101474123601E-033
 -2.240000000000000E-002    6.990886506785940E-033
 -2.230000000000000E-002    1.146782121526476E-032
 -2.220000000000000E-002    1.637314792835635E-032
 -2.210000000000000E-002    2.117796295658287E-032
 -2.200000000000000E-002    2.512632674177899E-032
 -2.190000000000000E-002    2.724714795513687E-032
 -2.180000000000000E-002    2.640442111183767E-032
 -2.170000000000000E-002    2.139495662917038E-032
 -2.160000000000000E-002    1.109921862738858E-032
 -2.150000000000000E-002   -5.315126473691913E-033
 -2.140000000000000E-002   -2.814591693674066E-032
 -2.130000000000000E-002   -5.688520317906205E-032
 -2.120000000000000E-002   -8.995580111147307E-032
 -2.110000000000000E-002   -1.244995626547740E-031
 -2.100000000000000E-002   -1.562710503477162E-031
 -2.090000000000000E-002   -1.796955253105890E-031
 -2.080000000000000E-002   -1.881476981968157E-031
 -2.070000000000000E-002   -1.744957090301265E-031
 -2.060000000000000E-002   -1.319303165549408E-031
 -2.050000000000000E-002   -5.506320565377498E-032
 -2.040000000000000E-002    5.876952062399503E-032
 -2.030000000000000E-002    2.081172438529983E-031
 -2.020000000000000E-002    3.861125722823616E-031
 -2.010000000000000E-002    5.794797819508445E-031
 -2.000000000000000E-002    7.681071188884732E-031
 -1.990000000000000E-002    9.254380254966898E-031
 -1.980000000000000E-002    1.019899669223871E-030
 -1.970000000000000E-002    1.017505870004993E-030
 -1.960000000000000E-002    8.856448011046656E-031
 -1.950000000000000E-002    5.978938941649320E-031
 -1.940000000000000E-002    1.395123622580758E-031
 -1.930000000000000E-002   -4.869372772213903E-031
 -1.920000000000000E-002   -1.256560826000989E-030
 -1.910000000000000E-002   -2.118538699873700E-030
 -1.900000000000000E-002   -2.994842414859198E-030
 -1.890000000000000E-002   -3.782059984558168E-030
 -1.880000000000000E-002   -4.356930941962770E-030
 -1.870000000000000E-002   -4.585870185413611E-030
 -1.860000000000000E-002   -4.338336905009300E-030
 -1.850000000000000E-002   -3.503416000022206E-030
 -1.840000000000000E-002   -2.008473011425971E-030
 -1.830000000000000E-002    1.617273191459744E-031
 -1.820000000000000E-002    2.947426113484424E-030
 -1.810000000000000E-002    6.200033794490933E-030
 -1.800000000000000E-002    9.674374487874382E-030
 -1.790000000000000E-002    1.302925268224899E-029
 -1.780000000000000E-002    1.583834785291003E-029
 -1.770000000000000E-002    1.761304546100164E-029
 -1.760000000000000E-002    1.783828214884554E-029
 -1.750000000000000E-002    1.602176152972544E-029
 -1.740000000000000E-002    1.175594540919771E-029
 -1.730000000000000E-002    4.790929165337045E-030
 -1.720000000000000E-002   -4.885417339184818E-030
 -1.710000000000000E-002   -1.696595454328233E-029
 -1.700000000000000E-002   -3.075013753464934E-029
 -1.690000000000000E-002   -4.508916715899428E-029
 -1.680000000000000E-002   -5.836555282736807E-029
 -1.670000000000000E-002   -6.852472795875672E-029
 -1.660000000000000E-002   -7.317728701369748E-029
 -1.650000000000000E-002   -6.978848928803484E-029
 -1.640000000000000E-002   -5.596583790039840E-029
 -1.630000000000000E-002   -2.984469318383045E-029
 -1.620000000000000E-002    9.444356392872786E-030
 -1.610000000000000E-002    6.126378582921728E-029
 -1.600000000000000E-002    1.229747408343460E-028
 -1.590000000000000E-002    1.895458244901962E-028
 -1.580000000000000E-002    2.533702797793715E-028
 -1.570000000000000E-002    3.044058729245413E-028
 -1.560000000000000E-002    3.307438521237382E-028
 -1.550000000000000E-002    3.196839478653457E-028
 -1.540000000000000E-002    2.593370993134736E-028
 -1.530000000000000E-002    1.406976753573650E-028
 -1.520000000000000E-002   -3.997346119543179E-029
 -1.510000000000000E-002   -2.787234060117462E-028
 -1.500000000000000E-002   -5.618103030656202E-028
 -1.490000000000000E-002   -8.643822541528407E-028
 -1.480000000000000E-002   -1.150403995960197E-027
 -1.470000000000000E-002   -1.374257552413484E-027
 -1.460000000000000E-002   -1.484310607247163E-027
 -1.450000000000000E-002   -1.428521564841600E-027
 -1.440000000000000E-002   -1.161845887724798E-027
 -1.430000000000000E-002   -6.548484350355008E-028
 -1.420000000000000E-002    9.743900926808979E-029
 -1.410000000000000E-002    1.067691966471357E-027
 -1.400000000000000E-002    2.190970978554931E-027
 -1.390000000000000E-002    3.363385243154774E-027
 -1.380000000000000E-002    4.445998680275813E-027
 -1.370000000000000E-002    5.274748493553750E-027
 -1.360000000000000E-002    5.676416499887808E-027
 -1.350000000000000E-002    5.489777093026022E-027
 -1.340000000000000E-002    4.590055220099449E-027
 -1.330000000000000E-002    2.913905112568276E-027
 -1.320000000000000E-002    4.814343193689146E-028
 -1.310000000000000E-002   -2.588489709111572E-027
 -1.300000000000000E-002   -6.073167247472267E-027
 -1.290000000000000E-002   -9.653903167299458E-027
 -1.280000000000000E-002   -1.293800732722551E-026
 -1.270000000000000E-002   -1.549434314201419E-026
 -1.260000000000000E-002   -1.689971382968632E-026
 -1.250000000000000E-002   -1.679135850725306E-026
 -1.240000000000000E-002   -1.491925655030128E-026
 -1.230000000000000E-002   -1.119111091815875E-026
 -1.220000000000000E-002   -5.703077905551257E-027
 -1.210000000000000E-002    1.249357460696828E-027
 -1.200000000000000E-002    9.183598292625031E-027
 -1.190000000000000E-002    1.746532050560382E-026
 -1.180000000000000E-002    2.536365555910984E-026
 -1.170000000000000E-002    3.211958891608236E-026
 -1.160000000000000E-002    3.701875357731511E-026
 -1.150000000000000E-002    3.945888333707859E-026
 -1.140000000000000E-002    3.900313782407555E-026
 -1.130000000000000E-002    3.541311083778511E-026
 -1.120000000000000E-002    2.865940761440069E-026
 -1.110000000000000E-002    1.891233129950484E-026
 -1.100000000000000E-002    6.519634264923773E-027
 -1.090000000000000E-002   -8.018806219574264E-027
 -1.080000000000000E-002   -2.406891484499302E-026
 -1.070000000000000E-002   -4.086488857959501E-026
 -1.060000000000000E-002   -5.749355156938334E-026
 -1.050000000000000E-002   -7.286562045661588E-026
 -1.040000000000000E-002   -8.568739539567856E-026
 -1.030000000000000E-002   -9.445381829695528E-026
 -1.020000000000000E-002   -9.748786614755669E-026
 -1.010000000000000E-002   -9.304983035506324E-026
 -1.000000000000000E-002   -7.953194888108396E-026
 -9.899999999999999E-003   -5.573882069982415E-026
 -9.800000000000000E-003   -2.123355321237453E-026
 -9.699999999999999E-003    2.329339034723118E-026
 -9.599999999999999E-003    7.569691703085814E-026
 -9.500000000000000E-003    1.321701895688176E-025
 -9.399999999999999E-003    1.872386360016496E-025
 -9.299999999999999E-003    2.340229354674696E-025
 -9.200000000000000E-003    2.648085169162938E-025
 -9.099999999999999E-003    2.719136064719563E-025
 -8.999999999999999E-003    2.487917135127837E-025
 -8.900000000000000E-003    1.912470028853625E-025
 -8.799999999999999E-003    9.859203466056463E-026
 -8.699999999999999E-003   -2.545125186854856E-026
 -8.600000000000000E-003   -1.723049021703675E-025
 -8.499999999999999E-003   -3.287034593500012E-025
 -8.399999999999999E-003   -4.775650614900890E-025
 -8.300000000000000E-003   -5.995505506362781E-025
 -8.199999999999999E-003   -6.751795837629629E-025
 -8.100000000000000E-003   -6.872594017022770E-025
 -8.000000000000000E-003   -6.232984816698840E-025
 -7.899999999999999E-003   -4.775384740111755E-025
 -7.800000000000000E-003   -2.522654948378519E-025
 -7.699999999999999E-003    4.184498707660520E-026
 -7.599999999999999E-003    3.864400322941641E-025
 -7.499999999999999E-003    7.571578751878089E-025
 -7.399999999999999E-003    1.125957397277043E-024
 -7.299999999999999E-003    1.463658869062161E-024
 -7.199999999999999E-003    1.742170019864723E-024
 -7.100000000000000E-003    1.935911310832150E-024
 -6.999999999999999E-003    2.022121295607903E-024
 -6.899999999999999E-003    1.980004317528047E-024
 -6.800000000000000E-003    1.789044186033205E-024
 -6.699999999999999E-003    1.427178749722882E-024
 -6.599999999999999E-003    8.698234303071189E-025
 -6.499999999999999E-003    9.086471142251336E-026
 -6.399999999999999E-003   -9.333659937437468E-025
 -6.299999999999999E-003   -2.216528299956055E-024
 -6.199999999999999E-003   -3.751185904890436E-024
 -6.100000000000000E-003   -5.495161604731942E-024
 -5.999999999999999E-003   -7.357294448846431E-024
 -5.899999999999999E-003   -9.185452454605144E-024
 -5.800000000000000E-003   -1.076027741166775E-023
 -5.699999999999999E-003   -1.179825360671952E-023
 -5.599999999999999E-003   -1.196717133507507E-023
 -5.499999999999999E-003   -1.091581272834878E-023
 -5.399999999999999E-003   -8.317774410289495E-024
 -5.299999999999999E-003   -3.926927716108726E-024
 -5.199999999999999E-003    2.360602309131214E-024
 -5.099999999999999E-003    1.044546672535192E-023
 -4.999999999999999E-003    1.997443602612571E-023
 -4.899999999999999E-003    3.031007941986668E-023
 -4.799999999999999E-003    4.053012594463603E-023
 -4.699999999999999E-003    4.946366005227783E-023
 -4.599999999999999E-003    5.576765452671527E-023
 -4.499999999999999E-003    5.804252952789805E-023
 -4.399999999999999E-003    5.498009429829984E-023
 -4.299999999999999E-003    4.553185319223699E-023
 -4.199999999999999E-003    2.908134026056427E-023
 -4.099999999999999E-003    5.601293405283598E-024
 -3.999999999999999E-003   -2.422416706739883E-023
 -3.899999999999999E-003   -5.893044565656749E-023
 -3.799999999999999E-003   -9.627058558517869E-023
 -3.699999999999999E-003   -1.332886943986535E-022
 -3.599999999999999E-003   -1.664699412316057E-022
 -3.499999999999999E-003   -1.919610032664370E-022
 -3.399999999999999E-003   -2.058486701726852E-022
 -3.299999999999999E-003   -2.044792242339404E-022
 -3.199999999999999E-003   -1.847984936634599E-022
 -3.099999999999999E-003   -1.446917262312469E-022
 -2.999999999999999E-003   -8.330314730575274E-023
 -2.899999999999999E-003   -1.316912927113016E-024
 -2.799999999999999E-003    9.881747919072626E-023
 -2.699999999999999E-003    2.127316162494095E-022
 -2.599999999999999E-003    3.340741405988924E-022
 -2.499999999999999E-003    4.545568534451371E-022
 -2.399999999999999E-003    5.641354354439561E-022
 -2.299999999999999E-003    6.513525760916914E-022
 -2.199999999999999E-003    7.038719700600787E-022
 -2.099999999999999E-003    7.092265780547312E-022
 -1.999999999999999E-003    6.557928300804893E-022
 -1.899999999999999E-003    5.339804814985166E-022
 -1.799999999999999E-003    3.375981792525345E-022
 -1.699999999999999E-003    6.531600344978039E-023
 -1.599999999999999E-003   -2.778953291113243E-022
 -1.499999999999999E-003   -6.795095393562747E-022
 -1.399999999999999E-003   -1.118567092163669E-021
 -1.299999999999999E-003   -1.565383784823822E-021
 -1.199999999999999E-003   -1.982048576005213E-021
 -1.099999999999999E-003   -2.323878985531338E-021
 -9.999999999999989E-004   -2.541936746791348E-021
 -8.999999999999990E-004   -2.586614285320898E-021
 -7.999999999999990E-004   -2.412184484481460E-021
 -6.999999999999989E-004   -1.982075617364853E-021
 -5.999999999999990E-004   -1.274503821823351E-021
 -4.999999999999989E-004   -2.879768392298600E-022
 -3.999999999999989E-004    9.539019222194948E-022
 -2.999999999999989E-004    2.398942793961427E-021
 -1.999999999999989E-004    3.964795237813638E-021
 -9.999999999999892E-005    5.539817690156892E-021
  1.084202172485504E-018    6.986788673807348E-021
  1.000000000000011E-004    8.149669644249773E-021
  2.000000000000011E-004    8.863392533055590E-021
  3.000000000000011E-004    8.966391104026220E-021
  4.000000000000011E-004    8.315319663597682E-021
  5.000000000000011E-004    6.801134326448132E-021
  6.000000000000011E-004    4.365476404793907E-021
  7.000000000000011E-004    1.016091768826263E-021
  8.000000000000011E-004   -3.160116477453451E-021
  9.000000000000012E-004   -7.987880521407037E-021
  1.000000000000001E-003   -1.319967605166711E-020
  1.100000000000001E-003   -1.843850090083365E-020
  1.200000000000001E-003   -2.326846428091688E-020
  1.300000000000001E-003   -2.719399219346996E-020
  1.400000000000001E-003   -2.968796164273818E-020
  1.500000000000001E-003   -3.022848081251747E-020
  1.600000000000001E-003   -2.834328579877347E-020
  1.700000000000001E-003   -2.365986052331493E-020
  1.800000000000001E-003   -1.595846518721753E-020
  1.900000000000001E-003   -5.224333786253764E-021
  2.000000000000001E-003    8.305558452030122E-021
  2.100000000000001E-003    2.410642242197916E-020
  2.200000000000001E-003    4.134591362929638E-020
  2.300000000000001E-003    5.888623554707449E-020
  2.400000000000001E-003    7.531306848386460E-020
  2.500000000000001E-003    8.899501768351283E-020
  2.600000000000001E-003    9.817534994907668E-020
  2.700000000000001E-003    1.010953534292136E-019
  2.800000000000001E-003    9.614547968254103E-020
  2.900000000000001E-003    8.203708677586088E-020
  3.000000000000001E-003    5.798405384590357E-020
  3.100000000000001E-003    2.388020874612473E-020
  3.200000000000001E-003   -1.954412224461935E-020
  3.300000000000001E-003   -7.060496819858488E-020
  3.400000000000001E-003   -1.266058091737935E-019
  3.500000000000001E-003   -1.838545750251022E-019
  3.600000000000001E-003   -2.377710991807434E-019
  3.700000000000001E-003   -2.830945035827392E-019
  3.800000000000001E-003   -3.141930484522954E-019
  3.900000000000001E-003   -3.254705820192073E-019
  4.000000000000001E-003   -3.118539196979419E-019
  4.100000000000001E-003   -2.693352844264208E-019
  4.200000000000001E-003   -1.955338454121165E-019
  4.300000000000001E-003   -9.023179306940337E-020
  4.400000000000001E-003    4.416657721558452E-020
  4.500000000000001E-003    2.023077710708774E-019
  4.600000000000002E-003    3.757485163015043E-019
  4.700000000000001E-003    5.530510002700952E-019
  4.800000000000001E-003    7.201527768603633E-019
  4.900000000000002E-003    8.610340881770238E-019
  5.000000000000001E-003    9.586845651557941E-019
  5.100000000000001E-003    9.963454899149254E-019
  5.200000000000001E-003    9.589760687821305E-019
  5.300000000000002E-003    8.348618722262795E-019
  5.400000000000001E-003    6.172562373201851E-019
  5.500000000000001E-003    3.059204116479491E-019
  5.600000000000002E-003   -9.158867760138419E-020
  5.700000000000001E-003   -5.590421231146719E-019
  5.800000000000001E-003   -1.071228246763365E-018
  5.900000000000002E-003   -1.594343238740976E-018
  6.000000000000001E-003   -2.087182594261699E-018
  6.100000000000001E-003   -2.503186630708443E-018
  6.200000000000002E-003   -2.793324653852969E-018
  6.300000000000002E-003   -2.909732957483065E-018
  6.400000000000001E-003   -2.809936717549071E-018
  6.500000000000001E-003   -2.461407301160311E-018
  6.600000000000002E-003   -1.846131436743048E-018
  6.700000000000001E-003   -9.648059964918924E-019
  6.800000000000001E-003    1.597619504043921E-019
  6.900000000000002E-003    1.480483140969332E-018
  7.000000000000001E-003    2.925445426418192E-018
  7.100000000000001E-003    4.399345458503192E-018
  7.200000000000002E-003    5.787125046172482E-018
  7.300000000000002E-003    6.959901580367240E-018
  7.400000000000001E-003    7.783105442442831E-018
  7.500000000000001E-003    8.126538288691382E-018
  7.600000000000002E-003    7.875852687608842E-018
  7.700000000000001E-003    6.944751552279492E-018
  7.800000000000001E-003    5.287024077608615E-018
  7.900000000000001E-003    2.907394168074878E-018
  8.000000000000002E-003   -1.299183265300526E-019
  8.100000000000001E-003   -3.696024895066697E-018
  8.200000000000001E-003   -7.596592697031590E-018
  8.300000000000002E-003   -1.157628797650426E-017
  8.400000000000001E-003   -1.532896539790019E-017
  8.500000000000002E-003   -1.851375039549339E-017
  8.600000000000002E-003   -2.077670693285401E-017
  8.700000000000001E-003   -2.177726282954070E-017
  8.800000000000002E-003   -2.121803849400397E-017
  8.900000000000002E-003   -1.887622282359436E-017
  9.000000000000001E-003   -1.463418786415274E-017
  9.100000000000002E-003   -8.506731487707067E-018
  9.200000000000002E-003   -6.621508926464134E-019
  9.300000000000001E-003    8.565586207599228E-018
  9.400000000000002E-003    1.867604273881412E-017
  9.500000000000001E-003    2.901483047715774E-017
  9.600000000000001E-003    3.880061060776835E-017
  9.700000000000002E-003    4.716675852779726E-017
  9.800000000000001E-003    5.321671715905352E-017
  9.900000000000001E-003    5.609074689104323E-017
  1.000000000000000E-002    5.504053654101276E-017
  1.010000000000000E-002    4.950690842627159E-017
  1.020000000000000E-002    3.919482476009222E-017
  1.030000000000000E-002    2.413925125651099E-017
  1.040000000000000E-002    4.755123202194781E-018
  1.050000000000000E-002   -1.813509166639862E-017
  1.060000000000000E-002   -4.330194145522488E-017
  1.070000000000000E-002   -6.914197390612340E-017
  1.080000000000000E-002   -9.374555824174500E-017
  1.090000000000000E-002   -1.149994688716758E-016
  1.100000000000000E-002   -1.307214308453898E-016
  1.110000000000000E-002   -1.388208275300985E-016
  1.120000000000000E-002   -1.374767567854978E-016
  1.130000000000000E-002   -1.253220622853287E-016
  1.140000000000000E-002   -1.016196587627845E-016
  1.150000000000000E-002   -6.641615232420288E-017
  1.160000000000000E-002   -2.065727356483992E-017
  1.170000000000000E-002    3.374958144443105E-017
  1.180000000000000E-002    9.393848601607707E-017
  1.190000000000000E-002    1.561632080065966E-016
  1.200000000000000E-002    2.159554933928350E-016
  1.210000000000000E-002    2.683628708643490E-016
  1.220000000000000E-002    3.082591044693311E-016
  1.230000000000000E-002    3.307137740397226E-016
  1.240000000000000E-002    3.314010098131407E-016
  1.250000000000000E-002    3.070213866418607E-016
  1.260000000000000E-002    2.557062021036407E-016
  1.270000000000000E-002    1.773704719225871E-016
  1.280000000000000E-002    7.397987568845561E-017
  1.290000000000000E-002   -5.030121758366846E-017
  1.300000000000000E-002   -1.891091224287753E-016
  1.310000000000000E-002   -3.340489248823893E-016
  1.320000000000000E-002   -4.750421035567589E-016
  1.330000000000000E-002   -6.008530868277535E-016
  1.340000000000000E-002   -6.997792904191734E-016
  1.350000000000000E-002   -7.604750804200405E-016
  1.360000000000000E-002   -7.728654979325392E-016
  1.370000000000000E-002   -7.290921933638770E-016
  1.380000000000000E-002   -6.244239746319496E-016
  1.390000000000000E-002   -4.580571186623347E-016
  1.400000000000000E-002   -2.337289880782736E-016
  1.410000000000000E-002    3.992790723165026E-017
  1.420000000000000E-002    3.493545581238096E-016
  1.430000000000000E-002    6.764036514755499E-016
  1.440000000000000E-002    9.990728009182644E-016
  1.450000000000000E-002    1.292631009454089E-015
  1.460000000000000E-002    1.531106563028830E-015
  1.470000000000000E-002    1.689072620814709E-015
  1.480000000000000E-002    1.743635445048512E-015
  1.490000000000000E-002    1.676501382149069E-015
  1.500000000000000E-002    1.475977060973456E-015
  1.510000000000000E-002    1.138741607417477E-015
  1.520000000000000E-002    6.712266459017764E-016
  1.530000000000000E-002    9.044705533047589E-017
  1.540000000000000E-002   -5.758537146146713E-016
  1.550000000000000E-002   -1.289845066128879E-015
  1.560000000000000E-002   -2.005093246210762E-015
  1.570000000000000E-002   -2.668887402545101E-015
  1.580000000000000E-002   -3.225341700537707E-015
  1.590000000000000E-002   -3.619143019500524E-015
  1.600000000000000E-002   -3.799744795193189E-015
  1.610000000000000E-002   -3.725751193148641E-015
  1.620000000000000E-002   -3.369185351981168E-015
  1.630000000000000E-002   -2.719308150896337E-015
  1.640000000000000E-002   -1.785642538903288E-015
  1.650000000000000E-002   -5.998758253465806E-016
  1.660000000000000E-002    7.836454357198160E-016
  1.670000000000000E-002    2.289042845656269E-015
  1.680000000000000E-002    3.821777759931771E-015
  1.690000000000000E-002    5.273269760535911E-015
  1.700000000000000E-002    6.527138108144874E-015
  1.710000000000000E-002    7.466804140041622E-015
  1.720000000000000E-002    7.984054131811405E-015
  1.730000000000000E-002    7.988049264003230E-015
  1.740000000000000E-002    7.414163795822898E-015
  1.750000000000000E-002    6.231977036558714E-015
  1.760000000000000E-002    4.451722002719626E-015
  1.770000000000000E-002    2.128524848478092E-015
  1.780000000000000E-002   -6.361460577021896E-016
  1.790000000000000E-002   -3.696265493298707E-015
  1.800000000000000E-002   -6.866527231903334E-015
  1.810000000000000E-002   -9.931136586648178E-015
  1.820000000000000E-002   -1.265589692926270E-014
  1.830000000000000E-002   -1.480307785857133E-014
  1.840000000000000E-002   -1.614831437089868E-014
  1.850000000000000E-002   -1.649852055196903E-014
  1.860000000000000E-002   -1.570962771786222E-014
  1.870000000000000E-002   -1.370282438451766E-014