 -4.000000000000000E-002    0.000000000000000E+000
 -3.990000000000000E-002    0.000000000000000E+000
 -3.980000000000000E-002    0.000000000000000E+000
 -3.970000000000000E-002    0.000000000000000E+000
 -3.960000000000000E-002    0.000000000000000E+000
 -3.950000000000000E-002    0.000000000000000E+000
 -3.940000000000000E-002    0.000000000000000E+000
 -3.930000000000000E-002    0.000000000000000E+000
 -3.920000000000000E-002    0.000000000000000E+000
 -3.910000000000000E-002    0.000000000000000E+000
 -3.900000000000000E-002    0.000000000000000E+000
 -3.890000000000000E-002    2.027860195894056E-037
 -3.880000000000000E-002    4.431532759865458E-036
 -3.870000000000000E-002    5.019765989025141E-035
 -3.860000000000000E-002    3.921125788611804E-034
 -3.850000000000000E-002    2.371245139151557E-033
 -3.840000000000000E-002    1.181762747392570E-032
 -3.830000000000000E-002    5.045973628711425E-032
 -3.820000000000000E-002    1.895008213201846E-031
 -3.810000000000000E-002    6.377340439831795E-031
 -3.800000000000000E-002    1.949896524767444E-030
 -3.790000000000000E-002    5.473068623555708E-030
 -3.780000000000000E-002    1.421394595288511E-029
 -3.770000000000000E-002    3.435817487862087E-029
 -3.760000000000000E-002    7.763011763501023E-029
 -3.750000000000000E-002    1.644037018851823E-028
 -3.740000000000000E-002    3.267334145622540E-028
 -3.730000000000000E-002    6.089699825755332E-028
 -3.720000000000000E-002    1.061065343175786E-027
 -3.710000000000000E-002    1.715953237714338E-027
 -3.700000000000000E-002    2.537903904586125E-027
 -3.690000000000000E-002    3.324817217879621E-027
 -3.680000000000000E-002    3.546772278005206E-027
 -3.670000000000000E-002    2.110295694598557E-027
 -3.660000000000000E-002   -2.941037868884716E-027
 -3.650000000000000E-002   -1.473684720862719E-026
 -3.640000000000000E-002   -3.777921509788594E-026
 -3.630000000000000E-002   -7.781266797094980E-026
 -3.620000000000000E-002   -1.410320580537603E-025
 -3.610000000000000E-002   -2.321889869852770E-025
 -3.600000000000000E-002   -3.511062574737086E-025
 -3.590000000000000E-002   -4.871862522292708E-025
 -3.580000000000000E-002   -6.117933701404777E-025
 -3.570000000000000E-002   -6.690003010067463E-025
 -3.560000000000000E-002   -5.661825642824345E-025
 -3.550000000000000E-002   -1.673348175998858E-025
 -3.540000000000000E-002    7.063513161064668E-025
 -3.530000000000000E-002    2.262453418486094E-024
 -3.520000000000000E-002    4.702498634927289E-024
 -3.510000000000000E-002    8.159150813268489E-024
 -3.500000000000000E-002    1.260047278717635E-023
 -3.490000000000000E-002    1.770170099107332E-023
 -3.480000000000000E-002    2.269415529360779E-023
 -3.470000000000000E-002    2.621405874415076E-023
 -3.460000000000000E-002    2.619036487416888E-023
 -3.450000000000000E-002    1.982805050374514E-023
 -3.440000000000000E-002    3.757927674258650E-024
 -3.430000000000000E-002   -2.556968067276611E-023
 -3.420000000000000E-002   -7.117866877340078E-023
 -3.410000000000000E-002   -1.345103535006031E-022
 -3.400000000000000E-002   -2.140370539260362E-022
 -3.390000000000000E-002   -3.036564199486491E-022
 -3.380000000000000E-002   -3.910940987394304E-022
 -3.370000000000000E-002   -4.566758342586431E-022
 -3.360000000000000E-002   -4.729588529047974E-022
 -3.350000000000000E-002   -4.058049876559790E-022
 -3.340000000000000E-002   -2.174941527496343E-022
 -3.330000000000000E-002    1.276276384755163E-022
 -3.320000000000000E-002    6.547371618895066E-022
 -3.310000000000000E-002    1.367584943550816E-021
 -3.300000000000000E-002    2.235873920671998E-021
 -3.290000000000000E-002    3.182623630043102E-021
 -3.280000000000000E-002    4.074024817521798E-021
 -3.270000000000000E-002    4.715058803657594E-021
 -3.260000000000000E-002    4.854644130798043E-021
 -3.250000000000000E-002    4.204063550075440E-021
 -3.240000000000000E-002    2.471679803609225E-021
 -3.230000000000000E-002   -5.847167774478085E-022
 -3.220000000000000E-002   -5.089263982062749E-021
 -3.210000000000000E-002   -1.096806083138219E-020
 -3.200000000000000E-002   -1.786718279350318E-020
 -3.190000000000000E-002   -2.508251646852811E-020
 -3.180000000000000E-002   -3.151922382068778E-020
 -3.170000000000000E-002   -3.570113198703532E-020
 -3.160000000000000E-002   -3.585027845737799E-020
 -3.150000000000000E-002   -3.005323305548433E-020
 -3.140000000000000E-002   -1.652283442975851E-020
 -3.130000000000000E-002    6.048615715041734E-021
 -3.120000000000000E-002    3.806561660198075E-020
 -3.110000000000000E-002    7.857601832446008E-020
 -3.100000000000000E-002    1.248496326764583E-019
 -3.090000000000000E-002    1.720692133649351E-019
 -3.080000000000000E-002    2.132266338832118E-019
 -3.070000000000000E-002    2.393193473558373E-019
 -3.060000000000000E-002    2.399301192357981E-019
 -3.050000000000000E-002    2.042438078744610E-019
 -3.040000000000000E-002    1.225073380396353E-019
 -3.030000000000000E-002   -1.212598215002162E-020
 -3.020000000000000E-002   -2.015041815801739E-019
 -3.010000000000000E-002   -4.403558555872081E-019
 -3.000000000000000E-002   -7.144366693817497E-019
 -2.990000000000000E-002   -9.992982152518445E-019
 -2.980000000000000E-002   -1.260057421436998E-018
 -2.970000000000000E-002   -1.452523207184765E-018
 -2.960000000000000E-002   -1.525957422233075E-018
 -2.950000000000000E-002   -1.427603799964016E-018
 -2.940000000000000E-002   -1.108917057228975E-018
 -2.930000000000000E-002   -5.331735381324110E-019
 -2.920000000000000E-002    3.161305940221303E-019
 -2.910000000000000E-002    1.426959719954817E-018
 -2.900000000000000E-002    2.751587576783931E-018
 -2.890000000000000E-002    4.201845661466764E-018
 -2.880000000000000E-002    5.648014462118729E-018
 -2.870000000000000E-002    6.922451303982435E-018
 -2.860000000000000E-002    7.828725387381265E-018
 -2.850000000000000E-002    8.156525682725277E-018
 -2.840000000000000E-002    7.701954172183581E-018
 -2.830000000000000E-002    6.292067269706821E-018
 -2.820000000000000E-002    3.811756690758279E-018
 -2.810000000000000E-002    2.303535381150188E-019
 -2.800000000000000E-002   -4.375166095838369E-018
 -2.790000000000000E-002   -9.803735723805091E-018
 -2.780000000000000E-002   -1.572376194032720E-017
 -2.770000000000000E-002   -2.167935227430679E-017
 -2.760000000000000E-002   -2.711092074704299E-017
 -2.750000000000000E-002   -3.139050676836554E-017
 -2.740000000000000E-002   -3.387051696763044E-017
 -2.730000000000000E-002   -3.394284427375205E-017
 -2.720000000000000E-002   -3.110368901177913E-017
 -2.710000000000000E-002   -2.501805727175029E-017
 -2.700000000000000E-002   -1.557713194568011E-017
 -2.690000000000000E-002   -2.941584994270704E-018
 -2.680000000000000E-002    1.243526089992613E-017
 -2.670000000000000E-002    2.980907717743714E-017
 -2.660000000000000E-002    4.817318417945428E-017
 -2.650000000000000E-002    6.631363639070938E-017
 -2.640000000000000E-002    8.288709606715059E-017
 -2.630000000000000E-002    9.651499963178173E-017
 -2.620000000000000E-002    1.058851606633774E-016
 -2.610000000000000E-002    1.098508156751584E-016
 -2.600000000000000E-002    1.075169402608923E-016
 -2.590000000000000E-002    9.830520001425566E-017
 -2.580000000000000E-002    8.199155615586632E-017
 -2.570000000000000E-002    5.871444955380396E-017
 -2.560000000000000E-002    2.895585778386342E-017
 -2.550000000000000E-002   -6.498160817040966E-018
 -2.540000000000000E-002   -4.660722416946209E-017
 -2.530000000000000E-002   -9.012476633400601E-017
 -2.520000000000000E-002   -1.356325483867223E-016
 -2.510000000000000E-002   -1.815525343214479E-016
 -2.500000000000000E-002   -2.261321727590710E-016
 -2.490000000000000E-002   -2.674062159836087E-016
 -2.480000000000000E-002   -3.031464690314731E-016
 -2.470000000000000E-002   -3.308187353252881E-016
 -2.460000000000000E-002   -3.475722801744027E-016
 -2.450000000000000E-002   -3.502897578063461E-016
 -2.440000000000000E-002   -3.357233173171296E-016
 -2.430000000000000E-002   -3.007347994173421E-016
 -2.420000000000000E-002   -2.426443020540438E-016
 -2.410000000000000E-002   -1.596724063740196E-016
 -2.400000000000000E-002   -5.143996462253331E-017
 -2.390000000000000E-002    8.053278528323485E-017
 -2.380000000000000E-002    2.324045699264270E-016
 -2.370000000000000E-002    3.977570966739769E-016
 -2.360000000000000E-002    5.675926075092144E-016
 -2.350000000000000E-002    7.306592200413077E-016
 -2.340000000000000E-002    8.741490035380017E-016
 -2.330000000000000E-002    9.847688483453958E-016
 -2.320000000000000E-002    1.050129266826520E-015
 -2.310000000000000E-002    1.060333138901849E-015
 -2.300000000000000E-002    1.009587953551215E-015
 -2.290000000000000E-002    8.976153296896316E-016
 -2.280000000000000E-002    7.306069984659651E-016
 -2.270000000000000E-002    5.214791693372298E-016
 -2.260000000000000E-002    2.892220467597505E-016
 -2.250000000000000E-002    5.722216130834785E-017
 -2.240000000000000E-002   -1.494404837077648E-016
 -2.230000000000000E-002   -3.075687158591175E-016
 -2.220000000000000E-002   -3.999801672091375E-016
 -2.210000000000000E-002   -4.197168175615860E-016
 -2.200000000000000E-002   -3.737266271603306E-016
 -2.190000000000000E-002   -2.853382982028314E-016
 -2.180000000000000E-002   -1.948574795100741E-016
 -2.170000000000000E-002   -1.577179390952533E-016
 -2.160000000000000E-002   -2.398294469861966E-016
 -2.150000000000000E-002   -5.100729688640359E-016
 -2.140000000000000E-002   -1.030279668140974E-015
 -2.130000000000000E-002   -1.843462382842436E-015
 -2.120000000000000E-002   -2.961486672583488E-015
 -2.110000000000000E-002   -4.353726827695322E-015
 -2.100000000000000E-002   -5.938484837645437E-015
 -2.090000000000000E-002   -7.578980481223406E-015
 -2.080000000000000E-002   -9.085542665915106E-015
 -2.070000000000000E-002   -1.022517364414266E-014
 -2.060000000000000E-002   -1.073897272289004E-014
 -2.050000000000000E-002   -1.036698905255670E-014
 -2.040000000000000E-002   -8.879050440318291E-015
 -2.030000000000000E-002   -6.109039943655718E-015
 -2.020000000000000E-002   -1.989154309381479E-015
 -2.010000000000000E-002    3.420035167609007E-015
 -2.000000000000000E-002    9.908197005096684E-015
 -1.990000000000000E-002    1.710680853117815E-014
 -1.980000000000000E-002    2.449720078176335E-014
 -1.970000000000000E-002    3.143723935801127E-014
 -1.960000000000000E-002    3.720693571608157E-014
 -1.950000000000000E-002    4.107104649268695E-014
 -1.940000000000000E-002    4.235432336434499E-014
 -1.930000000000000E-002    4.052280095921240E-014
 -1.920000000000000E-002    3.526265970845759E-014
 -1.910000000000000E-002    2.654705929347489E-014
 -1.900000000000000E-002    1.468123775517983E-014
 -1.890000000000000E-002    3.171705767390631E-016
 -1.880000000000000E-002   -1.556859383436197E-014
 -1.870000000000000E-002   -3.173695840111479E-014
 -1.860000000000000E-002   -4.678676229621324E-014
 -1.850000000000000E-002   -5.928755688987754E-014
 -1.840000000000000E-002   -6.793363925620546E-014
 -1.830000000000000E-002   -7.170404397625561E-014
 -1.820000000000000E-002   -7.001025506069437E-014
 -1.810000000000000E-002   -6.281213821783761E-014
 -1.800000000000000E-002   -5.068364051285195E-014
 -1.790000000000000E-002   -3.481319999098889E-014
 -1.780000000000000E-002   -1.692967587024986E-014
 -1.770000000000000E-002    8.477116062166996E-016
 -1.760000000000000E-002    1.622772653953321E-014
 -1.750000000000000E-002    2.701662919245245E-014
 -1.740000000000000E-002    3.141284053052749E-014
 -1.730000000000000E-002    2.829413464740965E-014
 -1.720000000000000E-002    1.746062032601115E-014
 -1.710000000000000E-002   -2.027554617190219E-016
 -1.700000000000000E-002   -2.267605832472154E-014
 -1.690000000000000E-002   -4.688907101542985E-014
 -1.680000000000000E-002   -6.895021066302244E-014
 -1.670000000000000E-002   -8.451274292296531E-014
 -1.660000000000000E-002   -8.925359165449082E-014
 -1.650000000000000E-002   -7.942306031722114E-014
 -1.640000000000000E-002   -5.240933243651563E-014
 -1.630000000000000E-002   -7.251931852707241E-015
 -1.620000000000000E-002    5.496440426729201E-014
 -1.610000000000000E-002    1.308992143116627E-013
 -1.600000000000000E-002    2.149795969726928E-013
 -1.590000000000000E-002    2.996865947989855E-013
 -1.580000000000000E-002    3.761068049610134E-013
 -1.570000000000000E-002    4.347203223072919E-013
 -1.560000000000000E-002    4.663643909041324E-013
 -1.550000000000000E-002    4.632842071569992E-013
 -1.540000000000000E-002    4.201610277692589E-013
 -1.530000000000000E-002    3.349967980065680E-013
 -1.520000000000000E-002    2.097373910030188E-013
 -1.510000000000000E-002    5.053243166459923E-014
 -1.500000000000000E-002   -1.324391808202037E-013
 -1.490000000000000E-002   -3.256067773683047E-013
 -1.480000000000000E-002   -5.130860987730377E-013
 -1.470000000000000E-002   -6.781221526234708E-013
 -1.460000000000000E-002   -8.047702790997756E-013
 -1.450000000000000E-002   -8.796467683443289E-013
 -1.440000000000000E-002   -8.935553373908208E-013
 -1.430000000000000E-002   -8.427896162397829E-013
 -1.420000000000000E-002   -7.299300497037549E-013
 -1.410000000000000E-002   -5.639937120625308E-013
 -1.400000000000000E-002   -3.598596134661413E-013
 -1.390000000000000E-002   -1.369690235677593E-013
 -1.380000000000000E-002    8.261314723103248E-014
 -1.370000000000000E-002    2.766024675238679E-013
 -1.360000000000000E-002    4.251215798083188E-013
 -1.350000000000000E-002    5.132515185851009E-013
 -1.340000000000000E-002    5.331912740583308E-013
 -1.330000000000000E-002    4.857245243178789E-013
 -1.320000000000000E-002    3.807457684155395E-013
 -1.310000000000000E-002    2.366897397327374E-013
 -1.300000000000000E-002    7.882412891712263E-014
 -1.290000000000000E-002   -6.349521061696425E-014
 -1.280000000000000E-002   -1.603722095355989E-013
 -1.270000000000000E-002   -1.853597566913270E-013
 -1.260000000000000E-002   -1.194361757233839E-013
 -1.250000000000000E-002    4.553326683221415E-014
 -1.240000000000000E-002    3.043438197803173E-013
 -1.230000000000000E-002    6.374318652091526E-013
 -1.220000000000000E-002    1.011582583807887E-012
 -1.210000000000000E-002    1.382478467699739E-012
 -1.200000000000000E-002    1.698986854347060E-012
 -1.190000000000000E-002    1.908858707913323E-012
 -1.180000000000000E-002    1.965296517386462E-012
 -1.170000000000000E-002    1.833681853463729E-012
 -1.160000000000000E-002    1.497644353184000E-012
 -1.150000000000000E-002    9.636396400280095E-013
 -1.140000000000000E-002    2.632849445744539E-013
 -1.130000000000000E-002   -5.471161660729712E-013
 -1.120000000000000E-002   -1.390159548183493E-012
 -1.110000000000000E-002   -2.173992207502235E-012
 -1.100000000000000E-002   -2.801619101512233E-012
 -1.090000000000000E-002   -3.182076363253577E-012
 -1.080000000000000E-002   -3.242372844205142E-012
 -1.070000000000000E-002   -2.938870734469207E-012
 -1.060000000000000E-002   -2.266681593884344E-012
 -1.050000000000000E-002   -1.265715219913106E-012
 -1.040000000000000E-002   -2.223706605780575E-014
 -1.030000000000000E-002    1.334818461124927E-012
 -1.020000000000000E-002    2.643021499132090E-012
 -1.010000000000000E-002    3.720759230166816E-012
 -1.000000000000000E-002    4.385692172853324E-012
 -9.899999999999999E-003    4.475793942836410E-012
 -9.800000000000000E-003    3.870925988261011E-012
 -9.699999999999999E-003    2.512610119978698E-012
 -9.599999999999999E-003    4.195858090819248E-013
 -9.500000000000000E-003   -2.303062874477916E-012
 -9.399999999999999E-003   -5.462969984496357E-012
 -9.299999999999999E-003   -8.788809246617195E-012
 -9.200000000000000E-003   -1.194804784290515E-011
 -9.099999999999999E-003   -1.457331924633418E-011
 -8.999999999999999E-003   -1.629559357028093E-011
 -8.900000000000000E-003   -1.678142068080469E-011
 -8.799999999999999E-003   -1.577081272019444E-011
 -8.699999999999999E-003   -1.311193699058485E-011
 -8.600000000000000E-003   -8.788757817355063E-012
 -8.499999999999999E-003   -2.938131415862758E-012
 -8.399999999999999E-003    4.146360713642480E-012
 -8.300000000000000E-003    1.202542676473430E-011
 -8.199999999999999E-003    2.014014255427473E-011
 -8.100000000000000E-003    2.785178851615439E-011
 -8.000000000000000E-003    3.449261696496921E-011
 -7.899999999999999E-003    3.942343548370399E-011
 -7.800000000000000E-003    4.209287832803640E-011
 -7.699999999999999E-003    4.209270177503852E-011
 -7.599999999999999E-003    3.920348189478451E-011
 -7.499999999999999E-003    3.342566396868366E-011
 -7.399999999999999E-003    2.499209904436074E-011
 -7.299999999999999E-003    1.435983210353320E-011
 -7.199999999999999E-003    2.180856010094442E-012
 -7.100000000000000E-003   -1.074630263280401E-011
 -6.999999999999999E-003   -2.354034014789459E-011
 -6.899999999999999E-003   -3.531063177281472E-011
 -6.800000000000000E-003   -4.523354785204449E-011
 -6.699999999999999E-003   -5.262420925482373E-011
 -6.599999999999999E-003   -5.699641866214674E-011
 -6.499999999999999E-003   -5.810447952851375E-011
 -6.399999999999999E-003   -5.596225505787097E-011
 -6.299999999999999E-003   -5.083712104567810E-011
 -6.199999999999999E-003   -4.321900596900217E-011
 -6.100000000000000E-003   -3.376744454026444E-011
 -5.999999999999999E-003   -2.324201827943142E-011
 -5.899999999999999E-003   -1.242358923175977E-011
 -5.800000000000000E-003   -2.034926422164918E-012
 -5.699999999999999E-003    7.330296776894452E-012
 -5.599999999999999E-003    1.526189548377809E-011
 -5.499999999999999E-003    2.156430918885347E-011
 -5.399999999999999E-003    2.626042915430649E-011
 -5.299999999999999E-003    2.956712820732456E-011
 -5.199999999999999E-003    3.184489169486024E-011
 -5.099999999999999E-003    3.352731875856007E-011
 -4.999999999999999E-003    3.503897701202798E-011
 -4.899999999999999E-003    3.671209642814201E-011
 -4.799999999999999E-003    3.871341413192238E-011
 -4.699999999999999E-003    4.099191657416677E-011
 -4.599999999999999E-003    4.325642468638350E-011
 -4.499999999999999E-003    4.498887613837855E-011
 -4.399999999999999E-003    4.549509930782912E-011
 -4.299999999999999E-003    4.399021403218886E-011
 -4.199999999999999E-003    3.971129626971822E-011
 -4.099999999999999E-003    3.204549041446194E-011
 -3.999999999999999E-003    2.065880998765952E-011
 -3.899999999999999E-003    5.609032502516254E-012
 -3.799999999999999E-003   -1.257381668477732E-011
 -3.699999999999999E-003   -3.285386210919628E-011
 -3.599999999999999E-003   -5.371320884004244E-011
 -3.499999999999999E-003   -7.323822851394270E-011
 -3.399999999999999E-003   -8.926673424590602E-011
 -3.299999999999999E-003   -9.958722483847380E-011
 -3.199999999999999E-003   -1.021744939682096E-010
 -3.099999999999999E-003   -9.544025298138674E-011
 -2.999999999999999E-003   -7.847294442339936E-011
 -2.899999999999999E-003   -5.123971667215649E-011
 -2.799999999999999E-003   -1.472413690028631E-011
 -2.699999999999999E-003    2.902240619205370E-011
 -2.599999999999999E-003    7.693124041225554E-011
 -2.499999999999999E-003    1.250753905638006E-010
 -2.399999999999999E-003    1.689331495243953E-010
 -2.299999999999999E-003    2.037413326963128E-010
 -2.199999999999999E-003    2.249129691263997E-010
 -2.099999999999999E-003    2.284852651450570E-010
 -1.999999999999999E-003    2.115578758031839E-010
 -1.899999999999999E-003    1.726785444224740E-010
 -1.799999999999999E-003    1.121351971506882E-010
 -1.699999999999999E-003    3.211855489739265E-011
 -1.599999999999999E-003   -6.327059236333171E-011
 -1.499999999999999E-003   -1.681830251001938E-010
 -1.399999999999999E-003   -2.753502903972954E-010
 -1.299999999999999E-003   -3.765642659978626E-010
 -1.199999999999999E-003   -4.632752983928995E-010
 -1.099999999999999E-003   -5.272637811754033E-010
 -9.999999999999989E-004   -5.613312501234937E-010
 -8.999999999999990E-004   -5.599520027969386E-010
 -7.999999999999990E-004   -5.198269943087376E-010
 -6.999999999999989E-004   -4.402876503099249E-010
 -5.999999999999990E-004   -3.235085839819586E-010
 -4.999999999999989E-004   -1.745033308774552E-010
 -3.999999999999989E-004   -8.956851615779394E-013
 -2.999999999999989E-004    1.875210932355011E-010
 -1.999999999999989E-004    3.794064188086937E-010
 -9.999999999999892E-005    5.626277035134146E-010
  1.084202172485504E-018    7.250894901500653E-010
  1.000000000000011E-004    8.555684097029262E-010
  2.000000000000011E-004    9.444865028870047E-010
  3.000000000000011E-004    9.845602537966040E-010
  4.000000000000011E-004    9.712744887441691E-010
  5.000000000000011E-004    9.031466271413044E-010
  6.000000000000011E-004    7.817660069099412E-010
  7.000000000000011E-004    6.116153555789754E-010
  8.000000000000011E-004    3.996999447748651E-010
  9.000000000000012E-004    1.550285968520240E-010
  1.000000000000001E-003   -1.119974218150888E-010
  1.100000000000001E-003   -3.902248029672116E-010
  1.200000000000001E-003   -6.683559716021936E-010
  1.300000000000001E-003   -9.354694993960026E-010
  1.400000000000001E-003   -1.181412079766221E-009
  1.500000000000001E-003   -1.397038664659125E-009
  1.600000000000001E-003   -1.574299842293592E-009
  1.700000000000001E-003   -1.706194664660309E-009
  1.800000000000001E-003   -1.786627958818878E-009
  1.900000000000001E-003   -1.810225544846084E-009
  2.000000000000001E-003   -1.772166475825432E-009
  2.100000000000001E-003   -1.668096080848995E-009
  2.200000000000001E-003   -1.494171654053821E-009
  2.300000000000001E-003   -1.247278002287324E-009
  2.400000000000001E-003   -9.254298660773964E-010
  2.500000000000001E-003   -5.283492877746405E-010
  2.600000000000001E-003   -5.817920946750559E-011
  2.700000000000001E-003    4.797311564526539E-010
  2.800000000000001E-003    1.076054804630959E-009
  2.900000000000001E-003    1.716829366943365E-009
  3.000000000000001E-003    2.383017594953937E-009
  3.100000000000001E-003    3.050380939041483E-009
  3.200000000000001E-003    3.689743573809323E-009
  3.300000000000001E-003    4.267699683557993E-009
  3.400000000000001E-003    4.747772610160458E-009
  3.500000000000001E-003    5.091999160921268E-009
  3.600000000000001E-003    5.262874034927410E-009
  3.700000000000001E-003    5.225538326619856E-009
  3.800000000000001E-003    4.950083103457031E-009
  3.900000000000001E-003    4.413802152630151E-009
  4.000000000000001E-003    3.603237512793044E-009
  4.100000000000001E-003    2.515864230972288E-009
  4.200000000000001E-003    1.161292916190514E-009
  4.300000000000001E-003   -4.381101021519470E-010
  4.400000000000001E-003   -2.247202630713489E-009
  4.500000000000001E-003   -4.218654664623045E-009
  4.600000000000002E-003   -6.294027334636825E-009
  4.700000000000001E-003   -8.405256738984093E-009
  4.800000000000001E-003   -1.047634746865499E-008
  4.900000000000002E-003   -1.242507314269323E-008
  5.000000000000001E-003   -1.416451183165023E-008
  5.100000000000001E-003   -1.560417289698576E-008
  5.200000000000001E-003   -1.665058321894656E-008
  5.300000000000002E-003   -1.720720585588245E-008
  5.400000000000001E-003   -1.717363728415154E-008
  5.500000000000001E-003   -1.644411652267177E-008
  5.600000000000002E-003   -1.490541605351911E-008
  5.700000000000001E-003   -1.243429167507569E-008
  5.800000000000001E-003   -8.894673131917477E-009
  5.900000000000002E-003   -4.134914070151062E-009
  6.000000000000001E-003    2.014712552182274E-009
  6.100000000000001E-003    9.743970377399978E-009
  6.200000000000002E-003    1.926389604774655E-008
  6.300000000000002E-003    3.080710013584264E-008
  6.400000000000001E-003    4.462698934850206E-008
  6.500000000000001E-003    6.099618893529784E-008
  6.600000000000002E-003    8.020399602312047E-008
  6.700000000000001E-003    1.025529562644175E-007
  6.800000000000001E-003    1.283552854432437E-007
  6.900000000000002E-003    1.579289434546835E-007
  7.000000000000001E-003    1.915939145187895E-007
  7.100000000000001E-003    2.296690700453867E-007
  7.200000000000002E-003    2.724697710575674E-007
  7.300000000000002E-003    3.203064518461676E-007
  7.400000000000001E-003    3.734844866537565E-007
  7.500000000000001E-003    4.323050979220828E-007
  7.600000000000002E-003    4.970677631467633E-007
  7.700000000000001E-003    5.680730712654457E-007
  7.800000000000001E-003    6.456269198129454E-007
  7.900000000000001E-003    7.300449105777697E-007
  8.000000000000002E-003    8.216566493241753E-007
  8.100000000000001E-003    9.208103978249604E-007
  8.200000000000001E-003    1.027876663169080E-006
  8.300000000000002E-003    1.143251408717133E-006
  8.400000000000001E-003    1.267358410783870E-006
  8.500000000000002E-003    1.400650170597328E-006
  8.600000000000002E-003    1.543608545225291E-006
  8.700000000000001E-003    1.696744143439494E-006
  8.800000000000002E-003    1.860595267709136E-006
  8.900000000000002E-003    2.035727323540701E-006
  9.000000000000001E-003    2.222730964379302E-006
  9.100000000000002E-003    2.422221691208315E-006
  9.200000000000002E-003    2.634839524318295E-006
  9.300000000000001E-003    2.861250466455706E-006
  9.400000000000002E-003    3.102148059710038E-006
  9.500000000000001E-003    3.358255648440176E-006
  9.600000000000001E-003    3.630330550674466E-006
  9.700000000000002E-003    3.919168729249148E-006
  9.800000000000001E-003    4.225608862109687E-006
  9.900000000000001E-003    4.550537975002728E-006
  1.000000000000000E-002    4.894896848980670E-006
  1.010000000000000E-002    5.259683254210947E-006
  1.020000000000000E-002    5.645957063900034E-006
  1.030000000000000E-002    6.054842204834244E-006
  1.040000000000000E-002    6.487529808324995E-006
  1.050000000000000E-002    6.945280222192589E-006
  1.060000000000000E-002    7.429422750565805E-006
  1.070000000000000E-002    7.941357146792369E-006
  1.080000000000000E-002    8.482555881854112E-006
  1.090000000000000E-002    9.054564286716263E-006
  1.100000000000000E-002    9.659005151536566E-006
  1.110000000000000E-002    1.029758283975003E-005
  1.120000000000000E-002    1.097208733662164E-005
  1.130000000000000E-002    1.168440475015797E-005
  1.140000000000000E-002    1.243652540348949E-005
  1.150000000000000E-002    1.323055185341835E-005
  1.160000000000000E-002    1.406871393318847E-005
  1.170000000000000E-002    1.495337970430459E-005
  1.180000000000000E-002    1.588706523033726E-005
  1.190000000000000E-002    1.687244792997884E-005
  1.200000000000000E-002    1.791237549090220E-005
  1.210000000000000E-002    1.900987099372947E-005
  1.220000000000000E-002    2.016814408546497E-005
  1.230000000000000E-002    2.139058796253890E-005
  1.240000000000000E-002    2.268078445109498E-005
  1.250000000000000E-002    2.404249790628513E-005
  1.260000000000000E-002    2.547967765908455E-005
  1.270000000000000E-002    2.699645029250630E-005
  1.280000000000000E-002    2.859711652805830E-005
  1.290000000000000E-002    3.028614629131946E-005
  1.300000000000000E-002    3.206818294550469E-005
  1.310000000000000E-002    3.394803484172297E-005
  1.320000000000000E-002    3.593068623201326E-005
  1.330000000000000E-002    3.802129814417028E-005
  1.340000000000000E-002    4.022522533294163E-005
  1.350000000000000E-002    4.254802492514538E-005
  1.360000000000000E-002    4.499547953095229E-005
  1.370000000000000E-002    4.757360553675493E-005
  1.380000000000000E-002    5.028869406954168E-005
  1.390000000000000E-002    5.314731079053554E-005
  1.400000000000000E-002    5.615633807355612E-005
  1.410000000000000E-002    5.932297760216763E-005
  1.420000000000000E-002    6.265478456816886E-005
  1.430000000000000E-002    6.615968523520717E-005
  1.440000000000000E-002    6.984598399751171E-005
  1.450000000000000E-002    7.372237324748313E-005
  1.460000000000000E-002    7.779795442478522E-005
  1.470000000000000E-002    8.208224161690643E-005
  1.480000000000000E-002    8.658516174878391E-005
  1.490000000000000E-002    9.131706076969183E-005
  1.500000000000000E-002    9.628873707183675E-005
  1.510000000000000E-002    1.015114033486351E-004
  1.520000000000000E-002    1.069967324571865E-004
  1.530000000000000E-002    1.127568635474758E-004
  1.540000000000000E-002    1.188043887493952E-004
  1.550000000000000E-002    1.251524175913853E-004
  1.560000000000000E-002    1.318145657326638E-004
  1.570000000000000E-002    1.388049678086773E-004
  1.580000000000000E-002    1.461383452833014E-004
  1.590000000000000E-002    1.538299675831446E-004
  1.600000000000000E-002    1.618957330965356E-004
  1.610000000000000E-002    1.703521575800084E-004
  1.620000000000000E-002    1.792163871319517E-004
  1.630000000000000E-002    1.885062559471424E-004
  1.640000000000000E-002    1.982402670824146E-004
  1.650000000000000E-002    2.084376173902010E-004
  1.660000000000000E-002    2.191182012459132E-004
  1.670000000000000E-002    2.303026393405343E-004
  1.680000000000000E-002    2.420122795818701E-004
  1.690000000000000E-002    2.542692140531174E-004
  1.700000000000000E-002    2.670962538398466E-004
  1.710000000000000E-002    2.805170221214272E-004
  1.720000000000000E-002    2.945559001607545E-004
  1.730000000000000E-002    3.092380953936374E-004
  1.740000000000000E-002    3.245896885329101E-004
  1.750000000000000E-002    3.406375937449861E-004
  1.760000000000000E-002    3.574096645370077E-004
  1.770000000000000E-002    3.749346955368507E-004
  1.780000000000000E-002    3.932424752850707E-004
  1.790000000000000E-002    4.123638175699176E-004
  1.800000000000000E-002    4.323305420466020E-004
  1.810000000000000E-002    4.531756498307678E-004
  1.820000000000000E-002    4.749332199030329E-004
  1.830000000000000E-002    4.976384335791453E-004
  1.840000000000000E-002    5.213277102636823E-004
  1.850000000000000E-002    5.460385793603454E-004
  1.860000000000000E-002    5.718097566887084E-004
  1.870000000000000E-002    5.986811270951637E-004