 -4.000000000000000E-002    0.000000000000000E+000
 -3.990000000000000E-002    0.000000000000000E+000
 -3.980000000000000E-002    0.000000000000000E+000
 -3.970000000000000E-002    0.000000000000000E+000
 -3.960000000000000E-002    1.914971858542223E-017
 -3.950000000000000E-002    1.659113285023833E-016
 -3.940000000000000E-002    7.903996450915691E-016
 -3.930000000000000E-002    2.731039036926070E-015
 -3.920000000000000E-002    7.629059490016876E-015
 -3.910000000000000E-002    1.823006473685397E-014
 -3.900000000000000E-002    3.853210258000418E-014
 -3.890000000000000E-002    7.359056300421678E-014
 -3.880000000000000E-002    1.287723513476592E-013
 -3.870000000000000E-002    2.082861903782144E-013
 -3.860000000000000E-002    3.129185219610288E-013
 -3.850000000000000E-002    4.370798678307457E-013
 -3.840000000000000E-002    5.655027515351423E-013
 -3.830000000000000E-002    6.701951717307890E-013
 -3.820000000000000E-002    7.084922795424813E-013
 -3.810000000000000E-002    6.231933689242000E-013
 -3.800000000000000E-002    3.457556421732995E-013
 -3.790000000000000E-002   -1.967225422761579E-013
 -3.780000000000000E-002   -1.070478227178479E-012
 -3.770000000000000E-002   -2.320484158418611E-012
 -3.760000000000000E-002   -3.953606613788989E-012
 -3.750000000000000E-002   -5.921750124620418E-012
 -3.740000000000000E-002   -8.107970774181289E-012
 -3.730000000000000E-002   -1.031895431063353E-011
 -3.720000000000000E-002   -1.228714893858197E-011
 -3.710000000000000E-002   -1.368510090605592E-011
 -3.700000000000000E-002   -1.415312806768114E-011
 -3.690000000000000E-002   -1.333947043524402E-011
 -3.680000000000000E-002   -1.094968846301099E-011
 -3.670000000000000E-002   -6.799731314555102E-012
 -3.660000000000000E-002   -8.651080375548010E-013
 -3.650000000000000E-002    6.682493806871561E-012
 -3.640000000000000E-002    1.545968953267732E-011
 -3.630000000000000E-002    2.488389051321119E-011
 -3.620000000000000E-002    3.421759064543096E-011
 -3.610000000000000E-002    4.264378379113168E-011
 -3.600000000000000E-002    4.936662472666495E-011
 -3.590000000000000E-002    5.372613640748599E-011
 -3.580000000000000E-002    5.531126290547724E-011
 -3.570000000000000E-002    5.405279939950766E-011
 -3.560000000000000E-002    5.027742054461071E-011
 -3.550000000000000E-002    4.470669082788518E-011
 -3.540000000000000E-002    3.839069028617710E-011
 -3.530000000000000E-002    3.257431656294396E-011
 -3.520000000000000E-002    2.850444189067182E-011
 -3.510000000000000E-002    2.719678133438036E-011
 -3.500000000000000E-002    2.919071730906622E-011
 -3.490000000000000E-002    3.432721160544915E-011
 -3.480000000000000E-002    4.158714357060767E-011
 -3.470000000000000E-002    4.902498488887266E-011
 -3.460000000000000E-002    5.382424664846218E-011
 -3.450000000000000E-002    5.248817729353166E-011
 -3.440000000000000E-002    4.116213541233786E-011
 -3.430000000000000E-002    1.606556459273780E-011
 -3.420000000000000E-002   -2.600588032713504E-011
 -3.410000000000000E-002   -8.716215519323352E-011
 -3.400000000000000E-002   -1.679460730002397E-010
 -3.390000000000000E-002   -2.669690078282949E-010
 -3.380000000000000E-002   -3.807088897720977E-010
 -3.370000000000000E-002   -5.035097485048696E-010
 -3.360000000000000E-002   -6.277987053381601E-010
 -3.350000000000000E-002   -7.445108414692419E-010
 -3.340000000000000E-002   -8.436865231707164E-010
 -3.330000000000000E-002   -9.151825695934168E-010
 -3.320000000000000E-002   -9.494241829137088E-010
 -3.310000000000000E-002   -9.381177121082629E-010
 -3.300000000000000E-002   -8.748506471464583E-010
 -3.290000000000000E-002   -7.555208624806524E-010
 -3.280000000000000E-002   -5.785611678096823E-010
 -3.270000000000000E-002   -3.449564027555895E-010
 -3.260000000000000E-002   -5.808014333319326E-011
 -3.250000000000000E-002    2.765955228646502E-010
 -3.240000000000000E-002    6.518448519733650E-010
 -3.230000000000000E-002    1.059010409118091E-009
 -3.220000000000000E-002    1.488234565061277E-009
 -3.210000000000000E-002    1.928550066532059E-009
 -3.200000000000000E-002    2.367817593284340E-009
 -3.190000000000000E-002    2.792529811389440E-009
 -3.180000000000000E-002    3.187545388085755E-009
 -3.170000000000000E-002    3.535843707261946E-009
 -3.160000000000000E-002    3.818412263033445E-009
 -3.150000000000000E-002    4.014378500613783E-009
 -3.140000000000000E-002    4.101481338729049E-009
 -3.130000000000000E-002    4.056938968382141E-009
 -3.120000000000000E-002    3.858719674893788E-009
 -3.110000000000000E-002    3.487160950600637E-009
 -3.100000000000000E-002    2.926822344382200E-009
 -3.090000000000000E-002    2.168409186342271E-009
 -3.080000000000000E-002    1.210564512100355E-009
 -3.070000000000000E-002    6.132618884483064E-011
 -3.060000000000000E-002   -1.260943017740632E-009
 -3.050000000000000E-002   -2.727294662733799E-009
 -3.040000000000000E-002   -4.298675945603733E-009
 -3.030000000000000E-002   -5.927151946905146E-009
 -3.020000000000000E-002   -7.557772026089654E-009
 -3.010000000000000E-002   -9.130919079029310E-009
 -3.000000000000000E-002   -1.058491518453815E-008
 -2.990000000000000E-002   -1.185864310672157E-008
 -2.980000000000000E-002   -1.289394601207377E-008
 -2.970000000000000E-002   -1.363761643578735E-008
 -2.960000000000000E-002   -1.404285904064814E-008
 -2.950000000000000E-002   -1.407020496842732E-008
 -2.940000000000000E-002   -1.368795341931999E-008
 -2.930000000000000E-002   -1.287230108502903E-008
 -2.920000000000000E-002   -1.160738027955155E-008
 -2.910000000000000E-002   -9.885441609873381E-009
 -2.900000000000000E-002   -7.707402895378492E-009
 -2.890000000000000E-002   -5.083896420749713E-009
 -2.880000000000000E-002   -2.036858324025849E-009
 -2.870000000000000E-002    1.398447336615009E-009
 -2.860000000000000E-002    5.171199767716575E-009
 -2.850000000000000E-002    9.212948471953685E-009
 -2.840000000000000E-002    1.343612628348897E-008
 -2.830000000000000E-002    1.773360403139306E-008
 -2.820000000000000E-002    2.197969602806913E-008
 -2.810000000000000E-002    2.603289492109360E-008
 -2.800000000000000E-002    2.974046225538472E-008
 -2.790000000000000E-002    3.294475064823875E-008
 -2.780000000000000E-002    3.549092641110862E-008
 -2.770000000000000E-002    3.723551555429025E-008
 -2.760000000000000E-002    3.805504961243439E-008
 -2.750000000000000E-002    3.785399770632643E-008
 -2.740000000000000E-002    3.657115459588139E-008
 -2.730000000000000E-002    3.418379927459302E-008
 -2.720000000000000E-002    3.070913534363464E-008
 -2.710000000000000E-002    2.620281856215814E-008
 -2.700000000000000E-002    2.075470833780114E-008
 -2.690000000000000E-002    1.448233409535004E-008
 -2.680000000000000E-002    7.522849317275592E-009
 -2.670000000000000E-002    2.445774574744398E-011
 -2.660000000000000E-002   -7.861616903504605E-009
 -2.650000000000000E-002   -1.598759816311632E-008
 -2.640000000000000E-002   -2.421325008211460E-008
 -2.630000000000000E-002   -3.240709619687670E-008
 -2.620000000000000E-002   -4.044469441153999E-008
 -2.610000000000000E-002   -4.820433397312386E-008
 -2.600000000000000E-002   -5.556098719291481E-008
 -2.590000000000000E-002   -6.237960955364529E-008
 -2.580000000000000E-002   -6.850922061787651E-008
 -2.570000000000000E-002   -7.377907808507765E-008
 -2.560000000000000E-002   -7.799819924036324E-008
 -2.550000000000000E-002   -8.095910372430382E-008
 -2.540000000000000E-002   -8.244608375236076E-008
 -2.530000000000000E-002   -8.224776594078212E-008
 -2.520000000000000E-002   -8.017307177917309E-008
 -2.510000000000000E-002   -7.606909848641353E-008
 -2.500000000000000E-002   -6.983900898642745E-008
 -2.490000000000000E-002   -6.145779867476782E-008
 -2.480000000000000E-002   -5.098382117388279E-008
 -2.470000000000000E-002   -3.856423854818042E-008
 -2.460000000000000E-002   -2.443308525336097E-008
 -2.450000000000000E-002   -8.901385371032033E-009
 -2.440000000000000E-002    7.660388748619500E-009
 -2.430000000000000E-002    2.484639599320649E-008
 -2.420000000000000E-002    4.224408320695647E-008
 -2.410000000000000E-002    5.946487737859185E-008
 -2.400000000000000E-002    7.617411986386124E-008
 -2.390000000000000E-002    9.211723714616658E-008
 -2.380000000000000E-002    1.071397316828227E-007
 -2.370000000000000E-002    1.211989351537791E-007
 -2.360000000000000E-002    1.343665470134119E-007
 -2.350000000000000E-002    1.468218058530016E-007
 -2.340000000000000E-002    1.588364187448227E-007
 -2.330000000000000E-002    1.707530020458932E-007
 -2.320000000000000E-002    1.829599199128728E-007
 -2.310000000000000E-002    1.958653532344208E-007
 -2.300000000000000E-002    2.098739267637900E-007
 -2.290000000000000E-002    2.253687277494891E-007
 -2.280000000000000E-002    2.427007077462126E-007
 -2.270000000000000E-002    2.621869729385896E-007
 -2.260000000000000E-002    2.841178804305628E-007
 -2.250000000000000E-002    3.087721485554295E-007
 -2.240000000000000E-002    3.364377899607543E-007
 -2.230000000000000E-002    3.674361849269684E-007
 -2.220000000000000E-002    4.021462825693372E-007
 -2.210000000000000E-002    4.410250621282745E-007
 -2.200000000000000E-002    4.846217243132450E-007
 -2.190000000000000E-002    5.335833347227463E-007
 -2.180000000000000E-002    5.886500908348958E-007
 -2.170000000000000E-002    6.506406080048691E-007
 -2.160000000000000E-002    7.204283232223191E-007
 -2.150000000000000E-002    7.989103820068446E-007
 -2.140000000000000E-002    8.869725670841568E-007
 -2.130000000000000E-002    9.854541817713877E-007
 -2.120000000000000E-002    1.095115492604977E-006
 -2.110000000000000E-002    1.216613117249895E-006
 -2.100000000000000E-002    1.350483195653475E-006
 -2.090000000000000E-002    1.497137653430720E-006
 -2.080000000000000E-002    1.656872604597461E-006
 -2.070000000000000E-002    1.829887820314804E-006
 -2.060000000000000E-002    2.016318114607368E-006
 -2.050000000000000E-002    2.216272556681229E-006
 -2.040000000000000E-002    2.429879250152717E-006
 -2.030000000000000E-002    2.657330537383163E-006
 -2.020000000000000E-002    2.898927758642928E-006
 -2.010000000000000E-002    3.155120294518832E-006
 -2.000000000000000E-002    3.426537226806136E-006
 -1.990000000000000E-002    3.714007552178911E-006
 -1.980000000000000E-002    4.018571829978832E-006
 -1.970000000000000E-002    4.341480192497661E-006
 -1.960000000000000E-002    4.684182436699894E-006
 -1.950000000000000E-002    5.048305183560257E-006
 -1.940000000000000E-002    5.435626150190871E-006
 -1.930000000000000E-002    5.848040685998115E-006
 -1.920000000000000E-002    6.287525711794886E-006
 -1.910000000000000E-002    6.756109166125785E-006
 -1.900000000000000E-002    7.255835129190928E-006
 -1.890000000000000E-002    7.788738528457963E-006
 -1.880000000000000E-002    8.356827463420262E-006
 -1.870000000000000E-002    8.962073459366960E-006
 -1.860000000000000E-002    9.606408432783213E-006
 -1.850000000000000E-002    1.029173482910154E-005
 -1.840000000000000E-002    1.101994103474881E-005
 -1.830000000000000E-002    1.179293098740392E-005
 -1.820000000000000E-002    1.261265172037963E-005
 -1.810000000000000E-002    1.348112908754548E-005
 -1.800000000000000E-002    1.440050926701830E-005
 -1.790000000000000E-002    1.537308930630195E-005
 -1.780000000000000E-002    1.640134814991299E-005
 -1.770000000000000E-002    1.748797322364974E-005
 -1.760000000000000E-002    1.863587277779538E-005
 -1.750000000000000E-002    1.984818523927385E-005
 -1.740000000000000E-002    2.112827162911285E-005
 -1.730000000000000E-002    2.247970494516511E-005
 -1.720000000000000E-002    2.390625805621678E-005
 -1.710000000000000E-002    2.541188478886542E-005
 -1.700000000000000E-002    2.700070138587440E-005
 -1.690000000000000E-002    2.867698388950706E-005
 -1.680000000000000E-002    3.044517293399499E-005
 -1.670000000000000E-002    3.230990057513648E-005
 -1.660000000000000E-002    3.427602439685138E-005
 -1.650000000000000E-002    3.634869578678296E-005
 -1.640000000000000E-002    3.853343775093860E-005
 -1.630000000000000E-002    4.083622822465984E-005
 -1.620000000000000E-002    4.326360390431248E-005
 -1.610000000000000E-002    4.582276169182085E-005
 -1.600000000000000E-002    4.852163648671466E-005
 -1.590000000000000E-002    5.136899957337539E-005
 -1.580000000000000E-002    5.437447451655943E-005
 -1.570000000000000E-002    5.754857800315721E-005
 -1.560000000000000E-002    6.090270114824203E-005
 -1.550000000000000E-002    6.444906634661648E-005
 -1.540000000000000E-002    6.820064624415455E-005
 -1.530000000000000E-002    7.217107395084344E-005
 -1.520000000000000E-002    7.637452704905950E-005
 -1.510000000000000E-002    8.082562197021093E-005
 -1.500000000000000E-002    8.553932117272100E-005
 -1.490000000000000E-002    9.053084737022530E-005
 -1.480000000000000E-002    9.581563929985161E-005
 -1.470000000000000E-002    1.014093314207970E-004
 -1.460000000000000E-002    1.073278041745669E-004
 -1.450000000000000E-002    1.135871976092379E-004
 -1.440000000000000E-002    1.202040601441635E-004
 -1.430000000000000E-002    1.271954242027518E-004
 -1.420000000000000E-002    1.345789149336493E-004
 -1.410000000000000E-002    1.423728882131133E-004
 -1.400000000000000E-002    1.505964999978938E-004
 -1.390000000000000E-002    1.592697983171369E-004
 -1.380000000000000E-002    1.684137319015100E-004
 -1.370000000000000E-002    1.780501850915251E-004
 -1.360000000000000E-002    1.882019066920982E-004
 -1.350000000000000E-002    1.988924658305164E-004
 -1.340000000000000E-002    2.101461620206416E-004
 -1.330000000000000E-002    2.219879854506778E-004
 -1.320000000000000E-002    2.344435179425565E-004
 -1.310000000000000E-002    2.475388676467295E-004
 -1.300000000000000E-002    2.613007446019214E-004
 -1.290000000000000E-002    2.757564242230145E-004
 -1.280000000000000E-002    2.909338249195573E-004
 -1.270000000000000E-002    3.068616141987747E-004
 -1.260000000000000E-002    3.235694165809696E-004
 -1.250000000000000E-002    3.410879420637673E-004
 -1.240000000000000E-002    3.594491432037775E-004
 -1.230000000000000E-002    3.786863357634841E-004
 -1.220000000000000E-002    3.988344585571469E-004
 -1.210000000000000E-002    4.199300067146339E-004
 -1.200000000000000E-002    4.420112109909094E-004
 -1.190000000000000E-002    4.651180002295085E-004
 -1.180000000000000E-002    4.892920000592350E-004
 -1.170000000000000E-002    5.145764611733779E-004
 -1.160000000000000E-002    5.410162475913775E-004
 -1.150000000000000E-002    5.686576671613618E-004
 -1.140000000000000E-002    5.975484936541619E-004
 -1.130000000000000E-002    6.277379114823881E-004
 -1.120000000000000E-002    6.592765959845648E-004
 -1.110000000000000E-002    6.922167283496912E-004
 -1.100000000000000E-002    7.266119849393269E-004
 -1.090000000000000E-002    7.625178758396670E-004
 -1.080000000000000E-002    7.999917720837669E-004
 -1.070000000000000E-002    8.390930559077994E-004
 -1.060000000000000E-002    8.798834415707700E-004
 -1.050000000000000E-002    9.224271079635221E-004
 -1.040000000000000E-002    9.667906105745175E-004
 -1.030000000000000E-002    1.013043444593597E-003
 -1.020000000000000E-002    1.061257632043666E-003
 -1.010000000000000E-002    1.111508106742762E-003
 -1.000000000000000E-002    1.163872654913632E-003
 -9.899999999999999E-003    1.218431921279675E-003
 -9.800000000000000E-003    1.275269420748259E-003
 -9.699999999999999E-003    1.334471623514437E-003
 -9.599999999999999E-003    1.396128057056973E-003
 -9.500000000000000E-003    1.460331190000756E-003
 -9.399999999999999E-003    1.527176722327065E-003
 -9.299999999999999E-003    1.596763787339340E-003
 -9.200000000000000E-003    1.669195084839278E-003
 -9.099999999999999E-003    1.744576754443566E-003
 -8.999999999999999E-003    1.823019224424798E-003
 -8.900000000000000E-003    1.904636643923716E-003
 -8.799999999999999E-003    1.989547188925243E-003
 -8.699999999999999E-003    2.077873639060082E-003
 -8.600000000000000E-003    2.169742367242352E-003
 -8.499999999999999E-003    2.265284506493320E-003
 -8.399999999999999E-003    2.364634644991420E-003
 -8.300000000000000E-003    2.467931879853224E-003
 -8.199999999999999E-003    2.575318562271828E-003
 -8.100000000000000E-003    2.686941159916780E-003
 -8.000000000000000E-003    2.802949789342453E-003
 -7.899999999999999E-003    2.923498002005445E-003
 -7.800000000000000E-003    3.048743162305574E-003
 -7.699999999999999E-003    3.178846245329314E-003
 -7.599999999999999E-003    3.313972301563750E-003
 -7.499999999999999E-003    3.454289751069726E-003
 -7.399999999999999E-003    3.599971529540283E-003
 -7.299999999999999E-003    3.751194778272393E-003
 -7.199999999999999E-003    3.908140009908444E-003
 -7.100000000000000E-003    4.070993408996085E-003
 -6.999999999999999E-003    4.239944028753653E-003
 -6.899999999999999E-003    4.415185939047550E-003
 -6.800000000000000E-003    4.596916707169465E-003
 -6.699999999999999E-003    4.785337877269630E-003
 -6.599999999999999E-003    4.980654626181195E-003
 -6.499999999999999E-003    5.183075120561706E-003
 -6.399999999999999E-003    5.392811186287311E-003
 -6.299999999999999E-003    5.610077844849186E-003
 -6.199999999999999E-003    5.835093172859928E-003
 -6.100000000000000E-003    6.068077701851510E-003
 -5.999999999999999E-003    6.309256402025065E-003
 -5.899999999999999E-003    6.558856725178083E-003
 -5.800000000000000E-003    6.817110565070780E-003
 -5.699999999999999E-003    7.084253520417411E-003
 -5.599999999999999E-003    7.360526358399791E-003
 -5.499999999999999E-003    7.646171818193453E-003
 -5.399999999999999E-003    7.941439573312710E-003
 -5.299999999999999E-003    8.246582133016576E-003
 -5.199999999999999E-003    8.561856636810363E-003
 -5.099999999999999E-003    8.887523753070390E-003
 -4.999999999999999E-003    9.223848146592028E-003
 -4.899999999999999E-003    9.571096897846370E-003
 -4.799999999999999E-003    9.929539525641157E-003
 -4.699999999999999E-003    1.029944739786084E-002
 -4.599999999999999E-003    1.068109375573704E-002
 -4.499999999999999E-003    1.107475268161903E-002
 -4.399999999999999E-003    1.148070061474129E-002
 -4.299999999999999E-003    1.189921226244886E-002
 -4.199999999999999E-003    1.233056604239680E-002
 -4.099999999999999E-003    1.277503970529054E-002
 -3.999999999999999E-003    1.323291370729679E-002
 -3.899999999999999E-003    1.370446836856562E-002
 -3.799999999999999E-003    1.418998541806078E-002
 -3.699999999999999E-003    1.468974817950206E-002
 -3.599999999999999E-003    1.520404173125851E-002
 -3.499999999999999E-003    1.573315167618914E-002
 -3.399999999999999E-003    1.627736407663398E-002
 -3.299999999999999E-003    1.683696534446071E-002
 -3.199999999999999E-003    1.741223967727119E-002
 -3.099999999999999E-003    1.800347125557005E-002
 -2.999999999999999E-003    1.861093869531584E-002
 -2.899999999999999E-003    1.923492055248098E-002
 -2.799999999999999E-003    1.987568733389855E-002
 -2.699999999999999E-003    2.053350720631606E-002
 -2.599999999999999E-003    2.120864347704196E-002
 -2.499999999999999E-003    2.190135254473154E-002
 -2.399999999999999E-003    2.261188520794153E-002
 -2.299999999999999E-003    2.334048767402605E-002
 -2.199999999999999E-003    2.408739643443878E-002
 -2.099999999999999E-003    2.485284414541754E-002
 -1.999999999999999E-003    2.563705756266618E-002
 -1.899999999999999E-003    2.644025736161701E-002
 -1.799999999999999E-003    2.726265483926319E-002
 -1.699999999999999E-003    2.810445449901845E-002
 -1.599999999999999E-003    2.896585233057469E-002
 -1.499999999999999E-003    2.984703259811112E-002
 -1.399999999999999E-003    3.074817323968915E-002
 -1.299999999999999E-003    3.166943312375320E-002
 -1.199999999999999E-003    3.261096070720072E-002
 -1.099999999999999E-003    3.357288652444017E-002
 -9.999999999999989E-004    3.455532826546947E-002
 -8.999999999999990E-004    3.555838349532065E-002
 -7.999999999999990E-004    3.658212749484745E-002
 -6.999999999999989E-004    3.762662135486281E-002
 -5.999999999999990E-004    3.869190567456347E-002
 -4.999999999999989E-004    3.977799324494450E-002
 -3.999999999999989E-004    4.088488184550516E-002
 -2.999999999999989E-004    4.201254203879635E-002
 -1.999999999999989E-004    4.316092258315906E-002
 -9.999999999999892E-005    4.432994967277773E-002
  1.084202172485504E-018    4.551952664410999E-002
  1.000000000000011E-004    4.672952606332813E-002
  2.000000000000011E-004    4.795979157548628E-002
  3.000000000000011E-004    4.921014553179579E-002
  4.000000000000011E-004    5.048037283325604E-002
  5.000000000000011E-004    5.177022734832771E-002
  6.000000000000011E-004    5.307943051094284E-002
  7.000000000000011E-004    5.440766500106890E-002
  8.000000000000011E-004    5.575458000327891E-002
  9.000000000000012E-004    5.711978120638941E-002
  1.000000000000001E-003    5.850283797097382E-002
  1.100000000000001E-003    5.990327332412957E-002
  1.200000000000001E-003    6.132056742987779E-002
  1.300000000000001E-003    6.275416195477916E-002
  1.400000000000001E-003    6.420344833781892E-002
  1.500000000000001E-003    6.566777520536081E-002
  1.600000000000001E-003    6.714644853595200E-002
  1.700000000000001E-003    6.863871888688879E-002
  1.800000000000001E-003    7.014379326473816E-002
  1.900000000000001E-003    7.166082750771272E-002
  2.000000000000001E-003    7.318892294902117E-002
  2.100000000000001E-003    7.472712723632026E-002
  2.200000000000001E-003    7.627442875723707E-002
  2.300000000000001E-003    7.782976521601349E-002
  2.400000000000001E-003    7.939200884260632E-002
  2.500000000000001E-003    8.095997108150298E-002
  2.600000000000001E-003    8.253240587535118E-002
  2.700000000000001E-003    8.410799285816001E-002
  2.800000000000001E-003    8.568534748566020E-002
  2.900000000000001E-003    8.726302153138980E-002
  3.000000000000001E-003    8.883949083706090E-002
  3.100000000000001E-003    9.041316292604579E-002
  3.200000000000001E-003    9.198237604518505E-002
  3.300000000000001E-003    9.354539163341538E-002
  3.400000000000001E-003    9.510040897919089E-002
  3.500000000000001E-003    9.664553758506136E-002
  3.600000000000001E-003    9.817882463281077E-002
  3.700000000000001E-003    9.969823459314145E-002
  3.800000000000001E-003    0.101201647814342     
  3.900000000000001E-003    0.102686875729925     
  4.000000000000001E-003    0.104151644108844     
  4.100000000000001E-003    0.105593595088408     
  4.200000000000001E-003    0.107010280950023     
  4.300000000000001E-003    0.108399180089345     
  4.400000000000001E-003    0.109757670226530     
  4.500000000000001E-003    0.111083056758836     
  4.600000000000002E-003    0.112372553720126     
  4.700000000000001E-003    0.113623283478756     
  4.800000000000001E-003    0.114832275762245     
  4.900000000000002E-003    0.115996475612764     
  5.000000000000001E-003    0.117112747155607     
  5.100000000000001E-003    0.118177856409908     
  5.200000000000001E-003    0.119188485858276     
  5.300000000000002E-003    0.120141223968317     
  5.400000000000001E-003    0.121032584087170     
  5.500000000000001E-003    0.121858980815881     
  5.600000000000002E-003    0.122616742054956     
  5.700000000000001E-003    0.123302104201157     
  5.800000000000001E-003    0.123911227307354     
  5.900000000000002E-003    0.124440167147559     
  6.000000000000001E-003    0.124884911207300     
  6.100000000000001E-003    0.125241346902154     
  6.200000000000002E-003    0.125505279539106     
  6.300000000000002E-003    0.125672438819806     
  6.400000000000001E-003    0.125738462787201     
  6.500000000000001E-003    0.125698909370988     
  6.600000000000002E-003    0.125549258935787     
  6.700000000000001E-003    0.125284917226563     
  6.800000000000001E-003    0.124901210381651     
  6.900000000000002E-003    0.124393396979360     
  7.000000000000001E-003    0.123756666457578     
  7.100000000000001E-003    0.122986140242515     
  7.200000000000002E-003    0.122076874853812     
  7.300000000000002E-003    0.121023864697943     
  7.400000000000001E-003    0.119822046756325     
  7.500000000000001E-003    0.118466305378324     
  7.600000000000002E-003    0.116951468255972     
  7.700000000000001E-003    0.115272319568499     
  7.800000000000001E-003    0.113423594676540     
  7.900000000000001E-003    0.111399990722661     
  8.000000000000002E-003    0.109196171339312     
  8.100000000000001E-003    0.106806776200091     
  8.200000000000001E-003    0.104226395295742     
  8.300000000000002E-003    0.101449613140540     
  8.400000000000001E-003    9.847099793390067E-002
  8.500000000000002E-003    9.528510244515254E-002
  8.600000000000002E-003    9.188648431956188E-002
  8.700000000000001E-003    8.826969625527306E-002
  8.800000000000002E-003    8.442931035431869E-002
  8.900000000000002E-003    8.035990010262085E-002
  9.000000000000001E-003    7.605606586220941E-002
  9.100000000000002E-003    7.151243350808048E-002
  9.200000000000002E-003    6.672367035453945E-002
  9.300000000000001E-003    6.168448571039802E-002
  9.400000000000002E-003    5.638962176906805E-002
  9.500000000000001E-003    5.083389825993296E-002
  9.600000000000001E-003    4.501219141173966E-002
  9.700000000000002E-003    3.891944355966773E-002
  9.800000000000001E-003    3.255068186675061E-002
  9.900000000000001E-003    2.590102529939306E-002
  1.000000000000000E-002    1.896568096230556E-002
  1.010000000000000E-002    1.173997400146732E-002
  1.020000000000000E-002    4.219326732041165E-003
  1.030000000000000E-002   -3.600693877740260E-003
  1.040000000000000E-002   -1.172440332379201E-002
  1.050000000000000E-002   -2.015596728596694E-002
  1.060000000000000E-002   -2.889940497542478E-002
  1.070000000000000E-002   -3.795857883464283E-002
  1.080000000000000E-002   -4.733716273465961E-002
  1.090000000000000E-002   -5.703865351531334E-002
  1.100000000000000E-002   -6.706635651776170E-002
  1.110000000000000E-002   -7.742338781908052E-002
  1.120000000000000E-002   -8.811264869454549E-002
  1.130000000000000E-002   -9.913679221696080E-002
  1.140000000000000E-002   -0.110498286118622     
  1.150000000000000E-002   -0.122199314558980     
  1.160000000000000E-002   -0.134241846275344     
  1.170000000000000E-002   -0.146627560514133     
  1.180000000000000E-002   -0.159357855638360     
  1.190000000000000E-002   -0.172433880008187     
  1.200000000000000E-002   -0.185856459256917     
  1.210000000000000E-002   -0.199626121015721     
  1.220000000000000E-002   -0.213743078775619     
  1.230000000000000E-002   -0.228207238679813     
  1.240000000000000E-002   -0.243018129446943     
  1.250000000000000E-002   -0.258174992152138     
  1.260000000000000E-002   -0.273676679624277     
  1.270000000000000E-002   -0.289521665226515     
  1.280000000000000E-002   -0.305708082391671     
  1.290000000000000E-002   -0.322233672625342     
  1.300000000000000E-002   -0.339095766626206     
  1.310000000000000E-002   -0.356291254851440     
  1.320000000000000E-002   -0.373816724965476     
  1.330000000000000E-002   -0.391668301396225     
  1.340000000000000E-002   -0.409841618265139     
  1.350000000000000E-002   -0.428331953390340     
  1.360000000000000E-002   -0.447134132495191     
  1.370000000000000E-002   -0.466242517444597     
  1.380000000000000E-002   -0.485651004363626     
  1.390000000000000E-002   -0.505353006912075     
  1.400000000000000E-002   -0.525341543487784     
  1.410000000000000E-002   -0.545609122879814     
  1.420000000000000E-002   -0.566147720934853     
  1.430000000000000E-002   -0.586948913162707     
  1.440000000000000E-002   -0.608003769983033     
  1.450000000000000E-002   -0.629302872922364     
  1.460000000000000E-002   -0.650836306143224     
  1.470000000000000E-002   -0.672593636449087     
  1.480000000000000E-002   -0.694563924269755     
  1.490000000000000E-002   -0.716735760724308     
  1.500000000000000E-002   -0.739097294520616     
  1.510000000000000E-002   -0.761636056071061     
  1.520000000000000E-002   -0.784339153821145     
  1.530000000000000E-002   -0.807193112331972     
  1.540000000000000E-002   -0.830184083107800     
  1.550000000000000E-002   -0.853297636566276     
  1.560000000000000E-002   -0.876518941184670     
  1.570000000000000E-002   -0.899832581643442     
  1.580000000000000E-002   -0.923222606001424     
  1.590000000000000E-002   -0.946672848893692     
  1.600000000000000E-002   -0.970166387356875     
  1.610000000000000E-002   -0.993686009819104     
  1.620000000000000E-002    -1.01721390426297     
  1.630000000000000E-002    -1.04073196375336     
  1.640000000000000E-002    -1.06422155828673     
  1.650000000000000E-002    -1.08766363449121     
  1.660000000000000E-002    -1.11103885281172     
  1.670000000000000E-002    -1.13432720828004     
  1.680000000000000E-002    -1.15750850760836     
  1.690000000000000E-002    -1.18056210992967     
  1.700000000000000E-002    -1.20346701693547     
  1.710000000000000E-002    -1.22620186477922     
  1.720000000000000E-002    -1.24874500529692     
  1.730000000000000E-002    -1.27107438159268     
  1.740000000000000E-002    -1.29316768408873     
  1.750000000000000E-002    -1.31500243365230     
  1.760000000000000E-002    -1.33655565874492     
  1.770000000000000E-002    -1.35780436177749     
  1.780000000000000E-002    -1.37872512283075     
  1.790000000000000E-002    -1.39929440521128     
  1.800000000000000E-002    -1.41948861128017     
  1.810000000000000E-002    -1.43928375678537     
  1.820000000000000E-002    -1.45865595915177     
  1.830000000000000E-002    -1.47758112357905     
  1.840000000000000E-002    -1.49603498306515     
  1.850000000000000E-002    -1.51399339996872     
  1.860000000000000E-002    -1.53143199416456     
  1.870000000000000E-002    -1.54832639500380     