 -4.000000000000000E-002    0.000000000000000E+000
 -3.990000000000000E-002    0.000000000000000E+000
 -3.980000000000000E-002    0.000000000000000E+000
 -3.970000000000000E-002    0.000000000000000E+000
 -3.960000000000000E-002    0.000000000000000E+000
 -3.950000000000000E-002    0.000000000000000E+000
 -3.940000000000000E-002    0.000000000000000E+000
 -3.930000000000000E-002    0.000000000000000E+000
 -3.920000000000000E-002    2.171497457814457E-028
 -3.910000000000000E-002    3.396843431581077E-027
 -3.900000000000000E-002    2.781369031779542E-026
 -3.890000000000000E-002    1.583486770014856E-025
 -3.880000000000000E-002    7.026402959570254E-025
 -3.870000000000000E-002    2.582923886041888E-024
 -3.860000000000000E-002    8.164580641899726E-024
 -3.850000000000000E-002    2.274160248997631E-023
 -3.840000000000000E-002    5.675073458617195E-023
 -3.830000000000000E-002    1.282960886674583E-022
 -3.820000000000000E-002    2.645428593066410E-022
 -3.810000000000000E-002    4.988685258550022E-022
 -3.800000000000000E-002    8.584625089366989E-022
 -3.790000000000000E-002    1.334885700530482E-021
 -3.780000000000000E-002    1.829078662160346E-021
 -3.770000000000000E-002    2.064220819930282E-021
 -3.760000000000000E-002    1.466918675264288E-021
 -3.750000000000000E-002   -9.684185780444508E-022
 -3.740000000000000E-002   -6.794369048811589E-021
 -3.730000000000000E-002   -1.813677689184124E-020
 -3.720000000000000E-002   -3.753239153990070E-020
 -3.710000000000000E-002   -6.745235219739847E-020
 -3.700000000000000E-002   -1.093819877382175E-019
 -3.690000000000000E-002   -1.623625314593598E-019
 -3.680000000000000E-002   -2.209926395945908E-019
 -3.670000000000000E-002   -2.730494425784852E-019
 -3.660000000000000E-002   -2.971207091345139E-019
 -3.650000000000000E-002   -2.609212212820391E-019
 -3.640000000000000E-002   -1.212507841396479E-019
 -3.630000000000000E-002    1.732371869290185E-019
 -3.620000000000000E-002    6.752498355874850E-019
 -3.610000000000000E-002    1.427094956013224E-018
 -3.600000000000000E-002    2.443628680539740E-018
 -3.590000000000000E-002    3.690680232956369E-018
 -3.580000000000000E-002    5.061238242425000E-018
 -3.570000000000000E-002    6.353498884620447E-018
 -3.560000000000000E-002    7.256704052737058E-018
 -3.550000000000000E-002    7.352149683292866E-018
 -3.540000000000000E-002    6.137273062588286E-018
 -3.530000000000000E-002    3.079799326330715E-018
 -3.520000000000000E-002   -2.293988722263000E-018
 -3.510000000000000E-002   -1.027793114506977E-017
 -3.500000000000000E-002   -2.084003496588599E-017
 -3.490000000000000E-002   -3.346921736118942E-017
 -3.480000000000000E-002   -4.704148502549977E-017
 -3.470000000000000E-002   -5.974036699414834E-017
 -3.460000000000000E-002   -6.907109955966543E-017
 -3.450000000000000E-002   -7.200687043457377E-017
 -3.440000000000000E-002   -6.529636024367029E-017
 -3.430000000000000E-002   -4.594332369155406E-017
 -3.420000000000000E-002   -1.184114870993119E-017
 -3.410000000000000E-002    3.749039521055657E-017
 -3.400000000000000E-002    1.001586662961711E-016
 -3.390000000000000E-002    1.712721572699749E-016
 -3.380000000000000E-002    2.425935485535495E-016
 -3.370000000000000E-002    3.026406897606909E-016
 -3.360000000000000E-002    3.373882756985399E-016
 -3.350000000000000E-002    3.316747400101672E-016
 -3.340000000000000E-002    2.713345576022369E-016
 -3.330000000000000E-002    1.459609270879447E-016
 -3.320000000000000E-002   -4.793656052380638E-017
 -3.310000000000000E-002   -3.037606298537734E-016
 -3.300000000000000E-002   -6.021544551766577E-016
 -3.290000000000000E-002   -9.094325205098171E-016
 -3.280000000000000E-002   -1.177737947300544E-015
 -3.270000000000000E-002   -1.347478437741974E-015
 -3.260000000000000E-002   -1.352411211080261E-015
 -3.250000000000000E-002   -1.127455549551599E-015
 -3.240000000000000E-002   -6.189177065887748E-016
 -3.230000000000000E-002    2.036374575907607E-016
 -3.220000000000000E-002    1.335106335931421E-015
 -3.210000000000000E-002    2.723805277924365E-015
 -3.200000000000000E-002    4.263597313156399E-015
 -3.190000000000000E-002    5.791190470107304E-015
 -3.180000000000000E-002    7.090419187597293E-015
 -3.170000000000000E-002    7.904817562152800E-015
 -3.160000000000000E-002    7.958996874310133E-015
 -3.150000000000000E-002    6.988266000690431E-015
 -3.140000000000000E-002    4.774712277279485E-015
 -3.130000000000000E-002    1.186682293615569E-015
 -3.120000000000000E-002   -3.782509077067825E-015
 -3.110000000000000E-002   -9.981642833215125E-015
 -3.100000000000000E-002   -1.707972051265978E-014
 -3.090000000000000E-002   -2.456013854333036E-014
 -3.080000000000000E-002   -3.173485831119201E-014
 -3.070000000000000E-002   -3.778079341579735E-014
 -3.060000000000000E-002   -4.179833243958714E-014
 -3.050000000000000E-002   -4.288918798691387E-014
 -3.040000000000000E-002   -4.024802667643148E-014
 -3.030000000000000E-002   -3.325981277093904E-014
 -3.020000000000000E-002   -2.159290759757115E-014
 -3.010000000000000E-002   -5.277185367386080E-015
 -3.000000000000000E-002    1.524327176022742E-014
 -2.990000000000000E-002    3.909159747026071E-014
 -2.980000000000000E-002    6.497928594127295E-014
 -2.970000000000000E-002    9.126854066795933E-014
 -2.960000000000000E-002    1.160728187714182E-013
 -2.950000000000000E-002    1.373874009629207E-013
 -2.940000000000000E-002    1.532379292139418E-013
 -2.930000000000000E-002    1.618318865183745E-013
 -2.920000000000000E-002    1.616967842975677E-013
 -2.910000000000000E-002    1.517898919745625E-013
 -2.900000000000000E-002    1.315677752148175E-013
 -2.890000000000000E-002    1.010089598654666E-013
 -2.880000000000000E-002    6.058992503002923E-014
 -2.870000000000000E-002    1.122170282395563E-014
 -2.860000000000000E-002   -4.583879258278811E-014
 -2.850000000000000E-002   -1.090837342143142E-013
 -2.840000000000000E-002   -1.768343353656045E-013
 -2.830000000000000E-002   -2.472856521728960E-013
 -2.820000000000000E-002   -3.185012180090899E-013
 -2.810000000000000E-002   -3.883511122576722E-013
 -2.800000000000000E-002   -4.543982648327198E-013
 -2.790000000000000E-002   -5.137509753935595E-013
 -2.780000000000000E-002   -5.629115855659315E-013
 -2.770000000000000E-002   -5.976614024040094E-013
 -2.760000000000000E-002   -6.130265155047525E-013
 -2.750000000000000E-002   -6.033687619672728E-013
 -2.740000000000000E-002   -5.626370934013913E-013
 -2.730000000000000E-002   -4.847990150383871E-013
 -2.720000000000000E-002   -3.644490091803271E-013
 -2.710000000000000E-002   -1.975641062544149E-013
 -2.700000000000000E-002    1.765146575590581E-014
 -2.690000000000000E-002    2.799163742208613E-013
 -2.680000000000000E-002    5.841206612309195E-013
 -2.670000000000000E-002    9.207857718425944E-013
 -2.660000000000000E-002    1.275844176588543E-012
 -2.650000000000000E-002    1.630829845164527E-012
 -2.640000000000000E-002    1.963536532323307E-012
 -2.630000000000000E-002    2.249154194681568E-012
 -2.620000000000000E-002    2.461842325262629E-012
 -2.610000000000000E-002    2.576640063092080E-012
 -2.600000000000000E-002    2.571561299204912E-012
 -2.590000000000000E-002    2.429683650942659E-012
 -2.580000000000000E-002    2.141016481197887E-012
 -2.570000000000000E-002    1.703934286721037E-012
 -2.560000000000000E-002    1.125991868027743E-012
 -2.550000000000000E-002    4.239846609053547E-013
 -2.540000000000000E-002   -3.768004166887634E-013
 -2.530000000000000E-002   -1.244115022253941E-012
 -2.520000000000000E-002   -2.140936789804024E-012
 -2.510000000000000E-002   -3.028099733225498E-012
 -2.500000000000000E-002   -3.867093129949975E-012
 -2.490000000000000E-002   -4.622708800424246E-012
 -2.480000000000000E-002   -5.265218451187842E-012
 -2.470000000000000E-002   -5.771807539488617E-012
 -2.460000000000000E-002   -6.127068730023856E-012
 -2.450000000000000E-002   -6.322472430993051E-012
 -2.440000000000000E-002   -6.354875022906188E-012
 -2.430000000000000E-002   -6.224257574747949E-012
 -2.420000000000000E-002   -5.931029302981711E-012
 -2.410000000000000E-002   -5.473317800951932E-012
 -2.400000000000000E-002   -4.844723599937639E-012
 -2.390000000000000E-002   -4.033008481923942E-012
 -2.380000000000000E-002   -3.020108575765952E-012
 -2.370000000000000E-002   -1.783728105387613E-012
 -2.360000000000000E-002   -3.005852941291052E-013
 -2.350000000000000E-002    1.448844611191903E-012
 -2.340000000000000E-002    3.474466059234898E-012
 -2.330000000000000E-002    5.770166536769731E-012
 -2.320000000000000E-002    8.307630859023764E-012
 -2.310000000000000E-002    1.103118410443110E-011
 -2.300000000000000E-002    1.385449005392377E-011
 -2.290000000000000E-002    1.665980960977717E-011
 -2.280000000000000E-002    1.930031413215448E-011
 -2.270000000000000E-002    2.160568665493672E-011
 -2.260000000000000E-002    2.339088969028402E-011
 -2.250000000000000E-002    2.446763684459460E-011
 -2.240000000000000E-002    2.465776941428952E-011
 -2.230000000000000E-002    2.380747971126491E-011
 -2.220000000000000E-002    2.180118098285650E-011
 -2.210000000000000E-002    1.857372361719031E-011
 -2.200000000000000E-002    1.411982399791963E-011
 -2.190000000000000E-002    8.499728760690553E-012
 -2.180000000000000E-002    1.840528593804514E-012
 -2.170000000000000E-002   -5.667131141124900E-012
 -2.160000000000000E-002   -1.377667718891136E-011
 -2.150000000000000E-002   -2.219697405788582E-011
 -2.140000000000000E-002   -3.060645239342348E-011
 -2.130000000000000E-002   -3.866877227084653E-011
 -2.120000000000000E-002   -4.604875846168915E-011
 -2.110000000000000E-002   -5.242737216365350E-011
 -2.100000000000000E-002   -5.751466481896109E-011
 -2.090000000000000E-002   -6.106002894817304E-011
 -2.080000000000000E-002   -6.285937485855383E-011
 -2.070000000000000E-002   -6.275932183499694E-011
 -2.060000000000000E-002   -6.065882095040158E-011
 -2.050000000000000E-002   -5.650890686675750E-011
 -2.040000000000000E-002   -5.031140935510332E-011
 -2.030000000000000E-002   -4.211747516377232E-011
 -2.020000000000000E-002   -3.202657921966158E-011
 -2.010000000000000E-002   -2.018643293658725E-011
 -2.000000000000000E-002   -6.793853110840501E-012
 -1.990000000000000E-002    7.903720252214337E-012
 -1.980000000000000E-002    2.360674404370482E-011
 -1.970000000000000E-002    3.996297909743967E-011
 -1.960000000000000E-002    5.656886796496445E-011
 -1.950000000000000E-002    7.297373016787103E-011
 -1.940000000000000E-002    8.868752537098308E-011
 -1.930000000000000E-002    1.031924897498988E-010
 -1.920000000000000E-002    1.159585002447082E-010
 -1.910000000000000E-002    1.264615077874576E-010
 -1.900000000000000E-002    1.342039789722720E-010
 -1.890000000000000E-002    1.387358792423901E-010
 -1.880000000000000E-002    1.396747437074888E-010
 -1.870000000000000E-002    1.367232712063533E-010
 -1.860000000000000E-002    1.296833009468906E-010
 -1.850000000000000E-002    1.184654404718344E-010
 -1.840000000000000E-002    1.030940580921638E-010
 -1.830000000000000E-002    8.370820916418916E-011
 -1.820000000000000E-002    6.055921074982562E-011
 -1.810000000000000E-002    3.400624905777756E-011
 -1.800000000000000E-002    4.511140512331904E-012
 -1.790000000000000E-002   -2.736649610441580E-011
 -1.780000000000000E-002   -6.097320471126123E-011
 -1.770000000000000E-002   -9.556473774425978E-011
 -1.760000000000000E-002   -1.303092286328448E-010
 -1.750000000000000E-002   -1.642920323621244E-010
 -1.740000000000000E-002   -1.965245119362388E-010
 -1.730000000000000E-002   -2.259592399552257E-010
 -1.720000000000000E-002   -2.515140623142401E-010
 -1.710000000000000E-002   -2.721064429921974E-010
 -1.700000000000000E-002   -2.866986889735484E-010
 -1.690000000000000E-002   -2.943528136087160E-010
 -1.680000000000000E-002   -2.942921738152391E-010
 -1.670000000000000E-002   -2.859650856984134E-010
 -1.660000000000000E-002   -2.691043590726782E-010
 -1.650000000000000E-002   -2.437753538210681E-010
 -1.640000000000000E-002   -2.104055428522045E-010
 -1.630000000000000E-002   -1.697889425527097E-010
 -1.620000000000000E-002   -1.230610307116121E-010
 -1.610000000000000E-002   -7.164209059184142E-011
 -1.600000000000000E-002   -1.715072513780300E-011
 -1.590000000000000E-002    3.870692255723938E-011
 -1.580000000000000E-002    9.426327647293733E-011
 -1.570000000000000E-002    1.480182845386265E-010
 -1.560000000000000E-002    1.987571301470050E-010
 -1.550000000000000E-002    2.456418782803478E-010
 -1.540000000000000E-002    2.882634430869347E-010
 -1.530000000000000E-002    3.266436681331410E-010
 -1.520000000000000E-002    3.611816250786284E-010
 -1.510000000000000E-002    3.925449643943510E-010
 -1.500000000000000E-002    4.215133639116879E-010
 -1.490000000000000E-002    4.487882896785272E-010
 -1.480000000000000E-002    4.747888381494412E-010
 -1.470000000000000E-002    4.994577787948472E-010
 -1.460000000000000E-002    5.221035182611642E-010
 -1.450000000000000E-002    5.413027939150416E-010
 -1.440000000000000E-002    5.548840318035341E-010
 -1.430000000000000E-002    5.600048514404141E-010
 -1.420000000000000E-002    5.533272171430957E-010
 -1.410000000000000E-002    5.312832515412287E-010
 -1.400000000000000E-002    4.904126291071081E-010
 -1.390000000000000E-002    4.277433485720263E-010
 -1.380000000000000E-002    3.411787490552269E-010
 -1.370000000000000E-002    2.298500473534069E-010
 -1.360000000000000E-002    9.439184978242015E-011
 -1.350000000000000E-002   -6.289435269569085E-011
 -1.340000000000000E-002   -2.380181088463794E-010
 -1.330000000000000E-002   -4.254329356460022E-010
 -1.320000000000000E-002   -6.183231537852942E-010
 -1.310000000000000E-002   -8.090267147707046E-010
 -1.300000000000000E-002   -9.895586710129186E-010
 -1.290000000000000E-002   -1.152187857209344E-009
 -1.280000000000000E-002   -1.290008878010746E-009
 -1.270000000000000E-002   -1.397449343731466E-009
 -1.260000000000000E-002   -1.470654609257175E-009
 -1.250000000000000E-002   -1.507703914936978E-009
 -1.240000000000000E-002   -1.508626908966314E-009
 -1.230000000000000E-002   -1.475211282567428E-009
 -1.220000000000000E-002   -1.410616387176325E-009
 -1.210000000000000E-002   -1.318830511545738E-009
 -1.200000000000000E-002   -1.204031023707779E-009
 -1.190000000000000E-002   -1.069922770477797E-009
 -1.180000000000000E-002   -9.191374665176417E-010
 -1.170000000000000E-002   -7.527763090294322E-010
 -1.160000000000000E-002   -5.701677490807716E-010
 -1.150000000000000E-002   -3.688922335311738E-010
 -1.140000000000000E-002   -1.450986825438911E-010
 -1.130000000000000E-002    1.058933907882412E-010
 -1.120000000000000E-002    3.887497089533353E-010
 -1.110000000000000E-002    7.071054147845924E-010
 -1.100000000000000E-002    1.062479029476028E-009
 -1.090000000000000E-002    1.453232012218199E-009
 -1.080000000000000E-002    1.873695513940219E-009
 -1.070000000000000E-002    2.313581011857230E-009
 -1.060000000000000E-002    2.757766368820564E-009
 -1.050000000000000E-002    3.186525088550011E-009
 -1.040000000000000E-002    3.576215771676186E-009
 -1.030000000000000E-002    3.900413111782272E-009
 -1.020000000000000E-002    4.131409998340446E-009
 -1.010000000000000E-002    4.241983009397909E-009
 -1.000000000000000E-002    4.207280748983827E-009
 -9.899999999999999E-003    4.006678563809518E-009
 -9.800000000000000E-003    3.625439144878926E-009
 -9.699999999999999E-003    3.056039450803468E-009
 -9.599999999999999E-003    2.299048217848831E-009
 -9.500000000000000E-003    1.363490795998378E-009
 -9.399999999999999E-003    2.666916071039714E-010
 -9.299999999999999E-003   -9.663613683943174E-010
 -9.200000000000000E-003   -2.304023208254592E-009
 -9.099999999999999E-003   -3.709221626427836E-009
 -8.999999999999999E-003   -5.140722537637153E-009
 -8.900000000000000E-003   -6.554235377567533E-009
 -8.799999999999999E-003   -7.903164525014080E-009
 -8.699999999999999E-003   -9.138847059740442E-009
 -8.600000000000000E-003   -1.021015634034174E-008
 -8.499999999999999E-003   -1.106242174320838E-008
 -8.399999999999999E-003   -1.163568353373886E-008
 -8.300000000000000E-003   -1.186238129046159E-008
 -8.199999999999999E-003   -1.166462525372080E-008
 -8.100000000000000E-003   -1.095128877710928E-008
 -8.000000000000000E-003   -9.615148036200568E-009
 -7.899999999999999E-003   -7.530362415976851E-009
 -7.800000000000000E-003   -4.550511744095872E-009
 -7.699999999999999E-003   -5.074153862282603E-010
 -7.599999999999999E-003    4.789134558464106E-009
 -7.499999999999999E-003    1.155068231097000E-008
 -7.399999999999999E-003    2.000845848807818E-008
 -7.299999999999999E-003    3.041095244556989E-008
 -7.199999999999999E-003    4.302084158369742E-008
 -7.100000000000000E-003    5.811167054396638E-008
 -6.999999999999999E-003    7.596443315271500E-008
 -6.899999999999999E-003    9.686448395901535E-008
 -6.800000000000000E-003    1.210990625428052E-007
 -6.699999999999999E-003    1.489556381316820E-007
 -6.599999999999999E-003    1.807212384169156E-007
 -6.499999999999999E-003    2.166827789442010E-007
 -6.399999999999999E-003    2.571284905690687E-007
 -6.299999999999999E-003    3.023500188653829E-007
 -6.199999999999999E-003    3.526452825231487E-007
 -6.100000000000000E-003    4.083215369917935E-007
 -5.999999999999999E-003    4.696982337290163E-007
 -5.899999999999999E-003    5.371096920169910E-007
 -5.800000000000000E-003    6.109068457587349E-007
 -5.699999999999999E-003    6.914581685382404E-007
 -5.599999999999999E-003    7.791492985611576E-007
 -5.499999999999999E-003    8.743820191531692E-007
 -5.399999999999999E-003    9.775717768568232E-007
 -5.299999999999999E-003    1.089144726311119E-006
 -5.199999999999999E-003    1.209534619469070E-006
 -5.099999999999999E-003    1.339179322732806E-006
 -4.999999999999999E-003    1.478518669815547E-006
 -4.899999999999999E-003    1.627992316320774E-006
 -4.799999999999999E-003    1.788039795706480E-006
 -4.699999999999999E-003    1.959102067235421E-006
 -4.599999999999999E-003    2.141624314319399E-006
 -4.499999999999999E-003    2.336061652754025E-006
 -4.399999999999999E-003    2.542885136128227E-006
 -4.299999999999999E-003    2.762590130883243E-006
 -4.199999999999999E-003    2.995705091513841E-006
 -4.099999999999999E-003    3.242800144810071E-006
 -3.999999999999999E-003    3.504496279600904E-006
 -3.899999999999999E-003    3.781472755746525E-006
 -3.799999999999999E-003    4.074473281857533E-006
 -3.699999999999999E-003    4.384311019725248E-006
 -3.599999999999999E-003    4.711870995539345E-006
 -3.499999999999999E-003    5.058111108729419E-006
 -3.399999999999999E-003    5.424060840067419E-006
 -3.299999999999999E-003    5.810819092115291E-006
 -3.199999999999999E-003    6.219550342787324E-006
 -3.099999999999999E-003    6.651483208070756E-006
 -2.999999999999999E-003    7.107906116239003E-006
 -2.899999999999999E-003    7.590167657108254E-006
 -2.799999999999999E-003    8.099675754573693E-006
 -2.699999999999999E-003    8.637901924402409E-006
 -2.599999999999999E-003    9.206384188744821E-006
 -2.499999999999999E-003    9.806738882694785E-006
 -2.399999999999999E-003    1.044066532326569E-005
 -2.299999999999999E-003    1.110996220794085E-005
 -2.199999999999999E-003    1.181653504390575E-005
 -2.099999999999999E-003    1.256241306548635E-005
 -1.999999999999999E-003    1.334975656598289E-005
 -1.899999999999999E-003    1.418087004595363E-005
 -1.799999999999999E-003    1.505820665195217E-005
 -1.699999999999999E-003    1.598437622737848E-005
 -1.599999999999999E-003    1.696214290035172E-005
 -1.499999999999999E-003    1.799442945456976E-005
 -1.399999999999999E-003    1.908431023770579E-005
 -1.299999999999999E-003    2.023500941721545E-005
 -1.199999999999999E-003    2.144989159419943E-005
 -1.099999999999999E-003    2.273245879235592E-005
 -9.999999999999989E-004    2.408634710091161E-005
 -8.999999999999990E-004    2.551532605623240E-005
 -7.999999999999990E-004    2.702329732054913E-005
 -6.999999999999989E-004    2.861430588924374E-005
 -5.999999999999990E-004    3.029254600060191E-005
 -4.999999999999989E-004    3.206237702445409E-005
 -3.999999999999989E-004    3.392834091007291E-005
 -2.999999999999989E-004    3.589518167119357E-005
 -1.999999999999989E-004    3.796787398626118E-005
 -9.999999999999892E-005    4.015163646338146E-005
  1.084202172485504E-018    4.245196151033895E-005
  1.000000000000011E-004    4.487462951135037E-005
  2.000000000000011E-004    4.742573146090375E-005
  3.000000000000011E-004    5.011168055842406E-005
  4.000000000000011E-004    5.293921220587604E-005
  5.000000000000011E-004    5.591540163734798E-005
  6.000000000000011E-004    5.904766205951241E-005
  7.000000000000011E-004    6.234373887953985E-005
  8.000000000000011E-004    6.581170932512724E-005
  9.000000000000012E-004    6.945998105516567E-005
  1.000000000000001E-003    7.329729047684161E-005
  1.100000000000001E-003    7.733270964531198E-005
  1.200000000000001E-003    8.157563928280169E-005
  1.300000000000001E-003    8.603583479190636E-005
  1.400000000000001E-003    9.072340921822871E-005
  1.500000000000001E-003    9.564885809008021E-005
  1.600000000000001E-003    1.008230956531496E-004
  1.700000000000001E-003    1.062574565960000E-004
  1.800000000000001E-003    1.119637522403345E-004
  1.900000000000001E-003    1.179542917627004E-004
  2.000000000000001E-003    1.242419017664780E-004
  2.100000000000001E-003    1.308399587634121E-004
  2.200000000000001E-003    1.377624235678923E-004
  2.300000000000001E-003    1.450238435158420E-004
  2.400000000000001E-003    1.526393632580836E-004
  2.500000000000001E-003    1.606247682206664E-004
  2.600000000000001E-003    1.689964291315889E-004
  2.700000000000001E-003    1.777713511989369E-004
  2.800000000000001E-003    1.869671727970604E-004
  2.900000000000001E-003    1.966021528461884E-004
  3.000000000000001E-003    2.066951734051199E-004
  3.100000000000001E-003    2.172657352571477E-004
  3.200000000000001E-003    2.283340043948032E-004
  3.300000000000001E-003    2.399208208571639E-004
  3.400000000000001E-003    2.520477013773912E-004
  3.500000000000001E-003    2.647368898668751E-004
  3.600000000000001E-003    2.780114048272842E-004
  3.700000000000001E-003    2.918950249457611E-004
  3.800000000000001E-003    3.064123978940193E-004
  3.900000000000001E-003    3.215890623573311E-004
  4.000000000000001E-003    3.374514315942971E-004
  4.100000000000001E-003    3.540269434898714E-004
  4.200000000000001E-003    3.713439959921017E-004
  4.300000000000001E-003    3.894320028077614E-004
  4.400000000000001E-003    4.083214142140311E-004
  4.500000000000001E-003    4.280437228345869E-004
  4.600000000000002E-003    4.486314844441384E-004
  4.700000000000001E-003    4.701183256811074E-004
  4.800000000000001E-003    4.925388820139639E-004
  4.900000000000002E-003    5.159288739318502E-004
  5.000000000000001E-003    5.403250664708031E-004
  5.100000000000001E-003    5.657652491281044E-004
  5.200000000000001E-003    5.922883570603525E-004
  5.300000000000002E-003    6.199343271925717E-004
  5.400000000000001E-003    6.487442719335113E-004
  5.500000000000001E-003    6.787603948194681E-004
  5.600000000000002E-003    7.100260388026065E-004
  5.700000000000001E-003    7.425857964251435E-004
  5.800000000000001E-003    7.764855718715373E-004
  5.900000000000002E-003    8.117725004992323E-004
  6.000000000000001E-003    8.484950728407384E-004
  6.100000000000001E-003    8.867032234115839E-004
  6.200000000000002E-003    9.264483695479173E-004
  6.300000000000002E-003    9.677832060999949E-004
  6.400000000000001E-003    1.010762119681949E-003
  6.500000000000001E-003    1.055440826076894E-003
  6.600000000000002E-003    1.101876714095596E-003
  6.700000000000001E-003    1.150128531202137E-003
  6.800000000000001E-003    1.200256534072847E-003
  6.900000000000002E-003    1.252322603451148E-003
  7.000000000000001E-003    1.306390033973419E-003
  7.100000000000001E-003    1.362523570958966E-003
  7.200000000000002E-003    1.420789580086615E-003
  7.300000000000002E-003    1.481255777422378E-003
  7.400000000000001E-003    1.543991447502267E-003
  7.500000000000001E-003    1.609067392758590E-003
  7.600000000000002E-003    1.676556019758697E-003
  7.700000000000001E-003    1.746531279491615E-003
  7.800000000000001E-003    1.819068792275909E-003
  7.900000000000001E-003    1.894245753978038E-003
  8.000000000000002E-003    1.972140973667271E-003
  8.100000000000001E-003    2.052835193501614E-003
  8.200000000000001E-003    2.136410714582212E-003
  8.300000000000002E-003    2.222951775197229E-003
  8.400000000000001E-003    2.312544024968682E-003
  8.500000000000002E-003    2.405274896386787E-003
  8.600000000000002E-003    2.501233429665863E-003
  8.700000000000001E-003    2.600510436869045E-003
  8.800000000000002E-003    2.703198529979930E-003
  8.900000000000002E-003    2.809391313630428E-003
  9.000000000000001E-003    2.919184280336217E-003
  9.100000000000002E-003    3.032674399247607E-003
  9.200000000000002E-003    3.149959929318267E-003
  9.300000000000001E-003    3.271140423927109E-003
  9.400000000000002E-003    3.396316840295229E-003
  9.500000000000001E-003    3.525591704416672E-003
  9.600000000000001E-003    3.659068431004024E-003
  9.700000000000002E-003    3.796852216133641E-003
  9.800000000000001E-003    3.939048904399402E-003
  9.900000000000001E-003    4.085766400565256E-003
  1.000000000000000E-002    4.237113249300996E-003
  1.010000000000000E-002    4.393199918695138E-003
  1.020000000000000E-002    4.554137129654537E-003
  1.030000000000000E-002    4.720037685130294E-003
  1.040000000000000E-002    4.891015336839469E-003
  1.050000000000000E-002    5.067184435825891E-003
  1.060000000000000E-002    5.248660450672018E-003
  1.070000000000000E-002    5.435560534303472E-003
  1.080000000000000E-002    5.628001676420668E-003
  1.090000000000000E-002    5.826102144776711E-003
  1.100000000000000E-002    6.029980110879291E-003
  1.110000000000000E-002    6.239755204165115E-003
  1.120000000000000E-002    6.455546584081749E-003
  1.130000000000000E-002    6.677474513762503E-003
  1.140000000000000E-002    6.905658918146233E-003
  1.150000000000000E-002    7.140220727260576E-003
  1.160000000000000E-002    7.381280113090633E-003
  1.170000000000000E-002    7.628957390318991E-003
  1.180000000000000E-002    7.883374021988078E-003
  1.190000000000000E-002    8.144650786250464E-003
  1.200000000000000E-002    8.412907903398869E-003
  1.210000000000000E-002    8.688266296359496E-003
  1.220000000000000E-002    8.970845996000905E-003
  1.230000000000000E-002    9.260767579723887E-003
  1.240000000000000E-002    9.558150918230307E-003
  1.250000000000000E-002    9.863114708280383E-003
  1.260000000000000E-002    1.017577684855311E-002
  1.270000000000000E-002    1.049625562749079E-002
  1.280000000000000E-002    1.082466630278584E-002
  1.290000000000000E-002    1.116112473398969E-002
  1.300000000000000E-002    1.150574556324487E-002
  1.310000000000000E-002    1.185863987949843E-002
  1.320000000000000E-002    1.221991868958771E-002
  1.330000000000000E-002    1.258969123047080E-002
  1.340000000000000E-002    1.296806349076475E-002
  1.350000000000000E-002    1.335514166576592E-002
  1.360000000000000E-002    1.375102799179614E-002
  1.370000000000000E-002    1.415582441638592E-002
  1.380000000000000E-002    1.456962987710408E-002
  1.390000000000000E-002    1.499253980600214E-002
  1.400000000000000E-002    1.542464856668387E-002
  1.410000000000000E-002    1.586604938292929E-002
  1.420000000000000E-002    1.631683140081975E-002
  1.430000000000000E-002    1.677708090978949E-002
  1.440000000000000E-002    1.724688197124587E-002
  1.450000000000000E-002    1.772631512336688E-002
  1.460000000000000E-002    1.821545747731494E-002
  1.470000000000000E-002    1.871438490525633E-002
  1.480000000000000E-002    1.922316870970486E-002
  1.490000000000000E-002    1.974187555268421E-002
  1.500000000000000E-002    2.027056839013840E-002
  1.510000000000000E-002    2.080930642899234E-002
  1.520000000000000E-002    2.135814543543284E-002
  1.530000000000000E-002    2.191713679673753E-002
  1.540000000000000E-002    2.248632611647339E-002
  1.550000000000000E-002    2.306575549923757E-002
  1.560000000000000E-002    2.365546334728409E-002
  1.570000000000000E-002    2.425548176805237E-002
  1.580000000000000E-002    2.486583838573831E-002
  1.590000000000000E-002    2.548655635342039E-002
  1.600000000000000E-002    2.611765419116107E-002
  1.610000000000000E-002    2.675914475158910E-002
  1.620000000000000E-002    2.741103829185298E-002
  1.630000000000000E-002    2.807333707607790E-002
  1.640000000000000E-002    2.874603897448395E-002
  1.650000000000000E-002    2.942913803481778E-002
  1.660000000000000E-002    3.012262087904896E-002
  1.670000000000000E-002    3.082646897532382E-002
  1.680000000000000E-002    3.154065850860845E-002
  1.690000000000000E-002    3.226516186811243E-002
  1.700000000000000E-002    3.299994403446128E-002
  1.710000000000000E-002    3.374496557636904E-002
  1.720000000000000E-002    3.450017927029322E-002
  1.730000000000000E-002    3.526553276067844E-002
  1.740000000000000E-002    3.604096954135382E-002
  1.750000000000000E-002    3.682642835042015E-002
  1.760000000000000E-002    3.762183634045971E-002
  1.770000000000000E-002    3.842712088465196E-002
  1.780000000000000E-002    3.924220006687229E-002
  1.790000000000000E-002    4.006699223996409E-002
  1.800000000000000E-002    4.090140834805613E-002
  1.810000000000000E-002    4.174535291453606E-002
  1.820000000000000E-002    4.259872576182686E-002
  1.830000000000000E-002    4.346142358290469E-002
  1.840000000000000E-002    4.433333940381366E-002
  1.850000000000000E-002    4.521436018704753E-002
  1.860000000000000E-002    4.610436959347056E-002
  1.870000000000000E-002    4.700324831097443E-002