 -4.000000000000000E-002    0.000000000000000E+000
 -3.990000000000000E-002    0.000000000000000E+000
 -3.980000000000000E-002    0.000000000000000E+000
 -3.970000000000000E-002    0.000000000000000E+000
 -3.960000000000000E-002    0.000000000000000E+000
 -3.950000000000000E-002    0.000000000000000E+000
 -3.940000000000000E-002    2.708430670559557E-023
 -3.930000000000000E-002    3.264177032170780E-022
 -3.920000000000000E-002    2.085200945903109E-021
 -3.910000000000000E-002    9.345572896757592E-021
 -3.900000000000000E-002    3.281608558710955E-020
 -3.890000000000000E-002    9.553055606999719E-020
 -3.880000000000000E-002    2.379082084871312E-019
 -3.870000000000000E-002    5.149539235724885E-019
 -3.860000000000000E-002    9.708826159649938E-019
 -3.850000000000000E-002    1.567454423228118E-018
 -3.840000000000000E-002    2.034939208051596E-018
 -3.830000000000000E-002    1.614581180040852E-018
 -3.820000000000000E-002   -1.323423278588437E-018
 -3.810000000000000E-002   -9.763605029994213E-018
 -3.800000000000000E-002   -2.853907304320366E-017
 -3.790000000000000E-002   -6.464597832830490E-017
 -3.780000000000000E-002   -1.270733122059616E-016
 -3.770000000000000E-002   -2.257361261619529E-016
 -3.760000000000000E-002   -3.690460369924383E-016
 -3.750000000000000E-002   -5.597066371543668E-016
 -3.740000000000000E-002   -7.885419598998294E-016
 -3.730000000000000E-002   -1.026598808518014E-015
 -3.720000000000000E-002   -1.216420202877839E-015
 -3.710000000000000E-002   -1.264220699414848E-015
 -3.700000000000000E-002   -1.035583608665453E-015
 -3.690000000000000E-002   -3.580476433150519E-016
 -3.680000000000000E-002    9.657223338123100E-016
 -3.670000000000000E-002    3.130873029182595E-015
 -3.660000000000000E-002    6.287487085160902E-015
 -3.650000000000000E-002    1.048251259203614E-014
 -3.640000000000000E-002    1.559079372539881E-014
 -3.630000000000000E-002    2.124398280114595E-014
 -3.620000000000000E-002    2.677079360426633E-014
 -3.610000000000000E-002    3.116599517053518E-014
 -3.600000000000000E-002    3.310750313298791E-014
 -3.590000000000000E-002    3.103984567068633E-014
 -3.580000000000000E-002    2.333685323868441E-014
 -3.570000000000000E-002    8.546405005796022E-015
 -3.560000000000000E-002   -1.429459342142568E-014
 -3.550000000000000E-002   -4.530481443010340E-014
 -3.540000000000000E-002   -8.341145101993289E-014
 -3.530000000000000E-002   -1.260769715866135E-013
 -3.520000000000000E-002   -1.691754674474969E-013
 -3.510000000000000E-002   -2.070943376014954E-013
 -3.500000000000000E-002   -2.331228572525055E-013
 -3.490000000000000E-002   -2.401592998677353E-013
 -3.480000000000000E-002   -2.217223563661509E-013
 -3.470000000000000E-002   -1.731947071384476E-013
 -3.460000000000000E-002   -9.316289937895557E-014
 -3.450000000000000E-002    1.534240895531568E-014
 -3.440000000000000E-002    1.439463243700607E-013
 -3.430000000000000E-002    2.786271327664131E-013
 -3.420000000000000E-002    4.002467656932856E-013
 -3.410000000000000E-002    4.860832931840746E-013
 -3.400000000000000E-002    5.124197928845282E-013
 -3.390000000000000E-002    4.580896239100521E-013
 -3.380000000000000E-002    3.086976666911401E-013
 -3.370000000000000E-002    6.105294157837303E-014
 -3.360000000000000E-002   -2.728099555724757E-013
 -3.350000000000000E-002   -6.627453281144760E-013
 -3.340000000000000E-002   -1.059486441353087E-012
 -3.330000000000000E-002   -1.396157471508231E-012
 -3.320000000000000E-002   -1.592740817548244E-012
 -3.310000000000000E-002   -1.563607196378862E-012
 -3.300000000000000E-002   -1.227801965017320E-012
 -3.290000000000000E-002   -5.213198371928164E-013
 -3.280000000000000E-002    5.898400144676372E-013
 -3.270000000000000E-002    2.097412259481962E-012
 -3.260000000000000E-002    3.941179033242678E-012
 -3.250000000000000E-002    6.003635536204708E-012
 -3.240000000000000E-002    8.110542778891330E-012
 -3.230000000000000E-002    1.003838361141809E-011
 -3.220000000000000E-002    1.152902050741896E-011
 -3.210000000000000E-002    1.231094696218434E-011
 -3.200000000000000E-002    1.212559736675174E-011
 -3.190000000000000E-002    1.075628631754702E-011
 -3.180000000000000E-002    8.056694883797664E-012
 -3.170000000000000E-002    3.975487844770195E-012
 -3.160000000000000E-002   -1.426266747796901E-012
 -3.150000000000000E-002   -7.967641098598827E-012
 -3.140000000000000E-002   -1.535208623843372E-011
 -3.130000000000000E-002   -2.318374962219605E-011
 -3.120000000000000E-002   -3.099465851167525E-011
 -3.110000000000000E-002   -3.827996698622330E-011
 -3.100000000000000E-002   -4.453721774429435E-011
 -3.090000000000000E-002   -4.930459173265241E-011
 -3.080000000000000E-002   -5.219308768557543E-011
 -3.070000000000000E-002   -5.290802632224613E-011
 -3.060000000000000E-002   -5.125680708202882E-011
 -3.050000000000000E-002   -4.714175730586357E-011
 -3.040000000000000E-002   -4.053952478642250E-011
 -3.030000000000000E-002   -3.147097743594633E-011
 -3.020000000000000E-002   -1.996789009005306E-011
 -3.010000000000000E-002   -6.044257610994775E-012
 -3.000000000000000E-002    1.031947613265340E-011
 -2.990000000000000E-002    2.917184779001713E-011
 -2.980000000000000E-002    5.056028984345526E-011
 -2.970000000000000E-002    7.447403818788767E-011
 -2.960000000000000E-002    1.007628656347929E-010
 -2.950000000000000E-002    1.290397703155078E-010
 -2.940000000000000E-002    1.585800219931340E-010
 -2.930000000000000E-002    1.882328212160938E-010
 -2.920000000000000E-002    2.163637576524529E-010
 -2.910000000000000E-002    2.408455208479816E-010
 -2.900000000000000E-002    2.591116272865866E-010
 -2.890000000000000E-002    2.682818243790942E-010
 -2.880000000000000E-002    2.653600724158041E-010
 -2.870000000000000E-002    2.474964873550958E-010
 -2.860000000000000E-002    2.122946586495424E-010
 -2.850000000000000E-002    1.581369015155010E-010
 -2.840000000000000E-002    8.449304057417706E-011
 -2.830000000000000E-002   -7.825050146593870E-012
 -2.820000000000000E-002   -1.164999309320173E-010
 -2.810000000000000E-002   -2.376672088481759E-010
 -2.800000000000000E-002   -3.660171882126778E-010
 -2.790000000000000E-002   -4.950461277326024E-010
 -2.780000000000000E-002   -6.174468850443090E-010
 -2.770000000000000E-002   -7.256122341585775E-010
 -2.760000000000000E-002   -8.122069766115664E-010
 -2.750000000000000E-002   -8.707543564011478E-010
 -2.740000000000000E-002   -8.961751619936773E-010
 -2.730000000000000E-002   -8.852179617020687E-010
 -2.720000000000000E-002   -8.367283342494801E-010
 -2.710000000000000E-002   -7.517190628438059E-010
 -2.700000000000000E-002   -6.332258159758768E-010
 -2.690000000000000E-002   -4.859571259001894E-010
 -2.680000000000000E-002   -3.157743512207142E-010
 -2.670000000000000E-002   -1.290603656387657E-010
 -2.660000000000000E-002    6.794563328414463E-011
 -2.650000000000000E-002    2.697608015243932E-010
 -2.640000000000000E-002    4.721332709922094E-010
 -2.630000000000000E-002    6.723046891946194E-010
 -2.620000000000000E-002    8.690113559065975E-010
 -2.610000000000000E-002    1.062203124765012E-009
 -2.600000000000000E-002    1.252499694486595E-009
 -2.590000000000000E-002    1.440438332569567E-009
 -2.580000000000000E-002    1.625603458821913E-009
 -2.570000000000000E-002    1.805752811610682E-009
 -2.560000000000000E-002    1.976069026826454E-009
 -2.550000000000000E-002    2.128661206676165E-009
 -2.540000000000000E-002    2.252426448920984E-009
 -2.530000000000000E-002    2.333342114461587E-009
 -2.520000000000000E-002    2.355219789694658E-009
 -2.510000000000000E-002    2.300892558332104E-009
 -2.500000000000000E-002    2.153754830265017E-009
 -2.490000000000000E-002    1.899524047654247E-009
 -2.480000000000000E-002    1.528052914963175E-009
 -2.470000000000000E-002    1.035000165651615E-009
 -2.460000000000000E-002    4.231678974339283E-010
 -2.450000000000000E-002   -2.966657733176226E-010
 -2.440000000000000E-002   -1.105546308809197E-009
 -2.430000000000000E-002   -1.976842591055469E-009
 -2.420000000000000E-002   -2.877441955772200E-009
 -2.410000000000000E-002   -3.769563126616428E-009
 -2.400000000000000E-002   -4.613036781136874E-009
 -2.390000000000000E-002   -5.367850680607413E-009
 -2.380000000000000E-002   -5.996723774434826E-009
 -2.370000000000000E-002   -6.467457861721914E-009
 -2.360000000000000E-002   -6.754845757132428E-009
 -2.350000000000000E-002   -6.841953909307955E-009
 -2.340000000000000E-002   -6.720672118012324E-009
 -2.330000000000000E-002   -6.391498482134031E-009
 -2.320000000000000E-002   -5.862628857876880E-009
 -2.310000000000000E-002   -5.148489865983585E-009
 -2.300000000000000E-002   -4.267926017837913E-009
 -2.290000000000000E-002   -3.242295494648173E-009
 -2.280000000000000E-002   -2.093730165170002E-009
 -2.270000000000000E-002   -8.438015259295554E-010
 -2.260000000000000E-002    4.872304763719368E-010
 -2.250000000000000E-002    1.880483811552922E-009
 -2.240000000000000E-002    3.317833780405710E-009
 -2.230000000000000E-002    4.780707625911013E-009
 -2.220000000000000E-002    6.248487786334272E-009
 -2.210000000000000E-002    7.696786169128816E-009
 -2.200000000000000E-002    9.095906366551250E-009
 -2.190000000000000E-002    1.040979299788253E-008
 -2.180000000000000E-002    1.159574838267493E-008
 -2.170000000000000E-002    1.260510838921264E-008
 -2.160000000000000E-002    1.338496628846074E-008
 -2.150000000000000E-002    1.388090527978488E-008
 -2.140000000000000E-002    1.404056837045831E-008
 -2.130000000000000E-002    1.381777939344807E-008
 -2.120000000000000E-002    1.317682685528824E-008
 -2.110000000000000E-002    1.209647696644757E-008
 -2.100000000000000E-002    1.057326987167769E-008
 -2.090000000000000E-002    8.623703986648493E-009
 -2.080000000000000E-002    6.285000185056537E-009
 -2.070000000000000E-002    3.614276024401428E-009
 -2.060000000000000E-002    6.861161424934328E-010
 -2.050000000000000E-002   -2.411306832525341E-009
 -2.040000000000000E-002   -5.581250913042700E-009
 -2.030000000000000E-002   -8.724123530959166E-009
 -2.020000000000000E-002   -1.174337676123502E-008
 -2.010000000000000E-002   -1.455102889185959E-008
 -2.000000000000000E-002   -1.707229095257328E-008
 -1.990000000000000E-002   -1.924887358582343E-008
 -1.980000000000000E-002   -2.104066811763674E-008
 -1.970000000000000E-002   -2.242569123260618E-008
 -1.960000000000000E-002   -2.339835522895258E-008
 -1.950000000000000E-002   -2.396630581138983E-008
 -1.940000000000000E-002   -2.414622825313185E-008
 -1.930000000000000E-002   -2.395911913054000E-008
 -1.920000000000000E-002   -2.342558512756004E-008
 -1.910000000000000E-002   -2.256169018717974E-008
 -1.900000000000000E-002   -2.137582642666235E-008
 -1.890000000000000E-002   -1.986690294243957E-008
 -1.880000000000000E-002   -1.802401092686298E-008
 -1.870000000000000E-002   -1.582750743779775E-008
 -1.860000000000000E-002   -1.325125611485929E-008
 -1.850000000000000E-002   -1.026563144088731E-008
 -1.840000000000000E-002   -6.840729699347508E-009
 -1.830000000000000E-002   -2.949198827885173E-009
 -1.820000000000000E-002    1.431893044952453E-009
 -1.810000000000000E-002    6.320662565355549E-009
 -1.800000000000000E-002    1.173183594853636E-008
 -1.790000000000000E-002    1.768015745280578E-008
 -1.780000000000000E-002    2.418571647994272E-008
 -1.770000000000000E-002    3.128090289580991E-008
 -1.760000000000000E-002    3.901849276913974E-008
 -1.750000000000000E-002    4.748020446991636E-008
 -1.740000000000000E-002    5.678497262400505E-008
 -1.730000000000000E-002    6.709614942218152E-008
 -1.720000000000000E-002    7.862692880856846E-008
 -1.710000000000000E-002    9.164338567649717E-008
 -1.700000000000000E-002    1.064647229138690E-007
 -1.690000000000000E-002    1.234606621593425E-007
 -1.680000000000000E-002    1.430459334650467E-007
 -1.670000000000000E-002    1.656723934492074E-007
 -1.660000000000000E-002    1.918192843308856E-007
 -1.650000000000000E-002    2.219824306911478E-007
 -1.640000000000000E-002    2.566632085037640E-007
 -1.630000000000000E-002    2.963582371737406E-007
 -1.620000000000000E-002    3.415507106126340E-007
 -1.610000000000000E-002    3.927037612346988E-007
 -1.600000000000000E-002    4.502568549819467E-007
 -1.590000000000000E-002    5.146249115026096E-007
 -1.580000000000000E-002    5.862005851833252E-007
 -1.570000000000000E-002    6.653591461192577E-007
 -1.560000000000000E-002    7.524656979166561E-007
 -1.550000000000000E-002    8.478835240700063E-007
 -1.540000000000000E-002    9.519833991991374E-007
 -1.530000000000000E-002    1.065152443059649E-006
 -1.520000000000000E-002    1.187802056715143E-006
 -1.510000000000000E-002    1.320373653517741E-006
 -1.500000000000000E-002    1.463342975341656E-006
 -1.490000000000000E-002    1.617220846892664E-006
 -1.480000000000000E-002    1.782551958274671E-006
 -1.470000000000000E-002    1.959911462291071E-006
 -1.460000000000000E-002    2.149900139412910E-006
 -1.450000000000000E-002    2.353137763406949E-006
 -1.440000000000000E-002    2.570257356855899E-006
 -1.430000000000000E-002    2.801900848569234E-006
 -1.420000000000000E-002    3.048715785651886E-006
 -1.410000000000000E-002    3.311355902079074E-006
 -1.400000000000000E-002    3.590484596380363E-006
 -1.390000000000000E-002    3.886782838130122E-006
 -1.380000000000000E-002    4.200960772455418E-006
 -1.370000000000000E-002    4.533772026733829E-006
 -1.360000000000000E-002    4.886032408398638E-006
 -1.350000000000000E-002    5.258637853188161E-006
 -1.340000000000000E-002    5.652584154071595E-006
 -1.330000000000000E-002    6.068984825923786E-006
 -1.320000000000000E-002    6.509086746814981E-006
 -1.310000000000000E-002    6.974279397229654E-006
 -1.300000000000000E-002    7.466101595162199E-006
 -1.290000000000000E-002    7.986240875965898E-006
 -1.280000000000000E-002    8.536524377245135E-006
 -1.270000000000000E-002    9.118909627097224E-006
 -1.260000000000000E-002    9.735465016728350E-006
 -1.250000000000000E-002    1.038834972925890E-005
 -1.240000000000000E-002    1.107979032668593E-005
 -1.230000000000000E-002    1.181206275826685E-005
 -1.220000000000000E-002    1.258747183227782E-005
 -1.210000000000000E-002    1.340833990142528E-005
 -1.200000000000000E-002    1.427700258328427E-005
 -1.190000000000000E-002    1.519580901428513E-005
 -1.180000000000000E-002    1.616713963470076E-005
 -1.170000000000000E-002    1.719342142524928E-005
 -1.160000000000000E-002    1.827715975681218E-005
 -1.150000000000000E-002    1.942097249386133E-005
 -1.140000000000000E-002    2.062763051608201E-005
 -1.130000000000000E-002    2.190009101328903E-005
 -1.120000000000000E-002    2.324153800723218E-005
 -1.110000000000000E-002    2.465541192100253E-005
 -1.100000000000000E-002    2.614543703228409E-005
 -1.090000000000000E-002    2.771563368277897E-005
 -1.080000000000000E-002    2.937032383407150E-005
 -1.070000000000000E-002    3.111413224553656E-005
 -1.060000000000000E-002    3.295197729554432E-005
 -1.050000000000000E-002    3.488905474474219E-005
 -1.040000000000000E-002    3.693082856164982E-005
 -1.030000000000000E-002    3.908300559072116E-005
 -1.020000000000000E-002    4.135154143222158E-005
 -1.010000000000000E-002    4.374263216027222E-005
 -1.000000000000000E-002    4.626272358033406E-005
 -9.899999999999999E-003    4.891854211298323E-005
 -9.800000000000000E-003    5.171711095766388E-005
 -9.699999999999999E-003    5.466580959725945E-005
 -9.599999999999999E-003    5.777240485007479E-005
 -9.500000000000000E-003    6.104511488363915E-005
 -9.399999999999999E-003    6.449263493986396E-005
 -9.299999999999999E-003    6.812421336992576E-005
 -9.200000000000000E-003    7.194964269336851E-005
 -9.099999999999999E-003    7.597930528474446E-005
 -8.999999999999999E-003    8.022415399811609E-005
 -8.900000000000000E-003    8.469570629276226E-005
 -8.799999999999999E-003    8.940602037637479E-005
 -8.699999999999999E-003    9.436763738252351E-005
 -8.600000000000000E-003    9.959354943260061E-005
 -8.499999999999999E-003    1.050971276718934E-004
 -8.399999999999999E-003    1.108921090570054E-004
 -8.300000000000000E-003    1.169925301046367E-004
 -8.199999999999999E-003    1.234127420229024E-004
 -8.100000000000000E-003    1.301673966626432E-004
 -8.000000000000000E-003    1.372714614142397E-004
 -7.899999999999999E-003    1.447402774358304E-004
 -7.800000000000000E-003    1.525896441196516E-004
 -7.699999999999999E-003    1.608358536131463E-004
 -7.599999999999999E-003    1.694958273479274E-004
 -7.499999999999999E-003    1.785871971810657E-004
 -7.399999999999999E-003    1.881283792399124E-004
 -7.299999999999999E-003    1.981386677460588E-004
 -7.199999999999999E-003    2.086382873054150E-004
 -7.100000000000000E-003    2.196484377559037E-004
 -6.999999999999999E-003    2.311913340474688E-004
 -6.899999999999999E-003    2.432901624979697E-004
 -6.800000000000000E-003    2.559691002343806E-004
 -6.699999999999999E-003    2.692532996992240E-004
 -6.599999999999999E-003    2.831688423317643E-004
 -6.499999999999999E-003    2.977427157712345E-004
 -6.399999999999999E-003    3.130028231794940E-004
 -6.299999999999999E-003    3.289779422439040E-004
 -6.199999999999999E-003    3.456977534787315E-004
 -6.100000000000000E-003    3.631929377053286E-004
 -5.999999999999999E-003    3.814951700842817E-004
 -5.899999999999999E-003    4.006372811258679E-004
 -5.800000000000000E-003    4.206532461732055E-004
 -5.699999999999999E-003    4.415784098899951E-004
 -5.599999999999999E-003    4.634495572185175E-004
 -5.499999999999999E-003    4.863048832439111E-004
 -5.399999999999999E-003    5.101842890656515E-004
 -5.299999999999999E-003    5.351293276195837E-004
 -5.199999999999999E-003    5.611832181793305E-004
 -5.099999999999999E-003    5.883908712912772E-004
 -4.999999999999999E-003    6.167989597222564E-004
 -4.899999999999999E-003    6.464557685236129E-004
 -4.799999999999999E-003    6.774112701781611E-004
 -4.699999999999999E-003    7.097170839379848E-004
 -4.599999999999999E-003    7.434262814532228E-004
 -4.499999999999999E-003    7.785936179698258E-004
 -4.399999999999999E-003    8.152753474597887E-004
 -4.299999999999999E-003    8.535292822301220E-004
 -4.199999999999999E-003    8.934149476907046E-004
 -4.099999999999999E-003    9.349935011314612E-004
 -3.999999999999999E-003    9.783279523183656E-004
 -3.899999999999999E-003    1.023483306733932E-003
 -3.799999999999999E-003    1.070526429183023E-003
 -3.699999999999999E-003    1.119526538975986E-003
 -3.599999999999999E-003    1.170554961010479E-003
 -3.499999999999999E-003    1.223685555732681E-003
 -3.399999999999999E-003    1.278994516964990E-003
 -3.299999999999999E-003    1.336560528103178E-003
 -3.199999999999999E-003    1.396464968360971E-003
 -3.099999999999999E-003    1.458791556305741E-003
 -2.999999999999999E-003    1.523626698226857E-003
 -2.899999999999999E-003    1.591059250538752E-003
 -2.799999999999999E-003    1.661180532836969E-003
 -2.699999999999999E-003    1.734084163703842E-003
 -2.599999999999999E-003    1.809866376179651E-003
 -2.499999999999999E-003    1.888625599267620E-003
 -2.399999999999999E-003    1.970462603883696E-003
 -2.299999999999999E-003    2.055480717274821E-003
 -2.199999999999999E-003    2.143785477164537E-003
 -2.099999999999999E-003    2.235484846892663E-003
 -1.999999999999999E-003    2.330689488542152E-003
 -1.899999999999999E-003    2.429512546534598E-003
 -1.799999999999999E-003    2.532069944519984E-003
 -1.699999999999999E-003    2.638480093220572E-003
 -1.599999999999999E-003    2.748864334555545E-003
 -1.499999999999999E-003    2.863346868076812E-003
 -1.399999999999999E-003    2.982054451460167E-003
 -1.299999999999999E-003    3.105116969352067E-003
 -1.199999999999999E-003    3.232667079936487E-003
 -1.099999999999999E-003    3.364840092894129E-003
 -9.999999999999989E-004    3.501774372906953E-003
 -8.999999999999990E-004    3.643610523829823E-003
 -7.999999999999990E-004    3.790492241955995E-003
 -6.999999999999989E-004    3.942565613481486E-003
 -5.999999999999990E-004    4.099979321069026E-003
 -4.999999999999989E-004    4.262884344337439E-003
 -3.999999999999989E-004    4.431434505196232E-003
 -2.999999999999989E-004    4.605786416291302E-003
 -1.999999999999989E-004    4.786098770097175E-003
 -9.999999999999892E-005    4.972532546634448E-003
  1.084202172485504E-018    5.165252433304542E-003
  1.000000000000011E-004    5.364425853144368E-003
  2.000000000000011E-004    5.570222398344987E-003
  3.000000000000011E-004    5.782814874152690E-003
  4.000000000000011E-004    6.002380081988018E-003
  5.000000000000011E-004    6.229097278325669E-003
  6.000000000000011E-004    6.463149843806825E-003
  7.000000000000011E-004    6.704723921127546E-003
  8.000000000000011E-004    6.954009491302772E-003
  9.000000000000012E-004    7.211200061170479E-003
  1.000000000000001E-003    7.476492729756381E-003
  1.100000000000001E-003    7.750088631272530E-003
  1.200000000000001E-003    8.032192084333404E-003
  1.300000000000001E-003    8.323009644215651E-003
  1.400000000000001E-003    8.622753290488771E-003
  1.500000000000001E-003    8.931636384929387E-003
  1.600000000000001E-003    9.249876420866348E-003
  1.700000000000001E-003    9.577694149471124E-003
  1.800000000000001E-003    9.915312011122434E-003
  1.900000000000001E-003    1.026295660428621E-002
  2.000000000000001E-003    1.062085660178962E-002
  2.100000000000001E-003    1.098924479185297E-002
  2.200000000000001E-003    1.136835494772186E-002
  2.300000000000001E-003    1.175842483237466E-002
  2.400000000000001E-003    1.215969576714387E-002
  2.500000000000001E-003    1.257241038608274E-002
  2.600000000000001E-003    1.299681584771612E-002
  2.700000000000001E-003    1.343316146649984E-002
  2.800000000000001E-003    1.388170009572297E-002
  2.900000000000001E-003    1.434268662568306E-002
  3.000000000000001E-003    1.481637822728150E-002
  3.100000000000001E-003    1.530303541709777E-002
  3.200000000000001E-003    1.580291986908492E-002
  3.300000000000001E-003    1.631629793140441E-002
  3.400000000000001E-003    1.684343448876871E-002
  3.500000000000001E-003    1.738459703325284E-002
  3.600000000000001E-003    1.794005615926987E-002
  3.700000000000001E-003    1.851008116244537E-002
  3.800000000000001E-003    1.909494480974756E-002
  3.900000000000001E-003    1.969491746979098E-002
  4.000000000000001E-003    2.031027371645992E-002
  4.100000000000001E-003    2.094128982169114E-002
  4.200000000000001E-003    2.158823785481942E-002
  4.300000000000001E-003    2.225139470578056E-002
  4.400000000000001E-003    2.293103744782658E-002
  4.500000000000001E-003    2.362744413907785E-002
  4.600000000000002E-003    2.434089332597067E-002
  4.700000000000001E-003    2.507166482755871E-002
  4.800000000000001E-003    2.582003851131052E-002
  4.900000000000002E-003    2.658629394255410E-002
  5.000000000000001E-003    2.737071120600536E-002
  5.100000000000001E-003    2.817357210293559E-002
  5.200000000000001E-003    2.899515505168369E-002
  5.300000000000002E-003    2.983573807504640E-002
  5.400000000000001E-003    3.069559768053138E-002
  5.500000000000001E-003    3.157500826262097E-002
  5.600000000000002E-003    3.247424371758895E-002
  5.700000000000001E-003    3.339357432611337E-002
  5.800000000000001E-003    3.433326342824039E-002
  5.900000000000002E-003    3.529357495747940E-002
  6.000000000000001E-003    3.627477098697528E-002
  6.100000000000001E-003    3.727710787251191E-002
  6.200000000000002E-003    3.830084138849881E-002
  6.300000000000002E-003    3.934622176151342E-002
  6.400000000000001E-003    4.041349660222688E-002
  6.500000000000001E-003    4.150290650514563E-002
  6.600000000000002E-003    4.261469616802141E-002
  6.700000000000001E-003    4.374910025157501E-002
  6.800000000000001E-003    4.490635165213203E-002
  6.900000000000002E-003    4.608668109940980E-002
  7.000000000000001E-003    4.729031044087274E-002
  7.100000000000001E-003    4.851745888865448E-002
  7.200000000000002E-003    4.976833858967030E-002
  7.300000000000002E-003    5.104315704976657E-002
  7.400000000000001E-003    5.234211488500734E-002
  7.500000000000001E-003    5.366540800704635E-002
  7.600000000000002E-003    5.501322178748965E-002
  7.700000000000001E-003    5.638573497547993E-002
  7.800000000000001E-003    5.778311677428907E-002
  7.900000000000001E-003    5.920553625549356E-002
  8.000000000000002E-003    6.065314614280608E-002
  8.100000000000001E-003    6.212609773219234E-002
  8.200000000000001E-003    6.362452863268211E-002
  8.300000000000002E-003    6.514858086762863E-002
  8.400000000000001E-003    6.669837227669836E-002
  8.500000000000002E-003    6.827402750741388E-002
  8.600000000000002E-003    6.987564916699823E-002
  8.700000000000001E-003    7.150333928991041E-002
  8.800000000000002E-003    7.315718724082484E-002
  8.900000000000002E-003    7.483727748389710E-002
  9.000000000000001E-003    7.654367319137056E-002
  9.100000000000002E-003    7.827643555865636E-002
  9.200000000000002E-003    8.003560984982763E-002
  9.300000000000001E-003    8.182122030699196E-002
  9.400000000000002E-003    8.363329070712193E-002
  9.500000000000001E-003    8.547181919503073E-002
  9.600000000000001E-003    8.733679767848462E-002
  9.700000000000002E-003    8.922819625085866E-002
  9.800000000000001E-003    9.114597163440841E-002
  9.900000000000001E-003    9.309006334143521E-002
  1.000000000000000E-002    9.506039896398062E-002
  1.010000000000000E-002    9.705688308262886E-002
  1.020000000000000E-002    9.907940348021312E-002
  1.030000000000000E-002    0.101127837006456     
  1.040000000000000E-002    0.103202041468745     
  1.050000000000000E-002    0.105301845627396     
  1.060000000000000E-002    0.107427064812135     
  1.070000000000000E-002    0.109577496831578     
  1.080000000000000E-002    0.111752910832663     
  1.090000000000000E-002    0.113953059241620     
  1.100000000000000E-002    0.116177668484226     
  1.110000000000000E-002    0.118426429337983     
  1.120000000000000E-002    0.120699027143274     
  1.130000000000000E-002    0.122995104202606     
  1.140000000000000E-002    0.125314284675595     
  1.150000000000000E-002    0.127656164422745     
  1.160000000000000E-002    0.130020318987982     
  1.170000000000000E-002    0.132406269323163     
  1.180000000000000E-002    0.134813523169575     
  1.190000000000000E-002    0.137241564202656     
  1.200000000000000E-002    0.139689837150893     
  1.210000000000000E-002    0.142157744758762     
  1.220000000000000E-002    0.144644671420055     
  1.230000000000000E-002    0.147149961165780     
  1.240000000000000E-002    0.149672929402911     
  1.250000000000000E-002    0.152212838550896     
  1.260000000000000E-002    0.154768920067611     
  1.270000000000000E-002    0.157340366433132     
  1.280000000000000E-002    0.159926324237853     
  1.290000000000000E-002    0.162525901905430     
  1.300000000000000E-002    0.165138163016928     
  1.310000000000000E-002    0.167762116836743     
  1.320000000000000E-002    0.170396752179426     
  1.330000000000000E-002    0.173040980464879     
  1.340000000000000E-002    0.175693678190044     
  1.350000000000000E-002    0.178353670281379     
  1.360000000000000E-002    0.181019730711087     
  1.370000000000000E-002    0.183690577480880     
  1.380000000000000E-002    0.186364874295184     
  1.390000000000000E-002    0.189041231837175     
  1.400000000000000E-002    0.191718211691581     
  1.410000000000000E-002    0.194394301064837     
  1.420000000000000E-002    0.197067947102309     
  1.430000000000000E-002    0.199737501189965     
  1.440000000000000E-002    0.202401288640808     
  1.450000000000000E-002    0.205057547977219     
  1.460000000000000E-002    0.207704458707831     
  1.470000000000000E-002    0.210340131445798     
  1.480000000000000E-002    0.212962616335898     
  1.490000000000000E-002    0.215569897681330     
  1.500000000000000E-002    0.218159857739154     
  1.510000000000000E-002    0.220730333916415     
  1.520000000000000E-002    0.223279067341026     
  1.530000000000000E-002    0.225803762257955     
  1.540000000000000E-002    0.228302005527879     
  1.550000000000000E-002    0.230771321618826     
  1.560000000000000E-002    0.233209153729911     
  1.570000000000000E-002    0.235612870111963     
  1.580000000000000E-002    0.237979759536931     
  1.590000000000000E-002    0.240307022802668     
  1.600000000000000E-002    0.242591750883012     
  1.610000000000000E-002    0.244830981369302     
  1.620000000000000E-002    0.247021633790762     
  1.630000000000000E-002    0.249160562955027     
  1.640000000000000E-002    0.251244521479593     
  1.650000000000000E-002    0.253270172423264     
  1.660000000000000E-002    0.255234085591105     
  1.670000000000000E-002    0.257132730947953     
  1.680000000000000E-002    0.258962486381734     
  1.690000000000000E-002    0.260719654064647     
  1.700000000000000E-002    0.262400412597497     
  1.710000000000000E-002    0.264000866327530     
  1.720000000000000E-002    0.265517041675389     
  1.730000000000000E-002    0.266944812677394     
  1.740000000000000E-002    0.268279997498005     
  1.750000000000000E-002    0.269518302722874     
  1.760000000000000E-002    0.270655333642308     
  1.770000000000000E-002    0.271686622222768     
  1.780000000000000E-002    0.272607559959550     
  1.790000000000000E-002    0.273413488822745     
  1.800000000000000E-002    0.274099620147456     
  1.810000000000000E-002    0.274661085514802     
  1.820000000000000E-002    0.275092894275802     
  1.830000000000000E-002    0.275390000754687     
  1.840000000000000E-002    0.275547263807996     
  1.850000000000000E-002    0.275559422755929     
  1.860000000000000E-002    0.275421127602645     
  1.870000000000000E-002    0.275126965439290     