 -4.000000000000000E-002    0.000000000000000E+000
 -3.990000000000000E-002    0.000000000000000E+000
 -3.980000000000000E-002    0.000000000000000E+000
 -3.970000000000000E-002    0.000000000000000E+000
 -3.960000000000000E-002    0.000000000000000E+000
 -3.950000000000000E-002    0.000000000000000E+000
 -3.940000000000000E-002    0.000000000000000E+000
 -3.930000000000000E-002    0.000000000000000E+000
 -3.920000000000000E-002    0.000000000000000E+000
 -3.910000000000000E-002    0.000000000000000E+000
 -3.900000000000000E-002    0.000000000000000E+000
 -3.890000000000000E-002    0.000000000000000E+000
 -3.880000000000000E-002    0.000000000000000E+000
 -3.870000000000000E-002    0.000000000000000E+000
 -3.860000000000000E-002    0.000000000000000E+000
 -3.850000000000000E-002    0.000000000000000E+000
 -3.840000000000000E-002    5.401623025679658E-048
 -3.830000000000000E-002   -4.978542942965117E-047
 -3.820000000000000E-002   -5.728885163812028E-046
 -3.810000000000000E-002   -5.032185887438414E-045
 -3.800000000000000E-002   -3.617958411439681E-044
 -3.790000000000000E-002   -2.145029539523533E-043
 -3.780000000000000E-002   -1.101256490970671E-042
 -3.770000000000000E-002   -5.001540490760340E-042
 -3.760000000000000E-002   -2.041210933133106E-041
 -3.750000000000000E-002   -7.574868703799431E-041
 -3.740000000000000E-002   -2.579391975348574E-040
 -3.730000000000000E-002   -8.117120045909839E-040
 -3.720000000000000E-002   -2.373681796099652E-039
 -3.710000000000000E-002   -6.476919833284895E-039
 -3.700000000000000E-002   -1.653752836865552E-038
 -3.690000000000000E-002   -3.957115523653111E-038
 -3.680000000000000E-002   -8.872982575856812E-038
 -3.670000000000000E-002   -1.860466261686888E-037
 -3.660000000000000E-002   -3.628638121123713E-037
 -3.650000000000000E-002   -6.512076712864164E-037
 -3.640000000000000E-002   -1.051398145831757E-036
 -3.630000000000000E-002   -1.447973779438414E-036
 -3.620000000000000E-002   -1.427317195846169E-036
 -3.610000000000000E-002    7.058839578270269E-038
 -3.600000000000000E-002    5.346122379356644E-036
 -3.590000000000000E-002    1.883876097557784E-035
 -3.580000000000000E-002    4.829057156826302E-035
 -3.570000000000000E-002    1.058862689829905E-034
 -3.560000000000000E-002    2.085873058033907E-034
 -3.550000000000000E-002    3.760316356179011E-034
 -3.540000000000000E-002    6.231000272744210E-034
 -3.530000000000000E-002    9.426014415010321E-034
 -3.520000000000000E-002    1.271798711972806E-033
 -3.510000000000000E-002    1.435420697446110E-033
 -3.500000000000000E-002    1.058791067804814E-033
 -3.490000000000000E-002   -5.500343507314665E-034
 -3.480000000000000E-002   -4.537526765824839E-033
 -3.470000000000000E-002   -1.262595407682662E-032
 -3.460000000000000E-002   -2.714482636893250E-032
 -3.450000000000000E-002   -5.084413830890862E-032
 -3.440000000000000E-002   -8.629321552381184E-032
 -3.430000000000000E-002   -1.345993458928155E-031
 -3.420000000000000E-002   -1.931325616574987E-031
 -3.410000000000000E-002   -2.519579392068145E-031
 -3.400000000000000E-002   -2.888140205626849E-031
 -3.390000000000000E-002   -2.628123924539022E-031
 -3.380000000000000E-002   -1.076544456680424E-031
 -3.370000000000000E-002    2.738648722993704E-031
 -3.360000000000000E-002    1.010939203253818E-030
 -3.350000000000000E-002    2.256637070911793E-030
 -3.340000000000000E-002    4.164072873117551E-030
 -3.330000000000000E-002    6.839004182936410E-030
 -3.320000000000000E-002    1.026076379658031E-029
 -3.310000000000000E-002    1.416537205801825E-029
 -3.300000000000000E-002    1.788999969219663E-029
 -3.290000000000000E-002    2.018807432425876E-029
 -3.280000000000000E-002    1.904023423069610E-029
 -3.270000000000000E-002    1.150853396390869E-029
 -3.260000000000000E-002   -6.291245074155857E-030
 -3.250000000000000E-002   -3.899472198953716E-029
 -3.240000000000000E-002   -9.144114401183973E-029
 -3.230000000000000E-002   -1.676293408437025E-028
 -3.220000000000000E-002   -2.690468546331391E-028
 -3.210000000000000E-002   -3.922951971136316E-028
 -3.200000000000000E-002   -5.260450398097327E-028
 -3.190000000000000E-002   -6.475359311857235E-028
 -3.180000000000000E-002   -7.190935634198180E-028
 -3.170000000000000E-002   -6.854640362356257E-028
 -3.160000000000000E-002   -4.731335561283735E-028
 -3.150000000000000E-002    6.843248836562057E-030
 -3.140000000000000E-002    8.507290292304383E-028
 -3.130000000000000E-002    2.146888633795825E-027
 -3.120000000000000E-002    3.951983207180474E-027
 -3.110000000000000E-002    6.257921810811342E-027
 -3.100000000000000E-002    8.950403120932286E-027
 -3.090000000000000E-002    1.176209699775995E-026
 -3.080000000000000E-002    1.422642054335895E-026
 -3.070000000000000E-002    1.564131354712999E-026
 -3.060000000000000E-002    1.505598765767120E-026
 -3.050000000000000E-002    1.129671191568656E-026
 -3.040000000000000E-002    3.049442549277624E-027
 -3.030000000000000E-002   -1.098354104070943E-026
 -3.020000000000000E-002   -3.184006514809953E-026
 -3.010000000000000E-002   -5.996348892698891E-026
 -3.000000000000000E-002   -9.478730544664042E-026
 -2.990000000000000E-002   -1.342689442234927E-025
 -2.980000000000000E-002   -1.744272531142690E-025
 -2.970000000000000E-002   -2.089654365729578E-025
 -2.960000000000000E-002   -2.290876471279539E-025
 -2.950000000000000E-002   -2.236378800529853E-025
 -2.940000000000000E-002   -1.796983405235709E-025
 -2.930000000000000E-002   -8.377345222047771E-026
 -2.920000000000000E-002    7.635132345843580E-026
 -2.910000000000000E-002    3.090555440669068E-025
 -2.900000000000000E-002    6.157179344845498E-025
 -2.890000000000000E-002    9.871572029360698E-025
 -2.880000000000000E-002    1.400057740009610E-024
 -2.870000000000000E-002    1.813927147126774E-024
 -2.860000000000000E-002    2.169283930204065E-024
 -2.850000000000000E-002    2.387882560074944E-024
 -2.840000000000000E-002    2.375807003969728E-024
 -2.830000000000000E-002    2.030172418259247E-024
 -2.820000000000000E-002    1.249932896685177E-024
 -2.810000000000000E-002   -4.911638225341727E-026
 -2.800000000000000E-002   -1.915642178856578E-024
 -2.790000000000000E-002   -4.341605296874953E-024
 -2.780000000000000E-002   -7.240671274182854E-024
 -2.770000000000000E-002   -1.042907345215217E-023
 -2.760000000000000E-002   -1.361249845374106E-023
 -2.750000000000000E-002   -1.638301708018182E-023
 -2.740000000000000E-002   -1.823008721539058E-023
 -2.730000000000000E-002   -1.856912263173452E-023
 -2.720000000000000E-002   -1.678988961041373E-023
 -2.710000000000000E-002   -1.232505757898553E-023
 -2.700000000000000E-002   -4.736603138119053E-024
 -2.690000000000000E-002    6.185368540887537E-024
 -2.680000000000000E-002    2.032023369200848E-023
 -2.670000000000000E-002    3.712296210015056E-023
 -2.660000000000000E-002    5.555341924654080E-023
 -2.650000000000000E-002    7.404494122613409E-023
 -2.640000000000000E-002    9.052796778026019E-023
 -2.630000000000000E-002    1.025219955580473E-022
 -2.620000000000000E-002    1.073041435793031E-022
 -2.610000000000000E-002    1.021551906474602E-022
 -2.600000000000000E-002    8.467435605582535E-023
 -2.590000000000000E-002    5.314298829241955E-023
 -2.580000000000000E-002    6.905996469651442E-024
 -2.570000000000000E-002   -5.327076674430766E-023
 -2.560000000000000E-002   -1.249163239114328E-022
 -2.550000000000000E-002   -2.036965202322364E-022
 -2.540000000000000E-002   -2.834321586673360E-022
 -2.530000000000000E-002   -3.563339956180511E-022
 -2.520000000000000E-002   -4.134780874978918E-022
 -2.510000000000000E-002   -4.455209754293631E-022
 -2.500000000000000E-002   -4.436242281371887E-022
 -2.490000000000000E-002   -4.005248155036966E-022
 -2.480000000000000E-002   -3.116557580646908E-022
 -2.470000000000000E-002   -1.761929227190207E-022
 -2.460000000000000E-002    2.114009071462702E-024
 -2.450000000000000E-002    2.144731007362313E-022
 -2.440000000000000E-002    4.470775196959357E-022
 -2.430000000000000E-002    6.817285150258788E-022
 -2.420000000000000E-002    8.970996966340545E-022
 -2.410000000000000E-002    1.070616915525983E-021
 -2.400000000000000E-002    1.180841886975781E-021
 -2.390000000000000E-002    1.210158876860591E-021
 -2.380000000000000E-002    1.147479543399680E-021
 -2.370000000000000E-002    9.906146303921545E-022
 -2.360000000000000E-002    7.479272849648328E-022
 -2.350000000000000E-002    4.388912578853413E-022
 -2.340000000000000E-002    9.323753173332136E-023
 -2.330000000000000E-002   -2.515074147242225E-022
 -2.320000000000000E-002   -5.541185939338750E-022
 -2.310000000000000E-002   -7.752095064909566E-022
 -2.300000000000000E-002   -8.837708977101857E-022
 -2.290000000000000E-002   -8.640238610782842E-022
 -2.280000000000000E-002   -7.216851258312393E-022
 -2.270000000000000E-002   -4.885952466415598E-022
 -2.260000000000000E-002   -2.246156115193434E-022
 -2.250000000000000E-002   -1.580183305265885E-023
 -2.240000000000000E-002    3.189005180523237E-023
 -2.230000000000000E-002   -1.963192342876028E-022
 -2.220000000000000E-002   -8.084234707497429E-022
 -2.210000000000000E-002   -1.886427750289134E-021
 -2.200000000000000E-002   -3.465219104374545E-021
 -2.190000000000000E-002   -5.511868966798194E-021
 -2.180000000000000E-002   -7.908276017508646E-021
 -2.170000000000000E-002   -1.044035391743707E-020
 -2.160000000000000E-002   -1.279691098162241E-020
 -2.150000000000000E-002   -1.458088327760098E-020
 -2.140000000000000E-002   -1.533463257179976E-020
 -2.130000000000000E-002   -1.457960844241813E-020
 -2.120000000000000E-002   -1.186891891688036E-020
 -2.110000000000000E-002   -6.849368736021009E-021
 -2.100000000000000E-002    6.724299497481922E-022
 -2.090000000000000E-002    1.066696227472255E-020
 -2.080000000000000E-002    2.282993409397944E-020
 -2.070000000000000E-002    3.655011846091926E-020
 -2.060000000000000E-002    5.090465042149992E-020
 -2.050000000000000E-002    6.468763018768388E-020
 -2.040000000000000E-002    7.647484184117719E-020
 -2.030000000000000E-002    8.472351822397284E-020
 -2.020000000000000E-002    8.790158906909867E-020
 -2.010000000000000E-002    8.463644504234443E-020
 -2.000000000000000E-002    7.386932743824332E-020
 -1.990000000000000E-002    5.499897663635449E-020
 -1.980000000000000E-002    2.799730802208212E-020
 -1.970000000000000E-002   -6.518520030665749E-021
 -1.960000000000000E-002   -4.726945888466893E-020
 -1.950000000000000E-002   -9.235912292515829E-020
 -1.940000000000000E-002   -1.393777123707211E-019
 -1.930000000000000E-002   -1.855553077708176E-019
 -1.920000000000000E-002   -2.279469600774103E-019
 -1.910000000000000E-002   -2.636263158508881E-019
 -1.900000000000000E-002   -2.898622108319696E-019
 -1.890000000000000E-002   -3.042542918023218E-019
 -1.880000000000000E-002   -3.048101089281247E-019
 -1.870000000000000E-002   -2.899567689065904E-019
 -1.860000000000000E-002   -2.584938823033184E-019
 -1.850000000000000E-002   -2.095093952170020E-019
 -1.840000000000000E-002   -1.422937796559125E-019
 -1.830000000000000E-002   -5.629704650806648E-020
 -1.820000000000000E-002    4.882423140465578E-020
 -1.810000000000000E-002    1.730296937418953E-019
 -1.800000000000000E-002    3.155644840619300E-019
 -1.790000000000000E-002    4.744781986520880E-019
 -1.780000000000000E-002    6.460307955662511E-019
 -1.770000000000000E-002    8.240595863998263E-019
 -1.760000000000000E-002    9.994158786192985E-019
 -1.750000000000000E-002    1.159605317640573E-018
 -1.740000000000000E-002    1.288774928932952E-018
 -1.730000000000000E-002    1.368178529861401E-018
 -1.720000000000000E-002    1.377215637023906E-018
 -1.710000000000000E-002    1.295078319021174E-018
 -1.700000000000000E-002    1.102959023783520E-018
 -1.690000000000000E-002    7.866786708737077E-019
 -1.680000000000000E-002    3.395005376809807E-019
 -1.670000000000000E-002   -2.351864602049689E-019
 -1.660000000000000E-002   -9.216828566505547E-019
 -1.650000000000000E-002   -1.690671546293401E-018
 -1.640000000000000E-002   -2.499128000435280E-018
 -1.630000000000000E-002   -3.291691659111451E-018
 -1.620000000000000E-002   -4.003599874379270E-018
 -1.610000000000000E-002   -4.565105072113925E-018
 -1.600000000000000E-002   -4.907097551392513E-018
 -1.590000000000000E-002   -4.967470629186451E-018
 -1.580000000000000E-002   -4.697615765662728E-018
 -1.570000000000000E-002   -4.068353841602904E-018
 -1.560000000000000E-002   -3.074609444115986E-018
 -1.550000000000000E-002   -1.738233196597567E-018
 -1.540000000000000E-002   -1.085677147285849E-019
 -1.530000000000000E-002    1.739389541259363E-018
 -1.520000000000000E-002    3.709077974018401E-018
 -1.510000000000000E-002    5.688276129344438E-018
 -1.500000000000000E-002    7.556146377375616E-018
 -1.490000000000000E-002    9.190612407054496E-018
 -1.480000000000000E-002    1.047527192536107E-017
 -1.470000000000000E-002    1.130519117346874E-017
 -1.460000000000000E-002    1.159121591985058E-017
 -1.450000000000000E-002    1.126281872149745E-017
 -1.440000000000000E-002    1.026990239886818E-017
 -1.430000000000000E-002    8.584337031422365E-018
 -1.420000000000000E-002    6.202212993047613E-018
 -1.410000000000000E-002    3.147765766904911E-018
 -1.400000000000000E-002   -5.203615719476530E-019
 -1.390000000000000E-002   -4.700444257020510E-018
 -1.380000000000000E-002   -9.237340236614647E-018
 -1.370000000000000E-002   -1.391219605344806E-017
 -1.360000000000000E-002   -1.843484614947147E-017
 -1.350000000000000E-002   -2.244225488341931E-017
 -1.340000000000000E-002   -2.550665528443449E-017
 -1.330000000000000E-002   -2.715670831315529E-017
 -1.320000000000000E-002   -2.691395035051980E-017
 -1.310000000000000E-002   -2.434498453457337E-017
 -1.300000000000000E-002   -1.912738074930169E-017
 -1.290000000000000E-002   -1.112432278201694E-017
 -1.280000000000000E-002   -4.600519905809167E-019
 -1.270000000000000E-002    1.241448725738396E-017
 -1.260000000000000E-002    2.667810950684383E-017
 -1.250000000000000E-002    4.113064090872357E-017
 -1.240000000000000E-002    5.423019935180323E-017
 -1.230000000000000E-002    6.418439222999254E-017
 -1.220000000000000E-002    6.909784978612932E-017
 -1.210000000000000E-002    6.717168346179040E-017
 -1.200000000000000E-002    5.694219727083095E-017
 -1.190000000000000E-002    3.753833394861568E-017
 -1.180000000000000E-002    8.929896731424326E-018
 -1.170000000000000E-002   -2.786629955467742E-017
 -1.160000000000000E-002   -7.065702737630197E-017
 -1.150000000000000E-002   -1.160525673290013E-016
 -1.140000000000000E-002   -1.595815946756670E-016
 -1.130000000000000E-002   -1.959555666414112E-016
 -1.120000000000000E-002   -2.194817668012481E-016
 -1.110000000000000E-002   -2.246067746813109E-016
 -1.100000000000000E-002   -2.065533080727722E-016
 -1.090000000000000E-002   -1.619958555973785E-016
 -1.080000000000000E-002   -8.970722543349641E-017
 -1.070000000000000E-002    8.900463131565468E-018
 -1.060000000000000E-002    1.294173597215676E-016
 -1.050000000000000E-002    2.643288833040310E-016
 -1.040000000000000E-002    4.032125797296206E-016
 -1.030000000000000E-002    5.332664124478947E-016
 -1.020000000000000E-002    6.401652121249614E-016
 -1.010000000000000E-002    7.092071902185604E-016
 -1.000000000000000E-002    7.266778928955191E-016
 -9.899999999999999E-003    6.813279137484052E-016
 -9.800000000000000E-003    5.658351063551185E-016
 -9.699999999999999E-003    3.781095492351679E-016
 -9.599999999999999E-003    1.222967332664980E-016
 -9.500000000000000E-003   -1.906538737741033E-016
 -9.399999999999999E-003   -5.429605713228837E-016
 -9.299999999999999E-003   -9.105912395743419E-016
 -9.200000000000000E-003   -1.264477003500874E-015
 -9.099999999999999E-003   -1.572325883618178E-015
 -8.999999999999999E-003   -1.800951076501889E-015
 -8.900000000000000E-003   -1.918975669112502E-015
 -8.799999999999999E-003   -1.899731111679442E-015
 -8.699999999999999E-003   -1.724132511253068E-015
 -8.600000000000000E-003   -1.383295558476610E-015
 -8.499999999999999E-003   -8.806528284922878E-016
 -8.399999999999999E-003   -2.333442124448168E-016
 -8.300000000000000E-003    5.273170581117202E-016
 -8.199999999999999E-003    1.356450907407026E-015
 -8.100000000000000E-003    2.197378580148434E-015
 -8.000000000000000E-003    2.984564937951786E-015
 -7.899999999999999E-003    3.647659176954211E-015
 -7.800000000000000E-003    4.116477642254758E-015
 -7.699999999999999E-003    4.326662326594470E-015
 -7.599999999999999E-003    4.225674570965885E-015
 -7.499999999999999E-003    3.778699576541238E-015
 -7.399999999999999E-003    2.973972020769930E-015
 -7.299999999999999E-003    1.827011414660872E-015
 -7.199999999999999E-003    3.832484162497497E-016
 -7.100000000000000E-003   -1.281423128438205E-015
 -6.999999999999999E-003   -3.062542160421107E-015
 -6.899999999999999E-003   -4.831651273643282E-015
 -6.800000000000000E-003   -6.443569502561906E-015
 -6.699999999999999E-003   -7.746170735939883E-015
 -6.599999999999999E-003   -8.592199317892028E-015
 -6.499999999999999E-003   -8.852398089754079E-015
 -6.399999999999999E-003   -8.428981853588726E-015
 -6.299999999999999E-003   -7.268298062231469E-015
 -6.199999999999999E-003   -5.371404962265530E-015
 -6.100000000000000E-003   -2.801307659567626E-015
 -5.999999999999999E-003    3.143002868693220E-016
 -5.899999999999999E-003    3.785670343243083E-015
 -5.800000000000000E-003    7.369493253085747E-015
 -5.699999999999999E-003    1.078326479872119E-014
 -5.599999999999999E-003    1.372493868124654E-014
 -5.499999999999999E-003    1.589671586673346E-014
 -5.399999999999999E-003    1.703125342967049E-014
 -5.299999999999999E-003    1.691815314883451E-014
 -5.199999999999999E-003    1.542828608077054E-014
 -5.099999999999999E-003    1.253346209749252E-014
 -4.999999999999999E-003    8.319156324991662E-015
 -4.899999999999999E-003    2.988397644038752E-015
 -4.799999999999999E-003   -3.144335933643819E-015
 -4.699999999999999E-003   -9.669563013976944E-015
 -4.599999999999999E-003   -1.610893299441785E-014
 -4.499999999999999E-003   -2.194940841503108E-014
 -4.399999999999999E-003   -2.668299070701060E-014
 -4.299999999999999E-003   -2.984875432978455E-014
 -4.199999999999999E-003   -3.107354962700629E-014
 -4.099999999999999E-003   -3.010768631766385E-014
 -3.999999999999999E-003   -2.685218421477885E-014
 -3.899999999999999E-003   -2.137485761113544E-014
 -3.799999999999999E-003   -1.391347180939079E-014
 -3.699999999999999E-003   -4.865363721405612E-015
 -3.599999999999999E-003    5.235852671886133E-015
 -3.499999999999999E-003    1.575463861785322E-014
 -3.399999999999999E-003    2.599611303074966E-014
 -3.299999999999999E-003    3.525336812689887E-014
 -3.199999999999999E-003    4.285567711523256E-014
 -3.099999999999999E-003    4.821383621284370E-014
 -2.999999999999999E-003    5.085945035283001E-014
 -2.899999999999999E-003    5.047567743398259E-014
 -2.799999999999999E-003    4.691794631748706E-014
 -2.699999999999999E-003    4.022425370955563E-014
 -2.599999999999999E-003    3.061546475910889E-014
 -2.499999999999999E-003    1.848682467128161E-014
 -2.399999999999999E-003    4.392156570394597E-015
 -2.299999999999999E-003   -1.097773464833253E-014
 -2.199999999999999E-003   -2.682128343223975E-014
 -2.099999999999999E-003   -4.225640007873939E-014
 -1.999999999999999E-003   -5.635478593747705E-014
 -1.899999999999999E-003   -6.818086761460116E-014
 -1.799999999999999E-003   -7.683618002087553E-014
 -1.699999999999999E-003   -8.150975386751210E-014
 -1.599999999999999E-003   -8.153444709258649E-014
 -1.499999999999999E-003   -7.644766372214900E-014
 -1.399999999999999E-003   -6.605344306045324E-014
 -1.299999999999999E-003   -5.048079161183326E-014
 -1.199999999999999E-003   -3.023147246199767E-014
 -1.099999999999999E-003   -6.209081108438740E-015
 -9.999999999999989E-004    2.027922078533800E-014
 -8.999999999999990E-004    4.755629448078148E-014
 -7.999999999999990E-004    7.364981325467198E-014
 -6.999999999999989E-004    9.641065438712116E-014
 -5.999999999999990E-004    1.136726574487161E-013
 -4.999999999999989E-004    1.234459822981903E-013
 -3.999999999999989E-004    1.241300538165248E-013
 -2.999999999999989E-004    1.147273929406444E-013
 -1.999999999999989E-004    9.503459042663743E-014
 -9.999999999999892E-005    6.578533589380478E-014
  1.084202172485504E-018    2.872053286370629E-014
  1.000000000000011E-004   -1.343544971848319E-014
  2.000000000000011E-004   -5.710629444184542E-014
  3.000000000000011E-004   -9.810735066748285E-014
  4.000000000000011E-004   -1.319929976540124E-013
  5.000000000000011E-004   -1.544864609227530E-013
  6.000000000000011E-004   -1.619578813324832E-013
  7.000000000000011E-004   -1.519052950046742E-013
  8.000000000000011E-004   -1.233857624798052E-013
  9.000000000000012E-004   -7.734122766454776E-014
  1.000000000000001E-003   -1.676756483717397E-014
  1.100000000000001E-003    5.331566859164824E-014
  1.200000000000001E-003    1.261208706085536E-013
  1.300000000000001E-003    1.935779789513517E-013
  1.400000000000001E-003    2.470306471735978E-013
  1.500000000000001E-003    2.780969576169518E-013
  1.600000000000001E-003    2.796251756752202E-013
  1.700000000000001E-003    2.466542598249001E-013
  1.800000000000001E-003    1.772768536596884E-013
  1.900000000000001E-003    7.329880308234915E-014
  2.000000000000001E-003   -5.940259096316074E-014
  2.100000000000001E-003   -2.109007374629688E-013
  2.200000000000001E-003   -3.676712443296492E-013
  2.300000000000001E-003   -5.134832799505356E-013
  2.400000000000001E-003   -6.306962670519364E-013
  2.500000000000001E-003   -7.018826498615524E-013
  2.600000000000001E-003   -7.116532001884903E-013
  2.700000000000001E-003   -6.485259315448288E-013
  2.800000000000001E-003   -5.066559093165619E-013
  2.900000000000001E-003   -2.872365760394871E-013
  3.000000000000001E-003    6.084751427918369E-016
  3.100000000000001E-003    3.395948105890700E-013
  3.200000000000001E-003    7.048101455062182E-013
  3.300000000000001E-003    1.065054973276786E-012
  3.400000000000001E-003    1.384958893747932E-012
  3.500000000000001E-003    1.627766325873500E-012
  3.600000000000001E-003    1.758607726158678E-012
  3.700000000000001E-003    1.748008554214002E-012
  3.800000000000001E-003    1.575338416524062E-012
  3.900000000000001E-003    1.231877401655325E-012
  4.000000000000001E-003    7.231752406704591E-013
  4.100000000000001E-003    7.041190713284005E-014
  4.200000000000001E-003   -6.894773555876880E-013
  4.300000000000001E-003   -1.505058827725920E-012
  4.400000000000001E-003   -2.313083201041655E-012
  4.500000000000001E-003   -3.042512063194051E-012
  4.600000000000002E-003   -3.619689076661492E-012
  4.700000000000001E-003   -3.974329291362687E-012
  4.800000000000001E-003   -4.045903771060538E-012
  4.900000000000002E-003   -3.789919469123927E-012
  5.000000000000001E-003   -3.183554252345476E-012
  5.100000000000001E-003   -2.230108509711430E-012
  5.200000000000001E-003   -9.617841713087113E-013
  5.300000000000002E-003    5.596097067271899E-013
  5.400000000000001E-003    2.244287232449438E-012
  5.500000000000001E-003    3.978555931726111E-012
  5.600000000000002E-003    5.631230105124115E-012
  5.700000000000001E-003    7.062108011394279E-012
  5.800000000000001E-003    8.132025277336015E-012
  5.900000000000002E-003    8.713847055056885E-012
  6.000000000000001E-003    8.703607468201448E-012
  6.100000000000001E-003    8.030951366572968E-012
  6.200000000000002E-003    6.667994415453666E-012
  6.300000000000002E-003    4.635779367419121E-012
  6.400000000000001E-003    2.007625274885506E-012
  6.500000000000001E-003   -1.091156217102055E-012
  6.600000000000002E-003   -4.487454542070188E-012
  6.700000000000001E-003   -7.968467581054270E-012
  6.800000000000001E-003   -1.129344358339646E-011
  6.900000000000002E-003   -1.420844882071720E-011
  7.000000000000001E-003   -1.646331929388056E-011
  7.100000000000001E-003   -1.782971800519172E-011
  7.200000000000002E-003   -1.811905965369123E-011
  7.300000000000002E-003   -1.719902676353050E-011
  7.400000000000001E-003   -1.500738689692835E-011
  7.500000000000001E-003   -1.156199881264158E-011
  7.600000000000002E-003   -6.966043574860893E-012
  7.700000000000001E-003   -1.407872471306836E-012
  7.800000000000001E-003    4.844818860791771E-012
  7.900000000000001E-003    1.145641005085937E-011
  8.000000000000002E-003    1.803985893243250E-011
  8.100000000000001E-003    2.417747918236608E-011
  8.200000000000001E-003    2.944480618437346E-011
  8.300000000000002E-003    3.343619439156568E-011
  8.400000000000001E-003    3.579061584934857E-011
  8.500000000000002E-003    3.621608638500131E-011
  8.600000000000002E-003    3.451125550295230E-011
  8.700000000000001E-003    3.058279406614400E-011
  8.800000000000002E-003    2.445751329309687E-011
  8.900000000000002E-003    1.628841170417268E-011
  9.000000000000001E-003    6.354194489172499E-012
  9.100000000000002E-003   -4.947849050800757E-012
  9.200000000000002E-003   -1.711538711204047E-011
  9.300000000000001E-003   -2.956048067657847E-011
  9.400000000000002E-003   -4.163415965488531E-011
  9.500000000000001E-003   -5.265512205142585E-011
  9.600000000000001E-003   -6.194148142420196E-011
  9.700000000000002E-003   -6.884427819705723E-011
  9.800000000000001E-003   -7.278148052923182E-011
  9.900000000000001E-003   -7.327115418966396E-011
  1.000000000000000E-002   -6.996238224264633E-011
  1.010000000000000E-002   -6.266263289410939E-011
  1.020000000000000E-002   -5.136017643228419E-011
  1.030000000000000E-002   -3.624023592802567E-011
  1.040000000000000E-002   -1.769359686660114E-011
  1.050000000000000E-002    3.683472892544994E-012
  1.060000000000000E-002    2.709896706367157E-011
  1.070000000000000E-002    5.158517257947262E-011
  1.080000000000000E-002    7.602938068122140E-011
  1.090000000000000E-002    9.921495085396099E-011
  1.100000000000000E-002    1.198719984364272E-010
  1.110000000000000E-002    1.367361933374014E-010
  1.120000000000000E-002    1.486134426427111E-010
  1.130000000000000E-002    1.544475710319758E-010
  1.140000000000000E-002    1.533874777560558E-010
  1.150000000000000E-002    1.448497884210099E-010
  1.160000000000000E-002    1.285727623843102E-010
  1.170000000000000E-002    1.046572855146210E-010
  1.180000000000000E-002    7.359112822053415E-011
  1.190000000000000E-002    3.625336878301003E-011
  1.200000000000000E-002   -6.103081711789950E-012
  1.210000000000000E-002   -5.189163145952261E-011
  1.220000000000000E-002   -9.925405330412069E-011
  1.230000000000000E-002   -1.461419567748013E-010
  1.240000000000000E-002   -1.904138162714524E-010
  1.250000000000000E-002   -2.299420723793818E-010
  1.260000000000000E-002   -2.627238505296719E-010
  1.270000000000000E-002   -2.869881007184311E-010
  1.280000000000000E-002   -3.012918590763576E-010
  1.290000000000000E-002   -3.045987805849732E-010
  1.300000000000000E-002   -2.963341357716484E-010
  1.310000000000000E-002   -2.764120420367039E-010
  1.320000000000000E-002   -2.452326875180448E-010
  1.330000000000000E-002   -2.036497667897526E-010
  1.340000000000000E-002   -1.529104432601615E-010
  1.350000000000000E-002   -9.457296925864701E-011
  1.360000000000000E-002   -3.040868625182874E-011
  1.370000000000000E-002    3.770324026875606E-011
  1.380000000000000E-002    1.078791527665533E-010
  1.390000000000000E-002    1.783230523654280E-010
  1.400000000000000E-002    2.473992568125327E-010
  1.410000000000000E-002    3.136786273263433E-010
  1.420000000000000E-002    3.759542639976358E-010
  1.430000000000000E-002    4.332245627110973E-010
  1.440000000000000E-002    4.846456915176968E-010
  1.450000000000000E-002    5.294578448516358E-010
  1.460000000000000E-002    5.668933970859962E-010
  1.470000000000000E-002    5.960767886640157E-010
  1.480000000000000E-002    6.159281536380280E-010
  1.490000000000000E-002    6.250831899689217E-010
  1.500000000000000E-002    6.218412980453514E-010
  1.510000000000000E-002    6.041531611732553E-010
  1.520000000000000E-002    5.696551117964544E-010
  1.530000000000000E-002    5.157559839482725E-010
  1.540000000000000E-002    4.397769114979543E-010
  1.550000000000000E-002    3.391403465900604E-010
  1.560000000000000E-002    2.116005473527669E-010
  1.570000000000000E-002    5.550369149154317E-011
  1.580000000000000E-002   -1.299378033554722E-010
  1.590000000000000E-002   -3.443744206563875E-010
  1.600000000000000E-002   -5.860716529482190E-010
  1.610000000000000E-002   -8.517029408884309E-010
  1.620000000000000E-002   -1.136203120649755E-009
  1.630000000000000E-002   -1.432695628611526E-009
  1.640000000000000E-002   -1.732507471237141E-009
  1.650000000000000E-002   -2.025278753157373E-009
  1.660000000000000E-002   -2.299170183501701E-009
  1.670000000000000E-002   -2.541166370649967E-009
  1.680000000000000E-002   -2.737470629662626E-009
  1.690000000000000E-002   -2.873979884913671E-009
  1.700000000000000E-002   -2.936825166162349E-009
  1.710000000000000E-002   -2.912964982280686E-009
  1.720000000000000E-002   -2.790809746687545E-009
  1.730000000000000E-002   -2.560862262702531E-009
  1.740000000000000E-002   -2.216353593703497E-009
  1.750000000000000E-002   -1.753856637009143E-009
  1.760000000000000E-002   -1.173858267029707E-009
  1.770000000000000E-002   -4.812738433950559E-010
  1.780000000000000E-002    3.141129352342033E-010
  1.790000000000000E-002    1.197303649880577E-009
  1.800000000000000E-002    2.147849107804424E-009
  1.810000000000000E-002    3.139743827286162E-009
  1.820000000000000E-002    4.141467976060955E-009
  1.830000000000000E-002    5.116202583084855E-009
  1.840000000000000E-002    6.022234527521106E-009
  1.850000000000000E-002    6.813579348960830E-009
  1.860000000000000E-002    7.440839425964702E-009
  1.870000000000000E-002    7.852315024466677E-009