 -4.000000000000000E-002    0.000000000000000E+000
 -3.990000000000000E-002    0.000000000000000E+000
 -3.980000000000000E-002    0.000000000000000E+000
 -3.970000000000000E-002    0.000000000000000E+000
 -3.960000000000000E-002    0.000000000000000E+000
 -3.950000000000000E-002    7.394112847693806E-021
 -3.940000000000000E-002    7.224955484271821E-020
 -3.930000000000000E-002    3.747343912052788E-019
 -3.920000000000000E-002    1.359826592685721E-018
 -3.910000000000000E-002    3.833766479453704E-018
 -3.900000000000000E-002    8.808300947908298E-018
 -3.890000000000000E-002    1.674244131125392E-017
 -3.880000000000000E-002    2.576451048632894E-017
 -3.870000000000000E-002    2.855797914923687E-017
 -3.860000000000000E-002    7.948913181378459E-018
 -3.850000000000000E-002   -6.813118916932441E-017
 -3.840000000000000E-002   -2.507846757721199E-016
 -3.830000000000000E-002   -6.109955223732430E-016
 -3.820000000000000E-002   -1.234195658167238E-015
 -3.810000000000000E-002   -2.205588506103026E-015
 -3.800000000000000E-002   -3.584235852330173E-015
 -3.790000000000000E-002   -5.365977104537930E-015
 -3.780000000000000E-002   -7.438308579648243E-015
 -3.770000000000000E-002   -9.533985810275489E-015
 -3.760000000000000E-002   -1.119356716008926E-014
 -3.750000000000000E-002   -1.174945409318644E-014
 -3.740000000000000E-002   -1.034417888348660E-014
 -3.730000000000000E-002   -5.993028068948652E-015
 -3.720000000000000E-002    2.304766491528799E-015
 -3.710000000000000E-002    1.541057184551026E-014
 -3.700000000000000E-002    3.386099824196283E-014
 -3.690000000000000E-002    5.767656385503122E-014
 -3.680000000000000E-002    8.619508177859492E-014
 -3.670000000000000E-002    1.179620675904081E-013
 -3.660000000000000E-002    1.507053388047247E-013
 -3.650000000000000E-002    1.814084094679822E-013
 -3.640000000000000E-002    2.064790041433222E-013
 -3.630000000000000E-002    2.219870653847241E-013
 -3.620000000000000E-002    2.239270555749307E-013
 -3.610000000000000E-002    2.084454255671240E-013
 -3.600000000000000E-002    1.719741669475254E-013
 -3.590000000000000E-002    1.112256245120976E-013
 -3.580000000000000E-002    2.303654509319108E-014
 -3.570000000000000E-002   -9.590324556548877E-014
 -3.560000000000000E-002   -2.493470234417965E-013
 -3.550000000000000E-002   -4.416689386519959E-013
 -3.540000000000000E-002   -6.777422486194382E-013
 -3.530000000000000E-002   -9.623265076614827E-013
 -3.520000000000000E-002   -1.298806359573393E-012
 -3.510000000000000E-002   -1.687198479940456E-012
 -3.500000000000000E-002   -2.121465934150341E-012
 -3.490000000000000E-002   -2.586340843257533E-012
 -3.480000000000000E-002   -3.054021962897344E-012
 -3.470000000000000E-002   -3.481280444178657E-012
 -3.460000000000000E-002   -3.807624848762297E-012
 -3.450000000000000E-002   -3.955216809325605E-012
 -3.440000000000000E-002   -3.831178237996403E-012
 -3.430000000000000E-002   -3.332758690372915E-012
 -3.420000000000000E-002   -2.355549233892458E-012
 -3.410000000000000E-002   -8.045593059977114E-013
 -3.400000000000000E-002    1.392457083490728E-012
 -3.390000000000000E-002    4.270462988702618E-012
 -3.380000000000000E-002    7.812793009071103E-012
 -3.370000000000000E-002    1.193864309895656E-011
 -3.360000000000000E-002    1.649411822996224E-011
 -3.350000000000000E-002    2.124837986675672E-011
 -3.340000000000000E-002    2.589615528199683E-011
 -3.330000000000000E-002    3.006723795983643E-011
 -3.320000000000000E-002    3.334300134619704E-011
 -3.310000000000000E-002    3.527920152246851E-011
 -3.300000000000000E-002    3.543365562127769E-011
 -3.290000000000000E-002    3.339684808592858E-011
 -3.280000000000000E-002    2.882317332254041E-011
 -3.270000000000000E-002    2.146052837532479E-011
 -3.260000000000000E-002    1.117608486020047E-011
 -3.250000000000000E-002   -2.023333987554173E-012
 -3.240000000000000E-002   -1.797727484732875E-011
 -3.230000000000000E-002   -3.636428360124066E-011
 -3.220000000000000E-002   -5.670078253612457E-011
 -3.210000000000000E-002   -7.834521024548029E-011
 -3.200000000000000E-002   -1.005064335341200E-010
 -3.190000000000000E-002   -1.222551808419717E-010
 -3.180000000000000E-002   -1.425381667571434E-010
 -3.170000000000000E-002   -1.601947805844763E-010
 -3.160000000000000E-002   -1.739773161153629E-010
 -3.150000000000000E-002   -1.825764810100663E-010
 -3.140000000000000E-002   -1.846541967084330E-010
 -3.130000000000000E-002   -1.788864146304378E-010
 -3.120000000000000E-002   -1.640178182171665E-010
 -3.110000000000000E-002   -1.389297041511014E-010
 -3.100000000000000E-002   -1.027212350154875E-010
 -3.090000000000000E-002   -5.480169515678753E-011
 -3.080000000000000E-002    5.009599127842165E-012
 -3.070000000000000E-002    7.638169875893285E-011
 -3.060000000000000E-002    1.583761190650110E-010
 -3.050000000000000E-002    2.493651591320785E-010
 -3.040000000000000E-002    3.469727706470218E-010
 -3.030000000000000E-002    4.480473368743155E-010
 -3.020000000000000E-002    5.486726958275947E-010
 -3.010000000000000E-002    6.442233323526264E-010
 -3.000000000000000E-002    7.294668569881948E-010
 -2.990000000000000E-002    7.987143867658517E-010
 -2.980000000000000E-002    8.460174321368726E-010
 -2.970000000000000E-002    8.654070245417960E-010
 -2.960000000000000E-002    8.511700609784288E-010
 -2.950000000000000E-002    7.981549154659451E-010
 -2.940000000000000E-002    7.020983034604979E-010
 -2.930000000000000E-002    5.599630697255142E-010
 -2.920000000000000E-002    3.702753824522096E-010
 -2.910000000000000E-002    1.334476689181383E-010
 -2.900000000000000E-002   -1.479300294954419E-010
 -2.890000000000000E-002   -4.688479512592400E-010
 -2.880000000000000E-002   -8.217085157701416E-010
 -2.870000000000000E-002   -1.196254599140038E-009
 -2.860000000000000E-002   -1.579621795214570E-009
 -2.850000000000000E-002   -1.956539573147030E-009
 -2.840000000000000E-002   -2.309699922205452E-009
 -2.830000000000000E-002   -2.620308110037414E-009
 -2.820000000000000E-002   -2.868816362465511E-009
 -2.810000000000000E-002   -3.035826215448787E-009
 -2.800000000000000E-002   -3.103128925853397E-009
 -2.790000000000000E-002   -3.054833582051817E-009
 -2.780000000000000E-002   -2.878516644298474E-009
 -2.770000000000000E-002   -2.566311411935887E-009
 -2.760000000000000E-002   -2.115847086355834E-009
 -2.750000000000000E-002   -1.530950833644403E-009
 -2.740000000000000E-002   -8.220264312728345E-010
 -2.730000000000000E-002   -6.053946465946685E-012
 -2.720000000000000E-002    8.938300785191128E-010
 -2.710000000000000E-002    1.849168662472023E-009
 -2.700000000000000E-002    2.827397279994241E-009
 -2.690000000000000E-002    3.793358321887037E-009
 -2.680000000000000E-002    4.711003930183284E-009
 -2.670000000000000E-002    5.545151965772557E-009
 -2.660000000000000E-002    6.263148970068798E-009
 -2.650000000000000E-002    6.836295237554868E-009
 -2.640000000000000E-002    7.240914616919803E-009
 -2.630000000000000E-002    7.458983812448134E-009
 -2.620000000000000E-002    7.478288684825438E-009
 -2.610000000000000E-002    7.292131646540348E-009
 -2.600000000000000E-002    6.898669393525848E-009
 -2.590000000000000E-002    6.300017985212056E-009
 -2.580000000000000E-002    5.501286408542844E-009
 -2.570000000000000E-002    4.509727603772311E-009
 -2.560000000000000E-002    3.334182591513124E-009
 -2.550000000000000E-002    1.984954934261743E-009
 -2.540000000000000E-002    4.741973201155150E-010
 -2.530000000000000E-002   -1.183172535765489E-009
 -2.520000000000000E-002   -2.968120213987200E-009
 -2.510000000000000E-002   -4.855857128674459E-009
 -2.500000000000000E-002   -6.814159703190059E-009
 -2.490000000000000E-002   -8.801931245083692E-009
 -2.480000000000000E-002   -1.076829591703171E-008
 -2.470000000000000E-002   -1.265252495149339E-008
 -2.460000000000000E-002   -1.438499724621956E-008
 -2.450000000000000E-002   -1.588932698237492E-008
 -2.440000000000000E-002   -1.708565768962684E-008
 -2.430000000000000E-002   -1.789498442547417E-008
 -2.420000000000000E-002   -1.824422927662294E-008
 -2.410000000000000E-002   -1.807167820731341E-008
 -2.400000000000000E-002   -1.733228596312868E-008
 -2.390000000000000E-002   -1.600235357295866E-008
 -2.380000000000000E-002   -1.408305304392057E-008
 -2.370000000000000E-002   -1.160238055036693E-008
 -2.360000000000000E-002   -8.615251889131847E-009
 -2.350000000000000E-002   -5.201584721936235E-009
 -2.340000000000000E-002   -1.462463491300826E-009
 -2.330000000000000E-002    2.485356466005234E-009
 -2.320000000000000E-002    6.516158382748857E-009
 -2.310000000000000E-002    1.050258542503807E-008
 -2.300000000000000E-002    1.432290677964405E-008
 -2.290000000000000E-002    1.786753432354333E-008
 -2.280000000000000E-002    2.104420271151648E-008
 -2.270000000000000E-002    2.378129387520087E-008
 -2.260000000000000E-002    2.602906360963247E-008
 -2.250000000000000E-002    2.775870456748058E-008
 -2.240000000000000E-002    2.895945501014077E-008
 -2.230000000000000E-002    2.963419341358666E-008
 -2.220000000000000E-002    2.979412723772327E-008
 -2.210000000000000E-002    2.945331641620349E-008
 -2.200000000000000E-002    2.862380159391234E-008
 -2.190000000000000E-002    2.731202836176084E-008
 -2.180000000000000E-002    2.551713494235753E-008
 -2.170000000000000E-002    2.323140595688901E-008
 -2.160000000000000E-002    2.044298437694327E-008
 -2.150000000000000E-002    1.714057212772922E-008
 -2.140000000000000E-002    1.331962377214309E-008
 -2.130000000000000E-002    8.989314688076668E-009
 -2.120000000000000E-002    4.179379661653916E-009
 -2.110000000000000E-002   -1.054048195955181E-009
 -2.100000000000000E-002   -6.624487255949890E-009
 -2.090000000000000E-002   -1.241364772710009E-008
 -2.080000000000000E-002   -1.827291737326706E-008
 -2.070000000000000E-002   -2.402779674480937E-008
 -2.060000000000000E-002   -2.948503814852980E-008
 -2.050000000000000E-002   -3.444178963316859E-008
 -2.040000000000000E-002   -3.869589520483210E-008
 -2.030000000000000E-002   -4.205618020772508E-008
 -2.020000000000000E-002   -4.435159211382445E-008
 -2.010000000000000E-002   -4.543805980102410E-008
 -2.000000000000000E-002   -4.520218392371538E-008
 -1.990000000000000E-002   -4.356113960744635E-008
 -1.980000000000000E-002   -4.045861328012351E-008
 -1.970000000000000E-002   -3.585700239589418E-008
 -1.960000000000000E-002   -2.972653060977797E-008
 -1.950000000000000E-002   -2.203235895908122E-008
 -1.940000000000000E-002   -1.272093186096699E-008
 -1.930000000000000E-002   -1.707067993097425E-009
 -1.920000000000000E-002    1.113688988090876E-008
 -1.910000000000000E-002    2.598854820396897E-008
 -1.900000000000000E-002    4.307869256135360E-008
 -1.890000000000000E-002    6.268987608624896E-008
 -1.880000000000000E-002    8.515027338575691E-008
 -1.870000000000000E-002    1.108235468416043E-007
 -1.860000000000000E-002    1.400954279049680E-007
 -1.850000000000000E-002    1.733586846168541E-007
 -1.840000000000000E-002    2.109977254769704E-007
 -1.830000000000000E-002    2.533747024757523E-007
 -1.820000000000000E-002    3.008184014456605E-007
 -1.810000000000000E-002    3.536169397885068E-007
 -1.800000000000000E-002    4.120152550685716E-007
 -1.790000000000000E-002    4.762171915806731E-007
 -1.780000000000000E-002    5.463920418898842E-007
 -1.770000000000000E-002    6.226845811155745E-007
 -1.760000000000000E-002    7.052271312666624E-007
 -1.750000000000000E-002    7.941523101641076E-007
 -1.740000000000000E-002    8.896049453928585E-007
 -1.730000000000000E-002    9.917512504605538E-007
 -1.720000000000000E-002    1.100784579692083E-006
 -1.710000000000000E-002    1.216927130911821E-006
 -1.700000000000000E-002    1.340427423196150E-006
 -1.690000000000000E-002    1.471553885350590E-006
 -1.680000000000000E-002    1.610586218668437E-006
 -1.670000000000000E-002    1.757805568973672E-006
 -1.660000000000000E-002    1.913486424172298E-006
 -1.650000000000000E-002    2.077890108361771E-006
 -1.640000000000000E-002    2.251264204084207E-006
 -1.630000000000000E-002    2.433847051333163E-006
 -1.620000000000000E-002    2.625879048662577E-006
 -1.610000000000000E-002    2.827620868031531E-006
 -1.600000000000000E-002    3.039376876487866E-006
 -1.590000000000000E-002    3.261523203866028E-006
 -1.580000000000000E-002    3.494537463184749E-006
 -1.570000000000000E-002    3.739028377490636E-006
 -1.560000000000000E-002    3.995761725994494E-006
 -1.550000000000000E-002    4.265681316790185E-006
 -1.540000000000000E-002    4.549921628688866E-006
 -1.530000000000000E-002    4.849810543688592E-006
 -1.520000000000000E-002    5.166864953411004E-006
 -1.510000000000000E-002    5.502774606480051E-006
 -1.500000000000000E-002    5.859378589596467E-006
 -1.490000000000000E-002    6.238638753705257E-006
 -1.480000000000000E-002    6.642607719850172E-006
 -1.470000000000000E-002    7.073398686014382E-006
 -1.460000000000000E-002    7.533160238463038E-006
 -1.450000000000000E-002    8.024055280371856E-006
 -1.440000000000000E-002    8.548251272247814E-006
 -1.430000000000000E-002    9.107918691391279E-006
 -1.420000000000000E-002    9.705240057100311E-006
 -1.410000000000000E-002    1.034243011123322E-005
 -1.400000000000000E-002    1.102175755953213E-005
 -1.390000000000000E-002    1.174557685844002E-005
 -1.380000000000000E-002    1.251635689447973E-005
 -1.370000000000000E-002    1.333670912008124E-005
 -1.360000000000000E-002    1.420940784567011E-005
 -1.350000000000000E-002    1.513739951119509E-005
 -1.340000000000000E-002    1.612380805184327E-005
 -1.330000000000000E-002    1.717192140584255E-005
 -1.320000000000000E-002    1.828517047154274E-005
 -1.310000000000000E-002    1.946709946721038E-005
 -1.300000000000000E-002    2.072133224161906E-005
 -1.290000000000000E-002    2.205153458492764E-005
 -1.280000000000000E-002    2.346137468605510E-005
 -1.270000000000000E-002    2.495450102628690E-005
 -1.260000000000000E-002    2.653452252257011E-005
 -1.250000000000000E-002    2.820500483968758E-005
 -1.240000000000000E-002    2.996947891090675E-005
 -1.230000000000000E-002    3.183147325121881E-005
 -1.220000000000000E-002    3.379455520643455E-005
 -1.210000000000000E-002    3.586238718801506E-005
 -1.200000000000000E-002    3.803879009897013E-005
 -1.190000000000000E-002    4.032781852615671E-005
 -1.180000000000000E-002    4.273383072203106E-005
 -1.170000000000000E-002    4.526155742954770E-005
 -1.160000000000000E-002    4.791615438372310E-005
 -1.150000000000000E-002    5.070325925301065E-005
 -1.140000000000000E-002    5.362901899776909E-005
 -1.130000000000000E-002    5.670010349260748E-005
 -1.120000000000000E-002    5.992371055010908E-005
 -1.110000000000000E-002    6.330755630198783E-005
 -1.100000000000000E-002    6.685984721428944E-005
 -1.090000000000000E-002    7.058925102519780E-005
 -1.080000000000000E-002    7.450486737404214E-005
 -1.070000000000000E-002    7.861619419368482E-005
 -1.060000000000000E-002    8.293310828816241E-005
 -1.050000000000000E-002    8.746584609740837E-005
 -1.040000000000000E-002    9.222500280522802E-005
 -1.030000000000000E-002    9.722157296570744E-005
 -1.020000000000000E-002    1.024669456714083E-004
 -1.010000000000000E-002    1.079729884807718E-004
 -1.000000000000000E-002    1.137520882589010E-004
 -9.899999999999999E-003    1.198172348199968E-004
 -9.800000000000000E-003    1.261821051027894E-004
 -9.699999999999999E-003    1.328611531365180E-004
 -9.599999999999999E-003    1.398696748264995E-004
 -9.500000000000000E-003    1.472239236315431E-004
 -9.399999999999999E-003    1.549411443528767E-004
 -9.299999999999999E-003    1.630396548394365E-004
 -9.200000000000000E-003    1.715388987637544E-004
 -9.099999999999999E-003    1.804594406598360E-004
 -8.999999999999999E-003    1.898230150729745E-004
 -8.900000000000000E-003    1.996524775254195E-004
 -8.799999999999999E-003    2.099718133849166E-004
 -8.699999999999999E-003    2.208061091297921E-004
 -8.600000000000000E-003    2.321814868987264E-004
 -8.499999999999999E-003    2.441250789668973E-004
 -8.399999999999999E-003    2.566649817578383E-004
 -8.300000000000000E-003    2.698302084684472E-004
 -8.199999999999999E-003    2.836506552873148E-004
 -8.100000000000000E-003    2.981570471174894E-004
 -8.000000000000000E-003    3.133809892699239E-004
 -7.899999999999999E-003    3.293549194806022E-004
 -7.800000000000000E-003    3.461121468945707E-004
 -7.699999999999999E-003    3.636868614219989E-004
 -7.599999999999999E-003    3.821142231631392E-004
 -7.499999999999999E-003    4.014303808690485E-004
 -7.399999999999999E-003    4.216724793485345E-004
 -7.299999999999999E-003    4.428788188715409E-004
 -7.199999999999999E-003    4.650888459935488E-004
 -7.100000000000000E-003    4.883432565864763E-004
 -6.999999999999999E-003    5.126839259302786E-004
 -6.899999999999999E-003    5.381541208096842E-004
 -6.800000000000000E-003    5.647983259342881E-004
 -6.699999999999999E-003    5.926623788902285E-004
 -6.599999999999999E-003    6.217935049118466E-004
 -6.499999999999999E-003    6.522401233732777E-004
 -6.399999999999999E-003    6.840520806797797E-004
 -6.299999999999999E-003    7.172804368601025E-004
 -6.199999999999999E-003    7.519775938905254E-004
 -6.100000000000000E-003    7.881972518991744E-004
 -5.999999999999999E-003    8.259943910621609E-004
 -5.899999999999999E-003    8.654254483545997E-004
 -5.800000000000000E-003    9.065481421463748E-004
 -5.699999999999999E-003    9.494217683367785E-004
 -5.599999999999999E-003    9.941071809367544E-004
 -5.499999999999999E-003    1.040666860910979E-003
 -5.399999999999999E-003    1.089165164680162E-003
 -5.299999999999999E-003    1.139668320867040E-003
 -5.199999999999999E-003    1.192244450079001E-003
 -5.099999999999999E-003    1.246964093941093E-003
 -4.999999999999999E-003    1.303899824421145E-003
 -4.899999999999999E-003    1.363126789816150E-003
 -4.799999999999999E-003    1.424722596206378E-003
 -4.699999999999999E-003    1.488767205804669E-003
 -4.599999999999999E-003    1.555343425474879E-003
 -4.499999999999999E-003    1.624536739546414E-003
 -4.399999999999999E-003    1.696435176355008E-003
 -4.299999999999999E-003    1.771129834168354E-003
 -4.199999999999999E-003    1.848714443487981E-003
 -4.099999999999999E-003    1.929285611566737E-003
 -3.999999999999999E-003    2.012942961077853E-003
 -3.899999999999999E-003    2.099788893273698E-003
 -3.799999999999999E-003    2.189928915788732E-003
 -3.699999999999999E-003    2.283471585340156E-003
 -3.599999999999999E-003    2.380528742920998E-003
 -3.499999999999999E-003    2.481215319046154E-003
 -3.399999999999999E-003    2.585649529876598E-003
 -3.299999999999999E-003    2.693952947566771E-003
 -3.199999999999999E-003    2.806250863430047E-003
 -3.099999999999999E-003    2.922671828697950E-003
 -2.999999999999999E-003    3.043347918196113E-003
 -2.899999999999999E-003    3.168415441314171E-003
 -2.799999999999999E-003    3.298013974247579E-003
 -2.699999999999999E-003    3.432286685125901E-003
 -2.599999999999999E-003    3.571381130722128E-003
 -2.499999999999999E-003    3.715448356005486E-003
 -2.399999999999999E-003    3.864643164463294E-003
 -2.299999999999999E-003    4.019124365918461E-003
 -2.199999999999999E-003    4.179054743576095E-003
 -2.099999999999999E-003    4.344601216320708E-003
 -1.999999999999999E-003    4.515934239483563E-003
 -1.899999999999999E-003    4.693228745348325E-003
 -1.799999999999999E-003    4.876663574621535E-003
 -1.699999999999999E-003    5.066421402979750E-003
 -1.599999999999999E-003    5.262689573490620E-003
 -1.499999999999999E-003    5.465659075913195E-003
 -1.399999999999999E-003    5.675525446755859E-003
 -1.299999999999999E-003    5.892488055018946E-003
 -1.199999999999999E-003    6.116750174139394E-003
 -1.099999999999999E-003    6.348519979321818E-003
 -9.999999999999989E-004    6.588008454553575E-003
 -8.999999999999990E-004    6.835431326827496E-003
 -7.999999999999990E-004    7.091007926044795E-003
 -6.999999999999989E-004    7.354961167652395E-003
 -5.999999999999990E-004    7.627517795612607E-003
 -4.999999999999989E-004    7.908908768297428E-003
 -3.999999999999989E-004    8.199367839698608E-003
 -2.999999999999989E-004    8.499132990594372E-003
 -1.999999999999989E-004    8.808445943113587E-003
 -9.999999999999892E-005    9.127550862582380E-003
  1.084202172485504E-018    9.456697065024352E-003
  1.000000000000011E-004    9.796136157357787E-003
  2.000000000000011E-004    1.014612455406519E-002
  3.000000000000011E-004    1.050692243578374E-002
  4.000000000000011E-004    1.087879274041177E-002
  5.000000000000011E-004    1.126200264471780E-002
  6.000000000000011E-004    1.165682348510399E-002
  7.000000000000011E-004    1.206352963456316E-002
  8.000000000000011E-004    1.248239896040526E-002
  9.000000000000012E-004    1.291371374727169E-002
  1.000000000000001E-003    1.335775946456575E-002
  1.100000000000001E-003    1.381482510887793E-002
  1.200000000000001E-003    1.428520326387463E-002
  1.300000000000001E-003    1.476918924499770E-002
  1.400000000000001E-003    1.526708243612867E-002
  1.500000000000001E-003    1.577918491820634E-002
  1.600000000000001E-003    1.630580191955253E-002
  1.700000000000001E-003    1.684724175341186E-002
  1.800000000000001E-003    1.740381594432332E-002
  1.900000000000001E-003    1.797583945432699E-002
  2.000000000000001E-003    1.856362766766661E-002
  2.100000000000001E-003    1.916749992572178E-002
  2.200000000000001E-003    1.978777811610340E-002
  2.300000000000001E-003    2.042478805180994E-002
  2.400000000000001E-003    2.107885496491877E-002
  2.500000000000001E-003    2.175030588150518E-002
  2.600000000000001E-003    2.243947344773011E-002
  2.700000000000001E-003    2.314668676521943E-002
  2.800000000000001E-003    2.387227836705906E-002
  2.900000000000001E-003    2.461658262677538E-002
  3.000000000000001E-003    2.537993227348745E-002
  3.100000000000001E-003    2.616266329178597E-002
  3.200000000000001E-003    2.696510826776987E-002
  3.300000000000001E-003    2.778760367666877E-002
  3.400000000000001E-003    2.863048231429435E-002
  3.500000000000001E-003    2.949407866096657E-002
  3.600000000000001E-003    3.037872472599060E-002
  3.700000000000001E-003    3.128475286806785E-002
  3.800000000000001E-003    3.221249447325273E-002
  3.900000000000001E-003    3.316227629884670E-002
  4.000000000000001E-003    3.413442621312220E-002
  4.100000000000001E-003    3.512926890707704E-002
  4.200000000000001E-003    3.614712534950990E-002
  4.300000000000001E-003    3.718831349832704E-002
  4.400000000000001E-003    3.825314320293640E-002
  4.500000000000001E-003    3.934192975608393E-002
  4.600000000000002E-003    4.045497359966780E-002
  4.700000000000001E-003    4.159257627536574E-002
  4.800000000000001E-003    4.275503024243059E-002
  4.900000000000002E-003    4.394262617190235E-002
  5.000000000000001E-003    4.515564110836806E-002
  5.100000000000001E-003    4.639434729990854E-002
  5.200000000000001E-003    4.765900992103897E-002
  5.300000000000002E-003    4.894988926740923E-002
  5.400000000000001E-003    5.026722887336801E-002
  5.500000000000001E-003    5.161126554440115E-002
  5.600000000000002E-003    5.298222886665781E-002
  5.700000000000001E-003    5.438033352258399E-002
  5.800000000000001E-003    5.580578178408533E-002
  5.900000000000002E-003    5.725876550448964E-002
  6.000000000000001E-003    5.873946201606894E-002
  6.100000000000001E-003    6.024803382703242E-002
  6.200000000000002E-003    6.178463117094669E-002
  6.300000000000002E-003    6.334938749407885E-002
  6.400000000000001E-003    6.494241664174531E-002
  6.500000000000001E-003    6.656381570913572E-002
  6.600000000000002E-003    6.821366806896326E-002
  6.700000000000001E-003    6.989203233723951E-002
  6.800000000000001E-003    7.159895550684668E-002
  6.900000000000002E-003    7.333445527051138E-002
  7.000000000000001E-003    7.509853576320270E-002
  7.100000000000001E-003    7.689116747100889E-002
  7.200000000000002E-003    7.871230238732327E-002
  7.300000000000002E-003    8.056187670861555E-002
  7.400000000000001E-003    8.243978218819581E-002
  7.500000000000001E-003    8.434590411286183E-002
  7.600000000000002E-003    8.628008455316510E-002
  7.700000000000001E-003    8.824214095897534E-002
  7.800000000000001E-003    9.023185297720328E-002
  7.900000000000001E-003    9.224897832033481E-002
  8.000000000000002E-003    9.429323701088424E-002
  8.100000000000001E-003    9.636431710804595E-002
  8.200000000000001E-003    9.846185952106883E-002
  8.300000000000002E-003    0.100585483665362     
  8.400000000000001E-003    0.102734760960082     
  8.500000000000002E-003    0.104909218437397     
  8.600000000000002E-003    0.107108356988247     
  8.700000000000001E-003    0.109331624045739     
  8.800000000000002E-003    0.111578433480257     
  8.900000000000002E-003    0.113848143701939     
  9.000000000000001E-003    0.116140069921968     
  9.100000000000002E-003    0.118453483701827     
  9.200000000000002E-003    0.120787602075719     
  9.300000000000001E-003    0.123141585376565     
  9.400000000000002E-003    0.125514554648132     
  9.500000000000001E-003    0.127905561078690     
  9.600000000000001E-003    0.130313609375017     
  9.700000000000002E-003    0.132737643302828     
  9.800000000000001E-003    0.135176539900114     
  9.900000000000001E-003    0.137629121597330     
  1.000000000000000E-002    0.140094134940297     
  1.010000000000000E-002    0.142570277143200     
  1.020000000000000E-002    0.145056178201053     
  1.030000000000000E-002    0.147550383272784     
  1.040000000000000E-002    0.150051382642924     
  1.050000000000000E-002    0.152557587736953     
  1.060000000000000E-002    0.155067336839020     
  1.070000000000000E-002    0.157578902497444     
  1.080000000000000E-002    0.160090477693576     
  1.090000000000000E-002    0.162600175995747     
  1.100000000000000E-002    0.165106042545641     
  1.110000000000000E-002    0.167606026779304     
  1.120000000000000E-002    0.170097998360737     
  1.130000000000000E-002    0.172579742217950     
  1.140000000000000E-002    0.175048957302969     
  1.150000000000000E-002    0.177503267689239     
  1.160000000000000E-002    0.179940192966865     
  1.170000000000000E-002    0.182357164028726     
  1.180000000000000E-002    0.184751521697633     
  1.190000000000000E-002    0.187120512772897     
  1.200000000000000E-002    0.189461306511694     
  1.210000000000000E-002    0.191770948904631     
  1.220000000000000E-002    0.194046412204590     
  1.230000000000000E-002    0.196284561822281     
  1.240000000000000E-002    0.198482172323550     
  1.250000000000000E-002    0.200635905202345     
  1.260000000000000E-002    0.202742344031493     
  1.270000000000000E-002    0.204797957590929     
  1.280000000000000E-002    0.206799111856207     
  1.290000000000000E-002    0.208742084792484     
  1.300000000000000E-002    0.210623032923420     
  1.310000000000000E-002    0.212438035100992     
  1.320000000000000E-002    0.214183035518813     
  1.330000000000000E-002    0.215853906130545     
  1.340000000000000E-002    0.217446383577160     
  1.350000000000000E-002    0.218956133305537     
  1.360000000000000E-002    0.220378683322202     
  1.370000000000000E-002    0.221709485358833     
  1.380000000000000E-002    0.222943873720698     
  1.390000000000000E-002    0.224077080409482     
  1.400000000000000E-002    0.225104246271526     
  1.410000000000000E-002    0.226020410329511     
  1.420000000000000E-002    0.226820497809541     
  1.430000000000000E-002    0.227499371987880     
  1.440000000000000E-002    0.228051766503723     
  1.450000000000000E-002    0.228472316661238     
  1.460000000000000E-002    0.228755608437450     
  1.470000000000000E-002    0.228896093936324     
  1.480000000000000E-002    0.228888162157351     
  1.490000000000000E-002    0.228726110437881     
  1.500000000000000E-002    0.228404148108573     
  1.510000000000000E-002    0.227916411625425     
  1.520000000000000E-002    0.227256944680180     
  1.530000000000000E-002    0.226419736709935     
  1.540000000000000E-002    0.225398687040183     
  1.550000000000000E-002    0.224187635359088     
  1.560000000000000E-002    0.222780365103011     
  1.570000000000000E-002    0.221170586783122     
  1.580000000000000E-002    0.219351964922216     
  1.590000000000000E-002    0.217318111027588     
  1.600000000000000E-002    0.215062582818210     
  1.610000000000000E-002    0.212578921442129     
  1.620000000000000E-002    0.209860617677289     
  1.630000000000000E-002    0.206901141946156     
  1.640000000000000E-002    0.203693941155632     
  1.650000000000000E-002    0.200232436290987     
  1.660000000000000E-002    0.196510059496071     
  1.670000000000000E-002    0.192520220934904     
  1.680000000000000E-002    0.188256336082086     
  1.690000000000000E-002    0.183711852144701     
  1.700000000000000E-002    0.178880209521854     
  1.710000000000000E-002    0.173754883577929     
  1.720000000000000E-002    0.168329387948629     
  1.730000000000000E-002    0.162597286087125     
  1.740000000000000E-002    0.156552163493020     
  1.750000000000000E-002    0.150187700902117     
  1.760000000000000E-002    0.143497615383022     
  1.770000000000000E-002    0.136475731975571     
  1.780000000000000E-002    0.129115937681252     
  1.790000000000000E-002    0.121412232271156     
  1.800000000000000E-002    0.113358717197592     
  1.810000000000000E-002    0.104949633783296     
  1.820000000000000E-002    9.617932975287334E-002
  1.830000000000000E-002    8.704230131811808E-002
  1.840000000000000E-002    7.753318918692527E-002
  1.850000000000000E-002    6.764680289846843E-002
  1.860000000000000E-002    5.737813332518514E-002
  1.870000000000000E-002    4.672234005977868E-002