 -4.000000000000000E-002    0.000000000000000E+000
 -3.990000000000000E-002    0.000000000000000E+000
 -3.980000000000000E-002    0.000000000000000E+000
 -3.970000000000000E-002    0.000000000000000E+000
 -3.960000000000000E-002    0.000000000000000E+000
 -3.950000000000000E-002    0.000000000000000E+000
 -3.940000000000000E-002    0.000000000000000E+000
 -3.930000000000000E-002    0.000000000000000E+000
 -3.920000000000000E-002    0.000000000000000E+000
 -3.910000000000000E-002    0.000000000000000E+000
 -3.900000000000000E-002    0.000000000000000E+000
 -3.890000000000000E-002    0.000000000000000E+000
 -3.880000000000000E-002    0.000000000000000E+000
 -3.870000000000000E-002    0.000000000000000E+000
 -3.860000000000000E-002    0.000000000000000E+000
 -3.850000000000000E-002    0.000000000000000E+000
 -3.840000000000000E-002    0.000000000000000E+000
 -3.830000000000000E-002    0.000000000000000E+000
 -3.820000000000000E-002    0.000000000000000E+000
 -3.810000000000000E-002    0.000000000000000E+000
 -3.800000000000000E-002    0.000000000000000E+000
 -3.790000000000000E-002    0.000000000000000E+000
 -3.780000000000000E-002    0.000000000000000E+000
 -3.770000000000000E-002    0.000000000000000E+000
 -3.760000000000000E-002    0.000000000000000E+000
 -3.750000000000000E-002    0.000000000000000E+000
 -3.740000000000000E-002    0.000000000000000E+000
 -3.730000000000000E-002    0.000000000000000E+000
 -3.720000000000000E-002    0.000000000000000E+000
 -3.710000000000000E-002    0.000000000000000E+000
 -3.700000000000000E-002    0.000000000000000E+000
 -3.690000000000000E-002    0.000000000000000E+000
 -3.680000000000000E-002    0.000000000000000E+000
 -3.670000000000000E-002    0.000000000000000E+000
 -3.660000000000000E-002    0.000000000000000E+000
 -3.650000000000000E-002    0.000000000000000E+000
 -3.640000000000000E-002    0.000000000000000E+000
 -3.630000000000000E-002    0.000000000000000E+000
 -3.620000000000000E-002    0.000000000000000E+000
 -3.610000000000000E-002    0.000000000000000E+000
 -3.600000000000000E-002    0.000000000000000E+000
 -3.590000000000000E-002    0.000000000000000E+000
 -3.580000000000000E-002    0.000000000000000E+000
 -3.570000000000000E-002    0.000000000000000E+000
 -3.560000000000000E-002    0.000000000000000E+000
 -3.550000000000000E-002    0.000000000000000E+000
 -3.540000000000000E-002    0.000000000000000E+000
 -3.530000000000000E-002    0.000000000000000E+000
 -3.520000000000000E-002    0.000000000000000E+000
 -3.510000000000000E-002    0.000000000000000E+000
 -3.500000000000000E-002    0.000000000000000E+000
 -3.490000000000000E-002    0.000000000000000E+000
 -3.480000000000000E-002    0.000000000000000E+000
 -3.470000000000000E-002    0.000000000000000E+000
 -3.460000000000000E-002    0.000000000000000E+000
 -3.450000000000000E-002    0.000000000000000E+000
 -3.440000000000000E-002    0.000000000000000E+000
 -3.430000000000000E-002    0.000000000000000E+000
 -3.420000000000000E-002    0.000000000000000E+000
 -3.410000000000000E-002    0.000000000000000E+000
 -3.400000000000000E-002    0.000000000000000E+000
 -3.390000000000000E-002    0.000000000000000E+000
 -3.380000000000000E-002    0.000000000000000E+000
 -3.370000000000000E-002    0.000000000000000E+000
 -3.360000000000000E-002    0.000000000000000E+000
 -3.350000000000000E-002    0.000000000000000E+000
 -3.340000000000000E-002    0.000000000000000E+000
 -3.330000000000000E-002    0.000000000000000E+000
 -3.320000000000000E-002    0.000000000000000E+000
 -3.310000000000000E-002    0.000000000000000E+000
 -3.300000000000000E-002    0.000000000000000E+000
 -3.290000000000000E-002    0.000000000000000E+000
 -3.280000000000000E-002    0.000000000000000E+000
 -3.270000000000000E-002    0.000000000000000E+000
 -3.260000000000000E-002    0.000000000000000E+000
 -3.250000000000000E-002    0.000000000000000E+000
 -3.240000000000000E-002    0.000000000000000E+000
 -3.230000000000000E-002    0.000000000000000E+000
 -3.220000000000000E-002    0.000000000000000E+000
 -3.210000000000000E-002    0.000000000000000E+000
 -3.200000000000000E-002    0.000000000000000E+000
 -3.190000000000000E-002    0.000000000000000E+000
 -3.180000000000000E-002    0.000000000000000E+000
 -3.170000000000000E-002    0.000000000000000E+000
 -3.160000000000000E-002    0.000000000000000E+000
 -3.150000000000000E-002    0.000000000000000E+000
 -3.140000000000000E-002    0.000000000000000E+000
 -3.130000000000000E-002    0.000000000000000E+000
 -3.120000000000000E-002    0.000000000000000E+000
 -3.110000000000000E-002    0.000000000000000E+000
 -3.100000000000000E-002    0.000000000000000E+000
 -3.090000000000000E-002    0.000000000000000E+000
 -3.080000000000000E-002    0.000000000000000E+000
 -3.070000000000000E-002    0.000000000000000E+000
 -3.060000000000000E-002    0.000000000000000E+000
 -3.050000000000000E-002    0.000000000000000E+000
 -3.040000000000000E-002    0.000000000000000E+000
 -3.030000000000000E-002    0.000000000000000E+000
 -3.020000000000000E-002    0.000000000000000E+000
 -3.010000000000000E-002    0.000000000000000E+000
 -3.000000000000000E-002    0.000000000000000E+000
 -2.990000000000000E-002    0.000000000000000E+000
 -2.980000000000000E-002    0.000000000000000E+000
 -2.970000000000000E-002    0.000000000000000E+000
 -2.960000000000000E-002    0.000000000000000E+000
 -2.950000000000000E-002    0.000000000000000E+000
 -2.940000000000000E-002    0.000000000000000E+000
 -2.930000000000000E-002    0.000000000000000E+000
 -2.920000000000000E-002    0.000000000000000E+000
 -2.910000000000000E-002    0.000000000000000E+000
 -2.900000000000000E-002    0.000000000000000E+000
 -2.890000000000000E-002    0.000000000000000E+000
 -2.880000000000000E-002    0.000000000000000E+000
 -2.870000000000000E-002    0.000000000000000E+000
 -2.860000000000000E-002    0.000000000000000E+000
 -2.850000000000000E-002    0.000000000000000E+000
 -2.840000000000000E-002    0.000000000000000E+000
 -2.830000000000000E-002    0.000000000000000E+000
 -2.820000000000000E-002    0.000000000000000E+000
 -2.810000000000000E-002    0.000000000000000E+000
 -2.800000000000000E-002    0.000000000000000E+000
 -2.790000000000000E-002    0.000000000000000E+000
 -2.780000000000000E-002    0.000000000000000E+000
 -2.770000000000000E-002    0.000000000000000E+000
 -2.760000000000000E-002    0.000000000000000E+000
 -2.750000000000000E-002    0.000000000000000E+000
 -2.740000000000000E-002    0.000000000000000E+000
 -2.730000000000000E-002    0.000000000000000E+000
 -2.720000000000000E-002    0.000000000000000E+000
 -2.710000000000000E-002    0.000000000000000E+000
 -2.700000000000000E-002    0.000000000000000E+000
 -2.690000000000000E-002    0.000000000000000E+000
 -2.680000000000000E-002    0.000000000000000E+000
 -2.670000000000000E-002    0.000000000000000E+000
 -2.660000000000000E-002    0.000000000000000E+000
 -2.650000000000000E-002    0.000000000000000E+000
 -2.640000000000000E-002    0.000000000000000E+000
 -2.630000000000000E-002    0.000000000000000E+000
 -2.620000000000000E-002    0.000000000000000E+000
 -2.610000000000000E-002    0.000000000000000E+000
 -2.600000000000000E-002    0.000000000000000E+000
 -2.590000000000000E-002    0.000000000000000E+000
 -2.580000000000000E-002    0.000000000000000E+000
 -2.570000000000000E-002    0.000000000000000E+000
 -2.560000000000000E-002    0.000000000000000E+000
 -2.550000000000000E-002    0.000000000000000E+000
 -2.540000000000000E-002    0.000000000000000E+000
 -2.530000000000000E-002    0.000000000000000E+000
 -2.520000000000000E-002    0.000000000000000E+000
 -2.510000000000000E-002    0.000000000000000E+000
 -2.500000000000000E-002    0.000000000000000E+000
 -2.490000000000000E-002    0.000000000000000E+000
 -2.480000000000000E-002    0.000000000000000E+000
 -2.470000000000000E-002    0.000000000000000E+000
 -2.460000000000000E-002    0.000000000000000E+000
 -2.450000000000000E-002    0.000000000000000E+000
 -2.440000000000000E-002    0.000000000000000E+000
 -2.430000000000000E-002    0.000000000000000E+000
 -2.420000000000000E-002    0.000000000000000E+000
 -2.410000000000000E-002    0.000000000000000E+000
 -2.400000000000000E-002    0.000000000000000E+000
 -2.390000000000000E-002    0.000000000000000E+000
 -2.380000000000000E-002    0.000000000000000E+000
 -2.370000000000000E-002    0.000000000000000E+000
 -2.360000000000000E-002    0.000000000000000E+000
 -2.350000000000000E-002    0.000000000000000E+000
 -2.340000000000000E-002    0.000000000000000E+000
 -2.330000000000000E-002    0.000000000000000E+000
 -2.320000000000000E-002    0.000000000000000E+000
 -2.310000000000000E-002    0.000000000000000E+000
 -2.300000000000000E-002    0.000000000000000E+000
 -2.290000000000000E-002    0.000000000000000E+000
 -2.280000000000000E-002    0.000000000000000E+000
 -2.270000000000000E-002    0.000000000000000E+000
 -2.260000000000000E-002    0.000000000000000E+000
 -2.250000000000000E-002    0.000000000000000E+000
 -2.240000000000000E-002    0.000000000000000E+000
 -2.230000000000000E-002    0.000000000000000E+000
 -2.220000000000000E-002    0.000000000000000E+000
 -2.210000000000000E-002    0.000000000000000E+000
 -2.200000000000000E-002    0.000000000000000E+000
 -2.190000000000000E-002    0.000000000000000E+000
 -2.180000000000000E-002    0.000000000000000E+000
 -2.170000000000000E-002    0.000000000000000E+000
 -2.160000000000000E-002    0.000000000000000E+000
 -2.150000000000000E-002    0.000000000000000E+000
 -2.140000000000000E-002    0.000000000000000E+000
 -2.130000000000000E-002    0.000000000000000E+000
 -2.120000000000000E-002    0.000000000000000E+000
 -2.110000000000000E-002    0.000000000000000E+000
 -2.100000000000000E-002    0.000000000000000E+000
 -2.090000000000000E-002    0.000000000000000E+000
 -2.080000000000000E-002    0.000000000000000E+000
 -2.070000000000000E-002    0.000000000000000E+000
 -2.060000000000000E-002    0.000000000000000E+000
 -2.050000000000000E-002    0.000000000000000E+000
 -2.040000000000000E-002    0.000000000000000E+000
 -2.030000000000000E-002    0.000000000000000E+000
 -2.020000000000000E-002    0.000000000000000E+000
 -2.010000000000000E-002    0.000000000000000E+000
 -2.000000000000000E-002    0.000000000000000E+000
 -1.990000000000000E-002    0.000000000000000E+000
 -1.980000000000000E-002    0.000000000000000E+000
 -1.970000000000000E-002    0.000000000000000E+000
 -1.960000000000000E-002    0.000000000000000E+000
 -1.950000000000000E-002    0.000000000000000E+000
 -1.940000000000000E-002    0.000000000000000E+000
 -1.930000000000000E-002    0.000000000000000E+000
 -1.920000000000000E-002    0.000000000000000E+000
 -1.910000000000000E-002    0.000000000000000E+000
 -1.900000000000000E-002    0.000000000000000E+000
 -1.890000000000000E-002    0.000000000000000E+000
 -1.880000000000000E-002    0.000000000000000E+000
 -1.870000000000000E-002    0.000000000000000E+000
 -1.860000000000000E-002    0.000000000000000E+000
 -1.850000000000000E-002    0.000000000000000E+000
 -1.840000000000000E-002    0.000000000000000E+000
 -1.830000000000000E-002    0.000000000000000E+000
 -1.820000000000000E-002    0.000000000000000E+000
 -1.810000000000000E-002    0.000000000000000E+000
 -1.800000000000000E-002    0.000000000000000E+000
 -1.790000000000000E-002    0.000000000000000E+000
 -1.780000000000000E-002    0.000000000000000E+000
 -1.770000000000000E-002    0.000000000000000E+000
 -1.760000000000000E-002    0.000000000000000E+000
 -1.750000000000000E-002    0.000000000000000E+000
 -1.740000000000000E-002    0.000000000000000E+000
 -1.730000000000000E-002    0.000000000000000E+000
 -1.720000000000000E-002    0.000000000000000E+000
 -1.710000000000000E-002    0.000000000000000E+000
 -1.700000000000000E-002    0.000000000000000E+000
 -1.690000000000000E-002    0.000000000000000E+000
 -1.680000000000000E-002    0.000000000000000E+000
 -1.670000000000000E-002    0.000000000000000E+000
 -1.660000000000000E-002    0.000000000000000E+000
 -1.650000000000000E-002    0.000000000000000E+000
 -1.640000000000000E-002    0.000000000000000E+000
 -1.630000000000000E-002    0.000000000000000E+000
 -1.620000000000000E-002    0.000000000000000E+000
 -1.610000000000000E-002    0.000000000000000E+000
 -1.600000000000000E-002    0.000000000000000E+000
 -1.590000000000000E-002    0.000000000000000E+000
 -1.580000000000000E-002    0.000000000000000E+000
 -1.570000000000000E-002    0.000000000000000E+000
 -1.560000000000000E-002    0.000000000000000E+000
 -1.550000000000000E-002    0.000000000000000E+000
 -1.540000000000000E-002    0.000000000000000E+000
 -1.530000000000000E-002    0.000000000000000E+000
 -1.520000000000000E-002    0.000000000000000E+000
 -1.510000000000000E-002    0.000000000000000E+000
 -1.500000000000000E-002    0.000000000000000E+000
 -1.490000000000000E-002    0.000000000000000E+000
 -1.480000000000000E-002    0.000000000000000E+000
 -1.470000000000000E-002    0.000000000000000E+000
 -1.460000000000000E-002    0.000000000000000E+000
 -1.450000000000000E-002    0.000000000000000E+000
 -1.440000000000000E-002    0.000000000000000E+000
 -1.430000000000000E-002    0.000000000000000E+000
 -1.420000000000000E-002    0.000000000000000E+000
 -1.410000000000000E-002    0.000000000000000E+000
 -1.400000000000000E-002    0.000000000000000E+000
 -1.390000000000000E-002    0.000000000000000E+000
 -1.380000000000000E-002    0.000000000000000E+000
 -1.370000000000000E-002    0.000000000000000E+000
 -1.360000000000000E-002    0.000000000000000E+000
 -1.350000000000000E-002    0.000000000000000E+000
 -1.340000000000000E-002    0.000000000000000E+000
 -1.330000000000000E-002    0.000000000000000E+000
 -1.320000000000000E-002    0.000000000000000E+000
 -1.310000000000000E-002    0.000000000000000E+000
 -1.300000000000000E-002    0.000000000000000E+000
 -1.290000000000000E-002    0.000000000000000E+000
 -1.280000000000000E-002    0.000000000000000E+000
 -1.270000000000000E-002    0.000000000000000E+000
 -1.260000000000000E-002    0.000000000000000E+000
 -1.250000000000000E-002    0.000000000000000E+000
 -1.240000000000000E-002    0.000000000000000E+000
 -1.230000000000000E-002    0.000000000000000E+000
 -1.220000000000000E-002    0.000000000000000E+000
 -1.210000000000000E-002    0.000000000000000E+000
 -1.200000000000000E-002    0.000000000000000E+000
 -1.190000000000000E-002    0.000000000000000E+000
 -1.180000000000000E-002    0.000000000000000E+000
 -1.170000000000000E-002    0.000000000000000E+000
 -1.160000000000000E-002    0.000000000000000E+000
 -1.150000000000000E-002    0.000000000000000E+000
 -1.140000000000000E-002    0.000000000000000E+000
 -1.130000000000000E-002    0.000000000000000E+000
 -1.120000000000000E-002    0.000000000000000E+000
 -1.110000000000000E-002    0.000000000000000E+000
 -1.100000000000000E-002   -4.074972550369603E-048
 -1.090000000000000E-002   -8.149945100739207E-048
 -1.080000000000000E-002   -4.325161151870582E-047
 -1.070000000000000E-002   -7.835327793667244E-047
 -1.060000000000000E-002   -1.134549443546391E-046
 -1.050000000000000E-002   -1.134549443546391E-046
 -1.040000000000000E-002   -1.093799718042695E-046
 -1.030000000000000E-002   -6.612836028556363E-047
 -1.020000000000000E-002   -1.333760850150467E-047
 -1.010000000000000E-002    7.862978225089050E-047
 -1.000000000000000E-002    2.095012731562583E-046
 -9.899999999999999E-003    3.740852353149788E-046
 -9.800000000000000E-003    5.546521543332977E-046
 -9.699999999999999E-003    7.256799330862634E-046
 -9.599999999999999E-003    8.343373907621550E-046
 -9.500000000000000E-003    8.806649563886345E-046
 -9.399999999999999E-003    7.893602811736209E-046
 -9.299999999999999E-003    5.754956938925948E-046
 -9.200000000000000E-003    2.360181530083714E-046
 -9.099999999999999E-003    7.752293656950752E-046
 -8.999999999999999E-003    1.090981021258337E-045
 -8.900000000000000E-003    1.259621094305748E-045
 -8.799999999999999E-003    2.935636126074565E-047
 -8.699999999999999E-003   -1.276409647933161E-045
 -8.600000000000000E-003   -2.445217792179484E-045
 -8.499999999999999E-003   -4.534719322941169E-045
 -8.399999999999999E-003   -7.138072810863914E-045
 -8.300000000000000E-003   -9.584491208915665E-045
 -8.199999999999999E-003   -1.048848810275867E-044
 -8.100000000000000E-003   -1.123329003818164E-044
 -8.000000000000000E-003   -1.013258406689071E-044
 -7.899999999999999E-003   -6.121580678804548E-045
 -7.800000000000000E-003    3.563488525754641E-046
 -7.699999999999999E-003    9.118181977882507E-045
 -7.599999999999999E-003    2.027466015280416E-044
 -7.499999999999999E-003    3.324362598892475E-044
 -7.399999999999999E-003    4.746926886684563E-044
 -7.299999999999999E-003    6.064152752160343E-044
 -7.199999999999999E-003    6.980743120197327E-044
 -7.100000000000000E-003    7.210825675029293E-044
 -6.999999999999999E-003    6.443724580748422E-044
 -6.899999999999999E-003    4.245467779943508E-044
 -6.800000000000000E-003    3.901962442502411E-045
 -6.699999999999999E-003   -5.216998598299786E-044
 -6.599999999999999E-003   -1.252631438278736E-043
 -6.499999999999999E-003   -2.118537534257085E-043
 -6.399999999999999E-003   -3.035882963254638E-043
 -6.299999999999999E-003   -3.881763377003724E-043
 -6.199999999999999E-003   -4.496877825684964E-043
 -6.100000000000000E-003   -4.676690171457072E-043
 -5.999999999999999E-003   -4.211250773610771E-043
 -5.899999999999999E-003   -2.884328576417833E-043
 -5.800000000000000E-003   -5.333904877517888E-044
 -5.699999999999999E-003    2.925048889884480E-043
 -5.599999999999999E-003    7.430439851295906E-043
 -5.499999999999999E-003    1.275859908202974E-042
 -5.399999999999999E-003    1.844645321799177E-042
 -5.299999999999999E-003    2.376433762766089E-042
 -5.199999999999999E-003    2.774989649220337E-042
 -5.099999999999999E-003    2.923108931743176E-042
 -4.999999999999999E-003    2.692428958447577E-042
 -4.899999999999999E-003    1.958040200832296E-042
 -4.799999999999999E-003    6.187579032381960E-043
 -4.699999999999999E-003   -1.378073830425461E-042
 -4.599999999999999E-003   -4.008991096240656E-042
 -4.499999999999999E-003   -7.145491104653723E-042
 -4.399999999999999E-003   -1.053122671028720E-041
 -4.299999999999999E-003   -1.376581156758432E-041
 -4.199999999999999E-003   -1.630998077998816E-041
 -4.099999999999999E-003   -1.750733803341081E-041
 -3.999999999999999E-003   -1.663140295546296E-041
 -3.899999999999999E-003   -1.296893316896391E-041
 -3.799999999999999E-003   -5.927596476282170E-042
 -3.699999999999999E-003    4.828292621057656E-042
 -3.599999999999999E-003    1.923114772359068E-041
 -3.499999999999999E-003    3.665339085323671E-041
 -3.399999999999999E-003    5.578823230256949E-041
 -3.299999999999999E-003    7.456756422241373E-041
 -3.199999999999999E-003    9.016518347300880E-041
 -3.099999999999999E-003    9.911005277111705E-041
 -2.999999999999999E-003    9.753818020878616E-041
 -2.899999999999999E-003    8.159069667608768E-041
 -2.799999999999999E-003    4.796870159991966E-041
 -2.699999999999999E-003   -5.391530159607806E-042
 -2.599999999999999E-003   -7.855520264312337E-041
 -2.499999999999999E-003   -1.688315139585413E-040
 -2.399999999999999E-003   -2.701238224544712E-040
 -2.299999999999999E-003   -3.725175162043078E-040
 -2.199999999999999E-003   -4.622611540201897E-040
 -2.099999999999999E-003   -5.222689562961919E-040
 -1.999999999999999E-003   -5.332797744172568E-040
 -1.899999999999999E-003   -4.757356009038977E-040
 -1.799999999999999E-003   -3.323751612140027E-040
 -1.699999999999999E-003   -9.144382943087285E-041
 -1.599999999999999E-003    2.497312816238717E-040
 -1.499999999999999E-003    6.811427270517352E-040
 -1.399999999999999E-003    1.176994813815896E-039
 -1.299999999999999E-003    1.693666777829008E-039
 -1.199999999999999E-003    2.169420122450317E-039
 -1.099999999999999E-003    2.526470548278690E-039
 -9.999999999999989E-004    2.675953674382803E-039
 -8.999999999999990E-004    2.526094927100236E-039
 -7.999999999999990E-004    1.993527358157776E-039
 -6.999999999999989E-004    1.017291479633328E-039
 -5.999999999999990E-004   -4.255149166068164E-040
 -4.999999999999989E-004   -2.304006962002336E-039
 -3.999999999999989E-004   -4.519808906210617E-039
 -2.999999999999989E-004   -6.897889712267189E-039
 -1.999999999999989E-004   -9.184652712499998E-039
 -9.999999999999892E-005   -1.105585760742204E-038
  1.084202172485504E-018   -1.213645923706774E-038
  1.000000000000011E-004   -1.203347403092823E-038
  2.000000000000011E-004   -1.038157578372570E-038
  3.000000000000011E-004   -6.899289170086539E-039
  4.000000000000011E-004   -1.451562449838421E-039
  5.000000000000011E-004    5.887639933123538E-039
  6.000000000000011E-004    1.478110083138419E-038
  7.000000000000011E-004    2.459215413428899E-038
  8.000000000000011E-004    3.437677802221534E-038
  9.000000000000012E-004    4.291343443319271E-038
  1.000000000000001E-003    4.877779526724472E-038
  1.100000000000001E-003    5.046555198942564E-038
  1.200000000000001E-003    4.656097729501961E-038
  1.300000000000001E-003    3.594194091496607E-038
  1.400000000000001E-003    1.800460831731799E-038
  1.500000000000001E-003   -7.116512350580968E-039
  1.600000000000001E-003   -3.836362037218625E-038
  1.700000000000001E-003   -7.364007244430567E-038
  1.800000000000001E-003   -1.097985481798910E-037
  1.900000000000001E-003   -1.427624413502026E-037
  2.000000000000001E-003   -1.677998716665505E-037
  2.100000000000001E-003   -1.799538934214830E-037
  2.200000000000001E-003   -1.746116638772050E-037
  2.300000000000001E-003   -1.481715443898774E-037
  2.400000000000001E-003   -9.874229098582382E-038
  2.500000000000001E-003   -2.678674064977136E-038
  2.600000000000001E-003    6.439320419210263E-038
  2.700000000000001E-003    1.684372513488300E-037
  2.800000000000001E-003    2.760701425119649E-037
  2.900000000000001E-003    3.756771631777391E-037
  3.000000000000001E-003    4.543347367064802E-037
  3.100000000000001E-003    4.992581666052501E-037
  3.200000000000001E-003    4.995536830976724E-037
  3.300000000000001E-003    4.480866457372483E-037
  3.400000000000001E-003    3.432069512072052E-037
  3.500000000000001E-003    1.900262145664204E-037
  3.600000000000001E-003    9.268594319492853E-040
  3.700000000000001E-003   -2.049813874013005E-037
  3.800000000000001E-003   -4.036505424085796E-037
  3.900000000000001E-003   -5.691703553809651E-037
  4.000000000000001E-003   -6.779667123120876E-037
  4.100000000000001E-003   -7.137140972586987E-037
  4.200000000000001E-003   -6.723000428719109E-037
  4.300000000000001E-003   -5.659549328676819E-037
  4.400000000000001E-003   -4.255105217998632E-037
  4.500000000000001E-003   -2.997275319224854E-037
  4.600000000000002E-003   -2.507796775015903E-037
  4.700000000000001E-003   -3.453407003789613E-037
  4.800000000000001E-003   -6.412912881631342E-037
  4.900000000000002E-003   -1.170843286280818E-036
  5.000000000000001E-003   -1.921801360298806E-036
  5.100000000000001E-003   -2.819644284101874E-036
  5.200000000000001E-003   -3.713980636050397E-036
  5.300000000000002E-003   -4.373522042345401E-036
  5.400000000000001E-003   -4.493863512571474E-036
  5.500000000000001E-003   -3.721811607409062E-036
  5.600000000000002E-003   -1.698705269675317E-036
  5.700000000000001E-003    1.877076707079878E-036
  5.800000000000001E-003    7.171220421305922E-036
  5.900000000000002E-003    1.412476936941258E-035
  6.000000000000001E-003    2.236617856365414E-035
  6.100000000000001E-003    3.113861622835607E-035
  6.200000000000002E-003    3.925995407259629E-035
  6.300000000000002E-003    4.513436560426660E-035
  6.400000000000001E-003    4.683345306211307E-035
  6.500000000000001E-003    4.226077371879463E-035
  6.600000000000002E-003    2.940614259604053E-035
  6.700000000000001E-003    6.684775927188358E-036
  6.800000000000001E-003   -2.665802931374697E-035
  6.900000000000002E-003   -7.011263389611098E-035
  7.000000000000001E-003   -1.214944080409670E-034
  7.100000000000001E-003   -1.766252836931913E-034
  7.200000000000002E-003   -2.291867992172485E-034
  7.300000000000002E-003   -2.708271924282630E-034
  7.400000000000001E-003   -2.915968899663753E-034
  7.500000000000001E-003   -2.807663039065200E-034
  7.600000000000002E-003   -2.280435049173092E-034
  7.700000000000001E-003   -1.251596088904459E-034
  7.800000000000001E-003    3.227344374713385E-035
  7.900000000000001E-003    2.427973452286342E-034
  8.000000000000002E-003    4.972691273984959E-034
  8.100000000000001E-003    7.774456970100730E-034
  8.200000000000001E-003    1.055325752048138E-033
  8.300000000000002E-003    1.293590913380714E-033
  8.400000000000001E-003    1.447447547027197E-033
  8.500000000000002E-003    1.468080721798523E-033
  8.600000000000002E-003    1.307779364850399E-033
  8.700000000000001E-003    9.265887699410518E-034
  8.800000000000002E-003    3.000928001267469E-034
  8.900000000000002E-003   -5.723469169697262E-034
  9.000000000000001E-003   -1.659838600542357E-033
  9.100000000000002E-003   -2.893872476983579E-033
  9.200000000000002E-003   -4.165215912985989E-033
  9.300000000000001E-003   -5.325128454089610E-033
  9.400000000000002E-003   -6.192072741778383E-033
  9.500000000000001E-003   -6.564740176876380E-033
  9.600000000000001E-003   -6.241629679601707E-033
  9.700000000000002E-003   -5.046638004444201E-033
  9.800000000000001E-003   -2.859178684938521E-033
  9.900000000000001E-003    3.536838668184117E-034
  1.000000000000000E-002    4.506612730729670E-033
  1.010000000000000E-002    9.371241893955989E-033
  1.020000000000000E-002    1.456218896438638E-032
  1.030000000000000E-002    1.953877280203942E-032
  1.040000000000000E-002    2.362680871563213E-032
  1.050000000000000E-002    2.606353455206286E-032
  1.060000000000000E-002    2.606668898420439E-032
  1.070000000000000E-002    2.292595916589479E-032
  1.080000000000000E-002    1.611165345812713E-032
  1.090000000000000E-002    5.391902198639067E-033
  1.100000000000000E-002   -9.053954248693394E-033
  1.110000000000000E-002   -2.654099397290350E-032
  1.120000000000000E-002   -4.582048735986440E-032
  1.130000000000000E-002   -6.507510631626559E-032
  1.140000000000000E-002   -8.198297115931979E-032
  1.150000000000000E-002   -9.386151016545344E-032
  1.160000000000000E-002   -9.789523462462329E-032
  1.170000000000000E-002   -9.144202659621575E-032
  1.180000000000000E-002   -7.240150821027238E-032
  1.190000000000000E-002   -3.961680270069053E-032
  1.200000000000000E-002    6.730810356060965E-033
  1.210000000000000E-002    6.478472047502042E-032
  1.220000000000000E-002    1.307899251366692E-031
  1.230000000000000E-002    1.990416293519970E-031
  1.240000000000000E-002    2.620569034349301E-031
  1.250000000000000E-002    3.110069568682426E-031
  1.260000000000000E-002    3.364251607450062E-031
  1.270000000000000E-002    3.291762141867626E-031
  1.280000000000000E-002    2.816358326104681E-031
  1.290000000000000E-002    1.889920586237891E-031
  1.300000000000000E-002    5.054113519828906E-032
  1.310000000000000E-002   -1.291805031881383E-031
  1.320000000000000E-002   -3.396060719697808E-031
  1.330000000000000E-002   -5.638725069483950E-031
  1.340000000000000E-002   -7.792421247907823E-031
  1.350000000000000E-002   -9.583326371870049E-031
  1.360000000000000E-002   -1.071208763918600E-030
  1.370000000000000E-002   -1.088296624513763E-030
  1.380000000000000E-002   -9.839739157476845E-031
  1.390000000000000E-002   -7.405697173453734E-031
  1.400000000000000E-002   -3.523953829377250E-031
  1.410000000000000E-002    1.706706355602426E-031
  1.420000000000000E-002    8.005791773127399E-031
  1.430000000000000E-002    1.490037363759010E-030
  1.440000000000000E-002    2.173460790552267E-030
  1.450000000000000E-002    2.770320834552043E-030
  1.460000000000000E-002    3.191057044883985E-030
  1.470000000000000E-002    3.345457396804268E-030
  1.480000000000000E-002    3.153089453152525E-030
  1.490000000000000E-002    2.555022245441847E-030
  1.500000000000000E-002    1.525746376761719E-030
  1.510000000000000E-002    8.392394300753394E-032
  1.520000000000000E-002   -1.699583202663401E-030
  1.530000000000000E-002   -3.697982478753900E-030
  1.540000000000000E-002   -5.730548829115194E-030
  1.550000000000000E-002   -7.571424114029909E-030
  1.560000000000000E-002   -8.965724125764071E-030
  1.570000000000000E-002   -9.652705188808346E-030
  1.580000000000000E-002   -9.394838823466583E-030
  1.590000000000000E-002   -8.010690227193231E-030
  1.600000000000000E-002   -5.408568365580491E-030
  1.610000000000000E-002   -1.617141704776829E-030
  1.620000000000000E-002    3.191268744866048E-030
  1.630000000000000E-002    8.689079317297004E-030
  1.640000000000000E-002    1.439746639915275E-029
  1.650000000000000E-002    1.970897148036712E-029
  1.660000000000000E-002    2.393009174435269E-029
  1.670000000000000E-002    2.634316929094064E-029
  1.680000000000000E-002    2.628450156356403E-029
  1.690000000000000E-002    2.323296539415584E-029
  1.700000000000000E-002    1.690097441895040E-029
  1.710000000000000E-002    7.317606365365075E-030
  1.720000000000000E-002   -5.107598922123354E-030
  1.730000000000000E-002   -1.955172076556240E-029
  1.740000000000000E-002   -3.478687209915418E-029
  1.750000000000000E-002   -4.923765919433712E-029
  1.760000000000000E-002   -6.109124511193736E-029
  1.770000000000000E-002   -6.845808456161399E-029
  1.780000000000000E-002   -6.957503212550500E-029
  1.790000000000000E-002   -6.303578459048839E-029
  1.800000000000000E-002   -4.802721534475715E-029
  1.810000000000000E-002   -2.454508498119148E-029
  1.820000000000000E-002    6.440436151270156E-030
  1.830000000000000E-002    4.289919839996153E-029
  1.840000000000000E-002    8.176178974930996E-029
  1.850000000000000E-002    1.190657521539771E-028
  1.860000000000000E-002    1.502356102766846E-028
  1.870000000000000E-002    1.704907800502308E-028