 -4.000000000000000E-002    0.000000000000000E+000
 -3.990000000000000E-002    0.000000000000000E+000
 -3.980000000000000E-002    1.044779499892230E-012
 -3.970000000000000E-002    4.352580525579704E-012
 -3.960000000000000E-002    9.817242387224437E-012
 -3.950000000000000E-002    1.405476571855230E-011
 -3.940000000000000E-002    8.256461688794155E-012
 -3.930000000000000E-002   -2.385214946354525E-011
 -3.920000000000000E-002   -1.076657304983932E-010
 -3.910000000000000E-002   -2.787688634202286E-010
 -3.900000000000000E-002   -5.832945722699350E-010
 -3.890000000000000E-002   -1.077591445251854E-009
 -3.880000000000000E-002   -1.827248291827896E-009
 -3.870000000000000E-002   -2.905587567851090E-009
 -3.860000000000000E-002   -4.391729106127149E-009
 -3.850000000000000E-002   -6.368242669714004E-009
 -3.840000000000000E-002   -8.918341714632402E-009
 -3.830000000000000E-002   -1.212251239797686E-008
 -3.820000000000000E-002   -1.605438830381689E-008
 -3.810000000000000E-002   -2.077577082660013E-008
 -3.800000000000000E-002   -2.633073967121488E-008
 -3.790000000000000E-002   -3.273902028655562E-008
 -3.780000000000000E-002   -3.998901937133229E-008
 -3.770000000000000E-002   -4.803114543537014E-008
 -3.760000000000000E-002   -5.677226173325960E-008
 -3.750000000000000E-002   -6.607228357377500E-008
 -3.740000000000000E-002   -7.574381499990312E-008
 -3.730000000000000E-002   -8.555562308388373E-008
 -3.720000000000000E-002   -9.524027747498851E-008
 -3.710000000000000E-002   -1.045058935031302E-007
 -3.700000000000000E-002   -1.130511960455596E-007
 -3.690000000000000E-002   -1.205826387058765E-007
 -3.680000000000000E-002   -1.268316998201385E-007
 -3.670000000000000E-002   -1.315703091492371E-007
 -3.660000000000000E-002   -1.346221835757259E-007
 -3.650000000000000E-002   -1.358682627169726E-007
 -3.640000000000000E-002   -1.352448272796013E-007
 -3.630000000000000E-002   -1.327340704299246E-007
 -3.620000000000000E-002   -1.283475162123358E-007
 -3.610000000000000E-002   -1.221040324488134E-007
 -3.600000000000000E-002   -1.140050672540869E-007
 -3.590000000000000E-002   -1.040102666442120E-007
 -3.580000000000000E-002   -9.201718468354899E-008
 -3.570000000000000E-002   -7.784824292095162E-008
 -3.560000000000000E-002   -6.124789482020453E-008
 -3.550000000000000E-002   -4.189139040758171E-008
 -3.540000000000000E-002   -1.940545677625751E-008
 -3.530000000000000E-002    6.600548586933498E-009
 -3.520000000000000E-002    3.649564318705376E-008
 -3.510000000000000E-002    7.058488355749762E-008
 -3.500000000000000E-002    1.090680650693812E-007
 -3.490000000000000E-002    1.520045781610434E-007
 -3.480000000000000E-002    1.992889916146160E-007
 -3.470000000000000E-002    2.506413110440631E-007
 -3.460000000000000E-002    3.056131234396014E-007
 -3.450000000000000E-002    3.636105851822672E-007
 -3.440000000000000E-002    4.239320792418766E-007
 -3.430000000000000E-002    4.858177860295952E-007
 -3.420000000000000E-002    5.485062601713898E-007
 -3.410000000000000E-002    6.112935126407869E-007
 -3.400000000000000E-002    6.735884572450127E-007
 -3.390000000000000E-002    7.349614715747404E-007
 -3.380000000000000E-002    7.951815103509419E-007
 -3.370000000000000E-002    8.542419087460029E-007
 -3.360000000000000E-002    9.123723492252558E-007
 -3.350000000000000E-002    9.700403053709054E-007
 -3.340000000000000E-002    1.027943516973719E-006
 -3.330000000000000E-002    1.086995687457304E-006
 -3.320000000000000E-002    1.148310158324242E-006
 -3.310000000000000E-002    1.213181120545709E-006
 -3.300000000000000E-002    1.283064521227848E-006
 -3.290000000000000E-002    1.359559573522605E-006
 -3.280000000000000E-002    1.444384874535863E-006
 -3.270000000000000E-002    1.539352234282398E-006
 -3.260000000000000E-002    1.646329753436005E-006
 -3.250000000000000E-002    1.767197315438708E-006
 -3.240000000000000E-002    1.903789226018129E-006
 -3.230000000000000E-002    2.057826424044391E-006
 -3.220000000000000E-002    2.230843311637123E-006
 -3.210000000000000E-002    2.424111667155030E-006
 -3.200000000000000E-002    2.638574581176869E-006
 -3.190000000000000E-002    2.874793630782381E-006
 -3.180000000000000E-002    3.132923659379296E-006
 -3.170000000000000E-002    3.412721628085039E-006
 -3.160000000000000E-002    3.713593580443708E-006
 -3.150000000000000E-002    4.034681199152350E-006
 -3.140000000000000E-002    4.374990834949869E-006
 -3.130000000000000E-002    4.733550976447571E-006
 -3.120000000000000E-002    5.109581441875466E-006
 -3.110000000000000E-002    5.502669797028477E-006
 -3.100000000000000E-002    5.912927819525357E-006
 -3.090000000000000E-002    6.341110610226828E-006
 -3.080000000000000E-002    6.788682796791971E-006
 -3.070000000000000E-002    7.257822141995744E-006
 -3.060000000000000E-002    7.751346526499243E-006
 -3.050000000000000E-002    8.272578442520560E-006
 -3.040000000000000E-002    8.825146027500695E-006
 -3.030000000000000E-002    9.412736860782171E-006
 -3.020000000000000E-002    1.003883590920773E-005
 -3.010000000000000E-002    1.070646389833693E-005
 -3.000000000000000E-002    1.141794922527838E-005
 -2.990000000000000E-002    1.217474826553906E-005
 -2.980000000000000E-002    1.297735320721899E-005
 -2.970000000000000E-002    1.382527245307006E-005
 -2.960000000000000E-002    1.471711241923656E-005
 -2.950000000000000E-002    1.565073711097579E-005
 -2.940000000000000E-002    1.662349966968955E-005
 -2.930000000000000E-002    1.763251982848118E-005
 -2.920000000000000E-002    1.867498149745973E-005
 -2.910000000000000E-002    1.974841393565767E-005
 -2.900000000000000E-002    2.085094756038608E-005
 -2.890000000000000E-002    2.198149850802358E-005
 -2.880000000000000E-002    2.313988380221224E-005
 -2.870000000000000E-002    2.432684302199390E-005
 -2.860000000000000E-002    2.554399646714000E-005
 -2.850000000000000E-002    2.679371495200262E-005
 -2.840000000000000E-002    2.807895436807179E-005
 -2.830000000000000E-002    2.940304568641292E-005
 -2.820000000000000E-002    3.076950156600153E-005
 -2.810000000000000E-002    3.218181737272579E-005
 -2.800000000000000E-002    3.364334529656362E-005
 -2.790000000000000E-002    3.515718746874294E-005
 -2.780000000000000E-002    3.672617822213243E-005
 -2.770000000000000E-002    3.835289771964500E-005
 -2.760000000000000E-002    4.003974017826549E-005
 -2.750000000000000E-002    4.178903109425447E-005
 -2.740000000000000E-002    4.360313423907353E-005
 -2.730000000000000E-002    4.548455613417039E-005
 -2.720000000000000E-002    4.743603428832383E-005
 -2.710000000000000E-002    4.946062110514695E-005
 -2.700000000000000E-002    5.156168778224696E-005
 -2.690000000000000E-002    5.374285099138019E-005
 -2.680000000000000E-002    5.600801214065670E-005
 -2.670000000000000E-002    5.836118875320503E-005
 -2.660000000000000E-002    6.080647424689711E-005
 -2.650000000000000E-002    6.334792980592297E-005
 -2.640000000000000E-002    6.598950505331928E-005
 -2.630000000000000E-002    6.873500743253737E-005
 -2.620000000000000E-002    7.158804937194848E-005
 -2.610000000000000E-002    7.455208089129895E-005
 -2.600000000000000E-002    7.763034968433883E-005
 -2.590000000000000E-002    8.082601691605512E-005
 -2.580000000000000E-002    8.414210973639560E-005
 -2.570000000000000E-002    8.758156688494171E-005
 -2.560000000000000E-002    9.114729898891844E-005
 -2.550000000000000E-002    9.484203073333229E-005
 -2.540000000000000E-002    9.866836007271505E-005
 -2.530000000000000E-002    1.026286960322518E-004
 -2.520000000000000E-002    1.067251856208842E-004
 -2.510000000000000E-002    1.109596256049125E-004
 -2.500000000000000E-002    1.153334516731096E-004
 -2.490000000000000E-002    1.198477691188807E-004
 -2.480000000000000E-002    1.245033468625552E-004
 -2.470000000000000E-002    1.293007113586683E-004
 -2.460000000000000E-002    1.342402822893507E-004
 -2.450000000000000E-002    1.393224421576125E-004
 -2.440000000000000E-002    1.445476675764651E-004
 -2.430000000000000E-002    1.499166695148659E-004
 -2.420000000000000E-002    1.554304646870890E-004
 -2.410000000000000E-002    1.610902621530630E-004
 -2.400000000000000E-002    1.668975290809178E-004
 -2.390000000000000E-002    1.728537479305370E-004
 -2.380000000000000E-002    1.789602800138692E-004
 -2.370000000000000E-002    1.852178883947600E-004
 -2.360000000000000E-002    1.916266470449157E-004
 -2.350000000000000E-002    1.981855729066498E-004
 -2.340000000000000E-002    2.048922978532070E-004
 -2.330000000000000E-002    2.117428415519757E-004
 -2.320000000000000E-002    2.187315418998199E-004
 -2.310000000000000E-002    2.258510035160332E-004
 -2.300000000000000E-002    2.330921678333579E-004
 -2.290000000000000E-002    2.404444566266548E-004
 -2.280000000000000E-002    2.478960423089209E-004
 -2.270000000000000E-002    2.554341972943528E-004
 -2.260000000000000E-002    2.630453118821631E-004
 -2.250000000000000E-002    2.707152555118153E-004
 -2.240000000000000E-002    2.784296371059278E-004
 -2.230000000000000E-002    2.861735490904744E-004
 -2.220000000000000E-002    2.939315298317643E-004
 -2.210000000000000E-002    3.016874738104903E-004
 -2.200000000000000E-002    3.094240704155762E-004
 -2.190000000000000E-002    3.171224684850137E-004
 -2.180000000000000E-002    3.247618149610001E-004
 -2.170000000000000E-002    3.323186296525808E-004
 -2.160000000000000E-002    3.397663646512155E-004
 -2.150000000000000E-002    3.470755078390683E-004
 -2.140000000000000E-002    3.542127932460765E-004
 -2.130000000000000E-002    3.611415204305459E-004
 -2.120000000000000E-002    3.678215607540110E-004
 -2.110000000000000E-002    3.742094202275920E-004
 -2.100000000000000E-002    3.802586776591136E-004
 -2.090000000000000E-002    3.859200735166356E-004
 -2.080000000000000E-002    3.911418567177227E-004
 -2.070000000000000E-002    3.958703222631186E-004
 -2.060000000000000E-002    4.000493036695673E-004
 -2.050000000000000E-002    4.036201337934011E-004
 -2.040000000000000E-002    4.065220573560362E-004
 -2.030000000000000E-002    4.086906479267027E-004
 -2.020000000000000E-002    4.100584087753204E-004
 -2.010000000000000E-002    4.105533029206020E-004
 -2.000000000000000E-002    4.100985397886497E-004
 -1.990000000000000E-002    4.086114371601794E-004
 -1.980000000000000E-002    4.060037201064816E-004
 -1.970000000000000E-002    4.021800701635892E-004
 -1.960000000000000E-002    3.970385718252180E-004
 -1.950000000000000E-002    3.904704101712108E-004
 -1.940000000000000E-002    3.823597912669001E-004
 -1.930000000000000E-002    3.725841589803551E-004
 -1.920000000000000E-002    3.610146273820666E-004
 -1.910000000000000E-002    3.475156298846970E-004
 -1.900000000000000E-002    3.319457120010681E-004
 -1.890000000000000E-002    3.141575173052336E-004
 -1.880000000000000E-002    2.939971466212829E-004
 -1.870000000000000E-002    2.713047234102634E-004
 -1.860000000000000E-002    2.459131227633555E-004
 -1.850000000000000E-002    2.176470724773557E-004
 -1.840000000000000E-002    1.863247559986714E-004
 -1.830000000000000E-002    1.517531277022945E-004
 -1.820000000000000E-002    1.137310978767160E-004
 -1.810000000000000E-002    7.204516049402971E-005
 -1.800000000000000E-002    2.647126440667706E-005
 -1.790000000000000E-002   -2.322699844634928E-005
 -1.780000000000000E-002   -7.729767556335625E-005
 -1.770000000000000E-002   -1.360017260969290E-004
 -1.760000000000000E-002   -1.996132968857927E-004
 -1.750000000000000E-002   -2.684171906104580E-004
 -1.740000000000000E-002   -3.427112623373265E-004
 -1.730000000000000E-002   -4.228053577275209E-004
 -1.720000000000000E-002   -5.090209997440526E-004
 -1.710000000000000E-002   -6.016922789495560E-004
 -1.700000000000000E-002   -7.011635817861724E-004
 -1.690000000000000E-002   -8.077938018713099E-004
 -1.680000000000000E-002   -9.219552773855415E-004
 -1.670000000000000E-002   -1.044033051796224E-003
 -1.660000000000000E-002   -1.174427298738390E-003
 -1.650000000000000E-002   -1.313555392215400E-003
 -1.640000000000000E-002   -1.461849364259543E-003
 -1.630000000000000E-002   -1.619760934776072E-003
 -1.620000000000000E-002   -1.787758996660951E-003
 -1.610000000000000E-002   -1.966331728877132E-003
 -1.600000000000000E-002   -2.155987102980502E-003
 -1.590000000000000E-002   -2.357251129161378E-003
 -1.580000000000000E-002   -2.570672213645237E-003
 -1.570000000000000E-002   -2.796816143404493E-003
 -1.560000000000000E-002   -3.036268108260367E-003
 -1.550000000000000E-002   -3.289633600495828E-003
 -1.540000000000000E-002   -3.557538432558426E-003
 -1.530000000000000E-002   -3.840624035998143E-003
 -1.520000000000000E-002   -4.139554037125923E-003
 -1.510000000000000E-002   -4.455013100310289E-003
 -1.500000000000000E-002   -4.787707158311916E-003
 -1.490000000000000E-002   -5.138360308027203E-003
 -1.480000000000000E-002   -5.507724250204806E-003
 -1.470000000000000E-002   -5.896570119663605E-003
 -1.460000000000000E-002   -6.305694017693691E-003
 -1.450000000000000E-002   -6.735918162748570E-003
 -1.440000000000000E-002   -7.188090708257485E-003
 -1.430000000000000E-002   -7.663081499166719E-003
 -1.420000000000000E-002   -8.161794723450968E-003
 -1.410000000000000E-002   -8.685153511404066E-003
 -1.400000000000000E-002   -9.234107086815603E-003
 -1.390000000000000E-002   -9.809632714253011E-003
 -1.380000000000000E-002   -1.041273594063575E-002
 -1.370000000000000E-002   -1.104444230832965E-002
 -1.360000000000000E-002   -1.170580301473212E-002
 -1.350000000000000E-002   -1.239789694786426E-002
 -1.340000000000000E-002   -1.312182889169551E-002
 -1.330000000000000E-002   -1.387872524610822E-002
 -1.320000000000000E-002   -1.466974049254961E-002
 -1.310000000000000E-002   -1.549605427850985E-002
 -1.300000000000000E-002   -1.635887244157864E-002
 -1.290000000000000E-002   -1.725942689750962E-002
 -1.280000000000000E-002   -1.819898366442377E-002
 -1.270000000000000E-002   -1.917882907334899E-002
 -1.260000000000000E-002   -2.020027212857022E-002
 -1.250000000000000E-002   -2.126466516821312E-002
 -1.240000000000000E-002   -2.237337143138607E-002
 -1.230000000000000E-002   -2.352779205062365E-002
 -1.220000000000000E-002   -2.472935130337681E-002
 -1.210000000000000E-002   -2.597949402974537E-002
 -1.200000000000000E-002   -2.727969250396779E-002
 -1.190000000000000E-002   -2.863145031020396E-002
 -1.180000000000000E-002   -3.003628354310366E-002
 -1.170000000000000E-002   -3.149573086413901E-002
 -1.160000000000000E-002   -3.301135913085166E-002
 -1.150000000000000E-002   -3.458475430752075E-002
 -1.140000000000000E-002   -3.621752249511953E-002
 -1.130000000000000E-002   -3.791129651777746E-002
 -1.120000000000000E-002   -3.966772137043881E-002
 -1.110000000000000E-002   -4.148846175007626E-002
 -1.100000000000000E-002   -4.337520521817022E-002
 -1.090000000000000E-002   -4.532965313014370E-002
 -1.080000000000000E-002   -4.735353102906618E-002
 -1.070000000000000E-002   -4.944857925601666E-002
 -1.060000000000000E-002   -5.161654940302021E-002
 -1.050000000000000E-002   -5.385920719889553E-002
 -1.040000000000000E-002   -5.617833067029190E-002
 -1.030000000000000E-002   -5.857570801597616E-002
 -1.020000000000000E-002   -6.105314120574586E-002
 -1.010000000000000E-002   -6.361242631254325E-002
 -1.000000000000000E-002   -6.625538289018122E-002
 -9.899999999999999E-003   -6.898382002671576E-002
 -9.800000000000000E-003   -7.179955098531231E-002
 -9.699999999999999E-003   -7.470439229447359E-002
 -9.599999999999999E-003   -7.770016516792441E-002
 -9.500000000000000E-003   -8.078867849974646E-002
 -9.399999999999999E-003   -8.397173623927201E-002
 -9.299999999999999E-003   -8.725114184817957E-002
 -9.200000000000000E-003   -9.062869218798524E-002
 -9.099999999999999E-003   -9.410615556866095E-002
 -8.999999999999999E-003   -9.768531632345384E-002
 -8.900000000000000E-003   -0.101367921176851     
 -8.799999999999999E-003   -0.105155708067924     
 -8.699999999999999E-003   -0.109050390323597     
 -8.600000000000000E-003   -0.113053656994024     
 -8.499999999999999E-003   -0.117167171616638     
 -8.399999999999999E-003   -0.121392581053075     
 -8.300000000000000E-003   -0.125731474088314     
 -8.199999999999999E-003   -0.130185435103966     
 -8.100000000000000E-003   -0.134755986489308     
 -8.000000000000000E-003   -0.139444616245201     
 -7.899999999999999E-003   -0.144252765658016     
 -7.800000000000000E-003   -0.149181829957259     
 -7.699999999999999E-003   -0.154233183247986     
 -7.599999999999999E-003   -0.159408125245020     
 -7.499999999999999E-003   -0.164707879417455     
 -7.399999999999999E-003   -0.170133647984842     
 -7.299999999999999E-003   -0.175686532121840     
 -7.199999999999999E-003   -0.181367608425528     
 -7.100000000000000E-003   -0.187177869865962     
 -6.999999999999999E-003   -0.193118214204607     
 -6.899999999999999E-003   -0.199189488732166     
 -6.800000000000000E-003   -0.205392462215289     
 -6.699999999999999E-003   -0.211727782511411     
 -6.599999999999999E-003   -0.218196071922254     
 -6.499999999999999E-003   -0.224797812599147     
 -6.399999999999999E-003   -0.231533387111283     
 -6.299999999999999E-003   -0.238403129256064     
 -6.199999999999999E-003   -0.245407221995028     
 -6.100000000000000E-003   -0.252545758064883     
 -5.999999999999999E-003   -0.259818746284229     
 -5.899999999999999E-003   -0.267226041047358     
 -5.800000000000000E-003   -0.274767396876531     
 -5.699999999999999E-003   -0.282442466924662     
 -5.599999999999999E-003   -0.290250761982948     
 -5.499999999999999E-003   -0.298191675601489     
 -5.399999999999999E-003   -0.306264476292391     
 -5.299999999999999E-003   -0.314468242621853     
 -5.199999999999999E-003   -0.322801982079841     
 -5.099999999999999E-003   -0.331264539538789     
 -4.999999999999999E-003   -0.339854626491071     
 -4.899999999999999E-003   -0.348570767334974     
 -4.799999999999999E-003   -0.357411359935068     
 -4.699999999999999E-003   -0.366374655246807     
 -4.599999999999999E-003   -0.375458728995943     
 -4.499999999999999E-003   -0.384661539889149     
 -4.399999999999999E-003   -0.393980818016657     
 -4.299999999999999E-003   -0.403414150575548     
 -4.199999999999999E-003   -0.412958971310780     
 -4.099999999999999E-003   -0.422612588677069     
 -3.999999999999999E-003   -0.432372049230616     
 -3.899999999999999E-003   -0.442234272875187     
 -3.799999999999999E-003   -0.452196003523389     
 -3.699999999999999E-003   -0.462253751502307     
 -3.599999999999999E-003   -0.472403924414040     
 -3.499999999999999E-003   -0.482642673457622     
 -3.399999999999999E-003   -0.492966037807790     
 -3.299999999999999E-003   -0.503369833902236     
 -3.199999999999999E-003   -0.513849665986834     
 -3.099999999999999E-003   -0.524400984590269     
 -2.999999999999999E-003   -0.535019018871816     
 -2.899999999999999E-003   -0.545698788942516     
 -2.799999999999999E-003   -0.556435219910412     
 -2.699999999999999E-003   -0.567222968857428     
 -2.599999999999999E-003   -0.578056487476403     
 -2.499999999999999E-003   -0.588930124302298     
 -2.399999999999999E-003   -0.599837993381892     
 -2.299999999999999E-003   -0.610773958372094     
 -2.199999999999999E-003   -0.621731784958126     
 -2.099999999999999E-003   -0.632705017512156     
 -1.999999999999999E-003   -0.643687041168374     
 -1.899999999999999E-003   -0.654671022345397     
 -1.799999999999999E-003   -0.665649942365540     
 -1.699999999999999E-003   -0.676616580692423     
 -1.599999999999999E-003   -0.687563651035238     
 -1.499999999999999E-003   -0.698483559553403     
 -1.399999999999999E-003   -0.709368665888671     
 -1.299999999999999E-003   -0.720211026064185     
 -1.199999999999999E-003   -0.731002661811717     
 -1.099999999999999E-003   -0.741735310876392     
 -9.999999999999989E-004   -0.752400634706895     
 -8.999999999999990E-004   -0.762990137074832     
 -7.999999999999990E-004   -0.773495214745672     
 -6.999999999999989E-004   -0.783907050507951     
 -5.999999999999990E-004   -0.794216708483808     
 -4.999999999999989E-004   -0.804415119864219     
 -3.999999999999989E-004   -0.814493119635449     
 -2.999999999999989E-004   -0.824441371034824     
 -1.999999999999989E-004   -0.834250533170975     
 -9.999999999999892E-005   -0.843911063062625     
  1.084202172485504E-018   -0.853413348534368     
  1.000000000000011E-004   -0.862747690308119     
  2.000000000000011E-004   -0.871904296274781     
  3.000000000000011E-004   -0.880873367338907     
  4.000000000000011E-004   -0.889644951629224     
  5.000000000000011E-004   -0.898209034348238     
  6.000000000000011E-004   -0.906555520357363     
  7.000000000000011E-004   -0.914674465698646     
  8.000000000000011E-004   -0.922555631782579     
  9.000000000000012E-004   -0.930188966923161     
  1.000000000000001E-003   -0.937564367025030     
  1.100000000000001E-003   -0.944671664130297     
  1.200000000000001E-003   -0.951500662134309     
  1.300000000000001E-003   -0.958041257606903     
  1.400000000000001E-003   -0.964283429930203     
  1.500000000000001E-003   -0.970217063847977     
  1.600000000000001E-003   -0.975832188220336     
  1.700000000000001E-003   -0.981118798388324     
  1.800000000000001E-003   -0.986067001410952     
  1.900000000000001E-003   -0.990667100235230     
  2.000000000000001E-003   -0.994909346619937     
  2.100000000000001E-003   -0.998784198010980     
  2.200000000000001E-003    -1.00228213203849     
  2.300000000000001E-003    -1.00539375343707     
  2.400000000000001E-003    -1.00810988396086     
  2.500000000000001E-003    -1.01042153635910     
  2.600000000000001E-003    -1.01231976027358     
  2.700000000000001E-003    -1.01379577983882     
  2.800000000000001E-003    -1.01484111667521     
  2.900000000000001E-003    -1.01544742268357     
  3.000000000000001E-003    -1.01560663107799     
  3.100000000000001E-003    -1.01531074703003     
  3.200000000000001E-003    -1.01455227457755     
  3.300000000000001E-003    -1.01332359097024     
  3.400000000000001E-003    -1.01161767537205     
  3.500000000000001E-003    -1.00942757589714     
  3.600000000000001E-003    -1.00674667984639     
  3.700000000000001E-003    -1.00356858864222     
  3.800000000000001E-003   -0.999887433201720     
  3.900000000000001E-003   -0.995697340026412     
  4.000000000000001E-003   -0.990993062603191     
  4.100000000000001E-003   -0.985769452003285     
  4.200000000000001E-003   -0.980021822254703     
  4.300000000000001E-003   -0.973745758077450     
  4.400000000000001E-003   -0.966937362795735     
  4.500000000000001E-003   -0.959592960594478     
  4.600000000000002E-003   -0.951709347333700     
  4.700000000000001E-003   -0.943283732706733     
  4.800000000000001E-003   -0.934313593331784     
  4.900000000000002E-003   -0.924796908563421     
  5.000000000000001E-003   -0.914732130111457     
  5.100000000000001E-003   -0.904118027148570     
  5.200000000000001E-003   -0.892953851177838     
  5.300000000000002E-003   -0.881239257451128     
  5.400000000000001E-003   -0.868974355514466     
  5.500000000000001E-003   -0.856159731168049     
  5.600000000000002E-003   -0.842796433417309     
  5.700000000000001E-003   -0.828885904573747     
  5.800000000000001E-003   -0.814430069785454     
  5.900000000000002E-003   -0.799431368011742     
  6.000000000000001E-003   -0.783892710389739     
  6.100000000000001E-003   -0.767817444997810     
  6.200000000000002E-003   -0.751209411723201     
  6.300000000000002E-003   -0.734072917625646     
  6.400000000000001E-003   -0.716412801074509     
  6.500000000000001E-003   -0.698234322734038     
  6.600000000000002E-003   -0.679543293326958     
  6.700000000000001E-003   -0.660345925786981     
  6.800000000000001E-003   -0.640648978673829     
  6.900000000000002E-003   -0.620459676768788     
  7.000000000000001E-003   -0.599785647466268     
  7.100000000000001E-003   -0.578635086595368     
  7.200000000000002E-003   -0.557016644283225     
  7.300000000000002E-003   -0.534939428410758     
  7.400000000000001E-003   -0.512412954134204     
  7.500000000000001E-003   -0.489447284528137     
  7.600000000000002E-003   -0.466052910209056     
  7.700000000000001E-003   -0.442240791523165     
  7.800000000000001E-003   -0.418022268230239     
  7.900000000000001E-003   -0.393409128198964     
  8.000000000000002E-003   -0.368413655869974     
  8.100000000000001E-003   -0.343048499463024     
  8.200000000000001E-003   -0.317326696204511     
  8.300000000000002E-003   -0.291261763032419     
  8.400000000000001E-003   -0.264867581161067     
  8.500000000000002E-003   -0.238158372813844     
  8.600000000000002E-003   -0.211148748682713     
  8.700000000000001E-003   -0.183853697520313     
  8.800000000000002E-003   -0.156288525066891     
  8.900000000000002E-003   -0.128468861507257     
  9.000000000000001E-003   -0.100410694235536     
  9.100000000000002E-003   -7.213035001498445E-002
  9.200000000000002E-003   -4.364437301200549E-002
  9.300000000000001E-003   -1.496958091010468E-002
  9.400000000000002E-003    1.387688786964927E-002
  9.500000000000001E-003    4.287763416876721E-002
  9.600000000000001E-003    7.201509754634035E-002
  9.700000000000002E-003    0.101271447168703     
  9.800000000000001E-003    0.130628639010547     
  9.900000000000001E-003    0.160068457643539     
  1.000000000000000E-002    0.189572552512156     
  1.010000000000000E-002    0.219122423996929     
  1.020000000000000E-002    0.248699327157327     
  1.030000000000000E-002    0.278284553728186     
  1.040000000000000E-002    0.307859269900683     
  1.050000000000000E-002    0.337404470072362     
  1.060000000000000E-002    0.366901138767463     
  1.070000000000000E-002    0.396330233218092     
  1.080000000000000E-002    0.425672702217489     
  1.090000000000000E-002    0.454909417476383     
  1.100000000000000E-002    0.484021366552413     
  1.110000000000000E-002    0.512989486623061     
  1.120000000000000E-002    0.541794771381058     
  1.130000000000000E-002    0.570418322215584     
  1.140000000000000E-002    0.598841313763088     
  1.150000000000000E-002    0.627045059090710     
  1.160000000000000E-002    0.655010929124592     
  1.170000000000000E-002    0.682720503048448     
  1.180000000000000E-002    0.710155404194754     
  1.190000000000000E-002    0.737297624854884     
  1.200000000000000E-002    0.764129289364015     
  1.210000000000000E-002    0.790632602725809     
  1.220000000000000E-002    0.816790260357519     
  1.230000000000000E-002    0.842585068000146     
  1.240000000000000E-002    0.868000041890884     
  1.250000000000000E-002    0.893018544053260     
  1.260000000000000E-002    0.917624383385028     
  1.270000000000000E-002    0.941801480923484     
  1.280000000000000E-002    0.965534173534598     
  1.290000000000000E-002    0.988807106230382     
  1.300000000000000E-002     1.01160544152069     
  1.310000000000000E-002     1.03391462072314     
  1.320000000000000E-002     1.05572055557846     
  1.330000000000000E-002     1.07700950903391     
  1.340000000000000E-002     1.09776820792132     
  1.350000000000000E-002     1.11798370215752     
  1.360000000000000E-002     1.13764363490689     
  1.370000000000000E-002     1.15673615256191     
  1.380000000000000E-002     1.17524975316451     
  1.390000000000000E-002     1.19317341954499     
  1.400000000000000E-002     1.21049675504132     
  1.410000000000000E-002     1.22720982701279     
  1.420000000000000E-002     1.24330315003784     
  1.430000000000000E-002     1.25876793191151     
  1.440000000000000E-002     1.27359567759472     
  1.450000000000000E-002     1.28777863078574     
  1.460000000000000E-002     1.30130948259871     
  1.470000000000000E-002     1.31418150875298     
  1.480000000000000E-002     1.32638851548548     
  1.490000000000000E-002     1.33792493260041     
  1.500000000000000E-002     1.34878571843762     
  1.510000000000000E-002     1.35896632847662     
  1.520000000000000E-002     1.36846298994684     
  1.530000000000000E-002     1.37727232194643     
  1.540000000000000E-002     1.38539166949656     
  1.550000000000000E-002     1.39281886986427     
  1.560000000000000E-002     1.39955241231725     
  1.570000000000000E-002     1.40559126941828     
  1.580000000000000E-002     1.41093502246430     
  1.590000000000000E-002     1.41558385211823     
  1.600000000000000E-002     1.41953851823595     
  1.610000000000000E-002     1.42280038608087     
  1.620000000000000E-002     1.42537124677902     
  1.630000000000000E-002     1.42725354495639     
  1.640000000000000E-002     1.42845035216436     
  1.650000000000000E-002     1.42896516818186     
  1.660000000000000E-002     1.42880212179464     
  1.670000000000000E-002     1.42796578819550     
  1.680000000000000E-002     1.42646140696942     
  1.690000000000000E-002     1.42429464015855     
  1.700000000000000E-002     1.42147170980478     
  1.710000000000000E-002     1.41799931226874     
  1.720000000000000E-002     1.41388470664892     
  1.730000000000000E-002     1.40913555426702     
  1.740000000000000E-002     1.40376002098657     
  1.750000000000000E-002     1.39776665831988     
  1.760000000000000E-002     1.39116460387761     
  1.770000000000000E-002     1.38396333725807     
  1.780000000000000E-002     1.37617279899072     
  1.790000000000000E-002     1.36780336516899     
  1.800000000000000E-002     1.35886573918877     
  1.810000000000000E-002     1.34937102981007     
  1.820000000000000E-002     1.33933071208938     
  1.830000000000000E-002     1.32875671170152     
  1.840000000000000E-002     1.31766122992901     
  1.850000000000000E-002     1.30605672614822     
  1.860000000000000E-002     1.29395605825137     
  1.870000000000000E-002     1.28137241430788     