 -4.000000000000000E-002    0.000000000000000E+000
 -3.990000000000000E-002    0.000000000000000E+000
 -3.980000000000000E-002    0.000000000000000E+000
 -3.970000000000000E-002    0.000000000000000E+000
 -3.960000000000000E-002    0.000000000000000E+000
 -3.950000000000000E-002    0.000000000000000E+000
 -3.940000000000000E-002    0.000000000000000E+000
 -3.930000000000000E-002    0.000000000000000E+000
 -3.920000000000000E-002    0.000000000000000E+000
 -3.910000000000000E-002    0.000000000000000E+000
 -3.900000000000000E-002    0.000000000000000E+000
 -3.890000000000000E-002    0.000000000000000E+000
 -3.880000000000000E-002    0.000000000000000E+000
 -3.870000000000000E-002    0.000000000000000E+000
 -3.860000000000000E-002    0.000000000000000E+000
 -3.850000000000000E-002    0.000000000000000E+000
 -3.840000000000000E-002    0.000000000000000E+000
 -3.830000000000000E-002    0.000000000000000E+000
 -3.820000000000000E-002    0.000000000000000E+000
 -3.810000000000000E-002    0.000000000000000E+000
 -3.800000000000000E-002    0.000000000000000E+000
 -3.790000000000000E-002    0.000000000000000E+000
 -3.780000000000000E-002    0.000000000000000E+000
 -3.770000000000000E-002    0.000000000000000E+000
 -3.760000000000000E-002    0.000000000000000E+000
 -3.750000000000000E-002    0.000000000000000E+000
 -3.740000000000000E-002    0.000000000000000E+000
 -3.730000000000000E-002    0.000000000000000E+000
 -3.720000000000000E-002    0.000000000000000E+000
 -3.710000000000000E-002    0.000000000000000E+000
 -3.700000000000000E-002    0.000000000000000E+000
 -3.690000000000000E-002    0.000000000000000E+000
 -3.680000000000000E-002    0.000000000000000E+000
 -3.670000000000000E-002    0.000000000000000E+000
 -3.660000000000000E-002    0.000000000000000E+000
 -3.650000000000000E-002    0.000000000000000E+000
 -3.640000000000000E-002    0.000000000000000E+000
 -3.630000000000000E-002    0.000000000000000E+000
 -3.620000000000000E-002    3.088808906913295E-048
 -3.610000000000000E-002    6.177617813826590E-048
 -3.600000000000000E-002    6.177617813826590E-048
 -3.590000000000000E-002    8.085593028838467E-048
 -3.580000000000000E-002   -4.128362231906030E-047
 -3.570000000000000E-002   -3.447030657226404E-046
 -3.560000000000000E-002   -7.347895333132577E-046
 -3.550000000000000E-002   -1.199348782598993E-045
 -3.540000000000000E-002   -2.896318993925587E-045
 -3.530000000000000E-002   -6.233889559319367E-045
 -3.520000000000000E-002   -1.469914543402561E-044
 -3.510000000000000E-002   -2.967578259501725E-044
 -3.500000000000000E-002   -5.816263618463293E-044
 -3.490000000000000E-002   -1.060510972209108E-043
 -3.480000000000000E-002   -1.828534136720810E-043
 -3.470000000000000E-002   -2.935923776910915E-043
 -3.460000000000000E-002   -4.267931390583034E-043
 -3.450000000000000E-002   -5.300716775169922E-043
 -3.440000000000000E-002   -4.609302673973686E-043
 -3.430000000000000E-002    1.015615205284543E-043
 -3.420000000000000E-002    1.797922480966340E-042
 -3.410000000000000E-002    5.792294419633786E-042
 -3.400000000000000E-002    1.404163271518722E-041
 -3.390000000000000E-002    2.958050662347150E-041
 -3.380000000000000E-002    5.670355502848625E-041
 -3.370000000000000E-002    1.007723347754992E-040
 -3.360000000000000E-002    1.671870213293907E-040
 -3.350000000000000E-002    2.587198953223498E-040
 -3.340000000000000E-002    3.700677606848913E-040
 -3.330000000000000E-002    4.780883895362754E-040
 -3.320000000000000E-002    5.259917857433375E-040
 -3.310000000000000E-002    4.000077239019434E-040
 -3.300000000000000E-002   -1.017361758041183E-040
 -3.290000000000000E-002   -1.305565100026190E-039
 -3.280000000000000E-002   -3.695949238850511E-039
 -3.270000000000000E-002   -7.929904731794049E-039
 -3.260000000000000E-002   -1.480265991774141E-038
 -3.250000000000000E-002   -2.511825797933684E-038
 -3.240000000000000E-002   -3.939929674485113E-038
 -3.230000000000000E-002   -5.735215804569396E-038
 -3.220000000000000E-002   -7.699521231333169E-038
 -3.210000000000000E-002   -9.337103233638286E-038
 -3.200000000000000E-002   -9.681698084457377E-038
 -3.190000000000000E-002   -7.088654747440439E-038
 -3.180000000000000E-002    9.778345349263508E-039
 -3.170000000000000E-002    1.809993087179456E-037
 -3.160000000000000E-002    4.889656428919880E-037
 -3.150000000000000E-002    9.868511952788045E-037
 -3.140000000000000E-002    1.725899827500832E-036
 -3.130000000000000E-002    2.738203505434167E-036
 -3.120000000000000E-002    4.008174817753743E-036
 -3.110000000000000E-002    5.430147083373315E-036
 -3.100000000000000E-002    6.751065485610604E-036
 -3.090000000000000E-002    7.500402966803948E-036
 -3.080000000000000E-002    6.914724329281935E-036
 -3.070000000000000E-002    3.872321766129967E-036
 -3.060000000000000E-002   -3.136123168266156E-036
 -3.050000000000000E-002   -1.596216194112753E-035
 -3.040000000000000E-002   -3.662762346119385E-035
 -3.030000000000000E-002   -6.696307787424216E-035
 -3.020000000000000E-002   -1.079896508731487E-034
 -3.010000000000000E-002   -1.589866032439013E-034
 -3.000000000000000E-002   -2.162161785663818E-034
 -2.990000000000000E-002   -2.713384887155916E-034
 -2.980000000000000E-002   -3.096457966319137E-034
 -2.970000000000000E-002   -3.083872782235283E-034
 -2.960000000000000E-002   -2.356387881348896E-034
 -2.950000000000000E-002   -5.038451818561625E-035
 -2.940000000000000E-002    2.953049895057714E-034
 -2.930000000000000E-002    8.509387073306663E-034
 -2.920000000000000E-002    1.657985817841722E-033
 -2.910000000000000E-002    2.734996426459275E-033
 -2.900000000000000E-002    4.056903905863790E-033
 -2.890000000000000E-002    5.528859184360837E-033
 -2.880000000000000E-002    6.956308687750156E-033
 -2.870000000000000E-002    8.015017732611531E-033
 -2.860000000000000E-002    8.227229689180464E-033
 -2.850000000000000E-002    6.953021888704644E-033
 -2.840000000000000E-002    3.408801322660026E-033
 -2.830000000000000E-002   -3.272853725058430E-033
 -2.820000000000000E-002   -1.392699463150996E-032
 -2.810000000000000E-002   -2.917042357241267E-032
 -2.800000000000000E-002   -4.913818538056613E-032
 -2.790000000000000E-002   -7.314519646311794E-032
 -2.780000000000000E-002   -9.929217269820475E-032
 -2.770000000000000E-002   -1.240581045385886E-031
 -2.760000000000000E-002   -1.419501591203536E-031
 -2.750000000000000E-002   -1.453148856842755E-031
 -2.740000000000000E-002   -1.244454267572013E-031
 -2.730000000000000E-002   -6.814555309414977E-032
 -2.720000000000000E-002    3.508145141237281E-032
 -2.710000000000000E-002    1.950707951581929E-031
 -2.700000000000000E-002    4.171705389686414E-031
 -2.690000000000000E-002    6.985756941898397E-031
 -2.680000000000000E-002    1.024017002085407E-030
 -2.670000000000000E-002    1.361238622661119E-030
 -2.660000000000000E-002    1.656985639752685E-030
 -2.650000000000000E-002    1.834547538531175E-030
 -2.640000000000000E-002    1.794212788845260E-030
 -2.630000000000000E-002    1.418213118565937E-030
 -2.620000000000000E-002    5.818069779427024E-031
 -2.610000000000000E-002   -8.280633571958740E-031
 -2.600000000000000E-002   -2.885710985067702E-030
 -2.590000000000000E-002   -5.591471228122173E-030
 -2.580000000000000E-002   -8.830166908338210E-030
 -2.570000000000000E-002   -1.232736547972447E-029
 -2.560000000000000E-002   -1.561009645931657E-029
 -2.550000000000000E-002   -1.798161476651742E-029
 -2.540000000000000E-002   -1.852238888876637E-029
 -2.530000000000000E-002   -1.613146944951109E-029
 -2.520000000000000E-002   -9.622619458028144E-030
 -2.510000000000000E-002    2.112412862855459E-030
 -2.500000000000000E-002    1.986654670943189E-029
 -2.490000000000000E-002    4.380825318482736E-029
 -2.480000000000000E-002    7.311706659885583E-029
 -2.470000000000000E-002    1.055984288243203E-028
 -2.460000000000000E-002    1.373337981772815E-028
 -2.450000000000000E-002    1.624453002817038E-028
 -2.440000000000000E-002    1.730742183048020E-028
 -2.430000000000000E-002    1.596873833938956E-028
 -2.420000000000000E-002    1.118259610339488E-028
 -2.410000000000000E-002    1.939484670841889E-029
 -2.400000000000000E-002   -1.254529392292612E-028
 -2.390000000000000E-002   -3.258562400584606E-028
 -2.380000000000000E-002   -5.773316298004803E-028
 -2.370000000000000E-002   -8.646672169576537E-028
 -2.360000000000000E-002   -1.159041095023643E-027
 -2.350000000000000E-002   -1.415946737875413E-027
 -2.340000000000000E-002   -1.574654196957006E-027
 -2.330000000000000E-002   -1.560028546701558E-027
 -2.320000000000000E-002   -1.287538316806832E-027
 -2.310000000000000E-002   -6.721514262731007E-028
 -2.300000000000000E-002    3.584683246955521E-028
 -2.290000000000000E-002    1.846566025000244E-027
 -2.280000000000000E-002    3.783496506835592E-027
 -2.270000000000000E-002    6.087225028165878E-027
 -2.260000000000000E-002    8.580862497147336E-027
 -2.250000000000000E-002    1.097602284969856E-026
 -2.240000000000000E-002    1.286571549868391E-026
 -2.230000000000000E-002    1.373209676467471E-026
 -2.220000000000000E-002    1.297441191574475E-026
 -2.210000000000000E-002    9.961675802258160E-027
 -2.200000000000000E-002    4.112861449305781E-027
 -2.190000000000000E-002   -4.995675874365421E-027
 -2.180000000000000E-002   -1.750000109925028E-026
 -2.170000000000000E-002   -3.310538574329152E-026
 -2.160000000000000E-002   -5.094578610032567E-026
 -2.150000000000000E-002   -6.946781772214839E-026
 -2.140000000000000E-002   -8.636617481058252E-026
 -2.130000000000000E-002   -9.860096260587657E-026
 -2.120000000000000E-002   -1.025271879998784E-025
 -2.110000000000000E-002   -9.416275699240520E-026
 -2.100000000000000E-002   -6.961119274058138E-026
 -2.090000000000000E-002   -2.563905009859763E-026
 -2.080000000000000E-002    3.961361839998620E-026
 -2.070000000000000E-002    1.258399524673682E-025
 -2.060000000000000E-002    2.297704315578708E-025
 -2.050000000000000E-002    3.444856889239137E-025
 -2.040000000000000E-002    4.589755954995518E-025
 -2.030000000000000E-002    5.580979790786277E-025
 -2.020000000000000E-002    6.230902173280413E-025
 -2.010000000000000E-002    6.327651591290749E-025
 -2.000000000000000E-002    5.654738330917903E-025
 -1.990000000000000E-002    4.018382820387124E-025
 -1.980000000000000E-002    1.281538028588803E-025
 -1.970000000000000E-002   -2.597725450683139E-025
 -1.960000000000000E-002   -7.527210129167303E-025
 -1.950000000000000E-002   -1.324608767536942E-024
 -1.940000000000000E-002   -1.930118220749040E-024
 -1.930000000000000E-002   -2.504097498753120E-024
 -1.920000000000000E-002   -2.963417693899021E-024
 -1.910000000000000E-002   -3.211861441928675E-024
 -1.900000000000000E-002   -3.148396786226633E-024
 -1.890000000000000E-002   -2.678833349174793E-024
 -1.880000000000000E-002   -1.730395129434544E-024
 -1.870000000000000E-002   -2.681995072569418E-025
 -1.860000000000000E-002    1.687986196376039E-024
 -1.850000000000000E-002    4.048869947147653E-024
 -1.840000000000000E-002    6.645276123144358E-024
 -1.830000000000000E-002    9.225127591044809E-024
 -1.820000000000000E-002    1.146052215257610E-023
 -1.810000000000000E-002    1.296710820233683E-023
 -1.800000000000000E-002    1.333702042295763E-023
 -1.790000000000000E-002    1.218512430242955E-023
 -1.780000000000000E-002    9.206470184249317E-024
 -1.770000000000000E-002    4.240631445542151E-024
 -1.760000000000000E-002   -2.663653281816785E-024
 -1.750000000000000E-002   -1.119216749874478E-023
 -1.740000000000000E-002   -2.072742198266085E-023
 -1.730000000000000E-002   -3.034006033214384E-023
 -1.720000000000000E-002   -3.881947304171779E-023
 -1.710000000000000E-002   -4.475127602167845E-023
 -1.700000000000000E-002   -4.664519845537122E-023
 -1.690000000000000E-002   -4.311105097679667E-023
 -1.680000000000000E-002   -3.307344902860890E-023
 -1.670000000000000E-002   -1.600753012461281E-023
 -1.660000000000000E-002    7.829967242812687E-024
 -1.650000000000000E-002    3.720691134290916E-023
 -1.640000000000000E-002    6.979648748839097E-023
 -1.630000000000000E-002    1.021704336330705E-022
 -1.620000000000000E-002    1.299387686748108E-022
 -1.610000000000000E-002    1.480596417819530E-022
 -1.600000000000000E-002    1.513276072282534E-022
 -1.590000000000000E-002    1.350255699049500E-022
 -1.580000000000000E-002    9.570087249178659E-023
 -1.570000000000000E-002    3.199632293195115E-023
 -1.560000000000000E-002   -5.455931230278652E-023
 -1.550000000000000E-002   -1.589191552872581E-022
 -1.540000000000000E-002   -2.721743718615379E-022
 -1.530000000000000E-002   -3.816268743716307E-022
 -1.520000000000000E-002   -4.713881427367241E-022
 -1.510000000000000E-002   -5.235730104400185E-022
 -1.500000000000000E-002   -5.200991300498722E-022
 -1.490000000000000E-002   -4.450240136467760E-022
 -1.480000000000000E-002   -2.872617157701680E-022
 -1.470000000000000E-002   -4.342877173065671E-023
 -1.460000000000000E-002    2.795205097159313E-022
 -1.450000000000000E-002    6.622715556239283E-022
 -1.440000000000000E-002    1.072173514214980E-021
 -1.430000000000000E-002    1.463724224848672E-021
 -1.420000000000000E-002    1.780853282392805E-021
 -1.410000000000000E-002    1.961194691213018E-021
 -1.400000000000000E-002    1.942337338249105E-021
 -1.390000000000000E-002    1.669780644515232E-021
 -1.380000000000000E-002    1.106030508391801E-021
 -1.370000000000000E-002    2.399758200210574E-022
 -1.360000000000000E-002   -9.045735229420508E-022
 -1.350000000000000E-002   -2.262495244993109E-021
 -1.340000000000000E-002   -3.724476896753614E-021
 -1.330000000000000E-002   -5.138929587657941E-021
 -1.320000000000000E-002   -6.319681166492462E-021
 -1.310000000000000E-002   -7.059965349511158E-021
 -1.300000000000000E-002   -7.152559683249604E-021
 -1.290000000000000E-002   -6.415096824411937E-021
 -1.280000000000000E-002   -4.718716404915373E-021
 -1.270000000000000E-002   -2.017307011973262E-021
 -1.260000000000000E-002    1.626115879871807E-021
 -1.250000000000000E-002    6.019871816694676E-021
 -1.240000000000000E-002    1.083498809530763E-020
 -1.230000000000000E-002    1.561117531548018E-020
 -1.220000000000000E-002    1.978019020658868E-020
 -1.210000000000000E-002    2.270786111635628E-020
 -1.200000000000000E-002    2.375407868466343E-020
 -1.190000000000000E-002    2.234760793398382E-020
 -1.180000000000000E-002    1.807013873054864E-020
 -1.170000000000000E-002    1.074145016471598E-020
 -1.160000000000000E-002    4.956317275005752E-022
 -1.150000000000000E-002   -1.216293326640499E-020
 -1.140000000000000E-002   -2.633514932440552E-020
 -1.130000000000000E-002   -4.074442286239040E-020
 -1.120000000000000E-002   -5.380279888649335E-020
 -1.110000000000000E-002   -6.372875545996880E-020
 -1.100000000000000E-002   -6.871400879965288E-020
 -1.090000000000000E-002   -6.712989803699231E-020
 -1.080000000000000E-002   -5.775716060941275E-020
 -1.070000000000000E-002   -4.001649850363379E-020
 -1.060000000000000E-002   -1.417242429133970E-020
 -1.050000000000000E-002    1.851985005836707E-020
 -1.040000000000000E-002    5.575416654310386E-020
 -1.030000000000000E-002    9.422545651955457E-020
 -1.020000000000000E-002    1.298112615795497E-019
 -1.010000000000000E-002    1.578881279121330E-019
 -1.000000000000000E-002    1.737728158081547E-019
 -9.899999999999999E-003    1.732612996403731E-019
 -9.800000000000000E-003    1.532206923611258E-019
 -9.699999999999999E-003    1.121741864561068E-019
 -9.599999999999999E-003    5.080694632334408E-020
 -9.500000000000000E-003   -2.768393018969391E-020
 -9.399999999999999E-003   -1.174688784223684E-019
 -9.299999999999999E-003   -2.102562542445082E-019
 -9.200000000000000E-003   -2.957908901535009E-019
 -9.099999999999999E-003   -3.626878923826948E-019
 -8.999999999999999E-003   -3.995678069079961E-019
 -8.900000000000000E-003   -3.964166188400264E-019
 -8.799999999999999E-003   -3.460526067911477E-019
 -8.699999999999999E-003   -2.455434817069167E-019
 -8.600000000000000E-003   -9.739408810067057E-020
 -8.499999999999999E-003    8.968468984464986E-020
 -8.399999999999999E-003    3.006011327222419E-019
 -8.300000000000000E-003    5.144407049771715E-019
 -8.199999999999999E-003    7.058352771132026E-019
 -8.100000000000000E-003    8.471386243611529E-019
 -8.000000000000000E-003    9.113068491920985E-019
 -7.899999999999999E-003    8.752752019367256E-019
 -7.800000000000000E-003    7.235275331217278E-019
 -7.699999999999999E-003    4.514640174818717E-019
 -7.599999999999999E-003    6.812975813663161E-020
 -7.499999999999999E-003   -4.021503602305228E-019
 -7.399999999999999E-003   -9.196375328091981E-019
 -7.299999999999999E-003   -1.430854373031696E-018
 -7.199999999999999E-003   -1.872225306694232E-018
 -7.100000000000000E-003   -2.175629650126005E-018
 -6.999999999999999E-003   -2.275583755450134E-018
 -6.899999999999999E-003   -2.117523005170840E-018
 -6.800000000000000E-003   -1.666412924425385E-018
 -6.699999999999999E-003   -9.147574727770537E-019
 -6.599999999999999E-003    1.110618055409747E-019
 -6.499999999999999E-003    1.347162183040947E-018
 -6.399999999999999E-003    2.692192041472711E-018
 -6.299999999999999E-003    4.011704515621124E-018
 -6.199999999999999E-003    5.147181558843687E-018
 -6.100000000000000E-003    5.929544689350076E-018
 -5.999999999999999E-003    6.196424660054786E-018
 -5.899999999999999E-003    5.811922694982429E-018
 -5.800000000000000E-003    4.687058064489508E-018
 -5.699999999999999E-003    2.798712785753437E-018
 -5.599999999999999E-003    2.046475202716207E-019
 -5.499999999999999E-003   -2.947802880460212E-018
 -5.399999999999999E-003   -6.421472841443025E-018
 -5.299999999999999E-003   -9.899064379126712E-018
 -5.199999999999999E-003   -1.300347677788726E-017
 -5.099999999999999E-003   -1.532835380776818E-017
 -4.999999999999999E-003   -1.647722081247091E-017
 -4.899999999999999E-003   -1.610836690938816E-017
 -4.799999999999999E-003   -1.398148605944123E-017
 -4.699999999999999E-003   -1.000122890241577E-017
 -4.599999999999999E-003   -4.252377967679251E-018
 -4.499999999999999E-003    2.978598485224690E-018
 -4.399999999999999E-003    1.120020925592862E-017
 -4.299999999999999E-003    1.973414788346289E-017
 -4.199999999999999E-003    2.775653913754534E-017
 -4.099999999999999E-003    3.436142102285424E-017
 -3.999999999999999E-003    3.864309976383169E-017
 -3.899999999999999E-003    3.979144047992833E-017
 -3.799999999999999E-003    3.719177785840399E-017
 -3.699999999999999E-003    3.051945018267011E-017
 -3.599999999999999E-003    1.981787531096986E-017
 -3.499999999999999E-003    5.549362874534372E-018
 -3.399999999999999E-003   -1.139089948977477E-017
 -3.299999999999999E-003   -2.970459949265298E-017
 -3.199999999999999E-003   -4.776703106530759E-017
 -3.099999999999999E-003   -6.374935601326981E-017
 -2.999999999999999E-003   -7.577983409062742E-017
 -2.899999999999999E-003   -8.213228506984828E-017
 -2.799999999999999E-003   -8.142539929649160E-017
 -2.699999999999999E-003   -7.281303019980969E-017
 -2.599999999999999E-003   -5.614384253084622E-017
 -2.499999999999999E-003   -3.206886053429729E-017
 -2.399999999999999E-003   -2.078299704607746E-018
 -2.299999999999999E-003    3.154596184983650E-017
 -2.199999999999999E-003    6.586841117413157E-017
 -2.099999999999999E-003    9.752585289224542E-017
 -1.999999999999999E-003    1.230284380396564E-016
 -1.899999999999999E-003    1.391132825011979E-016
 -1.799999999999999E-003    1.431192198660321E-016
 -1.699999999999999E-003    1.333446394025667E-016
 -1.599999999999999E-003    1.093474389744903E-016
 -1.499999999999999E-003    7.214646109529796E-017
 -1.399999999999999E-003    2.428958552347474E-017
 -1.299999999999999E-003   -3.023662217356002E-017
 -1.199999999999999E-003   -8.626677335374847E-017
 -1.099999999999999E-003   -1.378794642120434E-016
 -9.999999999999989E-004   -1.789583313644224E-016
 -8.999999999999990E-004   -2.038474229223537E-016
 -7.999999999999990E-004   -2.080408763337884E-016
 -6.999999999999989E-004   -1.888351295646104E-016
 -5.999999999999990E-004   -1.458659454396000E-016
 -4.999999999999989E-004   -8.145490399304929E-017
 -3.999999999999989E-004   -7.008576028751785E-019
 -2.999999999999989E-004    8.872881442316436E-017
 -1.999999999999989E-004    1.771253925483358E-016
 -9.999999999999892E-005    2.535697350614500E-016
  1.084202172485504E-018    3.070169725759933E-016
  1.000000000000011E-004    3.275493283658076E-016
  2.000000000000011E-004    3.076816824682488E-016
  3.000000000000011E-004    2.435823692885248E-016
  4.000000000000011E-004    1.360607129276720E-016
  5.000000000000011E-004   -8.820913783705701E-018
  6.000000000000011E-004   -1.796328609567154E-016
  7.000000000000011E-004   -3.600469821112181E-016
  8.000000000000011E-004   -5.299206551795060E-016
  9.000000000000012E-004   -6.669686693874476E-016
  1.000000000000001E-003   -7.489244806394587E-016
  1.100000000000001E-003   -7.560288315172279E-016
  1.200000000000001E-003   -6.736217394053330E-016
  1.300000000000001E-003   -4.945752655606135E-016
  1.400000000000001E-003   -2.212799226506590E-016
  1.500000000000001E-003    1.330927525241959E-016
  1.600000000000001E-003    5.442914699643403E-016
  1.700000000000001E-003    9.778234387157650E-016
  1.800000000000001E-003    1.391004851833798E-015
  1.900000000000001E-003    1.736183775565217E-015
  2.000000000000001E-003    1.964965233112219E-015
  2.100000000000001E-003    2.033143308804153E-015
  2.200000000000001E-003    1.905924462578561E-015
  2.300000000000001E-003    1.562946094827307E-015
  2.400000000000001E-003    1.002543409399968E-015
  2.500000000000001E-003    2.447217027396135E-016
  2.600000000000001E-003   -6.676494417953129E-016
  2.700000000000001E-003   -1.669784989524728E-015
  2.800000000000001E-003   -2.678272934916764E-015
  2.900000000000001E-003   -3.596684992487731E-015
  3.000000000000001E-003   -4.323256092718405E-015
  3.100000000000001E-003   -4.760137356054290E-015
  3.200000000000001E-003   -4.823499804399411E-015
  3.300000000000001E-003   -4.453594239008888E-015
  3.400000000000001E-003   -3.623761125965208E-015
  3.500000000000001E-003   -2.347362284836258E-015
  3.600000000000001E-003   -6.816843086317558E-016
  3.700000000000001E-003    1.271944517654730E-015
  3.800000000000001E-003    3.372304620617433E-015
  3.900000000000001E-003    5.446811455438468E-015
  4.000000000000001E-003    7.304109618307958E-015
  4.100000000000001E-003    8.749980968273946E-015
  4.200000000000001E-003    9.605386817706250E-015
  4.300000000000001E-003    9.725148162025460E-015
  4.400000000000001E-003    9.015478156127030E-015
  4.500000000000001E-003    7.448544729013341E-015
  4.600000000000002E-003    5.072291422161792E-015
  4.700000000000001E-003    2.014034027013813E-015
  4.800000000000001E-003   -1.523197766480985E-015
  4.900000000000002E-003   -5.272004007808750E-015
  5.000000000000001E-003   -8.919347072219611E-015
  5.100000000000001E-003   -1.213161630600750E-014
  5.200000000000001E-003   -1.458421197141029E-014
  5.300000000000002E-003   -1.599320324749731E-014
  5.400000000000001E-003   -1.614614100059561E-014
  5.500000000000001E-003   -1.492888355776096E-014
  5.600000000000002E-003   -1.234536150082950E-014
  5.700000000000001E-003   -8.527622812460441E-015
  5.800000000000001E-003   -3.734173097452826E-015
  5.900000000000002E-003    1.664355126720307E-015
  6.000000000000001E-003    7.212014722442441E-015
  6.100000000000001E-003    1.240532347648033E-014
  6.200000000000002E-003    1.673923118286756E-014
  6.300000000000002E-003    1.975738250899143E-014
  6.400000000000001E-003    2.110191629562653E-014
  6.500000000000001E-003    2.055761941049114E-014
  6.600000000000002E-003    1.808533372297958E-014
  6.700000000000001E-003    1.384005477793891E-014
  6.800000000000001E-003    8.170363318249635E-015
  6.900000000000002E-003    1.597382370184263E-015
  7.000000000000001E-003   -5.226498417943720E-015
  7.100000000000001E-003   -1.157680517376323E-014
  7.200000000000002E-003   -1.672953051308280E-014
  7.300000000000002E-003   -2.004064422341015E-014
  7.400000000000001E-003   -2.102467431128092E-014
  7.500000000000001E-003   -1.942382071546107E-014
  7.600000000000002E-003   -1.525900756831669E-014
  7.700000000000001E-003   -8.855423624127672E-015
  7.800000000000001E-003   -8.369311042810088E-016
  7.900000000000001E-003    7.913490404848428E-015
  8.000000000000002E-003    1.632677457719413E-014
  8.100000000000001E-003    2.325003304786049E-014
  8.200000000000001E-003    2.757023139187101E-014
  8.300000000000002E-003    2.834817972511753E-014
  8.400000000000001E-003    2.494933008607422E-014
  8.500000000000002E-003    1.715661625447110E-014
  8.600000000000002E-003    5.250778044762899E-015
  8.700000000000001E-003   -9.954589696045267E-015
  8.800000000000002E-003   -2.713270105810291E-014
  8.900000000000002E-003   -4.452259988430629E-014
  9.000000000000001E-003   -6.006636625453291E-014
  9.100000000000002E-003   -7.159690956699275E-014
  9.200000000000002E-003   -7.706246867424263E-014
  9.300000000000001E-003   -7.476830293215179E-014
  9.400000000000002E-003   -6.361182724828611E-014
  9.500000000000001E-003   -4.328531525849456E-014
  9.600000000000001E-003   -1.442058016679582E-014
  9.700000000000002E-003    2.134690287688602E-014
  9.800000000000001E-003    6.141118766887003E-014
  9.900000000000001E-003    1.023349473246007E-013
  1.000000000000000E-002    1.400929607453943E-013
  1.010000000000000E-002    1.704072688473605E-013
  1.020000000000000E-002    1.891507025550628E-013
  1.030000000000000E-002    1.927850580618779E-013
  1.040000000000000E-002    1.787932188261641E-013
  1.050000000000000E-002    1.460603249322468E-013
  1.060000000000000E-002    9.515904834152036E-014
  1.070000000000000E-002    2.849918171200924E-014
  1.080000000000000E-002   -4.968917362504591E-014
  1.090000000000000E-002   -1.335556678581413E-013
  1.100000000000000E-002   -2.160132821799403E-013
  1.110000000000000E-002   -2.892867599223499E-013
  1.120000000000000E-002   -3.455889056151688E-013
  1.130000000000000E-002   -3.778704685491439E-013
  1.140000000000000E-002   -3.805769219417444E-013
  1.150000000000000E-002   -3.503369684371244E-013
  1.160000000000000E-002   -2.865079944729840E-013
  1.170000000000000E-002   -1.915093768043971E-013
  1.180000000000000E-002   -7.089029825720439E-014
  1.190000000000000E-002    6.690082473722345E-014
  1.200000000000000E-002    2.110508950306034E-013
  1.210000000000000E-002    3.491958326635442E-013
  1.220000000000000E-002    4.684594061937661E-013
  1.230000000000000E-002    5.566343076934617E-013
  1.240000000000000E-002    6.034011843211665E-013
  1.250000000000000E-002    6.014688082037816E-013
  1.260000000000000E-002    5.475146763954679E-013
  1.270000000000000E-002    4.428158318503697E-013
  1.280000000000000E-002    2.934809801372208E-013
  1.290000000000000E-002    1.102275527370104E-013
  1.300000000000000E-002   -9.231127688000448E-014
  1.310000000000000E-002   -2.967194303580244E-013
  1.320000000000000E-002   -4.842913392447409E-013
  1.330000000000000E-002   -6.367650637331072E-013
  1.340000000000000E-002   -7.381406286917192E-013
  1.350000000000000E-002   -7.764046485726778E-013
  1.360000000000000E-002   -7.449819375819164E-013
  1.370000000000000E-002   -6.437438303236668E-013
  1.380000000000000E-002   -4.794380931676977E-013
  1.390000000000000E-002   -2.654522808606894E-013
  1.400000000000000E-002   -2.088404788034034E-014
  1.410000000000000E-002    2.310376363480049E-013
  1.420000000000000E-002    4.650677345820201E-013
  1.430000000000000E-002    6.564175142898014E-013
  1.440000000000000E-002    7.833562868957672E-013
  1.450000000000000E-002    8.296798202660967E-013
  1.460000000000000E-002    7.867802434038507E-013
  1.470000000000000E-002    6.550692348606527E-013
  1.480000000000000E-002    4.445558466569678E-013
  1.490000000000000E-002    1.744535758195035E-013
  1.500000000000000E-002   -1.282175232927049E-013
  1.510000000000000E-002   -4.309658247838400E-013
  1.520000000000000E-002   -6.989267083542848E-013
  1.530000000000000E-002   -8.984579400900712E-013
  1.540000000000000E-002   -1.000891857396019E-012
  1.550000000000000E-002   -9.860586113072235E-013
  1.560000000000000E-002   -8.451889761599013E-013
  1.570000000000000E-002   -5.828371936245854E-013
  1.580000000000000E-002   -2.175399349689119E-013
  1.590000000000000E-002    2.189653291064058E-013
  1.600000000000000E-002    6.839995377964918E-013
  1.610000000000000E-002    1.127565469238369E-012
  1.620000000000000E-002    1.497067453537765E-012
  1.630000000000000E-002    1.742723552305402E-012
  1.640000000000000E-002    1.823159051506525E-012
  1.650000000000000E-002    1.710609664075117E-012
  1.660000000000000E-002    1.395153033930416E-012
  1.670000000000000E-002    8.874438288697923E-013
  1.680000000000000E-002    2.195380756344945E-013
  1.690000000000000E-002   -5.564430950248885E-013
  1.700000000000000E-002   -1.371856374585239E-012
  1.710000000000000E-002   -2.147106525764640E-012
  1.720000000000000E-002   -2.798837364794036E-012
  1.730000000000000E-002   -3.248144221865557E-012
  1.740000000000000E-002   -3.429040605171291E-012
  1.750000000000000E-002   -3.296339426190698E-012
  1.760000000000000E-002   -2.832086267812358E-012
  1.770000000000000E-002   -2.049769279443549E-012
  1.780000000000000E-002   -9.956974085475980E-013
  1.790000000000000E-002    2.528270054863358E-013
  1.800000000000000E-002    1.592610358634766E-012
  1.810000000000000E-002    2.902692642080472E-012
  1.820000000000000E-002    4.054908661000544E-012
  1.830000000000000E-002    4.926010693705183E-012
  1.840000000000000E-002    5.410256055945314E-012
  1.850000000000000E-002    5.431218590389693E-012
  1.860000000000000E-002    4.951586767198346E-012
  1.870000000000000E-002    3.979809752173868E-012