 -4.000000000000000E-002    0.000000000000000E+000
 -3.990000000000000E-002    0.000000000000000E+000
 -3.980000000000000E-002    0.000000000000000E+000
 -3.970000000000000E-002    0.000000000000000E+000
 -3.960000000000000E-002    0.000000000000000E+000
 -3.950000000000000E-002    0.000000000000000E+000
 -3.940000000000000E-002    0.000000000000000E+000
 -3.930000000000000E-002    0.000000000000000E+000
 -3.920000000000000E-002    0.000000000000000E+000
 -3.910000000000000E-002    0.000000000000000E+000
 -3.900000000000000E-002    0.000000000000000E+000
 -3.890000000000000E-002    0.000000000000000E+000
 -3.880000000000000E-002    0.000000000000000E+000
 -3.870000000000000E-002    0.000000000000000E+000
 -3.860000000000000E-002    0.000000000000000E+000
 -3.850000000000000E-002    0.000000000000000E+000
 -3.840000000000000E-002    0.000000000000000E+000
 -3.830000000000000E-002    0.000000000000000E+000
 -3.820000000000000E-002    0.000000000000000E+000
 -3.810000000000000E-002    0.000000000000000E+000
 -3.800000000000000E-002    0.000000000000000E+000
 -3.790000000000000E-002    0.000000000000000E+000
 -3.780000000000000E-002    0.000000000000000E+000
 -3.770000000000000E-002    1.830543656344076E-048
 -3.760000000000000E-002    2.643635821556688E-048
 -3.750000000000000E-002   -1.649736678475742E-047
 -3.740000000000000E-002   -3.356220006455097E-046
 -3.730000000000000E-002   -1.445777803197856E-045
 -3.720000000000000E-002   -5.659585598907735E-045
 -3.710000000000000E-002   -2.162933233856733E-044
 -3.700000000000000E-002   -7.723158018299698E-044
 -3.690000000000000E-002   -2.607283943923730E-043
 -3.680000000000000E-002   -8.238359651503027E-043
 -3.670000000000000E-002   -2.438594540782026E-042
 -3.660000000000000E-002   -6.793649401556527E-042
 -3.650000000000000E-002   -1.786725765022462E-041
 -3.640000000000000E-002   -4.447233771403654E-041
 -3.630000000000000E-002   -1.049472894097818E-040
 -3.620000000000000E-002   -2.349617060822458E-040
 -3.610000000000000E-002   -4.988660205880591E-040
 -3.600000000000000E-002   -1.002497890538375E-039
 -3.590000000000000E-002   -1.898777808751937E-039
 -3.580000000000000E-002   -3.362722485512455E-039
 -3.570000000000000E-002   -5.484016975313779E-039
 -3.560000000000000E-002   -7.975542695524377E-039
 -3.550000000000000E-002   -9.518397573562519E-039
 -3.540000000000000E-002   -6.456560584654036E-039
 -3.530000000000000E-002    9.567453594769128E-039
 -3.520000000000000E-002    5.553252257856664E-038
 -3.510000000000000E-002    1.629562790085687E-037
 -3.500000000000000E-002    3.858500683139921E-037
 -3.490000000000000E-002    8.096732613233382E-037
 -3.480000000000000E-002    1.558015366952268E-036
 -3.470000000000000E-002    2.789743658425823E-036
 -3.460000000000000E-002    4.673007435325590E-036
 -3.450000000000000E-002    7.313461244780534E-036
 -3.440000000000000E-002    1.060279633813805E-035
 -3.430000000000000E-002    1.394211124292119E-035
 -3.420000000000000E-002    1.578746967210382E-035
 -3.410000000000000E-002    1.297052693115954E-035
 -3.400000000000000E-002   -2.207520266186074E-037
 -3.390000000000000E-002   -3.313910801411087E-035
 -3.380000000000000E-002   -9.984384467436856E-035
 -3.370000000000000E-002   -2.196857804401970E-034
 -3.360000000000000E-002   -4.166100487222527E-034
 -3.350000000000000E-002   -7.159136206659562E-034
 -3.340000000000000E-002   -1.136666364732698E-033
 -3.330000000000000E-002   -1.677522383101870E-033
 -3.320000000000000E-002   -2.293406685812713E-033
 -3.310000000000000E-002   -2.860903861823636E-033
 -3.300000000000000E-002   -3.131544659452605E-033
 -3.290000000000000E-002   -2.675160235580695E-033
 -3.280000000000000E-002   -8.206939444548183E-034
 -3.270000000000000E-002    3.390165482543517E-033
 -3.260000000000000E-002    1.121030059168272E-032
 -3.250000000000000E-002    2.411575221584141E-032
 -3.240000000000000E-002    4.360179244137604E-032
 -3.230000000000000E-002    7.078053449185517E-032
 -3.220000000000000E-002    1.057102954303553E-031
 -3.210000000000000E-002    1.463969303765396E-031
 -3.200000000000000E-002    1.874430367256363E-031
 -3.190000000000000E-002    2.183916231141268E-031
 -3.180000000000000E-002    2.219265685751902E-031
 -3.170000000000000E-002    1.722607736856888E-031
 -3.160000000000000E-002    3.426214863644259E-032
 -3.150000000000000E-002   -2.358768167262667E-031
 -3.140000000000000E-002   -6.873648770922956E-031
 -3.130000000000000E-002   -1.367667281609590E-030
 -3.120000000000000E-002   -2.310173832577106E-030
 -3.110000000000000E-002   -3.515572579175450E-030
 -3.100000000000000E-002   -4.926421489329820E-030
 -3.090000000000000E-002   -6.395575799052487E-030
 -3.080000000000000E-002   -7.650930475747213E-030
 -3.070000000000000E-002   -8.261483197903067E-030
 -3.060000000000000E-002   -7.612873800259999E-030
 -3.050000000000000E-002   -4.904156347004475E-030
 -3.040000000000000E-002    8.190250551003549E-031
 -3.030000000000000E-002    1.057712790044771E-029
 -3.020000000000000E-002    2.529694513252487E-029
 -3.010000000000000E-002    4.556412253205052E-029
 -3.000000000000000E-002    7.128045775185620E-029
 -2.990000000000000E-002    1.012327694028151E-028
 -2.980000000000000E-002    1.326020138709173E-028
 -2.970000000000000E-002    1.604711100500066E-028
 -2.960000000000000E-002    1.774257635609913E-028
 -2.950000000000000E-002    1.733823477720423E-028
 -2.940000000000000E-002    1.358134355696941E-028
 -2.930000000000000E-002    5.056796373505767E-029
 -2.920000000000000E-002   -9.651460247978116E-029
 -2.910000000000000E-002   -3.170290717657132E-028
 -2.900000000000000E-002   -6.163882066991745E-028
 -2.890000000000000E-002   -9.892294303212174E-028
 -2.880000000000000E-002   -1.414134169072966E-027
 -2.870000000000000E-002   -1.848237091666670E-027
 -2.860000000000000E-002   -2.222652005463182E-027
 -2.850000000000000E-002   -2.440011182050663E-027
 -2.840000000000000E-002   -2.375741944459965E-027
 -2.830000000000000E-002   -1.884927944459489E-027
 -2.820000000000000E-002   -8.165914242769443E-028
 -2.810000000000000E-002    9.631209062594679E-028
 -2.800000000000000E-002    3.538159181835052E-027
 -2.790000000000000E-002    6.900896640383131E-027
 -2.780000000000000E-002    1.090424341639365E-026
 -2.770000000000000E-002    1.521275422494999E-026
 -2.760000000000000E-002    1.926092981015672E-026
 -2.750000000000000E-002    2.222997067377705E-026
 -2.740000000000000E-002    2.305684444862840E-026
 -2.730000000000000E-002    2.049110741142852E-026
 -2.720000000000000E-002    1.321448736090840E-026
 -2.710000000000000E-002    3.486806173615632E-029
 -2.700000000000000E-002   -1.984062351405242E-026
 -2.690000000000000E-002   -4.646033266710155E-026
 -2.680000000000000E-002   -7.873366746839977E-026
 -2.670000000000000E-002   -1.140307607861134E-025
 -2.660000000000000E-002   -1.478427060634538E-025
 -2.650000000000000E-002   -1.735914357230787E-025
 -2.640000000000000E-002   -1.826975383405213E-025
 -2.630000000000000E-002   -1.650239930316283E-025
 -2.620000000000000E-002   -1.098083869337259E-025
 -2.610000000000000E-002   -7.167966229290700E-027
 -2.600000000000000E-002    1.497914370128408E-025
 -2.590000000000000E-002    3.623197604922463E-025
 -2.580000000000000E-002    6.229969883469046E-025
 -2.570000000000000E-002    9.126532501202884E-025
 -2.560000000000000E-002    1.197721039887765E-024
 -2.550000000000000E-002    1.428653220911086E-024
 -2.540000000000000E-002    1.540172084327072E-024
 -2.530000000000000E-002    1.454167852240385E-024
 -2.520000000000000E-002    1.086021386076044E-024
 -2.510000000000000E-002    3.549307948893351E-025
 -2.500000000000000E-002   -8.015553285143025E-025
 -2.490000000000000E-002   -2.409157369896901E-024
 -2.480000000000000E-002   -4.435772473449293E-024
 -2.470000000000000E-002   -6.769723112190117E-024
 -2.460000000000000E-002   -9.200397014417922E-024
 -2.450000000000000E-002   -1.140530038788267E-023
 -2.440000000000000E-002   -1.294827241777081E-023
 -2.430000000000000E-002   -1.329395586959666E-023
 -2.420000000000000E-002   -1.184329500590177E-023
 -2.410000000000000E-002   -7.993690828487531E-024
 -2.400000000000000E-002   -1.225234823649476E-024
 -2.390000000000000E-002    8.788818338645265E-024
 -2.380000000000000E-002    2.205352111225387E-023
 -2.370000000000000E-002    3.811696637857170E-023
 -2.360000000000000E-002    5.594508095478428E-023
 -2.350000000000000E-002    7.382849117604800E-023
 -2.340000000000000E-002    8.934736375543356E-023
 -2.330000000000000E-002    9.942194573687124E-023
 -2.320000000000000E-002    1.004746649045699E-022
 -2.310000000000000E-002    8.872406608586382E-023
 -2.300000000000000E-002    6.061894926659009E-023
 -2.290000000000000E-002    1.340565743677126E-023
 -2.280000000000000E-002   -5.420099002429276E-023
 -2.270000000000000E-002   -1.412970242102774E-022
 -2.260000000000000E-002   -2.440995845317286E-022
 -2.250000000000000E-002   -3.553932415548599E-022
 -2.240000000000000E-002   -4.642355657690330E-022
 -2.230000000000000E-002   -5.560532781329674E-022
 -2.220000000000000E-002   -6.132521139614875E-022
 -2.210000000000000E-002   -6.164353161025403E-022
 -2.200000000000000E-002   -5.462761313372339E-022
 -2.190000000000000E-002   -3.860158538224578E-022
 -2.180000000000000E-002   -1.244649313691562E-022
 -2.170000000000000E-002    2.407227293921265E-022
 -2.160000000000000E-002    6.998445728032018E-022
 -2.150000000000000E-002    1.228456603391019E-021
 -2.140000000000000E-002    1.785711246364957E-021
 -2.130000000000000E-002    2.314268074924119E-021
 -2.120000000000000E-002    2.742286567300634E-021
 -2.110000000000000E-002    2.987886448262576E-021
 -2.100000000000000E-002    2.966258067325310E-021
 -2.090000000000000E-002    2.599310365683304E-021
 -2.080000000000000E-002    1.827368460579557E-021
 -2.070000000000000E-002    6.220289724791174E-022
 -2.060000000000000E-002   -1.001151941999063E-021
 -2.050000000000000E-002   -2.971823056557524E-021
 -2.040000000000000E-002   -5.157798479502119E-021
 -2.030000000000000E-002   -7.363818380347352E-021
 -2.020000000000000E-002   -9.337932025605546E-021
 -2.010000000000000E-002   -1.078687172814920E-020
 -2.000000000000000E-002   -1.140093281802390E-020
 -1.990000000000000E-002   -1.088787361144697E-020
 -1.980000000000000E-002   -9.013913616251721E-021
 -1.970000000000000E-002   -5.648546705362780E-021
 -1.960000000000000E-002   -8.083891512846211E-022
 -1.950000000000000E-002    5.305863833998743E-021
 -1.940000000000000E-002    1.228602596769861E-020
 -1.930000000000000E-002    1.951328194059909E-020
 -1.920000000000000E-002    2.618114639223886E-020
 -1.910000000000000E-002    3.134861049210641E-020
 -1.900000000000000E-002    3.402452312617553E-020
 -1.890000000000000E-002    3.328060118338821E-020
 -1.880000000000000E-002    2.838594814355144E-020
 -1.870000000000000E-002    1.895107450082050E-020
 -1.860000000000000E-002    5.065331809440780E-021
 -1.850000000000000E-002   -1.259214216005829E-020
 -1.840000000000000E-002   -3.268928729636433E-020
 -1.830000000000000E-002   -5.324659946142046E-020
 -1.820000000000000E-002   -7.172840990027283E-020
 -1.810000000000000E-002   -8.523037588025965E-020
 -1.800000000000000E-002   -9.076356875307901E-020
 -1.790000000000000E-002   -8.562314811826178E-020
 -1.780000000000000E-002   -6.781525659065800E-020
 -1.770000000000000E-002   -3.650124177935828E-020
 -1.760000000000000E-002    7.594193765453025E-021
 -1.750000000000000E-002    6.187355933859738E-020
 -1.740000000000000E-002    1.217215084598921E-019
 -1.730000000000000E-002    1.805852782028639E-019
 -1.720000000000000E-002    2.303275930739260E-019
 -1.710000000000000E-002    2.618763433854532E-019
 -1.700000000000000E-002    2.661616933642955E-019
 -1.690000000000000E-002    2.352931133893322E-019
 -1.680000000000000E-002    1.638857774731359E-019
 -1.670000000000000E-002    5.040231643649981E-020
 -1.660000000000000E-002   -1.016564275671930E-019
 -1.650000000000000E-002   -2.829023535425302E-019
 -1.640000000000000E-002   -4.777454806042395E-019
 -1.630000000000000E-002   -6.647862436805943E-019
 -1.620000000000000E-002   -8.180389621861269E-019
 -1.610000000000000E-002   -9.090361949466670E-019
 -1.600000000000000E-002   -9.097648467062685E-019
 -1.590000000000000E-002   -7.962678858105199E-019
 -1.580000000000000E-002   -5.526228729053605E-019
 -1.570000000000000E-002   -1.748944787554623E-019
 -1.560000000000000E-002    3.254361588044918E-019
 -1.550000000000000E-002    9.191106084359238E-019
 -1.540000000000000E-002    1.558341776727050E-018
 -1.530000000000000E-002    2.178140454961953E-018
 -1.520000000000000E-002    2.700034749002930E-018
 -1.510000000000000E-002    3.038287105431617E-018
 -1.500000000000000E-002    3.108413711612098E-018
 -1.490000000000000E-002    2.837507812866522E-018
 -1.480000000000000E-002    2.175522256201890E-018
 -1.470000000000000E-002    1.106373511354283E-018
 -1.460000000000000E-002   -3.425025911737191E-019
 -1.450000000000000E-002   -2.093621965294773E-018
 -1.440000000000000E-002   -4.017381335896654E-018
 -1.430000000000000E-002   -5.935652546490518E-018
 -1.420000000000000E-002   -7.631826619805604E-018
 -1.410000000000000E-002   -8.867482126159725E-018
 -1.400000000000000E-002   -9.405111644363882E-018
 -1.390000000000000E-002   -9.035492076349982E-018
 -1.380000000000000E-002   -7.607453175454739E-018
 -1.370000000000000E-002   -5.057053515645225E-018
 -1.360000000000000E-002   -1.432640379351179E-018
 -1.350000000000000E-002    3.087948104899820E-018
 -1.340000000000000E-002    8.191605032023333E-018
 -1.330000000000000E-002    1.343852201106996E-017
 -1.320000000000000E-002    1.828691522776465E-017
 -1.310000000000000E-002    2.213419045776399E-017
 -1.300000000000000E-002    2.437293800203995E-017
 -1.290000000000000E-002    2.445814504356982E-017
 -1.280000000000000E-002    2.197996788937408E-017
 -1.270000000000000E-002    1.673477374203238E-017
 -1.260000000000000E-002    8.785892670294641E-018
 -1.250000000000000E-002   -1.494754100467505E-018
 -1.240000000000000E-002   -1.341247479167634E-017
 -1.230000000000000E-002   -2.596970004231899E-017
 -1.220000000000000E-002   -3.792377296511281E-017
 -1.210000000000000E-002   -4.788290439116922E-017
 -1.200000000000000E-002   -5.443593224587921E-017
 -1.190000000000000E-002   -5.630712878993736E-017
 -1.180000000000000E-002   -5.252252605251033E-017
 -1.170000000000000E-002   -4.257085758925540E-017
 -1.160000000000000E-002   -2.653948096844692E-017
 -1.150000000000000E-002   -5.205497668950993E-018
 -1.140000000000000E-002    1.993625070534279E-017
 -1.130000000000000E-002    4.672223262607037E-017
 -1.120000000000000E-002    7.245403300728160E-017
 -1.110000000000000E-002    9.411573812255661E-017
 -1.100000000000000E-002    1.086643045352444E-016
 -1.090000000000000E-002    1.133715527752173E-016
 -1.080000000000000E-002    1.061872393570665E-016
 -1.070000000000000E-002    8.608505420068617E-017
 -1.060000000000000E-002    5.334849267041627E-017
 -1.050000000000000E-002    9.753834253532960E-018
 -1.040000000000000E-002   -4.138820006194029E-017
 -1.030000000000000E-002   -9.536049210703595E-017
 -1.020000000000000E-002   -1.463508241539626E-016
 -1.010000000000000E-002   -1.879411694301571E-016
 -1.000000000000000E-002   -2.137484263210276E-016
 -9.899999999999999E-003   -2.181678063806867E-016
 -9.800000000000000E-003   -1.971508967260168E-016
 -9.699999999999999E-003   -1.489347894011109E-016
 -9.599999999999999E-003   -7.463042659685091E-017
 -9.500000000000000E-003    2.142019423958960E-017
 -9.399999999999999E-003    1.315971845275997E-016
 -9.299999999999999E-003    2.453227863637615E-016
 -9.200000000000000E-003    3.497725623170730E-016
 -9.099999999999999E-003    4.309613110812098E-016
 -8.999999999999999E-003    4.751424065552981E-016
 -8.900000000000000E-003    4.704141464137758E-016
 -8.799999999999999E-003    4.083859161290275E-016
 -8.699999999999999E-003    2.857270152729543E-016
 -8.600000000000000E-003    1.054059493247283E-016
 -8.499999999999999E-003   -1.225680321681432E-016
 -8.399999999999999E-003   -3.810639813662379E-016
 -8.300000000000000E-003   -6.465238433631963E-016
 -8.199999999999999E-003   -8.904789108698448E-016
 -8.100000000000000E-003   -1.081853043069511E-015
 -8.000000000000000E-003   -1.189924175869346E-015
 -7.899999999999999E-003   -1.187723385801357E-015
 -7.800000000000000E-003   -1.055572391364177E-015
 -7.699999999999999E-003   -7.843947713203942E-016
 -7.599999999999999E-003   -3.784130121065455E-016
 -7.499999999999999E-003    1.431559012484800E-016
 -7.399999999999999E-003    7.457359119100837E-016
 -7.299999999999999E-003    1.380599183504335E-015
 -7.199999999999999E-003    1.987748924949929E-015
 -7.100000000000000E-003    2.500419901972176E-015
 -6.999999999999999E-003    2.850958572649529E-015
 -6.899999999999999E-003    2.977662579279753E-015
 -6.800000000000000E-003    2.832001735644260E-015
 -6.699999999999999E-003    2.385519176637062E-015
 -6.599999999999999E-003    1.635651037132874E-015
 -6.499999999999999E-003    6.097081655916023E-016
 -6.399999999999999E-003   -6.336412558742384E-016
 -6.299999999999999E-003   -2.005883395444806E-015
 -6.199999999999999E-003   -3.393408670020207E-015
 -6.100000000000000E-003   -4.665439687998663E-015
 -5.999999999999999E-003   -5.684748306151111E-015
 -5.899999999999999E-003   -6.320414769279253E-015
 -5.800000000000000E-003   -6.461599454267837E-015
 -5.699999999999999E-003   -6.031037331856443E-015
 -5.599999999999999E-003   -4.996857347980353E-015
 -5.499999999999999E-003   -3.381306858043383E-015
 -5.399999999999999E-003   -1.265115856268415E-015
 -5.299999999999999E-003    1.213469541522949E-015
 -5.199999999999999E-003    3.865530071607731E-015
 -5.099999999999999E-003    6.464187260781397E-015
 -4.999999999999999E-003    8.762598537145959E-015
 -4.899999999999999E-003    1.051600593235364E-014
 -4.799999999999999E-003    1.150606473882748E-014
 -4.699999999999999E-003    1.156523422417512E-014
 -4.599999999999999E-003    1.059873935176968E-014
 -4.499999999999999E-003    8.601597376122648E-015
 -4.399999999999999E-003    5.668390829533309E-015
 -4.299999999999999E-003    1.993985777741226E-015
 -4.199999999999999E-003   -2.135890269146767E-015
 -4.099999999999999E-003   -6.364368315991708E-015
 -3.999999999999999E-003   -1.029255025237139E-014
 -3.899999999999999E-003   -1.351602567342030E-014
 -3.799999999999999E-003   -1.566583817725789E-014
 -3.699999999999999E-003   -1.645008700707310E-014
 -3.599999999999999E-003   -1.569188975693780E-014
 -3.499999999999999E-003   -1.335930866581816E-014
 -3.399999999999999E-003   -9.583183561770751E-015
 -3.299999999999999E-003   -4.659622080121771E-015
 -3.199999999999999E-003    9.648831563901828E-016
 -3.099999999999999E-003    6.726097895841767E-015
 -2.999999999999999E-003    1.199104974722743E-014
 -2.899999999999999E-003    1.612003855966841E-014
 -2.799999999999999E-003    1.853657594899621E-014
 -2.699999999999999E-003    1.879866768863177E-014
 -2.599999999999999E-003    1.666392144147031E-014
 -2.499999999999999E-003    1.214072648028817E-014
 -2.399999999999999E-003    5.518246369647947E-015
 -2.299999999999999E-003   -2.630689099819247E-015
 -2.199999999999999E-003   -1.147752649712386E-014
 -2.099999999999999E-003   -1.999773194004031E-014
 -1.999999999999999E-003   -2.705997923892058E-014
 -1.899999999999999E-003   -3.153910191521795E-014
 -1.799999999999999E-003   -3.244373852407074E-014
 -1.699999999999999E-003   -2.904697755759727E-014
 -1.599999999999999E-003   -2.100639465618944E-014
 -1.499999999999999E-003   -8.459238393795496E-015
 -1.399999999999999E-003    7.920740022488107E-015
 -1.299999999999999E-003    2.691606749666326E-014
 -1.199999999999999E-003    4.681550042316698E-014
 -1.099999999999999E-003    6.552371096587960E-014
 -9.999999999999989E-004    8.072737856017913E-014
 -8.999999999999990E-004    9.010814080560654E-014
 -7.999999999999990E-004    9.158652813568453E-014
 -6.999999999999989E-004    8.357598587700174E-014
 -5.999999999999990E-004    6.522209829209930E-014
 -4.999999999999989E-004    3.660036353492261E-014
 -3.999999999999989E-004   -1.153162513119275E-015
 -2.999999999999989E-004   -4.580084525631960E-014
 -1.999999999999989E-004   -9.406810290236653E-014
 -9.999999999999892E-005   -1.418211776651204E-013
  1.084202172485504E-018   -1.843550077880857E-013
  1.000000000000011E-004   -2.167767351895138E-013
  2.000000000000011E-004   -2.344589069023566E-013
  3.000000000000011E-004   -2.335259915340004E-013
  4.000000000000011E-004   -2.113303320448450E-013
  5.000000000000011E-004   -1.668690044167196E-013
  6.000000000000011E-004   -1.010932438497946E-013
  7.000000000000011E-004   -1.706678205353753E-014
  8.000000000000011E-004    8.006055668165991E-014
  9.000000000000012E-004    1.832834590701601E-013
  1.000000000000001E-003    2.841773224516721E-013
  1.100000000000001E-003    3.735211261582321E-013
  1.200000000000001E-003    4.420676878213870E-013
  1.300000000000001E-003    4.814028641593103E-013
  1.400000000000001E-003    4.848198795256384E-013
  1.500000000000001E-003    4.481254894038302E-013
  1.600000000000001E-003    3.702923732624759E-013
  1.700000000000001E-003    2.538781799344041E-013
  1.800000000000001E-003    1.051464240192377E-013
  1.900000000000001E-003   -6.615313648388684E-014
  2.000000000000001E-003   -2.473568969440554E-013
  2.100000000000001E-003   -4.237921909995602E-013
  2.200000000000001E-003   -5.799575563075991E-013
  2.300000000000001E-003   -7.008900465162294E-013
  2.400000000000001E-003   -7.736020808296465E-013
  2.500000000000001E-003   -7.884541438715801E-013
  2.600000000000001E-003   -7.403214668777694E-013
  2.700000000000001E-003   -6.294207645275979E-013
  2.800000000000001E-003   -4.616856320189089E-013
  2.900000000000001E-003   -2.486134466682236E-013
  3.000000000000001E-003   -6.554026829556902E-015
  3.100000000000001E-003    2.445355283875056E-013
  3.200000000000001E-003    4.827889038884074E-013
  3.300000000000001E-003    6.864468814923018E-013
  3.400000000000001E-003    8.360108216873746E-013
  3.500000000000001E-003    9.163242963001806E-013
  3.600000000000001E-003    9.183606239948583E-013
  3.700000000000001E-003    8.405060456046021E-013
  3.800000000000001E-003    6.891630748236221E-013
  3.900000000000001E-003    4.785530304281113E-013
  4.000000000000001E-003    2.296729600384495E-013
  4.100000000000001E-003   -3.155276849187379E-014
  4.200000000000001E-003   -2.767962298039496E-013
  4.300000000000001E-003   -4.783097062190465E-013
  4.400000000000001E-003   -6.120841160706059E-013
  4.500000000000001E-003   -6.608534218001983E-013
  4.600000000000002E-003   -6.165989924878361E-013
  4.700000000000001E-003   -4.822308250501854E-013
  4.800000000000001E-003   -2.721813551605615E-013
  4.900000000000002E-003   -1.174003232172192E-014
  5.000000000000001E-003    2.649220484086262E-013
  5.100000000000001E-003    5.179484657918372E-013
  5.200000000000001E-003    7.059845742471826E-013
  5.300000000000002E-003    7.909895137388823E-013
  5.400000000000001E-003    7.432050034308520E-013
  5.500000000000001E-003    5.457412504471861E-013
  5.600000000000002E-003    1.982288107780293E-013
  5.700000000000001E-003   -2.809721535758601E-013
  5.800000000000001E-003   -8.544137401684265E-013
  5.900000000000002E-003   -1.467300367156099E-012
  6.000000000000001E-003   -2.051377303239565E-012
  6.100000000000001E-003   -2.530789306509006E-012
  6.200000000000002E-003   -2.829500736863667E-012
  6.300000000000002E-003   -2.879655661456569E-012
  6.400000000000001E-003   -2.630089599490415E-012
  6.500000000000001E-003   -2.054106005255202E-012
  6.600000000000002E-003   -1.155603839186888E-012
  6.700000000000001E-003    2.726627355602818E-014
  6.800000000000001E-003    1.421581735668128E-012
  6.900000000000002E-003    2.922662714988324E-012
  7.000000000000001E-003    4.400699489200671E-012
  7.100000000000001E-003    5.710697126845780E-012
  7.200000000000002E-003    6.705081182349969E-012
  7.300000000000002E-003    7.247961749523084E-012
  7.400000000000001E-003    7.229779112319652E-012
  7.500000000000001E-003    6.580903540103217E-012
  7.600000000000002E-003    5.282721002435656E-012
  7.700000000000001E-003    3.374852784016277E-012
  7.800000000000001E-003    9.574213104717628E-013
  7.900000000000001E-003   -1.812330564563866E-012
  8.000000000000002E-003   -4.729250826762072E-012
  8.100000000000001E-003   -7.554941338787942E-012
  8.200000000000001E-003   -1.003692424051483E-011
  8.300000000000002E-003   -1.193081483016411E-011
  8.400000000000001E-003   -1.302360511517176E-011
  8.500000000000002E-003   -1.315588081793392E-011
  8.600000000000002E-003   -1.224072505832434E-011
  8.700000000000001E-003   -1.027722440012309E-011
  8.800000000000002E-003   -7.356855139472143E-012
  8.900000000000002E-003   -3.661602786402967E-012
  9.000000000000001E-003    5.465956932750477E-013
  9.100000000000002E-003    4.944671514669408E-012
  9.200000000000002E-003    9.174248287945076E-012
  9.300000000000001E-003    1.287243074786896E-011
  9.400000000000002E-003    1.570488914797163E-011
  9.500000000000001E-003    1.739815886310660E-011
  9.600000000000001E-003    1.776797441300874E-011
  9.700000000000002E-003    1.674061311629859E-011
  9.800000000000001E-003    1.436475966061433E-011
  9.900000000000001E-003    1.081218889590751E-011
  1.000000000000000E-002    6.366563453129130E-012
  1.010000000000000E-002    1.400822011702220E-012
  1.020000000000000E-002   -3.655215967951572E-012
  1.030000000000000E-002   -8.354302775819777E-012
  1.040000000000000E-002   -1.227466662230016E-011
  1.050000000000000E-002   -1.506225064295397E-011
  1.060000000000000E-002   -1.646792307528960E-011
  1.070000000000000E-002   -1.637562715886324E-011
  1.080000000000000E-002   -1.481813027396059E-011
  1.090000000000000E-002   -1.197809105627368E-011
  1.100000000000000E-002   -8.173581833793204E-012
  1.110000000000000E-002   -3.828769600996889E-012
  1.120000000000000E-002    5.679799534159443E-013
  1.130000000000000E-002    4.514801600790015E-012
  1.140000000000000E-002    7.550994741016634E-012
  1.150000000000000E-002    9.310017472972872E-012
  1.160000000000000E-002    9.565072241728439E-012
  1.170000000000000E-002    8.261934069168123E-012
  1.180000000000000E-002    5.534703098360601E-012
  1.190000000000000E-002    1.701696746256187E-012
  1.200000000000000E-002   -2.759383643262610E-012
  1.210000000000000E-002   -7.255711743336532E-012
  1.220000000000000E-002   -1.113958901203302E-011
  1.230000000000000E-002   -1.377930034967869E-011
  1.240000000000000E-002   -1.463368916268869E-011
  1.250000000000000E-002   -1.332268459761675E-011
  1.260000000000000E-002   -9.685881651025324E-012
  1.270000000000000E-002   -3.821956462940941E-012
  1.280000000000000E-002    3.896790099418692E-012
  1.290000000000000E-002    1.283829862794087E-011
  1.300000000000000E-002    2.215381987329255E-011
  1.310000000000000E-002    3.084803007693006E-011
  1.320000000000000E-002    3.787099653607000E-011
  1.330000000000000E-002    4.222417616966442E-011
  1.340000000000000E-002    4.307062520720121E-011
  1.350000000000000E-002    3.983831355177067E-011
  1.360000000000000E-002    3.230545973903382E-011
  1.370000000000000E-002    2.065765003337124E-011
  1.380000000000000E-002    5.508761347177484E-012
  1.390000000000000E-002   -1.211933420090705E-011
  1.400000000000000E-002   -3.085943327613142E-011
  1.410000000000000E-002   -4.910107158588762E-011
  1.420000000000000E-002   -6.512483483603385E-011
  1.430000000000000E-002   -7.725811580758640E-011
  1.440000000000000E-002   -8.403843811294135E-011
  1.450000000000000E-002   -8.436907360243390E-011
  1.460000000000000E-002   -7.765112502258895E-011
  1.470000000000000E-002   -6.387759599631147E-011
  1.480000000000000E-002   -4.367789087681966E-011
  1.490000000000000E-002   -1.830499306172706E-011
  1.500000000000000E-002    1.043700345936751E-011
  1.510000000000000E-002    4.032192725269418E-011
  1.520000000000000E-002    6.887825035387005E-011
  1.530000000000000E-002    9.359942743282556E-011
  1.540000000000000E-002    1.121698646751442E-010
  1.550000000000000E-002    1.226857966579201E-010
  1.560000000000000E-002    1.238498811816421E-010
  1.570000000000000E-002    1.151195145523295E-010
  1.580000000000000E-002    9.679244722891843E-011
  1.590000000000000E-002    7.001832931440868E-011
  1.600000000000000E-002    3.673146039755557E-011
  1.610000000000000E-002   -4.925719319564307E-013
  1.620000000000000E-002   -3.864631884388819E-011
  1.630000000000000E-002   -7.454880994289790E-011
  1.640000000000000E-002   -1.051303960708101E-010
  1.650000000000000E-002   -1.277177522355758E-010
  1.660000000000000E-002   -1.402917711647304E-010
  1.670000000000000E-002   -1.416922662152059E-010
  1.680000000000000E-002   -1.317474300290866E-010
  1.690000000000000E-002   -1.113127592017675E-010
  1.700000000000000E-002   -8.221189021530499E-011
  1.710000000000000E-002   -4.708145391244720E-011
  1.720000000000000E-002   -9.131599216542413E-012
  1.730000000000000E-002    2.815733040388524E-011
  1.740000000000000E-002    6.137417394142109E-011
  1.750000000000000E-002    8.751988227448795E-011
  1.760000000000000E-002    1.043194291397361E-010
  1.770000000000000E-002    1.104699027626966E-010
  1.780000000000000E-002    1.057968886967687E-010
  1.790000000000000E-002    9.129911759983479E-011
  1.800000000000000E-002    6.907179835840255E-011
  1.810000000000000E-002    4.211089380291459E-011
  1.820000000000000E-002    1.401287897124460E-011
  1.830000000000000E-002   -1.140434847126592E-011
  1.840000000000000E-002   -3.052369978030697E-011
  1.850000000000000E-002   -4.035322967027990E-011
  1.860000000000000E-002   -3.890801967582149E-011
  1.870000000000000E-002   -2.550773751810523E-011