 -4.000000000000000E-002    0.000000000000000E+000
 -3.990000000000000E-002    0.000000000000000E+000
 -3.980000000000000E-002    0.000000000000000E+000
 -3.970000000000000E-002    0.000000000000000E+000
 -3.960000000000000E-002    0.000000000000000E+000
 -3.950000000000000E-002    0.000000000000000E+000
 -3.940000000000000E-002    0.000000000000000E+000
 -3.930000000000000E-002    0.000000000000000E+000
 -3.920000000000000E-002    0.000000000000000E+000
 -3.910000000000000E-002    0.000000000000000E+000
 -3.900000000000000E-002    0.000000000000000E+000
 -3.890000000000000E-002    0.000000000000000E+000
 -3.880000000000000E-002    0.000000000000000E+000
 -3.870000000000000E-002    0.000000000000000E+000
 -3.860000000000000E-002    0.000000000000000E+000
 -3.850000000000000E-002    0.000000000000000E+000
 -3.840000000000000E-002    0.000000000000000E+000
 -3.830000000000000E-002    0.000000000000000E+000
 -3.820000000000000E-002    0.000000000000000E+000
 -3.810000000000000E-002    0.000000000000000E+000
 -3.800000000000000E-002    0.000000000000000E+000
 -3.790000000000000E-002    0.000000000000000E+000
 -3.780000000000000E-002    0.000000000000000E+000
 -3.770000000000000E-002    0.000000000000000E+000
 -3.760000000000000E-002    0.000000000000000E+000
 -3.750000000000000E-002    0.000000000000000E+000
 -3.740000000000000E-002    0.000000000000000E+000
 -3.730000000000000E-002    0.000000000000000E+000
 -3.720000000000000E-002    0.000000000000000E+000
 -3.710000000000000E-002    0.000000000000000E+000
 -3.700000000000000E-002    0.000000000000000E+000
 -3.690000000000000E-002    0.000000000000000E+000
 -3.680000000000000E-002    0.000000000000000E+000
 -3.670000000000000E-002    0.000000000000000E+000
 -3.660000000000000E-002    0.000000000000000E+000
 -3.650000000000000E-002    0.000000000000000E+000
 -3.640000000000000E-002    0.000000000000000E+000
 -3.630000000000000E-002    0.000000000000000E+000
 -3.620000000000000E-002    0.000000000000000E+000
 -3.610000000000000E-002    0.000000000000000E+000
 -3.600000000000000E-002    0.000000000000000E+000
 -3.590000000000000E-002    0.000000000000000E+000
 -3.580000000000000E-002    0.000000000000000E+000
 -3.570000000000000E-002    0.000000000000000E+000
 -3.560000000000000E-002    0.000000000000000E+000
 -3.550000000000000E-002    0.000000000000000E+000
 -3.540000000000000E-002    0.000000000000000E+000
 -3.530000000000000E-002    0.000000000000000E+000
 -3.520000000000000E-002    0.000000000000000E+000
 -3.510000000000000E-002    0.000000000000000E+000
 -3.500000000000000E-002    0.000000000000000E+000
 -3.490000000000000E-002    0.000000000000000E+000
 -3.480000000000000E-002    0.000000000000000E+000
 -3.470000000000000E-002    0.000000000000000E+000
 -3.460000000000000E-002    0.000000000000000E+000
 -3.450000000000000E-002    0.000000000000000E+000
 -3.440000000000000E-002    0.000000000000000E+000
 -3.430000000000000E-002    0.000000000000000E+000
 -3.420000000000000E-002    0.000000000000000E+000
 -3.410000000000000E-002    0.000000000000000E+000
 -3.400000000000000E-002    0.000000000000000E+000
 -3.390000000000000E-002    0.000000000000000E+000
 -3.380000000000000E-002    0.000000000000000E+000
 -3.370000000000000E-002    0.000000000000000E+000
 -3.360000000000000E-002    0.000000000000000E+000
 -3.350000000000000E-002    0.000000000000000E+000
 -3.340000000000000E-002    0.000000000000000E+000
 -3.330000000000000E-002    0.000000000000000E+000
 -3.320000000000000E-002    0.000000000000000E+000
 -3.310000000000000E-002    0.000000000000000E+000
 -3.300000000000000E-002    0.000000000000000E+000
 -3.290000000000000E-002    0.000000000000000E+000
 -3.280000000000000E-002    0.000000000000000E+000
 -3.270000000000000E-002    0.000000000000000E+000
 -3.260000000000000E-002    0.000000000000000E+000
 -3.250000000000000E-002    0.000000000000000E+000
 -3.240000000000000E-002    0.000000000000000E+000
 -3.230000000000000E-002    0.000000000000000E+000
 -3.220000000000000E-002    0.000000000000000E+000
 -3.210000000000000E-002    0.000000000000000E+000
 -3.200000000000000E-002    0.000000000000000E+000
 -3.190000000000000E-002    0.000000000000000E+000
 -3.180000000000000E-002    0.000000000000000E+000
 -3.170000000000000E-002    0.000000000000000E+000
 -3.160000000000000E-002    0.000000000000000E+000
 -3.150000000000000E-002    0.000000000000000E+000
 -3.140000000000000E-002    0.000000000000000E+000
 -3.130000000000000E-002    0.000000000000000E+000
 -3.120000000000000E-002    0.000000000000000E+000
 -3.110000000000000E-002    0.000000000000000E+000
 -3.100000000000000E-002    0.000000000000000E+000
 -3.090000000000000E-002    0.000000000000000E+000
 -3.080000000000000E-002    0.000000000000000E+000
 -3.070000000000000E-002    0.000000000000000E+000
 -3.060000000000000E-002    0.000000000000000E+000
 -3.050000000000000E-002    0.000000000000000E+000
 -3.040000000000000E-002    0.000000000000000E+000
 -3.030000000000000E-002    0.000000000000000E+000
 -3.020000000000000E-002    0.000000000000000E+000
 -3.010000000000000E-002    0.000000000000000E+000
 -3.000000000000000E-002    0.000000000000000E+000
 -2.990000000000000E-002    0.000000000000000E+000
 -2.980000000000000E-002    0.000000000000000E+000
 -2.970000000000000E-002    0.000000000000000E+000
 -2.960000000000000E-002    0.000000000000000E+000
 -2.950000000000000E-002    0.000000000000000E+000
 -2.940000000000000E-002    0.000000000000000E+000
 -2.930000000000000E-002    0.000000000000000E+000
 -2.920000000000000E-002    0.000000000000000E+000
 -2.910000000000000E-002    0.000000000000000E+000
 -2.900000000000000E-002    0.000000000000000E+000
 -2.890000000000000E-002    0.000000000000000E+000
 -2.880000000000000E-002    0.000000000000000E+000
 -2.870000000000000E-002    0.000000000000000E+000
 -2.860000000000000E-002    0.000000000000000E+000
 -2.850000000000000E-002    0.000000000000000E+000
 -2.840000000000000E-002    0.000000000000000E+000
 -2.830000000000000E-002    0.000000000000000E+000
 -2.820000000000000E-002    0.000000000000000E+000
 -2.810000000000000E-002    0.000000000000000E+000
 -2.800000000000000E-002    0.000000000000000E+000
 -2.790000000000000E-002    0.000000000000000E+000
 -2.780000000000000E-002    0.000000000000000E+000
 -2.770000000000000E-002    0.000000000000000E+000
 -2.760000000000000E-002    0.000000000000000E+000
 -2.750000000000000E-002    0.000000000000000E+000
 -2.740000000000000E-002    0.000000000000000E+000
 -2.730000000000000E-002    0.000000000000000E+000
 -2.720000000000000E-002    0.000000000000000E+000
 -2.710000000000000E-002    0.000000000000000E+000
 -2.700000000000000E-002    0.000000000000000E+000
 -2.690000000000000E-002    0.000000000000000E+000
 -2.680000000000000E-002    0.000000000000000E+000
 -2.670000000000000E-002    0.000000000000000E+000
 -2.660000000000000E-002    0.000000000000000E+000
 -2.650000000000000E-002    0.000000000000000E+000
 -2.640000000000000E-002    0.000000000000000E+000
 -2.630000000000000E-002    0.000000000000000E+000
 -2.620000000000000E-002    0.000000000000000E+000
 -2.610000000000000E-002    0.000000000000000E+000
 -2.600000000000000E-002    0.000000000000000E+000
 -2.590000000000000E-002    0.000000000000000E+000
 -2.580000000000000E-002    0.000000000000000E+000
 -2.570000000000000E-002    0.000000000000000E+000
 -2.560000000000000E-002    0.000000000000000E+000
 -2.550000000000000E-002    0.000000000000000E+000
 -2.540000000000000E-002    0.000000000000000E+000
 -2.530000000000000E-002    0.000000000000000E+000
 -2.520000000000000E-002    0.000000000000000E+000
 -2.510000000000000E-002    0.000000000000000E+000
 -2.500000000000000E-002    0.000000000000000E+000
 -2.490000000000000E-002    0.000000000000000E+000
 -2.480000000000000E-002    0.000000000000000E+000
 -2.470000000000000E-002    0.000000000000000E+000
 -2.460000000000000E-002    0.000000000000000E+000
 -2.450000000000000E-002    0.000000000000000E+000
 -2.440000000000000E-002    0.000000000000000E+000
 -2.430000000000000E-002    0.000000000000000E+000
 -2.420000000000000E-002    0.000000000000000E+000
 -2.410000000000000E-002    0.000000000000000E+000
 -2.400000000000000E-002    0.000000000000000E+000
 -2.390000000000000E-002    0.000000000000000E+000
 -2.380000000000000E-002    0.000000000000000E+000
 -2.370000000000000E-002    0.000000000000000E+000
 -2.360000000000000E-002    0.000000000000000E+000
 -2.350000000000000E-002    0.000000000000000E+000
 -2.340000000000000E-002    0.000000000000000E+000
 -2.330000000000000E-002    0.000000000000000E+000
 -2.320000000000000E-002    0.000000000000000E+000
 -2.310000000000000E-002    0.000000000000000E+000
 -2.300000000000000E-002    0.000000000000000E+000
 -2.290000000000000E-002    0.000000000000000E+000
 -2.280000000000000E-002    0.000000000000000E+000
 -2.270000000000000E-002    0.000000000000000E+000
 -2.260000000000000E-002    0.000000000000000E+000
 -2.250000000000000E-002    0.000000000000000E+000
 -2.240000000000000E-002    0.000000000000000E+000
 -2.230000000000000E-002    0.000000000000000E+000
 -2.220000000000000E-002    0.000000000000000E+000
 -2.210000000000000E-002    0.000000000000000E+000
 -2.200000000000000E-002    0.000000000000000E+000
 -2.190000000000000E-002    0.000000000000000E+000
 -2.180000000000000E-002    0.000000000000000E+000
 -2.170000000000000E-002    0.000000000000000E+000
 -2.160000000000000E-002    0.000000000000000E+000
 -2.150000000000000E-002    0.000000000000000E+000
 -2.140000000000000E-002    0.000000000000000E+000
 -2.130000000000000E-002    0.000000000000000E+000
 -2.120000000000000E-002    0.000000000000000E+000
 -2.110000000000000E-002    0.000000000000000E+000
 -2.100000000000000E-002    0.000000000000000E+000
 -2.090000000000000E-002    0.000000000000000E+000
 -2.080000000000000E-002    0.000000000000000E+000
 -2.070000000000000E-002    0.000000000000000E+000
 -2.060000000000000E-002    0.000000000000000E+000
 -2.050000000000000E-002    0.000000000000000E+000
 -2.040000000000000E-002    0.000000000000000E+000
 -2.030000000000000E-002    0.000000000000000E+000
 -2.020000000000000E-002    0.000000000000000E+000
 -2.010000000000000E-002    0.000000000000000E+000
 -2.000000000000000E-002    0.000000000000000E+000
 -1.990000000000000E-002    0.000000000000000E+000
 -1.980000000000000E-002    0.000000000000000E+000
 -1.970000000000000E-002    0.000000000000000E+000
 -1.960000000000000E-002    0.000000000000000E+000
 -1.950000000000000E-002   -1.072246300648834E-047
 -1.940000000000000E-002   -8.759969005510957E-047
 -1.930000000000000E-002   -1.644769171037308E-046
 -1.920000000000000E-002   -3.075089081944849E-046
 -1.910000000000000E-002   -4.505408992852391E-046
 -1.900000000000000E-002   -5.194217132105993E-046
 -1.890000000000000E-002   -5.778609521133953E-046
 -1.880000000000000E-002   -5.407040878378208E-046
 -1.870000000000000E-002   -3.304793593216499E-046
 -1.860000000000000E-002    3.437451746907719E-046
 -1.850000000000000E-002    1.295704021690112E-045
 -1.840000000000000E-002    2.464231892890348E-045
 -1.830000000000000E-002    3.698517645399341E-045
 -1.820000000000000E-002    5.025148499550381E-045
 -1.810000000000000E-002    6.331962841794896E-045
 -1.800000000000000E-002    7.127377449692184E-045
 -1.790000000000000E-002    7.340750664120049E-045
 -1.780000000000000E-002    7.794022780205265E-045
 -1.770000000000000E-002    6.667463106288501E-045
 -1.760000000000000E-002    4.413732946099780E-045
 -1.750000000000000E-002   -7.469351019512605E-046
 -1.740000000000000E-002   -7.722385954809275E-045
 -1.730000000000000E-002   -1.801984940653925E-044
 -1.720000000000000E-002   -3.055029592201244E-044
 -1.710000000000000E-002   -4.612926345761808E-044
 -1.700000000000000E-002   -6.192628091196953E-044
 -1.690000000000000E-002   -7.635649944104869E-044
 -1.680000000000000E-002   -8.483046925096564E-044
 -1.670000000000000E-002   -8.346039024967177E-044
 -1.660000000000000E-002   -6.605747815743629E-044
 -1.650000000000000E-002   -2.740404821948599E-044
 -1.640000000000000E-002    3.739965472712434E-044
 -1.630000000000000E-002    1.314008928942590E-043
 -1.620000000000000E-002    2.540315271276949E-043
 -1.610000000000000E-002    3.993049366632935E-043
 -1.600000000000000E-002    5.541594064431028E-043
 -1.590000000000000E-002    6.961340448826609E-043
 -1.580000000000000E-002    7.945290551855051E-043
 -1.570000000000000E-002    8.097005676713666E-043
 -1.560000000000000E-002    6.969044847699283E-043
 -1.550000000000000E-002    4.089348641619180E-043
 -1.540000000000000E-002   -9.449267473930082E-044
 -1.530000000000000E-002   -8.404152492388522E-043
 -1.520000000000000E-002   -1.823919687887375E-042
 -1.510000000000000E-002   -3.000820944568909E-042
 -1.500000000000000E-002   -4.269825069424611E-042
 -1.490000000000000E-002   -5.466319545571043E-042
 -1.480000000000000E-002   -6.354754909726205E-042
 -1.470000000000000E-002   -6.637044827364524E-042
 -1.460000000000000E-002   -5.967854843276182E-042
 -1.450000000000000E-002   -3.995834084217835E-042
 -1.440000000000000E-002   -4.149670045484674E-043
 -1.430000000000000E-002    4.961301514148959E-042
 -1.420000000000000E-002    1.210949823341967E-041
 -1.410000000000000E-002    2.070291628589706E-041
 -1.400000000000000E-002    3.002187902253159E-041
 -1.390000000000000E-002    3.888510648147479E-041
 -1.380000000000000E-002    4.563203322143655E-041
 -1.370000000000000E-002    4.817103458600111E-041
 -1.360000000000000E-002    4.412863715404602E-041
 -1.350000000000000E-002    3.110646579854535E-041
 -1.340000000000000E-002    7.064836734013779E-042
 -1.330000000000000E-002   -2.917145530682950E-041
 -1.320000000000000E-002   -7.733105820122270E-041
 -1.310000000000000E-002   -1.350743181055222E-040
 -1.300000000000000E-002   -1.974388660787100E-040
 -1.290000000000000E-002   -2.564633331616503E-040
 -1.280000000000000E-002   -3.011353880238445E-040
 -1.270000000000000E-002   -3.178118574449712E-040
 -1.260000000000000E-002   -2.912678527192863E-040
 -1.250000000000000E-002   -2.064614314761782E-040
 -1.240000000000000E-002   -5.106108216007158E-041
 -1.230000000000000E-002    1.813586264336916E-040
 -1.220000000000000E-002    4.876652139612538E-040
 -1.210000000000000E-002    8.514685934478539E-040
 -1.200000000000000E-002    1.239950102324989E-039
 -1.190000000000000E-002    1.601974077651821E-039
 -1.180000000000000E-002    1.868325663398670E-039
 -1.170000000000000E-002    1.954981534810564E-039
 -1.160000000000000E-002    1.770175623905797E-039
 -1.150000000000000E-002    1.225746276409310E-039
 -1.140000000000000E-002    2.527800425776219E-040
 -1.130000000000000E-002   -1.179137206337992E-039
 -1.120000000000000E-002   -3.040623975852602E-039
 -1.110000000000000E-002   -5.221701389008649E-039
 -1.100000000000000E-002   -7.515025159383694E-039
 -1.090000000000000E-002   -9.607522021966734E-039
 -1.080000000000000E-002   -1.108528479891151E-038
 -1.070000000000000E-002   -1.145649139560338E-038
 -1.060000000000000E-002   -1.019621340004303E-038
 -1.050000000000000E-002   -6.815103002822838E-039
 -1.040000000000000E-002   -9.509872245063961E-040
 -1.030000000000000E-002    7.521627731461761E-039
 -1.020000000000000E-002    1.837401137868428E-038
 -1.010000000000000E-002    3.091277374522676E-038
 -1.000000000000000E-002    4.389670467664355E-038
 -9.899999999999999E-003    5.550501725947616E-038
 -9.800000000000000E-003    6.338266053134682E-038
 -9.699999999999999E-003    6.478680236173674E-038
 -9.599999999999999E-003    5.685239941086192E-038
 -9.500000000000000E-003    3.698341179736592E-038
 -9.399999999999999E-003    3.359371540982197E-039
 -9.299999999999999E-003   -4.447483175271800E-038
 -9.200000000000000E-003   -1.049936683434218E-037
 -9.099999999999999E-003   -1.741344427231497E-037
 -8.999999999999999E-003   -2.449078193848441E-037
 -8.900000000000000E-003   -3.072999621609077E-037
 -8.799999999999999E-003   -3.485950713892456E-037
 -8.699999999999999E-003   -3.542327844047261E-037
 -8.600000000000000E-003   -3.092770631814371E-037
 -8.499999999999999E-003   -2.005108302780971E-037
 -8.399999999999999E-003   -1.908024315979194E-038
 -8.300000000000000E-003    2.364982884815445E-037
 -8.199999999999999E-003    5.572814726065213E-037
 -8.100000000000000E-003    9.212319079040041E-037
 -8.000000000000000E-003    1.291484468814562E-036
 -7.899999999999999E-003    1.616157552951347E-036
 -7.800000000000000E-003    1.830313500087577E-036
 -7.699999999999999E-003    1.860582268742678E-036
 -7.599999999999999E-003    1.632752402445064E-036
 -7.499999999999999E-003    1.082308960518768E-036
 -7.399999999999999E-003    1.674525262591749E-037
 -7.299999999999999E-003   -1.116400724688996E-036
 -7.199999999999999E-003   -2.722221566133501E-036
 -7.100000000000000E-003   -4.539213641133552E-036
 -6.999999999999999E-003   -6.385488517011724E-036
 -6.899999999999999E-003   -8.008377614777922E-036
 -6.800000000000000E-003   -9.095079774940724E-036
 -6.699999999999999E-003   -9.295799978089088E-036
 -6.599999999999999E-003   -8.260483419515233E-036
 -6.499999999999999E-003   -5.688668365659997E-036
 -6.399999999999999E-003   -1.389923345824579E-036
 -6.299999999999999E-003    4.650104651222514E-036
 -6.199999999999999E-003    1.220550985285888E-035
 -6.100000000000000E-003    2.075766589115386E-035
 -5.999999999999999E-003    2.946601833330051E-035
 -5.899999999999999E-003    3.717434527171937E-035
 -5.800000000000000E-003    4.246378727475787E-035
 -5.699999999999999E-003    4.376113778706527E-035
 -5.599999999999999E-003    3.950590918708342E-035
 -5.499999999999999E-003    2.837252295463256E-035
 -5.399999999999999E-003    9.534884279611825E-036
 -5.299999999999999E-003   -1.704965756748127E-035
 -5.199999999999999E-003   -5.037039134144485E-035
 -5.099999999999999E-003   -8.814997455713105E-035
 -4.999999999999999E-003   -1.267364819791964E-034
 -4.899999999999999E-003   -1.611508019892459E-034
 -4.799999999999999E-003   -1.853338625321335E-034
 -4.699999999999999E-003   -1.926247679672169E-034
 -4.599999999999999E-003   -1.764786125466019E-034
 -4.499999999999999E-003   -1.314021267832172E-034
 -4.399999999999999E-003   -5.404750910867278E-035
 -4.299999999999999E-003    5.563630936367124E-035
 -4.199999999999999E-003    1.933358622381203E-034
 -4.099999999999999E-003    3.495640820674122E-034
 -3.999999999999999E-003    5.093034024265132E-034
 -3.899999999999999E-003    6.522948913844947E-034
 -3.799999999999999E-003    7.541367718017712E-034
 -3.699999999999999E-003    7.882963734204700E-034
 -3.599999999999999E-003    7.290442835145737E-034
 -3.499999999999999E-003    5.551948407080696E-034
 -3.399999999999999E-003    2.543894788255604E-034
 -3.299999999999999E-003   -1.724986084728791E-034
 -3.199999999999999E-003   -7.074058415772878E-034
 -3.099999999999999E-003   -1.312247591559499E-033
 -2.999999999999999E-003   -1.927950572863121E-033
 -2.899999999999999E-003   -2.476051050182957E-033
 -2.799999999999999E-003   -2.863423476114805E-033
 -2.699999999999999E-003   -2.990440394256735E-033
 -2.599999999999999E-003   -2.762487218623955E-033
 -2.499999999999999E-003   -2.104264419689079E-033
 -2.399999999999999E-003   -9.757560323953553E-034
 -2.299999999999999E-003    6.118245835334896E-034
 -2.199999999999999E-003    2.582306019048162E-033
 -2.099999999999999E-003    4.785597969543422E-033
 -1.999999999999999E-003    6.996147419761641E-033
 -1.899999999999999E-003    8.921236049022220E-033
 -1.799999999999999E-003    1.022090745899886E-032
 -1.699999999999999E-003    1.054024157579291E-032
 -1.599999999999999E-003    9.553202705615501E-033
 -1.499999999999999E-003    7.015457050862808E-033
 -1.399999999999999E-003    2.821560876888301E-033
 -1.299999999999999E-003   -2.940053750311687E-033
 -1.199999999999999E-003   -9.942526661327469E-033
 -1.099999999999999E-003   -1.759561672698131E-032
 -9.999999999999989E-004   -2.504956002506479E-032
 -8.999999999999990E-004   -3.123571007289681E-032
 -7.999999999999990E-004   -3.494912266771177E-032
 -6.999999999999989E-004   -3.497405869113942E-032
 -5.999999999999990E-004   -3.024771607231271E-032
 -4.999999999999989E-004   -2.005088470589587E-032
 -3.999999999999989E-004   -4.207103572533172E-033
 -2.999999999999989E-004    1.673452319569782E-032
 -1.999999999999989E-004    4.136287906764062E-032
 -9.999999999999892E-005    6.734708424563277E-032
  1.084202172485504E-018    9.148842384134893E-032
  1.000000000000011E-004    1.099070661920132E-031
  2.000000000000011E-004    1.183772338016063E-031
  3.000000000000011E-004    1.128084098649885E-031
  4.000000000000011E-004    8.984917074529510E-032
  5.000000000000011E-004    4.756690461425883E-032
  6.000000000000011E-004   -1.386773070382372E-032
  7.000000000000011E-004   -9.158371220061122E-032
  8.000000000000011E-004   -1.796073505122314E-031
  9.000000000000012E-004   -2.687663819247530E-031
  1.000000000000001E-003   -3.470035114569405E-031
  1.100000000000001E-003   -4.001762597835551E-031
  1.200000000000001E-003   -4.133760837483883E-031
  1.300000000000001E-003   -3.727398175934738E-031
  1.400000000000001E-003   -2.676511532576667E-031
  1.500000000000001E-003   -9.314856638219397E-032
  1.600000000000001E-003    1.477259436314923E-031
  1.700000000000001E-003    4.419698875144632E-031
  1.800000000000001E-003    7.654325122079529E-031
  1.900000000000001E-003    1.082777906306500E-030
  2.000000000000001E-003    1.348937466103221E-030
  2.100000000000001E-003    1.512287537836869E-030
  2.200000000000001E-003    1.519626998939328E-030
  2.300000000000001E-003    1.322812228644832E-030
  2.400000000000001E-003    8.866456069580122E-031
  2.500000000000001E-003    1.973360237587771E-031
  2.600000000000001E-003   -7.294201877166254E-031
  2.700000000000001E-003   -1.841906732176759E-030
  2.800000000000001E-003   -3.048702823919811E-030
  2.900000000000001E-003   -4.219129745541043E-030
  3.000000000000001E-003   -5.188941513649554E-030
  3.100000000000001E-003   -5.771999120608732E-030
  3.200000000000001E-003   -5.778095075342795E-030
  3.300000000000001E-003   -5.036350067747998E-030
  3.400000000000001E-003   -3.422722642871542E-030
  3.500000000000001E-003   -8.892422316422181E-031
  3.600000000000001E-003    2.508297117816227E-030
  3.700000000000001E-003    6.588148790745259E-030
  3.800000000000001E-003    1.103026592548857E-029
  3.900000000000001E-003    1.537806447420339E-029
  4.000000000000001E-003    1.905792134988605E-029
  4.100000000000001E-003    2.141877125932636E-029
  4.200000000000001E-003    2.179225950259619E-029
  4.300000000000001E-003    1.957143322258173E-029
  4.400000000000001E-003    1.430311485365782E-029
  4.500000000000001E-003    5.786054594121993E-030
  4.600000000000002E-003   -5.835801436886814E-030
  4.700000000000001E-003   -1.999782272063275E-029
  4.800000000000001E-003   -3.567104390594010E-029
  4.900000000000002E-003   -5.136405489855558E-029
  5.000000000000001E-003   -6.518219880491396E-029
  5.100000000000001E-003   -7.495164317298734E-029
  5.200000000000001E-003   -7.840991453142356E-029
  5.300000000000002E-003   -7.345677603579995E-029
  5.400000000000001E-003   -5.845027364314739E-029
  5.500000000000001E-003   -3.252339326713447E-029
  5.600000000000002E-003    4.111842995569792E-030
  5.700000000000001E-003    4.991294630542244E-029
  5.800000000000001E-003    1.018518686435997E-028
  5.900000000000002E-003    1.553990283449375E-028
  6.000000000000001E-003    2.046832246920868E-028
  6.100000000000001E-003    2.428516402640977E-028
  6.200000000000002E-003    2.626362044772470E-028
  6.300000000000002E-003    2.571092557724147E-028
  6.400000000000001E-003    2.205841255991819E-028
  6.500000000000001E-003    1.495888550634260E-028
  6.600000000000002E-003    4.381427907526559E-029
  6.700000000000001E-003   -9.308196133725788E-029
  6.800000000000001E-003   -2.529456460204679E-028
  6.900000000000002E-003   -4.229986024012233E-028
  7.000000000000001E-003   -5.862236718308170E-028
  7.100000000000001E-003   -7.223378027925812E-028
  7.200000000000002E-003   -8.093762031612934E-028
  7.300000000000002E-003   -8.258431712492920E-028
  7.400000000000001E-003   -7.533088312728134E-028
  7.500000000000001E-003   -5.792485143256956E-028
  7.600000000000002E-003   -2.998491659513040E-028
  7.700000000000001E-003    7.755571036213642E-029
  7.800000000000001E-003    5.327904440756970E-028
  7.900000000000001E-003    1.032246493340976E-027
  8.000000000000002E-003    1.529715272592040E-027
  8.100000000000001E-003    1.968863991506360E-027
  8.200000000000001E-003    2.287433450564853E-027
  8.300000000000002E-003    2.423048980734306E-027
  8.400000000000001E-003    2.320323701559735E-027
  8.500000000000002E-003    1.938712311665575E-027
  8.600000000000002E-003    1.260365025250198E-027
  8.700000000000001E-003    2.970673317590070E-028
  8.800000000000002E-003   -9.047299805998731E-028
  8.900000000000002E-003   -2.261795626424922E-027
  9.000000000000001E-003   -3.655776002312529E-027
  9.100000000000002E-003   -4.939243338623730E-027
  9.200000000000002E-003   -5.946358661723733E-027
  9.300000000000001E-003   -6.507887144949699E-027
  9.400000000000002E-003   -6.469739874354861E-027
  9.500000000000001E-003   -5.713622980128525E-027
  9.600000000000001E-003   -4.177848609840768E-027
  9.700000000000002E-003   -1.875916240864593E-027
  9.800000000000001E-003    1.089735434086291E-027
  9.900000000000001E-003    4.521399172291176E-027
  1.000000000000000E-002    8.129436115118305E-027
  1.010000000000000E-002    1.154686268582798E-026
  1.020000000000000E-002    1.435575934145417E-026
  1.030000000000000E-002    1.612482684735737E-026
  1.040000000000000E-002    1.645595950419498E-026
  1.050000000000000E-002    1.503622221826724E-026
  1.060000000000000E-002    1.169026187591793E-026
  1.070000000000000E-002    6.427142161346322E-027
  1.080000000000000E-002   -5.249738721757331E-028
  1.090000000000000E-002   -8.702712916895494E-027
  1.100000000000000E-002   -1.741549536385843E-026
  1.110000000000000E-002   -2.578144682052725E-026
  1.120000000000000E-002   -3.279244908914379E-026
  1.130000000000000E-002   -3.740641098624727E-026
  1.140000000000000E-002   -3.866121630628123E-026
  1.150000000000000E-002   -3.580114905722832E-026
  1.160000000000000E-002   -2.840342729656333E-026
  1.170000000000000E-002   -1.648989077729260E-026
  1.180000000000000E-002   -6.078668220359379E-028
  1.190000000000000E-002    1.813525905697935E-026
  1.200000000000000E-002    3.809674134516404E-026
  1.210000000000000E-002    5.719087537976238E-026
  1.220000000000000E-002    7.305114772950656E-026
  1.230000000000000E-002    8.325620747486774E-026
  1.240000000000000E-002    8.560500454428858E-026
  1.250000000000000E-002    7.841779403810939E-026
  1.260000000000000E-002    6.083202853966964E-026
  1.270000000000000E-002    3.305685580877301E-026
  1.280000000000000E-002   -3.452024174638448E-027
  1.290000000000000E-002   -4.593336680072122E-026
  1.300000000000000E-002   -9.040645780154738E-026
  1.310000000000000E-002   -1.319195165162932E-025
  1.320000000000000E-002   -1.649617925276632E-025
  1.330000000000000E-002   -1.840210041002500E-025
  1.340000000000000E-002   -1.842469250115794E-025
  1.350000000000000E-002   -1.621612508368976E-025
  1.360000000000000E-002   -1.163373634687760E-025
  1.370000000000000E-002   -4.796168835028152E-026
  1.380000000000000E-002    3.881370105548168E-026
  1.390000000000000E-002    1.368102072804264E-025
  1.400000000000000E-002    2.361171847426650E-025
  1.410000000000000E-002    3.247746233561547E-025
  1.420000000000000E-002    3.898364586686326E-025
  1.430000000000000E-002    4.187591824564240E-025
  1.440000000000000E-002    4.010105911617950E-025
  1.450000000000000E-002    3.297461019705584E-025
  1.460000000000000E-002    2.033620585990235E-025
  1.470000000000000E-002    2.671499103081398E-026
  1.480000000000000E-002   -1.882084764315786E-025
  1.490000000000000E-002   -4.223568676387831E-025
  1.500000000000000E-002   -6.505519135025934E-025
  1.510000000000000E-002   -8.433551062373767E-025
  1.520000000000000E-002   -9.698187754039878E-025
  1.530000000000000E-002   -1.000961356399139E-024
  1.540000000000000E-002   -9.136889265094381E-025
  1.550000000000000E-002   -6.947753006177107E-025
  1.560000000000000E-002   -3.444320255861079E-025
  1.570000000000000E-002    1.210434859088111E-025
  1.580000000000000E-002    6.680399503018863E-025
  1.590000000000000E-002    1.246253485972694E-024
  1.600000000000000E-002    1.791443582301027E-024
  1.610000000000000E-002    2.230411480561945E-024
  1.620000000000000E-002    2.488039552743839E-024
  1.630000000000000E-002    2.495949022349396E-024
  1.640000000000000E-002    2.202060730220670E-024
  1.650000000000000E-002    1.580085434606583E-024
  1.660000000000000E-002    6.378056082608782E-025
  1.670000000000000E-002   -5.770811844663202E-025
  1.680000000000000E-002   -1.974723111605292E-024
  1.690000000000000E-002   -3.425447688999931E-024
  1.700000000000000E-002   -4.767279645564069E-024
  1.710000000000000E-002   -5.818754931891475E-024
  1.720000000000000E-002   -6.396543494648689E-024
  1.730000000000000E-002   -6.336726668659458E-024
  1.740000000000000E-002   -5.517923208262812E-024
  1.750000000000000E-002   -3.883904312315549E-024
  1.760000000000000E-002   -1.462933777349334E-024
  1.770000000000000E-002    1.619059358982132E-024
  1.780000000000000E-002    5.134192130468139E-024
  1.790000000000000E-002    8.759427305734487E-024
  1.800000000000000E-002    1.209576775553929E-023
  1.810000000000000E-002    1.469996090798883E-023
  1.820000000000000E-002    1.612739344595487E-023
  1.830000000000000E-002    1.598329115132551E-023
  1.840000000000000E-002    1.397786108134625E-023
  1.850000000000000E-002    9.979714743975218E-024
  1.860000000000000E-002    4.061086020893677E-024
  1.870000000000000E-002   -3.471920230492849E-024