 -4.000000000000000E-002    0.000000000000000E+000
 -3.990000000000000E-002    0.000000000000000E+000
 -3.980000000000000E-002    7.642611322460701E-013
 -3.970000000000000E-002    3.716139447164656E-012
 -3.960000000000000E-002    1.069337821045651E-011
 -3.950000000000000E-002    2.359908495808445E-011
 -3.940000000000000E-002    4.399576059273883E-011
 -3.930000000000000E-002    7.269041750666826E-011
 -3.920000000000000E-002    1.093499096024074E-010
 -3.910000000000000E-002    1.521687729120851E-010
 -3.900000000000000E-002    1.975947420236279E-010
 -3.890000000000000E-002    2.401044842236813E-010
 -3.880000000000000E-002    2.720200147235496E-010
 -3.870000000000000E-002    2.833659506036837E-010
 -3.860000000000000E-002    2.617929017392628E-010
 -3.850000000000000E-002    1.926185543805038E-010
 -3.840000000000000E-002    5.907018355530569E-011
 -3.830000000000000E-002   -1.571693467531861E-010
 -3.820000000000000E-002   -4.750175680107306E-010
 -3.810000000000000E-002   -9.125718716539179E-010
 -3.800000000000000E-002   -1.485195226392586E-009
 -3.790000000000000E-002   -2.203175670464750E-009
 -3.780000000000000E-002   -3.069093610596332E-009
 -3.770000000000000E-002   -4.075141563082328E-009
 -3.760000000000000E-002   -5.200681022156299E-009
 -3.750000000000000E-002   -6.410359436569539E-009
 -3.740000000000000E-002   -7.653086059232723E-009
 -3.730000000000000E-002   -8.862076700111555E-009
 -3.720000000000000E-002   -9.956069108779351E-009
 -3.710000000000000E-002   -1.084165632640427E-008
 -3.700000000000000E-002   -1.141653611042083E-008
 -3.690000000000000E-002   -1.157334875912138E-008
 -3.680000000000000E-002   -1.120371384455307E-008
 -3.670000000000000E-002   -1.020207090068091E-008
 -3.660000000000000E-002   -8.469051888136597E-009
 -3.650000000000000E-002   -5.914244424056657E-009
 -3.640000000000000E-002   -2.458460746392625E-009
 -3.630000000000000E-002    1.964150333016428E-009
 -3.620000000000000E-002    7.403643046041800E-009
 -3.610000000000000E-002    1.389081832229419E-008
 -3.600000000000000E-002    2.143219996564011E-008
 -3.590000000000000E-002    3.000304617829105E-008
 -3.580000000000000E-002    3.953836933585041E-008
 -3.570000000000000E-002    4.992243178018191E-008
 -3.560000000000000E-002    6.097770065164213E-008
 -3.550000000000000E-002    7.245485142150720E-008
 -3.540000000000000E-002    8.402572692910945E-008
 -3.530000000000000E-002    9.528144859404724E-008
 -3.520000000000000E-002    1.057376760916134E-007
 -3.510000000000000E-002    1.148485953568433E-007
 -3.500000000000000E-002    1.220303621143981E-007
 -3.490000000000000E-002    1.266936642163849E-007
 -3.480000000000000E-002    1.282837451746457E-007
 -3.470000000000000E-002    1.263249484197278E-007
 -3.460000000000000E-002    1.204656310863426E-007
 -3.450000000000000E-002    1.105186649747094E-007
 -3.440000000000000E-002    9.649234324827535E-008
 -3.430000000000000E-002    7.860700612288886E-008
 -3.420000000000000E-002    5.729373944580326E-008
 -3.410000000000000E-002    3.317319275339789E-008
 -3.400000000000000E-002    7.014787222162250E-009
 -3.390000000000000E-002   -2.032100504602402E-008
 -3.380000000000000E-002   -4.795225068038760E-008
 -3.370000000000000E-002   -7.504993457858017E-008
 -3.360000000000000E-002   -1.009087187133366E-007
 -3.350000000000000E-002   -1.250052338781078E-007
 -3.340000000000000E-002   -1.470357826782297E-007
 -3.330000000000000E-002   -1.669270327446197E-007
 -3.320000000000000E-002   -1.848160712709903E-007
 -3.310000000000000E-002   -2.009995059407302E-007
 -3.300000000000000E-002   -2.158551947481337E-007
 -3.290000000000000E-002   -2.297438084200676E-007
 -3.280000000000000E-002   -2.429003122905163E-007
 -3.270000000000000E-002   -2.553276831458453E-007
 -3.260000000000000E-002   -2.667057180714081E-007
 -3.250000000000000E-002   -2.763268670663854E-007
 -3.240000000000000E-002   -2.830688582502309E-007
 -3.230000000000000E-002   -2.854098499771012E-007
 -3.220000000000000E-002   -2.814874714490748E-007
 -3.210000000000000E-002   -2.691979857027912E-007
 -3.200000000000000E-002   -2.463267924067744E-007
 -3.190000000000000E-002   -2.106977377501851E-007
 -3.180000000000000E-002   -1.603256843488984E-007
 -3.170000000000000E-002   -9.355582743784937E-008
 -3.160000000000000E-002   -9.174451880181863E-009
 -3.150000000000000E-002    9.352189570542869E-008
 -3.140000000000000E-002    2.147070797577277E-007
 -3.130000000000000E-002    3.540592118765462E-007
 -3.120000000000000E-002    5.108441596939706E-007
 -3.110000000000000E-002    6.840410507766454E-007
 -3.100000000000000E-002    8.724959188457586E-007
 -3.090000000000000E-002    1.075088096898801E-006
 -3.080000000000000E-002    1.290890454599900E-006
 -3.070000000000000E-002    1.519309009464894E-006
 -3.060000000000000E-002    1.760186089033072E-006
 -3.050000000000000E-002    2.013859052649455E-006
 -3.040000000000000E-002    2.281170918915714E-006
 -3.030000000000000E-002    2.563434145809226E-006
 -3.020000000000000E-002    2.862355590663602E-006
 -3.010000000000000E-002    3.179934684978375E-006
 -3.000000000000000E-002    3.518348205414619E-006
 -2.990000000000000E-002    3.879840087757642E-006
 -2.980000000000000E-002    4.266623245038910E-006
 -2.970000000000000E-002    4.680812469841312E-006
 -2.960000000000000E-002    5.124388765931667E-006
 -2.950000000000000E-002    5.599197522778143E-006
 -2.940000000000000E-002    6.106977810493690E-006
 -2.930000000000000E-002    6.649412088755462E-006
 -2.920000000000000E-002    7.228188354530031E-006
 -2.910000000000000E-002    7.845058081124876E-006
 -2.900000000000000E-002    8.501882039723233E-006
 -2.890000000000000E-002    9.200651436573745E-006
 -2.880000000000000E-002    9.943480223130382E-006
 -2.870000000000000E-002    1.073257061194594E-005
 -2.860000000000000E-002    1.157015196111349E-005
 -2.850000000000000E-002    1.245840596492215E-005
 -2.840000000000000E-002    1.339938799876162E-005
 -2.830000000000000E-002    1.439495479392206E-005
 -2.820000000000000E-002    1.544672133990460E-005
 -2.810000000000000E-002    1.655604421725591E-005
 -2.800000000000000E-002    1.772404502886386E-005
 -2.790000000000000E-002    1.895167417305875E-005
 -2.780000000000000E-002    2.023981122671700E-005
 -2.770000000000000E-002    2.158938822404533E-005
 -2.760000000000000E-002    2.300153045248615E-005
 -2.750000000000000E-002    2.447769198583072E-005
 -2.740000000000000E-002    2.601977850783447E-005
 -2.730000000000000E-002    2.763024415127881E-005
 -2.720000000000000E-002    2.931214117106059E-005
 -2.710000000000000E-002    3.106913878325484E-005
 -2.700000000000000E-002    3.290550121975729E-005
 -2.690000000000000E-002    3.482601980687519E-005
 -2.680000000000000E-002    3.683593710448720E-005
 -2.670000000000000E-002    3.894086252324713E-005
 -2.660000000000000E-002    4.114666456563837E-005
 -2.650000000000000E-002    4.345942048120946E-005
 -2.640000000000000E-002    4.588534531617070E-005
 -2.630000000000000E-002    4.843078518257315E-005
 -2.620000000000000E-002    5.110221609638926E-005
 -2.610000000000000E-002    5.390627630372041E-005
 -2.600000000000000E-002    5.684980448834587E-005
 -2.590000000000000E-002    5.993989489848078E-005
 -2.580000000000000E-002    6.318392635041480E-005
 -2.570000000000000E-002    6.658959849880930E-005
 -2.560000000000000E-002    7.016491075579515E-005
 -2.550000000000000E-002    7.391817103137814E-005
 -2.540000000000000E-002    7.785795046788336E-005
 -2.530000000000000E-002    8.199303442309774E-005
 -2.520000000000000E-002    8.633238901372810E-005
 -2.510000000000000E-002    9.088514977049209E-005
 -2.500000000000000E-002    9.566062028346262E-005
 -2.490000000000000E-002    1.006683371149627E-004
 -2.480000000000000E-002    1.059181450739142E-004
 -2.470000000000000E-002    1.114203478015021E-004
 -2.460000000000000E-002    1.171858475589681E-004
 -2.450000000000000E-002    1.232263469730241E-004
 -2.440000000000000E-002    1.295544877950719E-004
 -2.430000000000000E-002    1.361840006853027E-004
 -2.420000000000000E-002    1.431297824504191E-004
 -2.410000000000000E-002    1.504079353799412E-004
 -2.400000000000000E-002    1.580356639205305E-004
 -2.390000000000000E-002    1.660311972423551E-004
 -2.380000000000000E-002    1.744135678469491E-004
 -2.370000000000000E-002    1.832023892445417E-004
 -2.360000000000000E-002    1.924175850126765E-004
 -2.350000000000000E-002    2.020791552244636E-004
 -2.340000000000000E-002    2.122070258869776E-004
 -2.330000000000000E-002    2.228208753205059E-004
 -2.320000000000000E-002    2.339401876788559E-004
 -2.310000000000000E-002    2.455842844707872E-004
 -2.300000000000000E-002    2.577725217450326E-004
 -2.290000000000000E-002    2.705246011103966E-004
 -2.280000000000000E-002    2.838608161346988E-004
 -2.270000000000000E-002    2.978025089564180E-004
 -2.260000000000000E-002    3.123722485818912E-004
 -2.250000000000000E-002    3.275941659485904E-004
 -2.240000000000000E-002    3.434941068090376E-004
 -2.230000000000000E-002    3.600996050399391E-004
 -2.220000000000000E-002    3.774398443956560E-004
 -2.210000000000000E-002    3.955454577878566E-004
 -2.200000000000000E-002    4.144480903744726E-004
 -2.190000000000000E-002    4.341801107611568E-004
 -2.180000000000000E-002    4.547742841204395E-004
 -2.170000000000000E-002    4.762632993021121E-004
 -2.160000000000000E-002    4.986795137978342E-004
 -2.150000000000000E-002    5.220549092536045E-004
 -2.140000000000000E-002    5.464209052996231E-004
 -2.130000000000000E-002    5.718085805074200E-004
 -2.120000000000000E-002    5.982490487285331E-004
 -2.110000000000000E-002    6.257736605313552E-004
 -2.100000000000000E-002    6.544145129001085E-004
 -2.090000000000000E-002    6.842048041238691E-004
 -2.080000000000000E-002    7.151794663696606E-004
 -2.070000000000000E-002    7.473751947091057E-004
 -2.060000000000000E-002    7.808307525853879E-004
 -2.050000000000000E-002    8.155869167713986E-004
 -2.040000000000000E-002    8.516863087179044E-004
 -2.030000000000000E-002    8.891730261002473E-004
 -2.020000000000000E-002    9.280922607137046E-004
 -2.010000000000000E-002    9.684899085571706E-004
 -2.000000000000000E-002    1.010411674330986E-003
 -1.990000000000000E-002    1.053903040965539E-003
 -1.980000000000000E-002    1.099008650801433E-003
 -1.970000000000000E-002    1.145772073331183E-003
 -1.960000000000000E-002    1.194235863063500E-003
 -1.950000000000000E-002    1.244441630779518E-003
 -1.940000000000000E-002    1.296430299818648E-003
 -1.930000000000000E-002    1.350242460552708E-003
 -1.920000000000000E-002    1.405918622491182E-003
 -1.910000000000000E-002    1.463499921398198E-003
 -1.900000000000000E-002    1.523028419598466E-003
 -1.890000000000000E-002    1.584546895035979E-003
 -1.880000000000000E-002    1.648099256811527E-003
 -1.870000000000000E-002    1.713730495585054E-003
 -1.860000000000000E-002    1.781486178938626E-003
 -1.850000000000000E-002    1.851411936566226E-003
 -1.840000000000000E-002    1.923553198291146E-003
 -1.830000000000000E-002    1.997954339610255E-003
 -1.820000000000000E-002    2.074657730337603E-003
 -1.810000000000000E-002    2.153704242228911E-003
 -1.800000000000000E-002    2.235131491290164E-003
 -1.790000000000000E-002    2.318974912274741E-003
 -1.780000000000000E-002    2.405266362795859E-003
 -1.770000000000000E-002    2.494035138410214E-003
 -1.760000000000000E-002    2.585307758680073E-003
 -1.750000000000000E-002    2.679108364765890E-003
 -1.740000000000000E-002    2.775458792849698E-003
 -1.730000000000000E-002    2.874379024546475E-003
 -1.720000000000000E-002    2.975887316992004E-003
 -1.710000000000000E-002    3.080000085631395E-003
 -1.700000000000000E-002    3.186731531045608E-003
 -1.690000000000000E-002    3.296094069847952E-003
 -1.680000000000000E-002    3.408097007850261E-003
 -1.670000000000000E-002    3.522746410064271E-003
 -1.660000000000000E-002    3.640044089878193E-003
 -1.650000000000000E-002    3.759986704935521E-003
 -1.640000000000000E-002    3.882565780780521E-003
 -1.630000000000000E-002    4.007765801799222E-003
 -1.620000000000000E-002    4.135565034714992E-003
 -1.610000000000000E-002    4.265934377713001E-003
 -1.600000000000000E-002    4.398837036418076E-003
 -1.590000000000000E-002    4.534229473319038E-003
 -1.580000000000000E-002    4.672059953865087E-003
 -1.570000000000000E-002    4.812269548893138E-003
 -1.560000000000000E-002    4.954791799706959E-003
 -1.550000000000000E-002    5.099552850115669E-003
 -1.540000000000000E-002    5.246471662366518E-003
 -1.530000000000000E-002    5.395458784837224E-003
 -1.520000000000000E-002    5.546416530149287E-003
 -1.510000000000000E-002    5.699238454107939E-003
 -1.500000000000000E-002    5.853807999967689E-003
 -1.490000000000000E-002    6.009998348238746E-003
 -1.480000000000000E-002    6.167671302582977E-003
 -1.470000000000000E-002    6.326674929818717E-003
 -1.460000000000000E-002    6.486845157878343E-003
 -1.450000000000000E-002    6.648003257695756E-003
 -1.440000000000000E-002    6.809956878532666E-003
 -1.430000000000000E-002    6.972496614814670E-003
 -1.420000000000000E-002    7.135398733677717E-003
 -1.410000000000000E-002    7.298422818733378E-003
 -1.400000000000000E-002    7.461313144946471E-003
 -1.390000000000000E-002    7.623797729053271E-003
 -1.380000000000000E-002    7.785587733792182E-003
 -1.370000000000000E-002    7.946376950694587E-003
 -1.360000000000000E-002    8.105842821695047E-003
 -1.350000000000000E-002    8.263644739584764E-003
 -1.340000000000000E-002    8.419424189116944E-003
 -1.330000000000000E-002    8.572802982360113E-003
 -1.320000000000000E-002    8.723382311495958E-003
 -1.310000000000000E-002    8.870743238277072E-003
 -1.300000000000000E-002    9.014443729474048E-003
 -1.290000000000000E-002    9.154018929979503E-003
 -1.280000000000000E-002    9.288980178960921E-003
 -1.270000000000000E-002    9.418814096447977E-003
 -1.260000000000000E-002    9.542981264221222E-003
 -1.250000000000000E-002    9.660916386955314E-003
 -1.240000000000000E-002    9.772027361364974E-003
 -1.230000000000000E-002    9.875694390491381E-003
 -1.220000000000000E-002    9.971271608272998E-003
 -1.210000000000000E-002    1.005808440628109E-002
 -1.200000000000000E-002    1.013543028908298E-002
 -1.190000000000000E-002    1.020257789307824E-002
 -1.180000000000000E-002    1.025876675961719E-002
 -1.170000000000000E-002    1.030320642273007E-002
 -1.160000000000000E-002    1.033507411077273E-002
 -1.150000000000000E-002    1.035351741287226E-002
 -1.140000000000000E-002    1.035765186044154E-002
 -1.130000000000000E-002    1.034655786671492E-002
 -1.120000000000000E-002    1.031928345297387E-002
 -1.110000000000000E-002    1.027484167266922E-002
 -1.100000000000000E-002    1.021220902410332E-002
 -1.090000000000000E-002    1.013032690633532E-002
 -1.080000000000000E-002    1.002810139478126E-002
 -1.070000000000000E-002    9.904401151262412E-003
 -1.060000000000000E-002    9.758057861987706E-003
 -1.050000000000000E-002    9.587866430522087E-003
 -1.040000000000000E-002    9.392584367340291E-003
 -1.030000000000000E-002    9.170930858879727E-003
 -1.020000000000000E-002    8.921588479767123E-003
 -1.010000000000000E-002    8.643203123350865E-003
 -1.000000000000000E-002    8.334379790174033E-003
 -9.899999999999999E-003    7.993687097080244E-003
 -9.800000000000000E-003    7.619656377687089E-003
 -9.699999999999999E-003    7.210776089221586E-003
 -9.599999999999999E-003    6.765499564245694E-003
 -9.500000000000000E-003    6.282240924903476E-003
 -9.399999999999999E-003    5.759371972764151E-003
 -9.299999999999999E-003    5.195227050243565E-003
 -9.200000000000000E-003    4.588098865319261E-003
 -9.099999999999999E-003    3.936242041156892E-003
 -8.999999999999999E-003    3.237874855783992E-003
 -8.900000000000000E-003    2.491174595472866E-003
 -8.799999999999999E-003    1.694284284664611E-003
 -8.699999999999999E-003    8.453108641930363E-004
 -8.600000000000000E-003   -5.768325599417008E-005
 -8.499999999999999E-003   -1.016662281353978E-003
 -8.399999999999999E-003   -2.033631613734539E-003
 -8.300000000000000E-003   -3.110622766712147E-003
 -8.199999999999999E-003   -4.249712831379177E-003
 -8.100000000000000E-003   -5.453003828321710E-003
 -8.000000000000000E-003   -6.722626849943751E-003
 -7.899999999999999E-003   -8.060755217626822E-003
 -7.800000000000000E-003   -9.469585949393133E-003
 -7.699999999999999E-003   -1.095134149794570E-002
 -7.599999999999999E-003   -1.250827837313481E-002
 -7.499999999999999E-003   -1.414268086978575E-002
 -7.399999999999999E-003   -1.585685363013099E-002
 -7.299999999999999E-003   -1.765312121728919E-002
 -7.199999999999999E-003   -1.953383498641809E-002
 -7.100000000000000E-003   -2.150136393199971E-002
 -6.999999999999999E-003   -2.355808721687144E-002
 -6.899999999999999E-003   -2.570640768239823E-002
 -6.800000000000000E-003   -2.794873670357387E-002
 -6.699999999999999E-003   -3.028749852096938E-002
 -6.599999999999999E-003   -3.272512352944173E-002
 -6.499999999999999E-003   -3.526405606604265E-002
 -6.399999999999999E-003   -3.790672807490842E-002
 -6.299999999999999E-003   -4.065558864391833E-002
 -6.199999999999999E-003   -4.351307891779244E-002
 -6.100000000000000E-003   -4.648164891943040E-002
 -5.999999999999999E-003   -4.956372398083306E-002
 -5.899999999999999E-003   -5.276173797380414E-002
 -5.800000000000000E-003   -5.607810106968366E-002
 -5.699999999999999E-003   -5.951521040304244E-002
 -5.599999999999999E-003   -6.307545577960121E-002
 -5.499999999999999E-003   -6.676118767423735E-002
 -5.399999999999999E-003   -7.057473876835951E-002
 -5.299999999999999E-003   -7.451841828909410E-002
 -5.199999999999999E-003   -7.859449025504574E-002
 -5.099999999999999E-003   -8.280519210625807E-002
 -4.999999999999999E-003   -8.715270814980666E-002
 -4.899999999999999E-003   -9.163918909436369E-002
 -4.799999999999999E-003   -9.626672889731347E-002
 -4.699999999999999E-003   -0.101037371205105     
 -4.599999999999999E-003   -0.105953106918414     
 -4.499999999999999E-003   -0.111015857362301     
 -4.399999999999999E-003   -0.116227487814849     
 -4.299999999999999E-003   -0.121589792889252     
 -4.199999999999999E-003   -0.127104493426612     
 -4.099999999999999E-003   -0.132773240194517     
 -3.999999999999999E-003   -0.138597592097453     
 -3.899999999999999E-003   -0.144579026074421     
 -3.799999999999999E-003   -0.150718953289973     
 -3.699999999999999E-003   -0.157018636148248     
 -3.599999999999999E-003   -0.163479271884506     
 -3.499999999999999E-003   -0.170101962799872     
 -3.399999999999999E-003   -0.176887643695950     
 -3.299999999999999E-003   -0.183837202128268     
 -3.199999999999999E-003   -0.190951361003507     
 -3.099999999999999E-003   -0.198230721218314     
 -2.999999999999999E-003   -0.205675788521585     
 -2.899999999999999E-003   -0.213286897978124     
 -2.799999999999999E-003   -0.221064241165973     
 -2.699999999999999E-003   -0.229007903393249     
 -2.599999999999999E-003   -0.237117790522772     
 -2.499999999999999E-003   -0.245393681280986     
 -2.399999999999999E-003   -0.253835177868834     
 -2.299999999999999E-003   -0.262441754009356     
 -2.199999999999999E-003   -0.271212684639784     
 -2.099999999999999E-003   -0.280147065575482     
 -1.999999999999999E-003   -0.289243878109044     
 -1.899999999999999E-003   -0.298501872730350     
 -1.799999999999999E-003   -0.307919617665464     
 -1.699999999999999E-003   -0.317495510528720     
 -1.599999999999999E-003   -0.327227748377613     
 -1.499999999999999E-003   -0.337114334697338     
 -1.399999999999999E-003   -0.347153083401960     
 -1.299999999999999E-003   -0.357341592257109     
 -1.199999999999999E-003   -0.367677232198636     
 -1.099999999999999E-003   -0.378157234510268     
 -9.999999999999989E-004   -0.388778525098568     
 -8.999999999999990E-004   -0.399537907041852     
 -7.999999999999990E-004   -0.410431906450960     
 -6.999999999999989E-004   -0.421456838381818     
 -5.999999999999990E-004   -0.432608839464743     
 -4.999999999999989E-004   -0.443883764414588     
 -3.999999999999989E-004   -0.455277265749921     
 -2.999999999999989E-004   -0.466784794003232     
 -1.999999999999989E-004   -0.478401530925570     
 -9.999999999999892E-005   -0.490122469647939     
  1.084202172485504E-018   -0.501942388803511     
  1.000000000000011E-004   -0.513855733250358     
  2.000000000000011E-004   -0.525856799532758     
  3.000000000000011E-004   -0.537939643796503     
  4.000000000000011E-004   -0.550098040547101     
  5.000000000000011E-004   -0.562325564955668     
  6.000000000000011E-004   -0.574615561548860     
  7.000000000000011E-004   -0.586961170558198     
  8.000000000000011E-004   -0.599355242700359     
  9.000000000000012E-004   -0.611790419827994     
  1.000000000000001E-003   -0.624259170812962     
  1.100000000000001E-003   -0.636753658835305     
  1.200000000000001E-003   -0.649265889257344     
  1.300000000000001E-003   -0.661787655741335     
  1.400000000000001E-003   -0.674310477989995     
  1.500000000000001E-003   -0.686825700984119     
  1.600000000000001E-003   -0.699324466263417     
  1.700000000000001E-003   -0.711797703219814     
  1.800000000000001E-003   -0.724236133849826     
  1.900000000000001E-003   -0.736630318494359     
  2.000000000000001E-003   -0.748970608905757     
  2.100000000000001E-003   -0.761247181867545     
  2.200000000000001E-003   -0.773450094615849     
  2.300000000000001E-003   -0.785569106028322     
  2.400000000000001E-003   -0.797593831224559     
  2.500000000000001E-003   -0.809513805410057     
  2.600000000000001E-003   -0.821318448345317     
  2.700000000000001E-003   -0.832996917116256     
  2.800000000000001E-003   -0.844538244305659     
  2.900000000000001E-003   -0.855931405546921     
  3.000000000000001E-003   -0.867165185398465     
  3.100000000000001E-003   -0.878228430848324     
  3.200000000000001E-003   -0.889109599744969     
  3.300000000000001E-003   -0.899797329506817     
  3.400000000000001E-003   -0.910280064940341     
  3.500000000000001E-003   -0.920546196827574     
  3.600000000000001E-003   -0.930584037143826     
  3.700000000000001E-003   -0.940381902155178     
  3.800000000000001E-003   -0.949928045772019     
  3.900000000000001E-003   -0.959210618613544     
  4.000000000000001E-003   -0.968217877112923     
  4.100000000000001E-003   -0.976938034867442     
  4.200000000000001E-003   -0.985359337729395     
  4.300000000000001E-003   -0.993469982667060     
  4.400000000000001E-003    -1.00125821024281     
  4.500000000000001E-003    -1.00871235270191     
  4.600000000000002E-003    -1.01582090901167     
  4.700000000000001E-003    -1.02257222449911     
  4.800000000000001E-003    -1.02895478936295     
  4.900000000000002E-003    -1.03495732562897     
  5.000000000000001E-003    -1.04056850005709     
  5.100000000000001E-003    -1.04577727178280     
  5.200000000000001E-003    -1.05057251426465     
  5.300000000000002E-003    -1.05494348544024     
  5.400000000000001E-003    -1.05887945085156     
  5.500000000000001E-003    -1.06237000938354     
  5.600000000000002E-003    -1.06540484864654     
  5.700000000000001E-003    -1.06797384405256     
  5.800000000000001E-003    -1.07006708792046     
  5.900000000000002E-003    -1.07167500406451     
  6.000000000000001E-003    -1.07278817972134     
  6.100000000000001E-003    -1.07339752378368     
  6.200000000000002E-003    -1.07349424912515     
  6.300000000000002E-003    -1.07306974792555     
  6.400000000000001E-003    -1.07211572809220     
  6.500000000000001E-003    -1.07062430417489     
  6.600000000000002E-003    -1.06858780495205     
  6.700000000000001E-003    -1.06599906636681     
  6.800000000000001E-003    -1.06285109281299     
  6.900000000000002E-003    -1.05913743011724     
  7.000000000000001E-003    -1.05485179376505     
  7.100000000000001E-003    -1.04998841414393     
  7.200000000000002E-003    -1.04454192525750     
  7.300000000000002E-003    -1.03850728488883     
  7.400000000000001E-003    -1.03187998562794     
  7.500000000000001E-003    -1.02465585875937     
  7.600000000000002E-003    -1.01683125181468     
  7.700000000000001E-003    -1.00840289209457     
  7.800000000000001E-003   -0.999368045381219     
  7.900000000000001E-003   -0.989724455812377     
  8.000000000000002E-003   -0.979470207382897     
  8.100000000000001E-003   -0.968604058989010     
  8.200000000000001E-003   -0.957125143536556     
  8.300000000000002E-003   -0.945033082097875     
  8.400000000000001E-003   -0.932328056674040     
  8.500000000000002E-003   -0.919010731431051     
  8.600000000000002E-003   -0.905082343647846     
  8.700000000000001E-003   -0.890544631903732     
  8.800000000000002E-003   -0.875399750048555     
  8.900000000000002E-003   -0.859650506991733     
  9.000000000000001E-003   -0.843300211092820     
  9.100000000000002E-003   -0.826352718353484     
  9.200000000000002E-003   -0.808812399798273     
  9.300000000000001E-003   -0.790684193926510     
  9.400000000000002E-003   -0.771973589437120     
  9.500000000000001E-003   -0.752686535046269     
  9.600000000000001E-003   -0.732829642306040     
  9.700000000000002E-003   -0.712409954335510     
  9.800000000000001E-003   -0.691435127660657     
  9.900000000000001E-003   -0.669913329079249     
  1.000000000000000E-002   -0.647853292155098     
  1.010000000000000E-002   -0.625264225214881     
  1.020000000000000E-002   -0.602155882974401     
  1.030000000000000E-002   -0.578538573041203     
  1.040000000000000E-002   -0.554423064447810     
  1.050000000000000E-002   -0.529820673823196     
  1.060000000000000E-002   -0.504743213079869     
  1.070000000000000E-002   -0.479202962026735     
  1.080000000000000E-002   -0.453212724357090     
  1.090000000000000E-002   -0.426785742760946     
  1.100000000000000E-002   -0.399935747828892     
  1.110000000000000E-002   -0.372676963183824     
  1.120000000000000E-002   -0.345023983464851     
  1.130000000000000E-002   -0.316991890592754     
  1.140000000000000E-002   -0.288596206874866     
  1.150000000000000E-002   -0.259852814060492     
  1.160000000000000E-002   -0.230778054537822     
  1.170000000000000E-002   -0.201388630303732     
  1.180000000000000E-002   -0.171701605142695     
  1.190000000000000E-002   -0.141734412211266     
  1.200000000000000E-002   -0.111504844625600     
  1.210000000000000E-002   -8.103100646184259E-002
  1.220000000000000E-002   -5.033131542436287E-002
  1.230000000000000E-002   -1.942447987381945E-002
  1.240000000000000E-002    1.167053637614405E-002
  1.250000000000000E-002    4.293442293734973E-002
  1.260000000000000E-002    7.434769280949693E-002
  1.270000000000000E-002    0.105890657528646     
  1.280000000000000E-002    0.137543324306574     
  1.290000000000000E-002    0.169285621068181     
  1.300000000000000E-002    0.201097175756284     
  1.310000000000000E-002    0.232957573930733     
  1.320000000000000E-002    0.264846276639359     
  1.330000000000000E-002    0.296742509397564     
  1.340000000000000E-002    0.328625500575681     
  1.350000000000000E-002    0.360474407006186     
  1.360000000000000E-002    0.392268257326621     
  1.370000000000000E-002    0.423986147986981     
  1.380000000000000E-002    0.455607079547767     
  1.390000000000000E-002    0.487110078378538     
  1.400000000000000E-002    0.518474299111256     
  1.410000000000000E-002    0.549678735597398     
  1.420000000000000E-002    0.580702695236209     
  1.430000000000000E-002    0.611525417083962     
  1.440000000000000E-002    0.642126267504765     
  1.450000000000000E-002    0.672484827571164     
  1.460000000000000E-002    0.702580697636848     
  1.470000000000000E-002    0.732393769141142     
  1.480000000000000E-002    0.761903993000875     
  1.490000000000000E-002    0.791091769503529     
  1.500000000000000E-002    0.819937483517973     
  1.510000000000000E-002    0.848421775168528     
  1.520000000000000E-002    0.876525809396068     
  1.530000000000000E-002    0.904230768396945     
  1.540000000000000E-002    0.931518251294253     
  1.550000000000000E-002    0.958370211452064     
  1.560000000000000E-002    0.984768864378058     
  1.570000000000000E-002     1.01069685891554     
  1.580000000000000E-002     1.03613727072694     
  1.590000000000000E-002     1.06107339796207     
  1.600000000000000E-002     1.08548914558278     
  1.610000000000000E-002     1.10936866585220     
  1.620000000000000E-002     1.13269668766666     
  1.630000000000000E-002     1.15545829161778     
  1.640000000000000E-002     1.17763911435211     
  1.650000000000000E-002     1.19922514362002     
  1.660000000000000E-002     1.22020311917396     
  1.670000000000000E-002     1.24055995428009     
  1.680000000000000E-002     1.26028340620381     
  1.690000000000000E-002     1.27936154332776     
  1.700000000000000E-002     1.29778308266026     
  1.710000000000000E-002     1.31553719289634     
  1.720000000000000E-002     1.33261378033364     
  1.730000000000000E-002     1.34900318671090     
  1.740000000000000E-002     1.36469639817481     
  1.750000000000000E-002     1.37968490420021     
  1.760000000000000E-002     1.39396081216549     
  1.770000000000000E-002     1.40751694618068     
  1.780000000000000E-002     1.42034660334637     
  1.790000000000000E-002     1.43244384514171     
  1.800000000000000E-002     1.44380314535969     
  1.810000000000000E-002     1.45441975018000     
  1.820000000000000E-002     1.46428949328909     
  1.830000000000000E-002     1.47340878508600     
  1.840000000000000E-002     1.48177479221961     
  1.850000000000000E-002     1.48938511473339     
  1.860000000000000E-002     1.49623803394447     
  1.870000000000000E-002     1.50233257482875     