 -4.000000000000000E-002    0.000000000000000E+000
 -3.990000000000000E-002    0.000000000000000E+000
 -3.980000000000000E-002    0.000000000000000E+000
 -3.970000000000000E-002    0.000000000000000E+000
 -3.960000000000000E-002    0.000000000000000E+000
 -3.950000000000000E-002    0.000000000000000E+000
 -3.940000000000000E-002    0.000000000000000E+000
 -3.930000000000000E-002    0.000000000000000E+000
 -3.920000000000000E-002    0.000000000000000E+000
 -3.910000000000000E-002    0.000000000000000E+000
 -3.900000000000000E-002    0.000000000000000E+000
 -3.890000000000000E-002    0.000000000000000E+000
 -3.880000000000000E-002    0.000000000000000E+000
 -3.870000000000000E-002    0.000000000000000E+000
 -3.860000000000000E-002    0.000000000000000E+000
 -3.850000000000000E-002    0.000000000000000E+000
 -3.840000000000000E-002    0.000000000000000E+000
 -3.830000000000000E-002    0.000000000000000E+000
 -3.820000000000000E-002    0.000000000000000E+000
 -3.810000000000000E-002    0.000000000000000E+000
 -3.800000000000000E-002    0.000000000000000E+000
 -3.790000000000000E-002    0.000000000000000E+000
 -3.780000000000000E-002    0.000000000000000E+000
 -3.770000000000000E-002    0.000000000000000E+000
 -3.760000000000000E-002    0.000000000000000E+000
 -3.750000000000000E-002    0.000000000000000E+000
 -3.740000000000000E-002    0.000000000000000E+000
 -3.730000000000000E-002    0.000000000000000E+000
 -3.720000000000000E-002    0.000000000000000E+000
 -3.710000000000000E-002    0.000000000000000E+000
 -3.700000000000000E-002    0.000000000000000E+000
 -3.690000000000000E-002    0.000000000000000E+000
 -3.680000000000000E-002    0.000000000000000E+000
 -3.670000000000000E-002    0.000000000000000E+000
 -3.660000000000000E-002    0.000000000000000E+000
 -3.650000000000000E-002    0.000000000000000E+000
 -3.640000000000000E-002    0.000000000000000E+000
 -3.630000000000000E-002    0.000000000000000E+000
 -3.620000000000000E-002    0.000000000000000E+000
 -3.610000000000000E-002    0.000000000000000E+000
 -3.600000000000000E-002    0.000000000000000E+000
 -3.590000000000000E-002    0.000000000000000E+000
 -3.580000000000000E-002    0.000000000000000E+000
 -3.570000000000000E-002    0.000000000000000E+000
 -3.560000000000000E-002    0.000000000000000E+000
 -3.550000000000000E-002    0.000000000000000E+000
 -3.540000000000000E-002    0.000000000000000E+000
 -3.530000000000000E-002    0.000000000000000E+000
 -3.520000000000000E-002    0.000000000000000E+000
 -3.510000000000000E-002    0.000000000000000E+000
 -3.500000000000000E-002    0.000000000000000E+000
 -3.490000000000000E-002    0.000000000000000E+000
 -3.480000000000000E-002    0.000000000000000E+000
 -3.470000000000000E-002    0.000000000000000E+000
 -3.460000000000000E-002    0.000000000000000E+000
 -3.450000000000000E-002    0.000000000000000E+000
 -3.440000000000000E-002    0.000000000000000E+000
 -3.430000000000000E-002    0.000000000000000E+000
 -3.420000000000000E-002    0.000000000000000E+000
 -3.410000000000000E-002    0.000000000000000E+000
 -3.400000000000000E-002    0.000000000000000E+000
 -3.390000000000000E-002    0.000000000000000E+000
 -3.380000000000000E-002    0.000000000000000E+000
 -3.370000000000000E-002    0.000000000000000E+000
 -3.360000000000000E-002    0.000000000000000E+000
 -3.350000000000000E-002    0.000000000000000E+000
 -3.340000000000000E-002    0.000000000000000E+000
 -3.330000000000000E-002    0.000000000000000E+000
 -3.320000000000000E-002    0.000000000000000E+000
 -3.310000000000000E-002    0.000000000000000E+000
 -3.300000000000000E-002    0.000000000000000E+000
 -3.290000000000000E-002    0.000000000000000E+000
 -3.280000000000000E-002    0.000000000000000E+000
 -3.270000000000000E-002    0.000000000000000E+000
 -3.260000000000000E-002    0.000000000000000E+000
 -3.250000000000000E-002    0.000000000000000E+000
 -3.240000000000000E-002    0.000000000000000E+000
 -3.230000000000000E-002    0.000000000000000E+000
 -3.220000000000000E-002    0.000000000000000E+000
 -3.210000000000000E-002    0.000000000000000E+000
 -3.200000000000000E-002    0.000000000000000E+000
 -3.190000000000000E-002    0.000000000000000E+000
 -3.180000000000000E-002    0.000000000000000E+000
 -3.170000000000000E-002    0.000000000000000E+000
 -3.160000000000000E-002    0.000000000000000E+000
 -3.150000000000000E-002    0.000000000000000E+000
 -3.140000000000000E-002    0.000000000000000E+000
 -3.130000000000000E-002    0.000000000000000E+000
 -3.120000000000000E-002    0.000000000000000E+000
 -3.110000000000000E-002    0.000000000000000E+000
 -3.100000000000000E-002    0.000000000000000E+000
 -3.090000000000000E-002    0.000000000000000E+000
 -3.080000000000000E-002    0.000000000000000E+000
 -3.070000000000000E-002    0.000000000000000E+000
 -3.060000000000000E-002    0.000000000000000E+000
 -3.050000000000000E-002    0.000000000000000E+000
 -3.040000000000000E-002    0.000000000000000E+000
 -3.030000000000000E-002    0.000000000000000E+000
 -3.020000000000000E-002    0.000000000000000E+000
 -3.010000000000000E-002    0.000000000000000E+000
 -3.000000000000000E-002    0.000000000000000E+000
 -2.990000000000000E-002    0.000000000000000E+000
 -2.980000000000000E-002    0.000000000000000E+000
 -2.970000000000000E-002    0.000000000000000E+000
 -2.960000000000000E-002    0.000000000000000E+000
 -2.950000000000000E-002    0.000000000000000E+000
 -2.940000000000000E-002    0.000000000000000E+000
 -2.930000000000000E-002    0.000000000000000E+000
 -2.920000000000000E-002    0.000000000000000E+000
 -2.910000000000000E-002    0.000000000000000E+000
 -2.900000000000000E-002    0.000000000000000E+000
 -2.890000000000000E-002    0.000000000000000E+000
 -2.880000000000000E-002    0.000000000000000E+000
 -2.870000000000000E-002    0.000000000000000E+000
 -2.860000000000000E-002    0.000000000000000E+000
 -2.850000000000000E-002    0.000000000000000E+000
 -2.840000000000000E-002    0.000000000000000E+000
 -2.830000000000000E-002    0.000000000000000E+000
 -2.820000000000000E-002    0.000000000000000E+000
 -2.810000000000000E-002    0.000000000000000E+000
 -2.800000000000000E-002    0.000000000000000E+000
 -2.790000000000000E-002    0.000000000000000E+000
 -2.780000000000000E-002    0.000000000000000E+000
 -2.770000000000000E-002    0.000000000000000E+000
 -2.760000000000000E-002    0.000000000000000E+000
 -2.750000000000000E-002    0.000000000000000E+000
 -2.740000000000000E-002    0.000000000000000E+000
 -2.730000000000000E-002    0.000000000000000E+000
 -2.720000000000000E-002    0.000000000000000E+000
 -2.710000000000000E-002    0.000000000000000E+000
 -2.700000000000000E-002    0.000000000000000E+000
 -2.690000000000000E-002    0.000000000000000E+000
 -2.680000000000000E-002    0.000000000000000E+000
 -2.670000000000000E-002    0.000000000000000E+000
 -2.660000000000000E-002    0.000000000000000E+000
 -2.650000000000000E-002    0.000000000000000E+000
 -2.640000000000000E-002    0.000000000000000E+000
 -2.630000000000000E-002    0.000000000000000E+000
 -2.620000000000000E-002    0.000000000000000E+000
 -2.610000000000000E-002    0.000000000000000E+000
 -2.600000000000000E-002    0.000000000000000E+000
 -2.590000000000000E-002    0.000000000000000E+000
 -2.580000000000000E-002    0.000000000000000E+000
 -2.570000000000000E-002    0.000000000000000E+000
 -2.560000000000000E-002    0.000000000000000E+000
 -2.550000000000000E-002    0.000000000000000E+000
 -2.540000000000000E-002    0.000000000000000E+000
 -2.530000000000000E-002    0.000000000000000E+000
 -2.520000000000000E-002    0.000000000000000E+000
 -2.510000000000000E-002    0.000000000000000E+000
 -2.500000000000000E-002    0.000000000000000E+000
 -2.490000000000000E-002    0.000000000000000E+000
 -2.480000000000000E-002    0.000000000000000E+000
 -2.470000000000000E-002    0.000000000000000E+000
 -2.460000000000000E-002    0.000000000000000E+000
 -2.450000000000000E-002    0.000000000000000E+000
 -2.440000000000000E-002    0.000000000000000E+000
 -2.430000000000000E-002    0.000000000000000E+000
 -2.420000000000000E-002    0.000000000000000E+000
 -2.410000000000000E-002    0.000000000000000E+000
 -2.400000000000000E-002    0.000000000000000E+000
 -2.390000000000000E-002    0.000000000000000E+000
 -2.380000000000000E-002    0.000000000000000E+000
 -2.370000000000000E-002    0.000000000000000E+000
 -2.360000000000000E-002    0.000000000000000E+000
 -2.350000000000000E-002    0.000000000000000E+000
 -2.340000000000000E-002    0.000000000000000E+000
 -2.330000000000000E-002    0.000000000000000E+000
 -2.320000000000000E-002    0.000000000000000E+000
 -2.310000000000000E-002    0.000000000000000E+000
 -2.300000000000000E-002    0.000000000000000E+000
 -2.290000000000000E-002    0.000000000000000E+000
 -2.280000000000000E-002    0.000000000000000E+000
 -2.270000000000000E-002    0.000000000000000E+000
 -2.260000000000000E-002    0.000000000000000E+000
 -2.250000000000000E-002    0.000000000000000E+000
 -2.240000000000000E-002    0.000000000000000E+000
 -2.230000000000000E-002    0.000000000000000E+000
 -2.220000000000000E-002    0.000000000000000E+000
 -2.210000000000000E-002    0.000000000000000E+000
 -2.200000000000000E-002    0.000000000000000E+000
 -2.190000000000000E-002    0.000000000000000E+000
 -2.180000000000000E-002    0.000000000000000E+000
 -2.170000000000000E-002    0.000000000000000E+000
 -2.160000000000000E-002    0.000000000000000E+000
 -2.150000000000000E-002    0.000000000000000E+000
 -2.140000000000000E-002    0.000000000000000E+000
 -2.130000000000000E-002    0.000000000000000E+000
 -2.120000000000000E-002    0.000000000000000E+000
 -2.110000000000000E-002    0.000000000000000E+000
 -2.100000000000000E-002    0.000000000000000E+000
 -2.090000000000000E-002    0.000000000000000E+000
 -2.080000000000000E-002    0.000000000000000E+000
 -2.070000000000000E-002    0.000000000000000E+000
 -2.060000000000000E-002    0.000000000000000E+000
 -2.050000000000000E-002    0.000000000000000E+000
 -2.040000000000000E-002    0.000000000000000E+000
 -2.030000000000000E-002    0.000000000000000E+000
 -2.020000000000000E-002    0.000000000000000E+000
 -2.010000000000000E-002    0.000000000000000E+000
 -2.000000000000000E-002    0.000000000000000E+000
 -1.990000000000000E-002    0.000000000000000E+000
 -1.980000000000000E-002    0.000000000000000E+000
 -1.970000000000000E-002    0.000000000000000E+000
 -1.960000000000000E-002    0.000000000000000E+000
 -1.950000000000000E-002    0.000000000000000E+000
 -1.940000000000000E-002    0.000000000000000E+000
 -1.930000000000000E-002    0.000000000000000E+000
 -1.920000000000000E-002    0.000000000000000E+000
 -1.910000000000000E-002    0.000000000000000E+000
 -1.900000000000000E-002    0.000000000000000E+000
 -1.890000000000000E-002    0.000000000000000E+000
 -1.880000000000000E-002    0.000000000000000E+000
 -1.870000000000000E-002    0.000000000000000E+000
 -1.860000000000000E-002    0.000000000000000E+000
 -1.850000000000000E-002    0.000000000000000E+000
 -1.840000000000000E-002    0.000000000000000E+000
 -1.830000000000000E-002    0.000000000000000E+000
 -1.820000000000000E-002    0.000000000000000E+000
 -1.810000000000000E-002    0.000000000000000E+000
 -1.800000000000000E-002    0.000000000000000E+000
 -1.790000000000000E-002    0.000000000000000E+000
 -1.780000000000000E-002    0.000000000000000E+000
 -1.770000000000000E-002    0.000000000000000E+000
 -1.760000000000000E-002    0.000000000000000E+000
 -1.750000000000000E-002    0.000000000000000E+000
 -1.740000000000000E-002    0.000000000000000E+000
 -1.730000000000000E-002    0.000000000000000E+000
 -1.720000000000000E-002    0.000000000000000E+000
 -1.710000000000000E-002    0.000000000000000E+000
 -1.700000000000000E-002    0.000000000000000E+000
 -1.690000000000000E-002    0.000000000000000E+000
 -1.680000000000000E-002    0.000000000000000E+000
 -1.670000000000000E-002    0.000000000000000E+000
 -1.660000000000000E-002    0.000000000000000E+000
 -1.650000000000000E-002    0.000000000000000E+000
 -1.640000000000000E-002    0.000000000000000E+000
 -1.630000000000000E-002    0.000000000000000E+000
 -1.620000000000000E-002    0.000000000000000E+000
 -1.610000000000000E-002    0.000000000000000E+000
 -1.600000000000000E-002    0.000000000000000E+000
 -1.590000000000000E-002    0.000000000000000E+000
 -1.580000000000000E-002    0.000000000000000E+000
 -1.570000000000000E-002    0.000000000000000E+000
 -1.560000000000000E-002    0.000000000000000E+000
 -1.550000000000000E-002    0.000000000000000E+000
 -1.540000000000000E-002    0.000000000000000E+000
 -1.530000000000000E-002    0.000000000000000E+000
 -1.520000000000000E-002    0.000000000000000E+000
 -1.510000000000000E-002    0.000000000000000E+000
 -1.500000000000000E-002    0.000000000000000E+000
 -1.490000000000000E-002    0.000000000000000E+000
 -1.480000000000000E-002    0.000000000000000E+000
 -1.470000000000000E-002    0.000000000000000E+000
 -1.460000000000000E-002    0.000000000000000E+000
 -1.450000000000000E-002    0.000000000000000E+000
 -1.440000000000000E-002    0.000000000000000E+000
 -1.430000000000000E-002    0.000000000000000E+000
 -1.420000000000000E-002    0.000000000000000E+000
 -1.410000000000000E-002    0.000000000000000E+000
 -1.400000000000000E-002    0.000000000000000E+000
 -1.390000000000000E-002    0.000000000000000E+000
 -1.380000000000000E-002    0.000000000000000E+000
 -1.370000000000000E-002    0.000000000000000E+000
 -1.360000000000000E-002    0.000000000000000E+000
 -1.350000000000000E-002    0.000000000000000E+000
 -1.340000000000000E-002    0.000000000000000E+000
 -1.330000000000000E-002    0.000000000000000E+000
 -1.320000000000000E-002    0.000000000000000E+000
 -1.310000000000000E-002    0.000000000000000E+000
 -1.300000000000000E-002    0.000000000000000E+000
 -1.290000000000000E-002    0.000000000000000E+000
 -1.280000000000000E-002    0.000000000000000E+000
 -1.270000000000000E-002    0.000000000000000E+000
 -1.260000000000000E-002    0.000000000000000E+000
 -1.250000000000000E-002    0.000000000000000E+000
 -1.240000000000000E-002    0.000000000000000E+000
 -1.230000000000000E-002    0.000000000000000E+000
 -1.220000000000000E-002    0.000000000000000E+000
 -1.210000000000000E-002    0.000000000000000E+000
 -1.200000000000000E-002    0.000000000000000E+000
 -1.190000000000000E-002    0.000000000000000E+000
 -1.180000000000000E-002    0.000000000000000E+000
 -1.170000000000000E-002    0.000000000000000E+000
 -1.160000000000000E-002    0.000000000000000E+000
 -1.150000000000000E-002    0.000000000000000E+000
 -1.140000000000000E-002    0.000000000000000E+000
 -1.130000000000000E-002    0.000000000000000E+000
 -1.120000000000000E-002    0.000000000000000E+000
 -1.110000000000000E-002    0.000000000000000E+000
 -1.100000000000000E-002    0.000000000000000E+000
 -1.090000000000000E-002    0.000000000000000E+000
 -1.080000000000000E-002    0.000000000000000E+000
 -1.070000000000000E-002    0.000000000000000E+000
 -1.060000000000000E-002    0.000000000000000E+000
 -1.050000000000000E-002    0.000000000000000E+000
 -1.040000000000000E-002    0.000000000000000E+000
 -1.030000000000000E-002    0.000000000000000E+000
 -1.020000000000000E-002    0.000000000000000E+000
 -1.010000000000000E-002    0.000000000000000E+000
 -1.000000000000000E-002    0.000000000000000E+000
 -9.899999999999999E-003    0.000000000000000E+000
 -9.800000000000000E-003    0.000000000000000E+000
 -9.699999999999999E-003    0.000000000000000E+000
 -9.599999999999999E-003    0.000000000000000E+000
 -9.500000000000000E-003    0.000000000000000E+000
 -9.399999999999999E-003    0.000000000000000E+000
 -9.299999999999999E-003    0.000000000000000E+000
 -9.200000000000000E-003    0.000000000000000E+000
 -9.099999999999999E-003    0.000000000000000E+000
 -8.999999999999999E-003    0.000000000000000E+000
 -8.900000000000000E-003    0.000000000000000E+000
 -8.799999999999999E-003    0.000000000000000E+000
 -8.699999999999999E-003    0.000000000000000E+000
 -8.600000000000000E-003    0.000000000000000E+000
 -8.499999999999999E-003    0.000000000000000E+000
 -8.399999999999999E-003    0.000000000000000E+000
 -8.300000000000000E-003    0.000000000000000E+000
 -8.199999999999999E-003    0.000000000000000E+000
 -8.100000000000000E-003    0.000000000000000E+000
 -8.000000000000000E-003    0.000000000000000E+000
 -7.899999999999999E-003    0.000000000000000E+000
 -7.800000000000000E-003    0.000000000000000E+000
 -7.699999999999999E-003    0.000000000000000E+000
 -7.599999999999999E-003    0.000000000000000E+000
 -7.499999999999999E-003    0.000000000000000E+000
 -7.399999999999999E-003    0.000000000000000E+000
 -7.299999999999999E-003    0.000000000000000E+000
 -7.199999999999999E-003    0.000000000000000E+000
 -7.100000000000000E-003    0.000000000000000E+000
 -6.999999999999999E-003    0.000000000000000E+000
 -6.899999999999999E-003    0.000000000000000E+000
 -6.800000000000000E-003    0.000000000000000E+000
 -6.699999999999999E-003    0.000000000000000E+000
 -6.599999999999999E-003    0.000000000000000E+000
 -6.499999999999999E-003    0.000000000000000E+000
 -6.399999999999999E-003    0.000000000000000E+000
 -6.299999999999999E-003    0.000000000000000E+000
 -6.199999999999999E-003    0.000000000000000E+000
 -6.100000000000000E-003    0.000000000000000E+000
 -5.999999999999999E-003    0.000000000000000E+000
 -5.899999999999999E-003    0.000000000000000E+000
 -5.800000000000000E-003    0.000000000000000E+000
 -5.699999999999999E-003    0.000000000000000E+000
 -5.599999999999999E-003    0.000000000000000E+000
 -5.499999999999999E-003    0.000000000000000E+000
 -5.399999999999999E-003    0.000000000000000E+000
 -5.299999999999999E-003    0.000000000000000E+000
 -5.199999999999999E-003    0.000000000000000E+000
 -5.099999999999999E-003    0.000000000000000E+000
 -4.999999999999999E-003    0.000000000000000E+000
 -4.899999999999999E-003    0.000000000000000E+000
 -4.799999999999999E-003    0.000000000000000E+000
 -4.699999999999999E-003    0.000000000000000E+000
 -4.599999999999999E-003    0.000000000000000E+000
 -4.499999999999999E-003    0.000000000000000E+000
 -4.399999999999999E-003    0.000000000000000E+000
 -4.299999999999999E-003    0.000000000000000E+000
 -4.199999999999999E-003    0.000000000000000E+000
 -4.099999999999999E-003    0.000000000000000E+000
 -3.999999999999999E-003    0.000000000000000E+000
 -3.899999999999999E-003    0.000000000000000E+000
 -3.799999999999999E-003    0.000000000000000E+000
 -3.699999999999999E-003    0.000000000000000E+000
 -3.599999999999999E-003    0.000000000000000E+000
 -3.499999999999999E-003    0.000000000000000E+000
 -3.399999999999999E-003    0.000000000000000E+000
 -3.299999999999999E-003    1.073322195922598E-048
 -3.199999999999999E-003    2.512549679848483E-048
 -3.099999999999999E-003    3.951777163774368E-048
 -2.999999999999999E-003    5.756909935703539E-048
 -2.899999999999999E-003    1.536837386602388E-047
 -2.799999999999999E-003    1.610018444203045E-047
 -2.699999999999999E-003    1.539276753411114E-047
 -2.599999999999999E-003    1.288021785426266E-047
 -2.499999999999999E-003   -1.428142465411365E-048
 -2.399999999999999E-003   -1.922354322830227E-047
 -2.299999999999999E-003   -4.881475463101873E-047
 -2.199999999999999E-003   -8.443727781524754E-047
 -2.099999999999999E-003   -1.258486935258768E-046
 -1.999999999999999E-003   -1.644915707197230E-046
 -1.899999999999999E-003   -1.984375515242155E-046
 -1.799999999999999E-003   -2.084987796866728E-046
 -1.699999999999999E-003   -1.842278046393235E-046
 -1.599999999999999E-003   -3.476750180936082E-046
 -1.499999999999999E-003   -4.454319206073682E-046
 -1.399999999999999E-003   -5.398404320659728E-046
 -1.299999999999999E-003   -5.834322876090952E-046
 -1.199999999999999E-003   -5.909525806462086E-046
 -1.099999999999999E-003   -5.843722485853469E-046
 -9.999999999999989E-004   -3.662165756404521E-046
 -8.999999999999990E-004    1.504648530628427E-046
 -7.999999999999990E-004    9.765251107210830E-046
 -6.999999999999989E-004    3.342394266608117E-045
 -5.999999999999990E-004    6.053042880952942E-045
 -4.999999999999989E-004    1.016752453475731E-044
 -3.999999999999989E-004    1.431009240312354E-044
 -2.999999999999989E-004    1.810530707235406E-044
 -1.999999999999989E-004    2.133007905772831E-044
 -9.999999999999892E-005    2.317468447424621E-044
  1.084202172485504E-018    2.220920793595874E-044
  1.000000000000011E-004    1.758996461238748E-044
  2.000000000000011E-004    8.297736925316875E-045
  3.000000000000011E-004   -7.757936754359271E-045
  4.000000000000011E-004   -2.854834469258995E-044
  5.000000000000011E-004   -5.455528982353294E-044
  6.000000000000011E-004   -8.439729845426193E-044
  7.000000000000011E-004   -1.146812828615109E-043
  8.000000000000011E-004   -1.406975250785405E-043
  9.000000000000012E-004   -1.581674288275065E-043
  1.000000000000001E-003   -1.598214041263062E-043
  1.100000000000001E-003   -1.390882786084114E-043
  1.200000000000001E-003   -8.973894171711605E-044
  1.300000000000001E-003   -8.076278129932087E-045
  1.400000000000001E-003    1.072150030094465E-043
  1.500000000000001E-003    2.552492494946642E-043
  1.600000000000001E-003    4.259599647078793E-043
  1.700000000000001E-003    6.061478184672533E-043
  1.800000000000001E-003    7.737591784687717E-043
  1.900000000000001E-003    9.001017600964965E-043
  2.000000000000001E-003    9.520929235277755E-043
  2.100000000000001E-003    8.924211115220926E-043
  2.200000000000001E-003    6.850666583569352E-043
  2.300000000000001E-003    3.022706302586269E-043
  2.400000000000001E-003   -2.718848008345693E-043
  2.500000000000001E-003   -1.032997260195414E-042
  2.600000000000001E-003   -1.949317365313882E-042
  2.700000000000001E-003   -2.953574402197470E-042
  2.800000000000001E-003   -3.943381459198751E-042
  2.900000000000001E-003   -4.778229563777619E-042
  3.000000000000001E-003   -5.284831827102227E-042
  3.100000000000001E-003   -5.269461773171898E-042
  3.200000000000001E-003   -4.537463980804555E-042
  3.300000000000001E-003   -2.917439885862310E-042
  3.400000000000001E-003   -2.949058031940485E-043
  3.500000000000001E-003    3.352608369097421E-042
  3.600000000000001E-003    7.916723532204161E-042
  3.700000000000001E-003    1.312659697212822E-041
  3.800000000000001E-003    1.852211972170048E-041
  3.900000000000001E-003    2.345320884360342E-041
  4.000000000000001E-003    2.709198326319072E-041
  4.100000000000001E-003    2.848061964244384E-041
  4.200000000000001E-003    2.661402180559621E-041
  4.300000000000001E-003    2.055736419938011E-041
  4.400000000000001E-003    9.596696731883353E-042
  4.500000000000001E-003   -6.588217030167935E-042
  4.600000000000002E-003   -2.774149452476736E-041
  4.700000000000001E-003   -5.285977273333445E-041
  4.800000000000001E-003   -8.005737535828744E-041
  4.900000000000002E-003   -1.065093124673522E-040
  5.000000000000001E-003   -1.284932027979809E-040
  5.100000000000001E-003   -1.415675552019765E-040
  5.200000000000001E-003   -1.409042889489780E-040
  5.300000000000002E-003   -1.217914307430689E-040
  5.400000000000001E-003   -8.029053971085598E-041
  5.500000000000001E-003   -1.402012270783194E-041
  5.600000000000002E-003    7.699722151425629E-041
  5.700000000000001E-003    1.895175614810215E-040
  5.800000000000001E-003    3.164028795013721E-040
  5.900000000000002E-003    4.462302471489647E-040
  6.000000000000001E-003    5.633272833468503E-040
  6.100000000000001E-003    6.483840197463923E-040
  6.200000000000002E-003    6.797320144440346E-040
  6.300000000000002E-003    6.353634501538197E-040
  6.400000000000001E-003    4.956638878119836E-040
  6.500000000000001E-003    2.467283039827794E-040
  6.600000000000002E-003   -1.159632701972790E-040
  6.700000000000001E-003   -5.838923232557223E-040
  6.800000000000001E-003   -1.132336187118820E-039
  6.900000000000002E-003   -1.718274706483988E-039
  7.000000000000001E-003   -2.279969399543286E-039
  7.100000000000001E-003   -2.738828141948565E-039
  7.200000000000002E-003   -3.004022701174026E-039
  7.300000000000002E-003   -2.980153445464148E-039
  7.400000000000001E-003   -2.577930421498091E-039
  7.500000000000001E-003   -1.727442484884204E-039
  7.600000000000002E-003   -3.931250043309943E-040
  7.700000000000001E-003    1.410970605353931E-039
  7.800000000000001E-003    3.607484658815916E-039
  7.900000000000001E-003    6.045859133498477E-039
  8.000000000000002E-003    8.498706641979163E-039
  8.100000000000001E-003    1.066680751378646E-038
  8.200000000000001E-003    1.219474585730409E-038
  8.300000000000002E-003    1.269840155123481E-038
  8.400000000000001E-003    1.180438758228136E-038
  8.500000000000002E-003    9.199987517815062E-039
  8.600000000000002E-003    4.690390607785185E-039
  8.700000000000001E-003   -1.741886379411647E-039
  8.800000000000002E-003   -9.882272653101671E-039
  8.900000000000002E-003   -1.924244204083308E-038
  9.000000000000001E-003   -2.904072305891960E-038
  9.100000000000002E-003   -3.821352857980238E-038
  9.200000000000002E-003   -4.546532989066907E-038
  9.300000000000001E-003   -4.936195083744293E-038
  9.400000000000002E-003   -4.846782081382976E-038
  9.500000000000001E-003   -4.152238415391129E-038
  9.600000000000001E-003   -2.764455265317798E-038
  9.700000000000002E-003   -6.547394449860230E-039
  9.800000000000001E-003    2.126099093139523E-038
  9.900000000000001E-003    5.431940285725125E-038
  1.000000000000000E-002    9.012978434749867E-038
  1.010000000000000E-002    1.251785399719370E-037
  1.020000000000000E-002    1.550887139586145E-037
  1.030000000000000E-002    1.749192534363228E-037
  1.040000000000000E-002    1.796133633767495E-037
  1.050000000000000E-002    1.645797692729078E-037
  1.060000000000000E-002    1.263695358891977E-037
  1.070000000000000E-002    6.338962393996079E-038
  1.080000000000000E-002   -2.342574293611251E-038
  1.090000000000000E-002   -1.300797529795948E-037
  1.100000000000000E-002   -2.492139963179388E-037
  1.110000000000000E-002   -3.701424667236458E-037
  1.120000000000000E-002   -4.792968425408589E-037
  1.130000000000000E-002   -5.611298578362506E-037
  1.140000000000000E-002   -5.994775867988410E-037
  1.150000000000000E-002   -5.793242138146272E-037
  1.160000000000000E-002   -4.888492888698906E-037
  1.170000000000000E-002   -3.215735623414434E-037
  1.180000000000000E-002   -7.836454119024302E-038
  1.190000000000000E-002    2.309756266266073E-037
  1.200000000000000E-002    5.868278139861416E-037
  1.210000000000000E-002    9.598446878937574E-037
  1.220000000000000E-002    1.312214543613203E-036
  1.230000000000000E-002    1.600201156156559E-036
  1.240000000000000E-002    1.777925369943463E-036
  1.250000000000000E-002    1.802189473423990E-036
  1.260000000000000E-002    1.637975139673005E-036
  1.270000000000000E-002    1.264085471150299E-036
  1.280000000000000E-002    6.782742857220796E-037
  1.290000000000000E-002   -9.885806931190786E-038
  1.300000000000000E-002   -1.021910523356543E-036
  1.310000000000000E-002   -2.021262452499115E-036
  1.320000000000000E-002   -3.006580293240623E-036
  1.330000000000000E-002   -3.873329301727713E-036
  1.340000000000000E-002   -4.512003450529361E-036
  1.350000000000000E-002   -4.819384733317596E-036
  1.360000000000000E-002   -4.710756598308888E-036
  1.370000000000000E-002   -4.131698278818840E-036
  1.380000000000000E-002   -3.067916572382641E-036
  1.390000000000000E-002   -1.551600354287649E-036
  1.400000000000000E-002    3.369693626118831E-037
  1.410000000000000E-002    2.473345879678110E-036
  1.420000000000000E-002    4.698472171323911E-036
  1.430000000000000E-002    6.833149387399787E-036
  1.440000000000000E-002    8.695831260482903E-036
  1.450000000000000E-002    1.012139638074533E-035
  1.460000000000000E-002    1.097803407129956E-035
  1.470000000000000E-002    1.117925381754778E-035
  1.480000000000000E-002    1.068839057978389E-035
  1.490000000000000E-002    9.513957566327378E-036
  1.500000000000000E-002    7.695661022637409E-036
  1.510000000000000E-002    5.282785262719191E-036
  1.520000000000000E-002    2.308807964620470E-036
  1.530000000000000E-002   -1.231994837241808E-036
  1.540000000000000E-002   -5.398755754696838E-036
  1.550000000000000E-002   -1.030140695795188E-035
  1.560000000000000E-002   -1.607459321085254E-035
  1.570000000000000E-002   -2.282397324018690E-035
  1.580000000000000E-002   -3.054517370967958E-035
  1.590000000000000E-002   -3.902135839618473E-035
  1.600000000000000E-002   -4.771228194182041E-035
  1.610000000000000E-002   -5.565461118358259E-035
  1.620000000000000E-002   -6.139904166807393E-035
  1.630000000000000E-002   -6.301336209218494E-035
  1.640000000000000E-002   -5.817986690070041E-035
  1.650000000000000E-002   -4.441014397408774E-035
  1.660000000000000E-002   -1.938837487514414E-035
  1.670000000000000E-002    1.856326390558371E-035
  1.680000000000000E-002    6.992677416836398E-035
  1.690000000000000E-002    1.333939440986453E-034
  1.700000000000000E-002    2.053181929275805E-034
  1.710000000000000E-002    2.793179934200744E-034
  1.720000000000000E-002    3.461512743229420E-034
  1.730000000000000E-002    3.939798234305762E-034
  1.740000000000000E-002    4.091248144619058E-034
  1.750000000000000E-002    3.773733638436123E-034
  1.760000000000000E-002    2.858338092060970E-034
  1.770000000000000E-002    1.252535739123718E-034
  1.780000000000000E-002   -1.073838712359084E-034
  1.790000000000000E-002   -4.062690348127245E-034
  1.800000000000000E-002   -7.545609041420555E-034
  1.810000000000000E-002   -1.123010617808227E-033
  1.820000000000000E-002   -1.469880761939015E-033
  1.830000000000000E-002   -1.742587894908048E-033
  1.840000000000000E-002   -1.881384268328208E-033
  1.850000000000000E-002   -1.825202855259593E-033
  1.860000000000000E-002   -1.519519724559741E-033
  1.870000000000000E-002   -9.257634213141493E-034