 -4.000000000000000E-002    0.000000000000000E+000
 -3.990000000000000E-002    0.000000000000000E+000
 -3.980000000000000E-002    0.000000000000000E+000
 -3.970000000000000E-002    0.000000000000000E+000
 -3.960000000000000E-002    0.000000000000000E+000
 -3.950000000000000E-002    0.000000000000000E+000
 -3.940000000000000E-002    0.000000000000000E+000
 -3.930000000000000E-002    0.000000000000000E+000
 -3.920000000000000E-002    0.000000000000000E+000
 -3.910000000000000E-002    0.000000000000000E+000
 -3.900000000000000E-002    0.000000000000000E+000
 -3.890000000000000E-002    0.000000000000000E+000
 -3.880000000000000E-002    0.000000000000000E+000
 -3.870000000000000E-002    0.000000000000000E+000
 -3.860000000000000E-002    0.000000000000000E+000
 -3.850000000000000E-002    1.982369353529358E-046
 -3.840000000000000E-002    4.043857256733356E-045
 -3.830000000000000E-002    5.997007622144161E-044
 -3.820000000000000E-002    6.165646476697887E-043
 -3.810000000000000E-002    4.871898286190364E-042
 -3.800000000000000E-002    3.147311834038376E-041
 -3.790000000000000E-002    1.729937524465755E-040
 -3.780000000000000E-002    8.310730702112166E-040
 -3.770000000000000E-002    3.557599188309442E-039
 -3.760000000000000E-002    1.376708914390347E-038
 -3.750000000000000E-002    4.869446834141560E-038
 -3.740000000000000E-002    1.587752053789444E-037
 -3.730000000000000E-002    4.804446085729632E-037
 -3.720000000000000E-002    1.356092652777847E-036
 -3.710000000000000E-002    3.584061250438551E-036
 -3.700000000000000E-002    8.892404806639698E-036
 -3.690000000000000E-002    2.073870776696778E-035
 -3.680000000000000E-002    4.545398357345643E-035
 -3.670000000000000E-002    9.341742666610178E-035
 -3.660000000000000E-002    1.790820350934185E-034
 -3.650000000000000E-002    3.167994708642065E-034
 -3.640000000000000E-002    5.058667232504714E-034
 -3.630000000000000E-002    6.923393967328925E-034
 -3.620000000000000E-002    6.865763679155243E-034
 -3.610000000000000E-002    5.034101594597394E-036
 -3.600000000000000E-002   -2.403999114833651E-033
 -3.590000000000000E-002   -8.589930117656824E-033
 -3.580000000000000E-002   -2.219696587083968E-032
 -3.570000000000000E-002   -4.916258708070904E-032
 -3.560000000000000E-002   -9.828442778592208E-032
 -3.550000000000000E-002   -1.811241230123881E-031
 -3.540000000000000E-002   -3.102483461926305E-031
 -3.530000000000000E-002   -4.941620309617089E-031
 -3.520000000000000E-002   -7.265325055908059E-031
 -3.510000000000000E-002   -9.666394736511834E-031
 -3.500000000000000E-002   -1.107824420733504E-030
 -3.490000000000000E-002   -9.317549334150410E-031
 -3.480000000000000E-002   -4.957502392084097E-032
 -3.470000000000000E-002    2.162226365855597E-030
 -3.460000000000000E-002    6.611796638703726E-030
 -3.450000000000000E-002    1.449092338298356E-029
 -3.440000000000000E-002    2.716327375419902E-029
 -3.430000000000000E-002    4.585600063687431E-029
 -3.420000000000000E-002    7.104578217024742E-029
 -3.410000000000000E-002    1.014213635182446E-028
 -3.400000000000000E-002    1.323268636477044E-028
 -3.390000000000000E-002    1.536664341405208E-028
 -3.380000000000000E-002    1.474077726672655E-028
 -3.370000000000000E-002    8.508502245321334E-029
 -3.360000000000000E-002   -7.391570802611740E-029
 -3.350000000000000E-002   -3.820118532490940E-028
 -3.340000000000000E-002   -8.991937745945675E-028
 -3.330000000000000E-002   -1.682584189290576E-027
 -3.320000000000000E-002   -2.767212439776313E-027
 -3.310000000000000E-002   -4.135696243133682E-027
 -3.300000000000000E-002   -5.675654131138702E-027
 -3.290000000000000E-002   -7.126049859168872E-027
 -3.280000000000000E-002   -8.017621503986512E-027
 -3.270000000000000E-002   -7.618225579054628E-027
 -3.260000000000000E-002   -4.901170727704254E-027
 -3.250000000000000E-002    1.437316533597999E-027
 -3.240000000000000E-002    1.287787117723970E-026
 -3.230000000000000E-002    3.085682434259754E-026
 -3.220000000000000E-002    5.638741538451463E-026
 -3.210000000000000E-002    8.949816237964605E-026
 -3.200000000000000E-002    1.284885602572473E-025
 -3.190000000000000E-002    1.690451137555522E-025
 -3.180000000000000E-002    2.033222958886923E-025
 -3.170000000000000E-002    2.191713229886975E-025
 -3.160000000000000E-002    1.997880844852661E-025
 -3.150000000000000E-002    1.241355921563441E-025
 -3.140000000000000E-002   -3.144465138818538E-026
 -3.130000000000000E-002   -2.900125492222858E-025
 -3.120000000000000E-002   -6.688629374248107E-025
 -3.110000000000000E-002   -1.172278618227632E-024
 -3.100000000000000E-002   -1.782422306496553E-024
 -3.090000000000000E-002   -2.449102087673106E-024
 -3.080000000000000E-002   -3.079806513962389E-024
 -3.070000000000000E-002   -3.532159828977433E-024
 -3.060000000000000E-002   -3.611690869920588E-024
 -3.050000000000000E-002   -3.078381794168385E-024
 -3.040000000000000E-002   -1.665664856529943E-024
 -3.030000000000000E-002    8.848796580081901E-025
 -3.020000000000000E-002    4.771146964803462E-024
 -3.010000000000000E-002    1.006079734169569E-023
 -3.000000000000000E-002    1.660802908815517E-023
 -2.990000000000000E-002    2.396517058286500E-023
 -2.980000000000000E-002    3.130267125616017E-023
 -2.970000000000000E-002    3.735638409243142E-023
 -2.960000000000000E-002    4.042544936275945E-023
 -2.950000000000000E-002    3.844638434408187E-023
 -2.940000000000000E-002    2.916764156120761E-023
 -2.930000000000000E-002    1.044251487166223E-023
 -2.920000000000000E-002   -1.935431281170226E-023
 -2.910000000000000E-002   -6.080078824000186E-023
 -2.900000000000000E-002   -1.128321093333665E-022
 -2.890000000000000E-002   -1.721465714294515E-022
 -2.880000000000000E-002   -2.327150662529338E-022
 -2.870000000000000E-002   -2.855246862821260E-022
 -2.860000000000000E-002   -3.187046580447717E-022
 -2.850000000000000E-002   -3.181820853688922E-022
 -2.840000000000000E-002   -2.689893914833575E-022
 -2.830000000000000E-002   -1.572870465512422E-022
 -2.820000000000000E-002    2.692821429980052E-023
 -2.810000000000000E-002    2.865869121791911E-022
 -2.800000000000000E-002    6.140926304606770E-022
 -2.790000000000000E-002    9.881250341576337E-022
 -2.780000000000000E-002    1.371326301131402E-021
 -2.770000000000000E-002    1.709605024624587E-021
 -2.760000000000000E-002    1.933819490278086E-021
 -2.750000000000000E-002    1.964518568417565E-021
 -2.740000000000000E-002    1.720185029613163E-021
 -2.730000000000000E-002    1.129036113955796E-021
 -2.720000000000000E-002    1.438820445087217E-022
 -2.710000000000000E-002   -1.241137443436481E-021
 -2.700000000000000E-002   -2.973864866050155E-021
 -2.690000000000000E-002   -4.930126962483917E-021
 -2.680000000000000E-002   -6.905623447350805E-021
 -2.670000000000000E-002   -8.617151426195810E-021
 -2.660000000000000E-002   -9.716400712917011E-021
 -2.650000000000000E-002   -9.818757327646917E-021
 -2.640000000000000E-002   -8.548089186027078E-021
 -2.630000000000000E-002   -5.596333606185288E-021
 -2.620000000000000E-002   -7.939966934951884E-022
 -2.610000000000000E-002    5.815372984842521E-021
 -2.600000000000000E-002    1.390672119821921E-020
 -2.590000000000000E-002    2.282352840437154E-020
 -2.580000000000000E-002    3.156031159837867E-020
 -2.570000000000000E-002    3.879133227251289E-020
 -2.560000000000000E-002    4.295687911386664E-020
 -2.550000000000000E-002    4.241355940668669E-020
 -2.540000000000000E-002    3.564751325412456E-020
 -2.530000000000000E-002    2.153963246125026E-020
 -2.520000000000000E-002   -3.395375331833176E-022
 -2.510000000000000E-002   -2.943920047842719E-020
 -2.500000000000000E-002   -6.398640057934398E-020
 -2.490000000000000E-002   -1.008441262985181E-019
 -2.480000000000000E-002   -1.355222915343022E-019
 -2.470000000000000E-002   -1.623886799302899E-019
 -2.460000000000000E-002   -1.751121486694779E-019
 -2.450000000000000E-002   -1.673465782604750E-019
 -2.440000000000000E-002   -1.336315089193077E-019
 -2.430000000000000E-002   -7.044626371866792E-020
 -2.420000000000000E-002    2.268669024238547E-020
 -2.410000000000000E-002    1.421924476913766E-019
 -2.400000000000000E-002    2.797008735539428E-019
 -2.390000000000000E-002    4.217561212586251E-019
 -2.380000000000000E-002    5.501540251605346E-019
 -2.370000000000000E-002    6.430457382306379E-019
 -2.360000000000000E-002    6.768767068819141E-019
 -2.350000000000000E-002    6.291324690929024E-019
 -2.340000000000000E-002    4.817407486724500E-019
 -2.330000000000000E-002    2.248441006857352E-019
 -2.320000000000000E-002   -1.394743372629252E-019
 -2.310000000000000E-002   -5.940402348699621E-019
 -2.300000000000000E-002   -1.104607481750926E-018
 -2.290000000000000E-002   -1.619643463819874E-018
 -2.280000000000000E-002   -2.072396304937557E-018
 -2.270000000000000E-002   -2.385585040133208E-018
 -2.260000000000000E-002   -2.478785997558425E-018
 -2.250000000000000E-002   -2.278240893911450E-018
 -2.240000000000000E-002   -1.728408255231777E-018
 -2.230000000000000E-002   -8.041668870144466E-019
 -2.220000000000000E-002    4.777920620936508E-019
 -2.210000000000000E-002    2.050115486168592E-018
 -2.200000000000000E-002    3.790313131596677E-018
 -2.190000000000000E-002    5.522364081637604E-018
 -2.180000000000000E-002    7.025732627670142E-018
 -2.170000000000000E-002    8.052462394657687E-018
 -2.160000000000000E-002    8.352103463443882E-018
 -2.150000000000000E-002    7.703142052278217E-018
 -2.140000000000000E-002    5.948407259593008E-018
 -2.130000000000000E-002    3.030803527733095E-018
 -2.120000000000000E-002   -9.752004828358253E-019
 -2.110000000000000E-002   -5.841420617460242E-018
 -2.100000000000000E-002   -1.117821258353467E-017
 -2.090000000000000E-002   -1.644550162870414E-017
 -2.080000000000000E-002   -2.098552993635447E-017
 -2.070000000000000E-002   -2.407809571419798E-017
 -2.060000000000000E-002   -2.501633840396529E-017
 -2.050000000000000E-002   -2.319801828215672E-017
 -2.040000000000000E-002   -1.822411088952469E-017
 -2.030000000000000E-002   -9.993758276495751E-018
 -2.020000000000000E-002    1.217291292884323E-018
 -2.010000000000000E-002    1.470835348415679E-017
 -2.000000000000000E-002    2.934826327810347E-017
 -1.990000000000000E-002    4.362254152432120E-017
 -1.980000000000000E-002    5.573862276192259E-017
 -1.970000000000000E-002    6.378818862838203E-017
 -1.960000000000000E-002    6.595821833927682E-017
 -1.950000000000000E-002    6.077443155075935E-017
 -1.940000000000000E-002    4.735324392446987E-017
 -1.930000000000000E-002    2.563244745581609E-017
 -1.920000000000000E-002   -3.452674168284768E-018
 -1.910000000000000E-002   -3.788092876342934E-017
 -1.900000000000000E-002   -7.457329039241535E-017
 -1.890000000000000E-002   -1.095574302681125E-016
 -1.880000000000000E-002   -1.382754995057510E-016
 -1.870000000000000E-002   -1.560253702904614E-016
 -1.860000000000000E-002   -1.585069565741914E-016
 -1.850000000000000E-002   -1.424266863283520E-016
 -1.840000000000000E-002   -1.060965536026885E-016
 -1.830000000000000E-002   -4.995306656630584E-017
 -1.820000000000000E-002    2.308344419041952E-017
 -1.810000000000000E-002    1.074836770133797E-016
 -1.800000000000000E-002    1.952782217165468E-016
 -1.790000000000000E-002    2.765553361073107E-016
 -1.780000000000000E-002    3.402885400588775E-016
 -1.770000000000000E-002    3.754543776785431E-016
 -1.760000000000000E-002    3.723586541112163E-016
 -1.750000000000000E-002    3.240481189656466E-016
 -1.740000000000000E-002    2.276526551117157E-016
 -1.730000000000000E-002    8.548330909130816E-017
 -1.720000000000000E-002   -9.429007584034495E-017
 -1.710000000000000E-002   -2.975380220042600E-016
 -1.700000000000000E-002   -5.047619914160708E-016
 -1.690000000000000E-002   -6.924273862187428E-016
 -1.680000000000000E-002   -8.350097946633203E-016
 -1.670000000000000E-002   -9.076350800575099E-016
 -1.660000000000000E-002   -8.891025339013346E-016
 -1.650000000000000E-002   -7.649983990719363E-016
 -1.640000000000000E-002   -5.305487073919618E-016
 -1.630000000000000E-002   -1.928312219775589E-016
 -1.620000000000000E-002    2.280191395754257E-016
 -1.610000000000000E-002    6.989188808551174E-016
 -1.600000000000000E-002    1.175460937643036E-015
 -1.590000000000000E-002    1.605112719499224E-015
 -1.580000000000000E-002    1.931869050569895E-015
 -1.570000000000000E-002    2.102053271530756E-015
 -1.560000000000000E-002    2.070777423706419E-015
 -1.550000000000000E-002    1.808420164954640E-015
 -1.540000000000000E-002    1.306381326294275E-015
 -1.530000000000000E-002    5.813413524244328E-016
 -1.520000000000000E-002   -3.226884199026182E-016
 -1.510000000000000E-002   -1.335092980202962E-015
 -1.500000000000000E-002   -2.362489821920280E-015
 -1.490000000000000E-002   -3.295698877789985E-015
 -1.480000000000000E-002   -4.019517448445012E-015
 -1.470000000000000E-002   -4.424598905606700E-015
 -1.460000000000000E-002   -4.420403138413164E-015
 -1.450000000000000E-002   -3.947908166928225E-015
 -1.440000000000000E-002   -2.990624258274951E-015
 -1.430000000000000E-002   -1.582436148558578E-015
 -1.420000000000000E-002    1.890449820664844E-016
 -1.410000000000000E-002    2.184612487137162E-015
 -1.400000000000000E-002    4.221589049136863E-015
 -1.390000000000000E-002    6.087853552034157E-015
 -1.380000000000000E-002    7.561005357105431E-015
 -1.370000000000000E-002    8.431223717728441E-015
 -1.360000000000000E-002    8.525788024261036E-015
 -1.350000000000000E-002    7.732763651525349E-015
 -1.340000000000000E-002    6.021141414030031E-015
 -1.330000000000000E-002    3.454753179359518E-015
 -1.320000000000000E-002    1.976435656497869E-016
 -1.310000000000000E-002   -3.490777020905276E-015
 -1.300000000000000E-002   -7.271562733791284E-015
 -1.290000000000000E-002   -1.075269379549418E-014
 -1.280000000000000E-002   -1.352461448587743E-014
 -1.270000000000000E-002   -1.520211500788651E-014
 -1.260000000000000E-002   -1.546879713479697E-014
 -1.250000000000000E-002   -1.411962901676469E-014
 -1.240000000000000E-002   -1.109677113358565E-014
 -1.230000000000000E-002   -6.513996042196366E-015
 -1.220000000000000E-002   -6.657154875852997E-016
 -1.210000000000000E-002    5.982215655564946E-015
 -1.200000000000000E-002    1.282108670576707E-014
 -1.190000000000000E-002    1.914657521805620E-014
 -1.180000000000000E-002    2.422183823332531E-014
 -1.170000000000000E-002    2.735161666565116E-014
 -1.160000000000000E-002    2.796080730095444E-014
 -1.150000000000000E-002    2.566974978289951E-014
 -1.140000000000000E-002    2.035790493731413E-014
 -1.130000000000000E-002    1.220792284103856E-014
 -1.120000000000000E-002    1.723194667577833E-015
 -1.110000000000000E-002   -1.028599387610299E-014
 -1.100000000000000E-002   -2.274989326281783E-014
 -1.090000000000000E-002   -3.441926338426641E-014
 -1.080000000000000E-002   -4.397335418331535E-014
 -1.070000000000000E-002   -5.014800186246426E-014
 -1.060000000000000E-002   -5.187295153239365E-014
 -1.050000000000000E-002   -4.840544485057636E-014
 -1.040000000000000E-002   -3.944598038637979E-014
 -1.030000000000000E-002   -2.522239355907323E-014
 -1.020000000000000E-002   -6.530154168732735E-015
 -1.010000000000000E-002    1.528023411282382E-014
 -1.000000000000000E-002    3.837354801979113E-014
 -9.899999999999999E-003    6.055731132414930E-014
 -9.800000000000000E-003    7.946025352127038E-014
 -9.699999999999999E-003    9.274967620092974E-014
 -9.599999999999999E-003    9.837043637385783E-014
 -9.500000000000000E-003    9.478430784478759E-014
 -9.399999999999999E-003    8.118584751069632E-014
 -9.299999999999999E-003    5.767066887944310E-014
 -9.200000000000000E-003    2.533398712475450E-014
 -9.099999999999999E-003   -1.371842646488635E-014
 -8.999999999999999E-003   -5.645808802393122E-014
 -8.900000000000000E-003   -9.912312442389877E-014
 -8.799999999999999E-003   -1.375023443503777E-013
 -8.699999999999999E-003   -1.672969240165367E-013
 -8.600000000000000E-003   -1.845332675609348E-013
 -8.499999999999999E-003   -1.859922283224934E-013
 -8.399999999999999E-003   -1.696144311476356E-013
 -8.300000000000000E-003   -1.348390717707963E-013
 -8.199999999999999E-003   -8.283484738081544E-014
 -8.100000000000000E-003   -1.658775318638673E-014
 -8.000000000000000E-003    5.917978460879383E-014
 -7.899999999999999E-003    1.382703052863529E-013
 -7.800000000000000E-003    2.134484985015766E-013
 -7.699999999999999E-003    2.770318520876006E-013
 -7.599999999999999E-003    3.215938944016238E-013
 -7.499999999999999E-003    3.407238313551088E-013
 -7.399999999999999E-003    3.297732210040024E-013
 -7.299999999999999E-003    2.865138181190436E-013
 -7.199999999999999E-003    2.116301566308334E-013
 -7.100000000000000E-003    1.089782142281101E-013
 -6.999999999999999E-003   -1.444373851146309E-014
 -6.899999999999999E-003   -1.488429545338004E-013
 -6.800000000000000E-003   -2.823007916422539E-013
 -6.699999999999999E-003   -4.017324434737894E-013
 -6.599999999999999E-003   -4.940737421375923E-013
 -6.499999999999999E-003   -5.476009834223868E-013
 -6.399999999999999E-003   -5.532636744330766E-013
 -6.299999999999999E-003   -5.058947331878993E-013
 -6.199999999999999E-003   -4.051588497042900E-013
 -6.100000000000000E-003   -2.561099710736048E-013
 -5.999999999999999E-003   -6.925379733163425E-014
 -5.899999999999999E-003    1.399489567857760E-013
 -5.800000000000000E-003    3.521525175369179E-013
 -5.699999999999999E-003    5.457242711882042E-013
 -5.599999999999999E-003    6.987647773992513E-013
 -5.499999999999999E-003    7.913858384247168E-013
 -5.399999999999999E-003    8.080350956313558E-013
 -5.299999999999999E-003    7.396263351662471E-013
 -5.199999999999999E-003    5.852246918749261E-013
 -5.099999999999999E-003    3.530542517579202E-013
 -4.999999999999999E-003    6.064101303603363E-014
 -4.899999999999999E-003   -2.660276559889132E-013
 -4.799999999999999E-003   -5.943518270563065E-013
 -4.699999999999999E-003   -8.878962230035477E-013
 -4.599999999999999E-003   -1.109906796901605E-012
 -4.499999999999999E-003   -1.227273661094435E-012
 -4.399999999999999E-003   -1.214564794502600E-012
 -4.299999999999999E-003   -1.057702252743966E-012
 -4.199999999999999E-003   -7.568414836388123E-013
 -4.099999999999999E-003   -3.280471820764593E-013
 -3.999999999999999E-003    1.965572688819486E-013
 -3.899999999999999E-003    7.703621103880976E-013
 -3.799999999999999E-003    1.335597391468146E-012
 -3.699999999999999E-003    1.828257466292084E-012
 -3.599999999999999E-003    2.184277336607126E-012
 -3.499999999999999E-003    2.346440702464297E-012
 -3.399999999999999E-003    2.271357717707461E-012
 -3.299999999999999E-003    1.935768091196081E-012
 -3.199999999999999E-003    1.341418243985433E-012
 -3.099999999999999E-003    5.178227325317082E-013
 -2.999999999999999E-003   -4.776201902843302E-013
 -2.899999999999999E-003   -1.562465659611236E-012
 -2.799999999999999E-003   -2.635036270822326E-012
 -2.699999999999999E-003   -3.582915313850907E-012
 -2.599999999999999E-003   -4.293506499289042E-012
 -2.499999999999999E-003   -4.665755672378716E-012
 -2.399999999999999E-003   -4.621912910538771E-012
 -2.299999999999999E-003   -4.118092672619478E-012
 -2.199999999999999E-003   -3.152389847829415E-012
 -2.099999999999999E-003   -1.769444800846021E-012
 -1.999999999999999E-003   -6.061685854359117E-014
 -1.899999999999999E-003    1.840684116597794E-012
 -1.799999999999999E-003    3.768491644102048E-012
 -1.699999999999999E-003    5.538065228850283E-012
 -1.599999999999999E-003    6.962919794004911E-012
 -1.499999999999999E-003    7.873612984272234E-012
 -1.399999999999999E-003    8.136480174535836E-012
 -1.299999999999999E-003    7.670340180401793E-012
 -1.199999999999999E-003    6.459241055581673E-012
 -1.099999999999999E-003    4.559555972393979E-012
 -9.999999999999989E-004    2.100196744706832E-012
 -8.999999999999990E-004   -7.246609075294808E-013
 -7.999999999999990E-004   -3.670204329614230E-012
 -6.999999999999989E-004   -6.462026255678095E-012
 -5.999999999999990E-004   -8.821886394053544E-012
 -4.999999999999989E-004   -1.049585390250587E-011
 -3.999999999999989E-004   -1.128203299235928E-011
 -2.999999999999989E-004   -1.105492206392766E-011
 -1.999999999999989E-004   -9.783547234305416E-012
 -9.999999999999892E-005   -7.540979115203585E-012
  1.084202172485504E-018   -4.503562385596898E-012
  1.000000000000011E-004   -9.391814055577422E-013
  2.000000000000011E-004    2.815005960501088E-012
  3.000000000000011E-004    6.383748919978668E-012
  4.000000000000011E-004    9.391105982331705E-012
  5.000000000000011E-004    1.150049295858547E-011
  6.000000000000011E-004    1.245324825802708E-011
  7.000000000000011E-004    1.210144115789263E-011
  8.000000000000011E-004    1.043094574849652E-011
  9.000000000000012E-004    7.571566245116318E-012
  1.000000000000001E-003    3.792178525906787E-012
  1.100000000000001E-003   -5.196904110538249E-013
  1.200000000000001E-003   -4.892743223166585E-012
  1.300000000000001E-003   -8.818517205938231E-012
  1.400000000000001E-003   -1.180548327892118E-011
  1.500000000000001E-003   -1.343527084442567E-011
  1.600000000000001E-003   -1.341503405593562E-011
  1.700000000000001E-003   -1.161992077991603E-011
  1.800000000000001E-003   -8.120274570644750E-012
  1.900000000000001E-003   -3.189395781212329E-012
  2.000000000000001E-003    2.710458758489283E-012
  2.100000000000001E-003    8.963982740545402E-012
  2.200000000000001E-003    1.485843266281499E-011
  2.300000000000001E-003    1.965443518635462E-011
  2.400000000000001E-003    2.266548672118746E-011
  2.500000000000001E-003    2.333822907903812E-011
  2.600000000000001E-003    2.132491256574224E-011
  2.700000000000001E-003    1.653966536299977E-011
  2.800000000000001E-003    9.191261319031512E-012
  2.900000000000001E-003   -2.129091405682058E-013
  3.000000000000001E-003   -1.089430431099007E-011
  3.100000000000001E-003   -2.186164595029258E-011
  3.200000000000001E-003   -3.199645005337900E-011
  3.300000000000001E-003   -4.015874149249181E-011
  3.400000000000001E-003   -4.530337020789710E-011
  3.500000000000001E-003   -4.659564435418506E-011
  3.600000000000001E-003   -4.351413527045363E-011
  3.700000000000001E-003   -3.592920305462863E-011
  3.800000000000001E-003   -2.414735652719561E-011
  3.900000000000001E-003   -8.914579445471705E-012
  4.000000000000001E-003    8.624536829925264E-012
  4.100000000000001E-003    2.701066237633259E-011
  4.200000000000001E-003    4.459088603696435E-011
  4.300000000000001E-003    5.966730028641337E-011
  4.400000000000001E-003    7.065972301387432E-011
  4.500000000000001E-003    7.626711319794345E-011
  4.600000000000002E-003    7.561127679071906E-011
  4.700000000000001E-003    6.834751285971317E-011
  4.800000000000001E-003    5.472923170200953E-011
  4.900000000000002E-003    3.561748133731610E-011
  5.000000000000001E-003    1.243146804340974E-011
  5.100000000000001E-003   -1.295812350867896E-011
  5.200000000000001E-003   -3.838540267084526E-011
  5.300000000000002E-003   -6.158202500357043E-011
  5.400000000000001E-003   -8.038913796854288E-011
  5.500000000000001E-003   -9.296828564389717E-011
  5.600000000000002E-003   -9.799038355709932E-011
  5.700000000000001E-003   -9.478288576772755E-011
  5.800000000000001E-003   -8.341874725363148E-011
  5.900000000000002E-003   -6.473574232037541E-011
  6.000000000000001E-003   -4.028138233030259E-011
  6.100000000000001E-003   -1.218580501040793E-011
  6.200000000000002E-003    1.702745193116811E-011
  6.300000000000002E-003    4.467635119899448E-011
  6.400000000000001E-003    6.817903600227042E-011
  6.500000000000001E-003    8.531108537009569E-011
  6.600000000000002E-003    9.443539528079934E-011
  6.700000000000001E-003    9.468021161841728E-011
  6.800000000000001E-003    8.604535503461285E-011
  6.900000000000002E-003    6.942309344979340E-011
  7.000000000000001E-003    4.652823451883397E-011
  7.100000000000001E-003    1.974129013903857E-011
  7.200000000000002E-003   -8.122497171549098E-012
  7.300000000000002E-003   -3.409726415880466E-011
  7.400000000000001E-003   -5.537631131086741E-011
  7.500000000000001E-003   -6.961635640808038E-011
  7.600000000000002E-003   -7.520417418553695E-011
  7.700000000000001E-003   -7.145601412955275E-011
  7.800000000000001E-003   -5.872595160503623E-011
  7.900000000000001E-003   -3.840745511705402E-011
  8.000000000000002E-003   -1.282301490707112E-011
  8.100000000000001E-003    1.499195318511705E-011
  8.200000000000001E-003    4.159342056665740E-011
  8.300000000000002E-003    6.349361353855747E-011
  8.400000000000001E-003    7.755110539286986E-011
  8.500000000000002E-003    8.134611405796884E-011
  8.600000000000002E-003    7.350054314264823E-011
  8.700000000000001E-003    5.390569237816493E-011
  8.800000000000002E-003    2.382798884682628E-011
  8.900000000000002E-003   -1.412590061647853E-011
  9.000000000000001E-003   -5.618986205368513E-011
  9.100000000000002E-003   -9.775570436537475E-011
  9.200000000000002E-003   -1.338029179653947E-010
  9.300000000000001E-003   -1.594040352906361E-010
  9.400000000000002E-003   -1.702586235245874E-010
  9.500000000000001E-003   -1.632033314879478E-010
  9.600000000000001E-003   -1.366443700439053E-010
  9.700000000000002E-003   -9.086354667451955E-011
  9.800000000000001E-003   -2.815843402084314E-011
  9.900000000000001E-003    4.720851576055221E-011
  1.000000000000000E-002    1.292595956709542E-010
  1.010000000000000E-002    2.107390709035260E-010
  1.020000000000000E-002    2.837071592864833E-010
  1.030000000000000E-002    3.402433636786402E-010
  1.040000000000000E-002    3.731978560727160E-010
  1.050000000000000E-002    3.769218327972639E-010
  1.060000000000000E-002    3.479056261164921E-010
  1.070000000000000E-002    2.852584480030058E-010
  1.080000000000000E-002    1.909756368800559E-010
  1.090000000000000E-002    6.995643306612468E-011
  1.100000000000000E-002   -7.024244840656492E-011
  1.110000000000000E-002   -2.199075897573128E-010
  1.120000000000000E-002   -3.678896680144593E-010
  1.130000000000000E-002   -5.024870469185383E-010
  1.140000000000000E-002   -6.124175435884764E-010
  1.150000000000000E-002   -6.877917068400455E-010
  1.160000000000000E-002   -7.209973598298085E-010
  1.170000000000000E-002   -7.074105704507522E-010
  1.180000000000000E-002   -6.458619502618253E-010
  1.190000000000000E-002   -5.388066576962337E-010
  1.200000000000000E-002   -3.921756203427165E-010
  1.210000000000000E-002   -2.149136791697147E-010
  1.220000000000000E-002   -1.824196375876662E-011
  1.230000000000000E-002    1.852904197289850E-010
  1.240000000000000E-002    3.828777185382142E-010
  1.250000000000000E-002    5.625492604617374E-010
  1.260000000000000E-002    7.141749890450360E-010
  1.270000000000000E-002    8.302828082030757E-010
  1.280000000000000E-002    9.066030614808024E-010
  1.290000000000000E-002    9.422802946816152E-010
  1.300000000000000E-002    9.397258996757377E-010
  1.310000000000000E-002    9.041215537081953E-010
  1.320000000000000E-002    8.426203666447992E-010
  1.330000000000000E-002    7.633269459438330E-010
  1.340000000000000E-002    6.741645091466857E-010
  1.350000000000000E-002    5.817533472777517E-010
  1.360000000000000E-002    4.904304649191666E-010
  1.370000000000000E-002    4.015297273256522E-010
  1.380000000000000E-002    3.130225945521801E-010
  1.390000000000000E-002    2.195831529932585E-010
  1.400000000000000E-002    1.131017748913789E-010
  1.410000000000000E-002   -1.637648185678175E-011
  1.420000000000000E-002   -1.793592066339324E-010
  1.430000000000000E-002   -3.853718127798944E-010
  1.440000000000000E-002   -6.413270708938421E-010
  1.450000000000000E-002   -9.499640356957048E-010
  1.460000000000000E-002   -1.308528387560325E-009
  1.470000000000000E-002   -1.707850607410927E-009
  1.480000000000000E-002   -2.131953971894880E-009
  1.490000000000000E-002   -2.558276584041262E-009
  1.500000000000000E-002   -2.958541384750473E-009
  1.510000000000000E-002   -3.300247006004939E-009
  1.520000000000000E-002   -3.548691583049106E-009
  1.530000000000000E-002   -3.669388596964781E-009
  1.540000000000000E-002   -3.630689532944406E-009
  1.550000000000000E-002   -3.406402716213508E-009
  1.560000000000000E-002   -2.978187012388605E-009
  1.570000000000000E-002   -2.337513887445667E-009
  1.580000000000000E-002   -1.487022564613170E-009
  1.590000000000000E-002   -4.411431605812568E-010
  1.600000000000000E-002    7.740730089105142E-010
  1.610000000000000E-002    2.121909655235582E-009
  1.620000000000000E-002    3.556648617149712E-009
  1.630000000000000E-002    5.025798131160292E-009
  1.640000000000000E-002    6.472694036249660E-009
  1.650000000000000E-002    7.839250685869097E-009
  1.660000000000000E-002    9.068627346102351E-009
  1.670000000000000E-002    1.010759305980902E-008
  1.680000000000000E-002    1.090841048448337E-008
  1.690000000000000E-002    1.143011036183987E-008
  1.700000000000000E-002    1.163911705886029E-008
  1.710000000000000E-002    1.150924229402600E-008
  1.720000000000000E-002    1.102116069308081E-008
  1.730000000000000E-002    1.016154072837064E-008
  1.740000000000000E-002    8.922062576064424E-009
  1.750000000000000E-002    7.298571297345298E-009
  1.760000000000000E-002    5.290639186464658E-009
  1.770000000000000E-002    2.901757373664175E-009
  1.780000000000000E-002    1.403461164794617E-010
  1.790000000000000E-002   -2.978314530220969E-009
  1.800000000000000E-002   -6.429229936475354E-009
  1.810000000000000E-002   -1.017398626562279E-008
  1.820000000000000E-002   -1.415639959321536E-008
  1.830000000000000E-002   -1.829777429038807E-008
  1.840000000000000E-002   -2.249211718373446E-008
  1.850000000000000E-002   -2.660167491093270E-008
  1.860000000000000E-002   -3.045318154650145E-008
  1.870000000000000E-002   -3.383511971566153E-008