 -4.000000000000000E-002    0.000000000000000E+000
 -3.990000000000000E-002    0.000000000000000E+000
 -3.980000000000000E-002    0.000000000000000E+000
 -3.970000000000000E-002    0.000000000000000E+000
 -3.960000000000000E-002    0.000000000000000E+000
 -3.950000000000000E-002    0.000000000000000E+000
 -3.940000000000000E-002    0.000000000000000E+000
 -3.930000000000000E-002    0.000000000000000E+000
 -3.920000000000000E-002    0.000000000000000E+000
 -3.910000000000000E-002    0.000000000000000E+000
 -3.900000000000000E-002    0.000000000000000E+000
 -3.890000000000000E-002    0.000000000000000E+000
 -3.880000000000000E-002    0.000000000000000E+000
 -3.870000000000000E-002    0.000000000000000E+000
 -3.860000000000000E-002    0.000000000000000E+000
 -3.850000000000000E-002    0.000000000000000E+000
 -3.840000000000000E-002    0.000000000000000E+000
 -3.830000000000000E-002    0.000000000000000E+000
 -3.820000000000000E-002    0.000000000000000E+000
 -3.810000000000000E-002    0.000000000000000E+000
 -3.800000000000000E-002    0.000000000000000E+000
 -3.790000000000000E-002    0.000000000000000E+000
 -3.780000000000000E-002    0.000000000000000E+000
 -3.770000000000000E-002    0.000000000000000E+000
 -3.760000000000000E-002    0.000000000000000E+000
 -3.750000000000000E-002    0.000000000000000E+000
 -3.740000000000000E-002    0.000000000000000E+000
 -3.730000000000000E-002    0.000000000000000E+000
 -3.720000000000000E-002    0.000000000000000E+000
 -3.710000000000000E-002    0.000000000000000E+000
 -3.700000000000000E-002    0.000000000000000E+000
 -3.690000000000000E-002    0.000000000000000E+000
 -3.680000000000000E-002    0.000000000000000E+000
 -3.670000000000000E-002    0.000000000000000E+000
 -3.660000000000000E-002    0.000000000000000E+000
 -3.650000000000000E-002    0.000000000000000E+000
 -3.640000000000000E-002    0.000000000000000E+000
 -3.630000000000000E-002    0.000000000000000E+000
 -3.620000000000000E-002    0.000000000000000E+000
 -3.610000000000000E-002    0.000000000000000E+000
 -3.600000000000000E-002    0.000000000000000E+000
 -3.590000000000000E-002    0.000000000000000E+000
 -3.580000000000000E-002    0.000000000000000E+000
 -3.570000000000000E-002    0.000000000000000E+000
 -3.560000000000000E-002    0.000000000000000E+000
 -3.550000000000000E-002    0.000000000000000E+000
 -3.540000000000000E-002    0.000000000000000E+000
 -3.530000000000000E-002    0.000000000000000E+000
 -3.520000000000000E-002    0.000000000000000E+000
 -3.510000000000000E-002    0.000000000000000E+000
 -3.500000000000000E-002    0.000000000000000E+000
 -3.490000000000000E-002    0.000000000000000E+000
 -3.480000000000000E-002    0.000000000000000E+000
 -3.470000000000000E-002    0.000000000000000E+000
 -3.460000000000000E-002    0.000000000000000E+000
 -3.450000000000000E-002    0.000000000000000E+000
 -3.440000000000000E-002    0.000000000000000E+000
 -3.430000000000000E-002    0.000000000000000E+000
 -3.420000000000000E-002    0.000000000000000E+000
 -3.410000000000000E-002    0.000000000000000E+000
 -3.400000000000000E-002    0.000000000000000E+000
 -3.390000000000000E-002    0.000000000000000E+000
 -3.380000000000000E-002    0.000000000000000E+000
 -3.370000000000000E-002    0.000000000000000E+000
 -3.360000000000000E-002    0.000000000000000E+000
 -3.350000000000000E-002    0.000000000000000E+000
 -3.340000000000000E-002    0.000000000000000E+000
 -3.330000000000000E-002    0.000000000000000E+000
 -3.320000000000000E-002    0.000000000000000E+000
 -3.310000000000000E-002    0.000000000000000E+000
 -3.300000000000000E-002    0.000000000000000E+000
 -3.290000000000000E-002    0.000000000000000E+000
 -3.280000000000000E-002    0.000000000000000E+000
 -3.270000000000000E-002    0.000000000000000E+000
 -3.260000000000000E-002    0.000000000000000E+000
 -3.250000000000000E-002    0.000000000000000E+000
 -3.240000000000000E-002    0.000000000000000E+000
 -3.230000000000000E-002    0.000000000000000E+000
 -3.220000000000000E-002    0.000000000000000E+000
 -3.210000000000000E-002    0.000000000000000E+000
 -3.200000000000000E-002    0.000000000000000E+000
 -3.190000000000000E-002    0.000000000000000E+000
 -3.180000000000000E-002    0.000000000000000E+000
 -3.170000000000000E-002    0.000000000000000E+000
 -3.160000000000000E-002    0.000000000000000E+000
 -3.150000000000000E-002    0.000000000000000E+000
 -3.140000000000000E-002    0.000000000000000E+000
 -3.130000000000000E-002    0.000000000000000E+000
 -3.120000000000000E-002    0.000000000000000E+000
 -3.110000000000000E-002    0.000000000000000E+000
 -3.100000000000000E-002    0.000000000000000E+000
 -3.090000000000000E-002    0.000000000000000E+000
 -3.080000000000000E-002    0.000000000000000E+000
 -3.070000000000000E-002    0.000000000000000E+000
 -3.060000000000000E-002    0.000000000000000E+000
 -3.050000000000000E-002    0.000000000000000E+000
 -3.040000000000000E-002    0.000000000000000E+000
 -3.030000000000000E-002    0.000000000000000E+000
 -3.020000000000000E-002    0.000000000000000E+000
 -3.010000000000000E-002    0.000000000000000E+000
 -3.000000000000000E-002    0.000000000000000E+000
 -2.990000000000000E-002    0.000000000000000E+000
 -2.980000000000000E-002    0.000000000000000E+000
 -2.970000000000000E-002    0.000000000000000E+000
 -2.960000000000000E-002    0.000000000000000E+000
 -2.950000000000000E-002    0.000000000000000E+000
 -2.940000000000000E-002    0.000000000000000E+000
 -2.930000000000000E-002    0.000000000000000E+000
 -2.920000000000000E-002    0.000000000000000E+000
 -2.910000000000000E-002    0.000000000000000E+000
 -2.900000000000000E-002    0.000000000000000E+000
 -2.890000000000000E-002    0.000000000000000E+000
 -2.880000000000000E-002    0.000000000000000E+000
 -2.870000000000000E-002    0.000000000000000E+000
 -2.860000000000000E-002    0.000000000000000E+000
 -2.850000000000000E-002    0.000000000000000E+000
 -2.840000000000000E-002    0.000000000000000E+000
 -2.830000000000000E-002    0.000000000000000E+000
 -2.820000000000000E-002    0.000000000000000E+000
 -2.810000000000000E-002    0.000000000000000E+000
 -2.800000000000000E-002    0.000000000000000E+000
 -2.790000000000000E-002    0.000000000000000E+000
 -2.780000000000000E-002    0.000000000000000E+000
 -2.770000000000000E-002    0.000000000000000E+000
 -2.760000000000000E-002    0.000000000000000E+000
 -2.750000000000000E-002    0.000000000000000E+000
 -2.740000000000000E-002    0.000000000000000E+000
 -2.730000000000000E-002    0.000000000000000E+000
 -2.720000000000000E-002    0.000000000000000E+000
 -2.710000000000000E-002    0.000000000000000E+000
 -2.700000000000000E-002    0.000000000000000E+000
 -2.690000000000000E-002    0.000000000000000E+000
 -2.680000000000000E-002    0.000000000000000E+000
 -2.670000000000000E-002    0.000000000000000E+000
 -2.660000000000000E-002    0.000000000000000E+000
 -2.650000000000000E-002    0.000000000000000E+000
 -2.640000000000000E-002    0.000000000000000E+000
 -2.630000000000000E-002    0.000000000000000E+000
 -2.620000000000000E-002    0.000000000000000E+000
 -2.610000000000000E-002    0.000000000000000E+000
 -2.600000000000000E-002    0.000000000000000E+000
 -2.590000000000000E-002    0.000000000000000E+000
 -2.580000000000000E-002    0.000000000000000E+000
 -2.570000000000000E-002    0.000000000000000E+000
 -2.560000000000000E-002    0.000000000000000E+000
 -2.550000000000000E-002    1.493603710308656E-047
 -2.540000000000000E-002    1.220234772635978E-046
 -2.530000000000000E-002    2.440469545271956E-046
 -2.520000000000000E-002    4.424303153442739E-046
 -2.510000000000000E-002    7.482923840135464E-046
 -2.500000000000000E-002    1.146305855740243E-045
 -2.490000000000000E-002    1.529383290363854E-045
 -2.480000000000000E-002    1.867652613678205E-045
 -2.470000000000000E-002    1.830030984938340E-045
 -2.460000000000000E-002    9.692923560522443E-046
 -2.450000000000000E-002   -5.045810518495786E-046
 -2.440000000000000E-002   -3.410909620823206E-045
 -2.430000000000000E-002   -6.561356398714929E-045
 -2.420000000000000E-002   -1.114510890493820E-044
 -2.410000000000000E-002   -1.780200571626784E-044
 -2.400000000000000E-002   -2.675325327213539E-044
 -2.390000000000000E-002   -3.574891566652130E-044
 -2.380000000000000E-002   -4.421068020755196E-044
 -2.370000000000000E-002   -4.964794743110570E-044
 -2.360000000000000E-002   -4.794128501205463E-044
 -2.350000000000000E-002   -3.353965139548449E-044
 -2.340000000000000E-002   -1.139081226064564E-045
 -2.330000000000000E-002    5.707376301600996E-044
 -2.320000000000000E-002    1.464815301665402E-043
 -2.310000000000000E-002    2.700400706806149E-043
 -2.300000000000000E-002    4.262834713122865E-043
 -2.290000000000000E-002    6.050028160814488E-043
 -2.280000000000000E-002    7.841617237749765E-043
 -2.270000000000000E-002    9.258529065600616E-043
 -2.260000000000000E-002    9.709650342035286E-043
 -2.250000000000000E-002    8.460472911441528E-043
 -2.240000000000000E-002    4.558817456957193E-043
 -2.230000000000000E-002   -2.986652484126479E-043
 -2.220000000000000E-002   -1.513461553832682E-042
 -2.210000000000000E-002   -3.250823059550419E-042
 -2.200000000000000E-002   -5.509548457434143E-042
 -2.190000000000000E-002   -8.182859979692874E-042
 -2.180000000000000E-002   -1.100715549763034E-041
 -2.170000000000000E-002   -1.351819209203899E-041
 -2.160000000000000E-002   -1.501610744798949E-041
 -2.150000000000000E-002   -1.455000429867270E-041
 -2.140000000000000E-002   -1.095248564159499E-041
 -2.130000000000000E-002   -2.932147332288452E-042
 -2.120000000000000E-002    1.074904676541175E-041
 -2.110000000000000E-002    3.100592217014123E-041
 -2.100000000000000E-002    5.805089451506408E-041
 -2.090000000000000E-002    9.092570222096561E-041
 -2.080000000000000E-002    1.269817030457723E-040
 -2.070000000000000E-002    1.613719840519813E-040
 -2.060000000000000E-002    1.866647984703302E-040
 -2.050000000000000E-002    1.927193023906165E-040
 -2.040000000000000E-002    1.670042562096507E-040
 -2.030000000000000E-002    9.555598560582492E-041
 -2.020000000000000E-002   -3.525835525017336E-041
 -2.010000000000000E-002   -2.360215618527041E-040
 -2.000000000000000E-002   -5.105827114756974E-040
 -1.990000000000000E-002   -8.515479775874697E-040
 -1.980000000000000E-002   -1.235320377111487E-039
 -1.970000000000000E-002   -1.617376179691994E-039
 -1.960000000000000E-002   -1.928746029316070E-039
 -1.950000000000000E-002   -2.075030975937653E-039
 -1.940000000000000E-002   -1.939485786035969E-039
 -1.930000000000000E-002   -1.391795691494582E-039
 -1.920000000000000E-002   -3.039982807483015E-040
 -1.910000000000000E-002    1.425551237187958E-039
 -1.900000000000000E-002    3.840231043901566E-039
 -1.890000000000000E-002    6.886784446900394E-039
 -1.880000000000000E-002    1.037404161005782E-038
 -1.870000000000000E-002    1.393457661276545E-038
 -1.860000000000000E-002    1.699761309102050E-038
 -1.850000000000000E-002    1.878370556443271E-038
 -1.840000000000000E-002    1.833318065741713E-038
 -1.830000000000000E-002    1.458035780599713E-038
 -1.820000000000000E-002    6.483502029325949E-039
 -1.810000000000000E-002   -6.784453981812849E-039
 -1.800000000000000E-002   -2.558748393248133E-038
 -1.790000000000000E-002   -4.953511615389808E-038
 -1.780000000000000E-002   -7.717751620307214E-038
 -1.770000000000000E-002   -1.057331213063399E-037
 -1.760000000000000E-002   -1.309114096654844E-037
 -1.750000000000000E-002   -1.469071371443672E-037
 -1.740000000000000E-002   -1.466490785004278E-037
 -1.730000000000000E-002   -1.223819585854331E-037
 -1.720000000000000E-002   -6.664034313484738E-038
 -1.710000000000000E-002    2.636649930004024E-038
 -1.700000000000000E-002    1.590009528703274E-037
 -1.690000000000000E-002    3.281993339615938E-037
 -1.680000000000000E-002    5.234542045948585E-037
 -1.670000000000000E-002    7.251073085153818E-037
 -1.660000000000000E-002    9.033826918388538E-037
 -1.650000000000000E-002    1.018661052903003E-036
 -1.640000000000000E-002    1.023513204178279E-036
 -1.630000000000000E-002    8.669503886031814E-037
 -1.620000000000000E-002    5.011825602132264E-037
 -1.610000000000000E-002   -1.091150108755414E-037
 -1.600000000000000E-002   -9.754435751340226E-037
 -1.590000000000000E-002   -2.072983210569510E-036
 -1.580000000000000E-002   -3.328515705226617E-036
 -1.570000000000000E-002   -4.610946335510943E-036
 -1.560000000000000E-002   -5.727123533725703E-036
 -1.550000000000000E-002   -6.425957577778746E-036
 -1.540000000000000E-002   -6.413771529655570E-036
 -1.530000000000000E-002   -5.383234359214763E-036
 -1.520000000000000E-002   -3.057010725978121E-036
 -1.510000000000000E-002    7.546705652559790E-037
 -1.500000000000000E-002    6.085939077736814E-036
 -1.490000000000000E-002    1.274327221775418E-035
 -1.480000000000000E-002    2.023954595469988E-035
 -1.470000000000000E-002    2.774737672960961E-035
 -1.460000000000000E-002    3.408737437693883E-035
 -1.450000000000000E-002    3.776784061429829E-035
 -1.440000000000000E-002    3.709099815168154E-035
 -1.430000000000000E-002    3.033634176835199E-035
 -1.420000000000000E-002    1.602370959594048E-035
 -1.410000000000000E-002   -6.753052853096031E-036
 -1.400000000000000E-002   -3.794602663302004E-035
 -1.390000000000000E-002   -7.616820738838222E-035
 -1.380000000000000E-002   -1.183625888458424E-034
 -1.370000000000000E-002   -1.595996494583478E-034
 -1.360000000000000E-002   -1.930871446892754E-034
 -1.350000000000000E-002   -2.104761288186133E-034
 -1.340000000000000E-002   -2.025337200323590E-034
 -1.330000000000000E-002   -1.602236841948539E-034
 -1.320000000000000E-002   -7.618760088844752E-035
 -1.310000000000000E-002    5.344582454787996E-035
 -1.300000000000000E-002    2.270759652008835E-034
 -1.290000000000000E-002    4.357093808978215E-034
 -1.280000000000000E-002    6.614261139955237E-034
 -1.270000000000000E-002    8.766210894826446E-034
 -1.260000000000000E-002    1.044438814384304E-033
 -1.250000000000000E-002    1.120795263118764E-033
 -1.240000000000000E-002    1.058287967540724E-033
 -1.230000000000000E-002    8.121177355183668E-034
 -1.220000000000000E-002    3.478853826051640E-034
 -1.210000000000000E-002   -3.492140017729101E-034
 -1.200000000000000E-002   -1.264669323843714E-033
 -1.190000000000000E-002   -2.345682383548015E-033
 -1.180000000000000E-002   -3.494586439310547E-033
 -1.170000000000000E-002   -4.566544874171115E-033
 -1.160000000000000E-002   -5.373469684266484E-033
 -1.150000000000000E-002   -5.695873302603699E-033
 -1.140000000000000E-002   -5.303809043562416E-033
 -1.130000000000000E-002   -3.987100245446268E-033
 -1.120000000000000E-002   -1.593745787583614E-033
 -1.110000000000000E-002    1.926242381771286E-033
 -1.100000000000000E-002    6.476117165109262E-033
 -1.090000000000000E-002    1.177309686206704E-032
 -1.080000000000000E-002    1.732226497566267E-032
 -1.070000000000000E-002    2.241223617192040E-032
 -1.060000000000000E-002    2.614099724466890E-032
 -1.050000000000000E-002    2.747883886834289E-032
 -1.040000000000000E-002    2.537225466252509E-032
 -1.030000000000000E-002    1.888802924810779E-032
 -1.020000000000000E-002    7.390569884978729E-033
 -1.010000000000000E-002   -9.261745205811020E-033
 -1.000000000000000E-002   -3.052314768464925E-032
 -9.899999999999999E-003   -5.499900659488534E-032
 -9.800000000000000E-003   -8.035069221950168E-032
 -9.699999999999999E-003   -1.033032545975463E-031
 -9.599999999999999E-003   -1.197898323647319E-031
 -9.500000000000000E-003   -1.252585652180197E-031
 -9.399999999999999E-003   -1.151528685717476E-031
 -9.299999999999999E-003   -8.555473576555116E-032
 -9.200000000000000E-003   -3.395386098472246E-032
 -9.099999999999999E-003    3.992516886844137E-032
 -8.999999999999999E-003    1.333358471329280E-031
 -8.900000000000000E-003    2.398880256494344E-031
 -8.799999999999999E-003    3.492339971067420E-031
 -8.699999999999999E-003    4.472075845604269E-031
 -8.600000000000000E-003    5.165447741119691E-031
 -8.499999999999999E-003    5.382727591088558E-031
 -8.399999999999999E-003    4.937891104807183E-031
 -8.300000000000000E-003    3.675608798576220E-031
 -8.199999999999999E-003    1.502649877760592E-031
 -8.100000000000000E-003   -1.579289251243556E-031
 -8.000000000000000E-003   -5.443457335141317E-031
 -7.899999999999999E-003   -9.815673772587224E-031
 -7.800000000000000E-003   -1.426525783924767E-030
 -7.699999999999999E-003   -1.821471005940638E-030
 -7.599999999999999E-003   -2.097263605761814E-030
 -7.499999999999999E-003   -2.179261422737413E-030
 -7.399999999999999E-003   -1.995787865288392E-030
 -7.299999999999999E-003   -1.488811480859795E-030
 -7.199999999999999E-003   -6.260451317558958E-031
 -7.100000000000000E-003    5.867664495619421E-031
 -6.999999999999999E-003    2.094999559967889E-030
 -6.899999999999999E-003    3.787668005963948E-030
 -6.800000000000000E-003    5.495342215626892E-030
 -6.699999999999999E-003    6.995382215402427E-030
 -6.599999999999999E-003    8.025956375362045E-030
 -6.499999999999999E-003    8.309552360963170E-030
 -6.399999999999999E-003    7.585600416574768E-030
 -6.299999999999999E-003    5.650466099914309E-030
 -6.199999999999999E-003    2.401550623728806E-030
 -6.100000000000000E-003   -2.119276057753150E-030
 -5.999999999999999E-003   -7.688990235041366E-030
 -5.899999999999999E-003   -1.388040275500454E-029
 -5.800000000000000E-003   -2.005989056564384E-029
 -5.699999999999999E-003   -2.541217596713180E-029
 -5.599999999999999E-003   -2.899657563356169E-029
 -5.499999999999999E-003   -2.983617651486481E-029
 -5.399999999999999E-003   -2.703732523367788E-029
 -5.299999999999999E-003   -1.993199896831368E-029
 -5.199999999999999E-003   -8.230399867743296E-030
 -5.099999999999999E-003    7.833789311469543E-030
 -4.999999999999999E-003    2.738702507031311E-029
 -4.899999999999999E-003    4.885212803297390E-029
 -4.799999999999999E-003    6.996030898861272E-029
 -4.699999999999999E-003    8.785849940334391E-029
 -4.599999999999999E-003    9.932417554740381E-029
 -4.499999999999999E-003    1.010886822901332E-028
 -4.399999999999999E-003    9.025590792893375E-029
 -4.299999999999999E-003    6.478675652378267E-029
 -4.199999999999999E-003    2.400294785168777E-029
 -4.099999999999999E-003   -3.095164815101769E-029
 -3.999999999999999E-003   -9.676496804231636E-029
 -3.899999999999999E-003   -1.678034360500762E-028
 -3.799999999999999E-003   -2.362238560002335E-028
 -3.699999999999999E-003   -2.924075405844391E-028
 -3.599999999999999E-003   -3.257459201302597E-028
 -3.499999999999999E-003   -3.257682312730641E-028
 -3.399999999999999E-003   -2.835539946899679E-028
 -3.299999999999999E-003   -1.933195863560492E-028
 -3.199999999999999E-003   -5.401596343648008E-029
 -3.099999999999999E-003    1.292701803156018E-028
 -2.999999999999999E-003    3.443490933313019E-028
 -2.899999999999999E-003    5.716363362568830E-028
 -2.799999999999999E-003    7.847546620081821E-028
 -2.699999999999999E-003    9.521853901081501E-028
 -2.599999999999999E-003    1.040029247321046E-027
 -2.499999999999999E-003    1.015805609982198E-027
 -2.399999999999999E-003    8.530653477531274E-028
 -2.299999999999999E-003    5.364259672553451E-028
 -2.199999999999999E-003    6.648156053033216E-029
 -2.099999999999999E-003   -5.360860208752502E-028
 -1.999999999999999E-003   -1.227936424109754E-027
 -1.899999999999999E-003   -1.942775631822750E-027
 -1.799999999999999E-003   -2.593963715789345E-027
 -1.699999999999999E-003   -3.080431946514825E-027
 -1.599999999999999E-003   -3.295997535269122E-027
 -1.499999999999999E-003   -3.141742201622485E-027
 -1.399999999999999E-003   -2.540640150547363E-027
 -1.299999999999999E-003   -1.453124494508033E-027
 -1.199999999999999E-003    1.081706272138945E-028
 -1.099999999999999E-003    2.066593768365893E-027
 -9.999999999999989E-004    4.274843935516619E-027
 -8.999999999999990E-004    6.515677100533574E-027
 -7.999999999999990E-004    8.511706577490467E-027
 -6.999999999999989E-004    9.945334461952401E-027
 -5.999999999999990E-004    1.048881565344688E-026
 -4.999999999999989E-004    9.843160142170023E-027
 -3.999999999999989E-004    7.783153123059257E-027
 -2.999999999999989E-004    4.204318893664879E-027
 -1.999999999999989E-004   -8.336128357102615E-028
 -9.999999999999892E-005   -7.073061918949784E-027
  1.084202172485504E-018   -1.404141028085992E-026
  1.000000000000011E-004   -2.105643508378197E-026
  2.000000000000011E-004   -2.725919696823090E-026
  3.000000000000011E-004   -3.167692605489694E-026
  4.000000000000011E-004   -3.331535792283433E-026
  5.000000000000011E-004   -3.127610541275342E-026
  6.000000000000011E-004   -2.489058063506079E-026
  7.000000000000011E-004   -1.385785072531597E-026
  8.000000000000011E-004    1.629603862242888E-027
  9.000000000000012E-004    2.079057825546482E-026
  1.000000000000001E-003    4.220903783405075E-026
  1.100000000000001E-003    6.385451601272386E-026
  1.200000000000001E-003    8.318191076020893E-026
  1.300000000000001E-003    9.731707322474885E-026
  1.400000000000001E-003    1.033253318276014E-025
  1.500000000000001E-003    9.854959996398997E-026
  1.600000000000001E-003    8.099302690155244E-026
  1.700000000000001E-003    4.971015510077815E-026
  1.800000000000001E-003    5.161432745447423E-027
  1.900000000000001E-003   -5.051968143852525E-026
  2.000000000000001E-003   -1.133988649765276E-025
  2.100000000000001E-003   -1.777983367367238E-025
  2.200000000000001E-003   -2.365740485198184E-025
  2.300000000000001E-003   -2.816280213442373E-025
  2.400000000000001E-003   -3.046463283386259E-025
  2.500000000000001E-003   -2.980247241422572E-025
  2.600000000000001E-003   -2.559125908949678E-025
  2.700000000000001E-003   -1.752776015242365E-025
  2.800000000000001E-003   -5.686961503480413E-026
  2.900000000000001E-003    9.405112248029918E-026
  3.000000000000001E-003    2.673571612838308E-025
  3.100000000000001E-003    4.481889401801059E-025
  3.200000000000001E-003    6.176689221021175E-025
  3.300000000000001E-003    7.542323210066592E-025
  3.400000000000001E-003    8.355462137581855E-025
  3.500000000000001E-003    8.409147121469405E-025
  3.600000000000001E-003    7.539893653658722E-025
  3.700000000000001E-003    5.655307514340025E-025
  3.800000000000001E-003    2.759107806755864E-025
  3.900000000000001E-003   -1.029877798730736E-025
  4.000000000000001E-003   -5.468167831222024E-025
  4.100000000000001E-003   -1.019051911400926E-024
  4.200000000000001E-003   -1.472738820743985E-024
  4.300000000000001E-003   -1.853783066346065E-024
  4.400000000000001E-003   -2.105703624579471E-024
  4.500000000000001E-003   -2.175588226587764E-024
  4.600000000000002E-003   -2.020792135120161E-024
  4.700000000000001E-003   -1.615752669872743E-024
  4.800000000000001E-003   -9.581498407731958E-025
  4.900000000000002E-003   -7.357847962891385E-026
  5.000000000000001E-003    9.820941393229398E-025
  5.100000000000001E-003    2.123395472080149E-024
  5.200000000000001E-003    3.239435391296538E-024
  5.300000000000002E-003    4.201793290210869E-024
  5.400000000000001E-003    4.875881670956382E-024
  5.500000000000001E-003    5.135128354149776E-024
  5.600000000000002E-003    4.876849543894997E-024
  5.700000000000001E-003    4.038299115050848E-024
  5.800000000000001E-003    2.611058628439246E-024
  5.900000000000002E-003    6.518021433282689E-025
  6.000000000000001E-003   -1.712485674717564E-024
  6.100000000000001E-003   -4.286458611538249E-024
  6.200000000000002E-003   -6.816601589318794E-024
  6.300000000000002E-003   -9.009992728496168E-024
  6.400000000000001E-003   -1.056100788022660E-023
  6.500000000000001E-003   -1.118429985819676E-023
  6.600000000000002E-003   -1.065134931630324E-023
  6.700000000000001E-003   -8.826961982902519E-024
  6.800000000000001E-003   -5.701451584823547E-024
  6.900000000000002E-003   -1.413950260006223E-024
  7.000000000000001E-003    3.737457247858826E-024
  7.100000000000001E-003    9.302389378598640E-024
  7.200000000000002E-003    1.470381939065186E-023
  7.300000000000002E-003    1.928318221888751E-023
  7.400000000000001E-003    2.236316293382374E-023
  7.500000000000001E-003    2.332396777088509E-023
  7.600000000000002E-003    2.168658193604067E-023
  7.700000000000001E-003    1.719447744028573E-023
  7.800000000000001E-003    9.883875908333947E-024
  7.900000000000001E-003    1.322269123041540E-025
  8.000000000000002E-003   -1.132479635854303E-023
  8.100000000000001E-003   -2.341551232190231E-023
  8.200000000000001E-003   -3.479816967308745E-023
  8.300000000000002E-003   -4.397092700214015E-023
  8.400000000000001E-003   -4.942087710984272E-023
  8.500000000000002E-003   -4.980184341634149E-023
  8.600000000000002E-003   -4.412525888792809E-023
  8.700000000000001E-003   -3.194407935126881E-023
  8.800000000000002E-003   -1.350690819275220E-023
  8.900000000000002E-003    1.014134026429508E-023
  9.000000000000001E-003    3.713388074700890E-023
  9.100000000000002E-003    6.484845677099433E-023
  9.200000000000002E-003    9.007496711614709E-023
  9.300000000000001E-003    1.092835207480702E-022
  9.400000000000002E-003    1.189801351918485E-022
  9.500000000000001E-003    1.161249669786998E-022
  9.600000000000001E-003    9.857600321108347E-023
  9.700000000000002E-003    6.551135595793656E-023
  9.800000000000001E-003    1.777728836359283E-023
  9.900000000000001E-003   -4.189200290254389E-023
  1.000000000000000E-002   -1.088320866303017E-022
  1.010000000000000E-002   -1.766211538459410E-022
  1.020000000000000E-002   -2.374877736331584E-022
  1.030000000000000E-002   -2.829504061538692E-022
  1.040000000000000E-002   -3.046579421063553E-022
  1.050000000000000E-002   -2.953724181640907E-022
  1.060000000000000E-002   -2.500080530306460E-022
  1.070000000000000E-002   -1.666187379852023E-022
  1.080000000000000E-002   -4.721231075282835E-023
  1.090000000000000E-002    1.017312638894503E-022
  1.100000000000000E-002    2.691516081013223E-022
  1.110000000000000E-002    4.397949778652988E-022
  1.120000000000000E-002    5.951433518363982E-022
  1.130000000000000E-002    7.148795664588329E-022
  1.140000000000000E-002    7.788205854297208E-022
  1.150000000000000E-002    7.691875722871132E-022
  1.160000000000000E-002    6.730202399501449E-022
  1.170000000000000E-002    4.844924631301326E-022
  1.180000000000000E-002    2.068560429680475E-022
  1.190000000000000E-002   -1.462690405201250E-022
  1.200000000000000E-002   -5.505162159101967E-022
  1.210000000000000E-002   -9.715047474505969E-022
  1.220000000000000E-002   -1.366801017453391E-021
  1.230000000000000E-002   -1.689103577683978E-021
  1.240000000000000E-002   -1.890518117042181E-021
  1.250000000000000E-002   -1.927642524344349E-021
  1.260000000000000E-002   -1.767047621198327E-021
  1.270000000000000E-002   -1.390622889075040E-021
  1.280000000000000E-002   -8.001859501062925E-022
  1.290000000000000E-002   -2.072750466468697E-023
  1.300000000000000E-002    8.982891435212255E-022
  1.310000000000000E-002    1.884043042617947E-021
  1.320000000000000E-002    2.844167575972600E-021
  1.330000000000000E-002    3.673299885459110E-021
  1.340000000000000E-002    4.262119516551821E-021
  1.350000000000000E-002    4.508310812941903E-021
  1.360000000000000E-002    4.328594303962426E-021
  1.370000000000000E-002    3.670708660666320E-021
  1.380000000000000E-002    2.524047893670198E-021
  1.390000000000000E-002    9.276028939697200E-022
  1.400000000000000E-002   -1.026080471021068E-021
  1.410000000000000E-002   -3.191998197779267E-021
  1.420000000000000E-002   -5.379521700035301E-021
  1.430000000000000E-002   -7.365166923189659E-021
  1.440000000000000E-002   -8.910879877118913E-021
  1.450000000000000E-002   -9.786762628512804E-021
  1.460000000000000E-002   -9.796522836353443E-021
  1.470000000000000E-002   -8.803376098601201E-021
  1.480000000000000E-002   -6.753713439119331E-021
  1.490000000000000E-002   -3.695669452477751E-021
  1.500000000000000E-002    2.101643726244849E-022
  1.510000000000000E-002    4.690225472676311E-021
  1.520000000000000E-002    9.369317788544581E-021
  1.530000000000000E-002    1.379437885554829E-020
  1.540000000000000E-002    1.747008507498702E-020
  1.550000000000000E-002    1.990432427329470E-020
  1.560000000000000E-002    2.066019698501159E-020
  1.570000000000000E-002    1.941005131080994E-020
  1.580000000000000E-002    1.598613532350117E-020
  1.590000000000000E-002    1.042197123840590E-020
  1.600000000000000E-002    2.978744086606798E-021
  1.610000000000000E-002   -5.848386372895176E-021
  1.620000000000000E-002   -1.534764688369876E-020
  1.630000000000000E-002   -2.463337842023169E-020
  1.640000000000000E-002   -3.271334482120494E-020
  1.650000000000000E-002   -3.857712693205019E-020
  1.660000000000000E-002   -4.129933919658150E-020
  1.670000000000000E-002   -4.014891294962409E-020
  1.680000000000000E-002   -3.469379074106844E-020
  1.690000000000000E-002   -2.488926861674084E-020
  1.700000000000000E-002   -1.113830834036964E-020
  1.710000000000000E-002    5.686674366792948E-021
  1.720000000000000E-002    2.426834134866400E-020
  1.730000000000000E-002    4.291936352753308E-020
  1.740000000000000E-002    5.970706306381097E-020
  1.750000000000000E-002    7.262166700089746E-020
  1.760000000000000E-002    7.977660480495744E-020
  1.770000000000000E-002    7.962417247780246E-020
  1.780000000000000E-002    7.116594557741184E-020
  1.790000000000000E-002    5.413488674443180E-020
  1.800000000000000E-002    2.912590368488589E-020
  1.810000000000000E-002   -2.346284936549847E-021
  1.820000000000000E-002   -3.787838700734775E-020
  1.830000000000000E-002   -7.430784733757609E-020
  1.840000000000000E-002   -1.079405887501819E-019
  1.850000000000000E-002   -1.348665970253283E-019
  1.860000000000000E-002   -1.513421963968286E-019
  1.870000000000000E-002   -1.542078221786142E-019