 -4.000000000000000E-002    0.000000000000000E+000
 -3.990000000000000E-002    0.000000000000000E+000
 -3.980000000000000E-002    0.000000000000000E+000
 -3.970000000000000E-002    0.000000000000000E+000
 -3.960000000000000E-002    0.000000000000000E+000
 -3.950000000000000E-002    0.000000000000000E+000
 -3.940000000000000E-002    0.000000000000000E+000
 -3.930000000000000E-002   -5.623923414255082E-028
 -3.920000000000000E-002   -7.660248746248144E-027
 -3.910000000000000E-002   -5.455539450623126E-026
 -3.900000000000000E-002   -2.687500957105277E-025
 -3.890000000000000E-002   -1.020663570057027E-024
 -3.880000000000000E-002   -3.149047803574209E-024
 -3.870000000000000E-002   -8.072459122650775E-024
 -3.860000000000000E-002   -1.711549076947048E-023
 -3.850000000000000E-002   -2.841707817462803E-023
 -3.840000000000000E-002   -2.821144128536219E-023
 -3.830000000000000E-002    2.885012733067178E-023
 -3.820000000000000E-002    2.577967622341289E-022
 -3.810000000000000E-002    9.081943759272510E-022
 -3.800000000000000E-002    2.461502535222162E-021
 -3.790000000000000E-002    5.757347243381273E-021
 -3.780000000000000E-002    1.212500890618621E-020
 -3.770000000000000E-002    2.346259457404092E-020
 -3.760000000000000E-002    4.215601721858643E-020
 -3.750000000000000E-002    7.066733974837432E-020
 -3.740000000000000E-002    1.105560221307213E-019
 -3.730000000000000E-002    1.606476718728052E-019
 -3.720000000000000E-002    2.140627743306155E-019
 -3.710000000000000E-002    2.539069655504630E-019
 -3.700000000000000E-002    2.476419994077570E-019
 -3.690000000000000E-002    1.405615726013448E-019
 -3.680000000000000E-002   -1.506015449996838E-019
 -3.670000000000000E-002   -7.421236745656520E-019
 -3.660000000000000E-002   -1.783061376476649E-018
 -3.650000000000000E-002   -3.446699692114385E-018
 -3.640000000000000E-002   -5.909411076707548E-018
 -3.630000000000000E-002   -9.312517478019245E-018
 -3.620000000000000E-002   -1.370355513034153E-017
 -3.610000000000000E-002   -1.895543112710360E-017
 -3.600000000000000E-002   -2.466553235365342E-017
 -3.590000000000000E-002   -3.004209732303088E-017
 -3.580000000000000E-002   -3.379224309414595E-017
 -3.570000000000000E-002   -3.403327244460600E-017
 -3.560000000000000E-002   -2.825719098334105E-017
 -3.550000000000000E-002   -1.338413104949173E-017
 -3.540000000000000E-002    1.405631809553133E-017
 -3.530000000000000E-002    5.757987560492204E-017
 -3.520000000000000E-002    1.202124442363813E-016
 -3.510000000000000E-002    2.037580709227238E-016
 -3.500000000000000E-002    3.078919311478984E-016
 -3.490000000000000E-002    4.291386421086446E-016
 -3.480000000000000E-002    5.598397025354764E-016
 -3.470000000000000E-002    6.872609477258316E-016
 -3.460000000000000E-002    7.930323601630063E-016
 -3.450000000000000E-002    8.531363440813240E-016
 -3.440000000000000E-002    8.386740167824829E-016
 -3.430000000000000E-002    7.176017600387150E-016
 -3.420000000000000E-002    4.575720433001152E-016
 -3.410000000000000E-002    2.989805295211055E-017
 -3.400000000000000E-002   -5.854888020088553E-016
 -3.390000000000000E-002   -1.394405204397488E-015
 -3.380000000000000E-002   -2.382624505017090E-015
 -3.370000000000000E-002   -3.510642169663177E-015
 -3.360000000000000E-002   -4.709878395053091E-015
 -3.350000000000000E-002   -5.881275963518568E-015
 -3.340000000000000E-002   -6.897228199843340E-015
 -3.330000000000000E-002   -7.607644531378858E-015
 -3.320000000000000E-002   -7.850601581085910E-015
 -3.310000000000000E-002   -7.467595379877087E-015
 -3.300000000000000E-002   -6.322772871064050E-015
 -3.290000000000000E-002   -4.324800071976384E-015
 -3.280000000000000E-002   -1.449326307825572E-015
 -3.270000000000000E-002    2.240728229547608E-015
 -3.260000000000000E-002    6.580267429887232E-015
 -3.250000000000000E-002    1.129598793737551E-014
 -3.240000000000000E-002    1.601236392589529E-014
 -3.230000000000000E-002    2.027232593249707E-014
 -3.220000000000000E-002    2.357379446681054E-014
 -3.210000000000000E-002    2.542179682170908E-014
 -3.200000000000000E-002    2.539351758418223E-014
 -3.190000000000000E-002    2.321132004447581E-014
 -3.180000000000000E-002    1.881640483239024E-014
 -3.170000000000000E-002    1.243350939959001E-014
 -3.160000000000000E-002    4.615869108803319E-015
 -3.150000000000000E-002   -3.740999388376117E-015
 -3.140000000000000E-002   -1.142712470155220E-014
 -3.130000000000000E-002   -1.699552486835126E-014
 -3.120000000000000E-002   -1.889302600138306E-014
 -3.110000000000000E-002   -1.564279694619617E-014
 -3.100000000000000E-002   -6.069762492827922E-015
 -3.090000000000000E-002    1.044728536922277E-014
 -3.080000000000000E-002    3.372098455169500E-014
 -3.070000000000000E-002    6.252816836639419E-014
 -3.060000000000000E-002    9.444550548542519E-014
 -3.050000000000000E-002    1.257845037937315E-013
 -3.040000000000000E-002    1.516597871061350E-013
 -3.030000000000000E-002    1.662183513580666E-013
 -3.020000000000000E-002    1.630449371531620E-013
 -3.010000000000000E-002    1.357426417149721E-013
 -3.000000000000000E-002    7.866816688459500E-014
 -2.990000000000000E-002   -1.222215261644632E-014
 -2.980000000000000E-002   -1.384810554981213E-013
 -2.970000000000000E-002   -2.983201616428026E-013
 -2.960000000000000E-002   -4.859029335872150E-013
 -2.950000000000000E-002   -6.908893004572003E-013
 -2.940000000000000E-002   -8.983385449507452E-013
 -2.930000000000000E-002   -1.089061743149267E-012
 -2.920000000000000E-002   -1.240487148398232E-012
 -2.910000000000000E-002   -1.328061472875575E-012
 -2.900000000000000E-002   -1.327156661151825E-012
 -2.890000000000000E-002   -1.215397684552486E-012
 -2.880000000000000E-002   -9.752584894624769E-013
 -2.870000000000000E-002   -5.967258061792788E-013
 -2.860000000000000E-002   -7.977121194986513E-014
 -2.850000000000000E-002    5.636424581191310E-013
 -2.840000000000000E-002    1.308311475893233E-012
 -2.830000000000000E-002    2.115561017628490E-012
 -2.820000000000000E-002    2.934233503931639E-012
 -2.810000000000000E-002    3.703023220239333E-012
 -2.800000000000000E-002    4.354153439974273E-012
 -2.790000000000000E-002    4.818266658708957E-012
 -2.780000000000000E-002    5.030251662511862E-012
 -2.770000000000000E-002    4.935590244220257E-012
 -2.760000000000000E-002    4.496687149186164E-012
 -2.750000000000000E-002    3.698564788511069E-012
 -2.740000000000000E-002    2.553272392747090E-012
 -2.730000000000000E-002    1.102380286357612E-012
 -2.720000000000000E-002   -5.829479145897730E-013
 -2.710000000000000E-002   -2.404666064572329E-012
 -2.700000000000000E-002   -4.243457995473015E-012
 -2.690000000000000E-002   -5.967085212130277E-012
 -2.680000000000000E-002   -7.441010584979950E-012
 -2.670000000000000E-002   -8.540530042156909E-012
 -2.660000000000000E-002   -9.163389930295627E-012
 -2.650000000000000E-002   -9.241666241517795E-012
 -2.640000000000000E-002   -8.751597582298621E-012
 -2.630000000000000E-002   -7.720106940285774E-012
 -2.620000000000000E-002   -6.226898279646931E-012
 -2.610000000000000E-002   -4.401354018107559E-012
 -2.600000000000000E-002   -2.413895730940900E-012
 -2.590000000000000E-002   -4.619877822668612E-013
 -2.580000000000000E-002    1.248404458539452E-012
 -2.570000000000000E-002    2.524543665948710E-012
 -2.560000000000000E-002    3.209935049865709E-012
 -2.550000000000000E-002    3.206342414067576E-012
 -2.540000000000000E-002    2.492333141617581E-012
 -2.530000000000000E-002    1.135891030065234E-012
 -2.520000000000000E-002   -7.009995003857632E-013
 -2.510000000000000E-002   -2.767434473448332E-012
 -2.500000000000000E-002   -4.739032191025819E-012
 -2.490000000000000E-002   -6.243552838907538E-012
 -2.480000000000000E-002   -6.895373924884007E-012
 -2.470000000000000E-002   -6.336396817810939E-012
 -2.460000000000000E-002   -4.279991196698043E-012
 -2.450000000000000E-002   -5.538593475706769E-013
 -2.440000000000000E-002    4.862785537879669E-012
 -2.430000000000000E-002    1.181223382295820E-011
 -2.420000000000000E-002    1.994563496499125E-011
 -2.410000000000000E-002    2.872779964634760E-011
 -2.400000000000000E-002    3.746126225838521E-011
 -2.390000000000000E-002    4.532967279226042E-011
 -2.380000000000000E-002    5.145866510261651E-011
 -2.370000000000000E-002    5.499043022105838E-011
 -2.360000000000000E-002    5.516637084048950E-011
 -2.350000000000000E-002    5.141083242730939E-011
 -2.340000000000000E-002    4.340794478002909E-011
 -2.330000000000000E-002    3.116339780084742E-011
 -2.320000000000000E-002    1.504354819636467E-011
 -2.310000000000000E-002   -4.214540908167115E-012
 -2.300000000000000E-002   -2.552624210890445E-011
 -2.290000000000000E-002   -4.751720096333059E-011
 -2.280000000000000E-002   -6.861424516374583E-011
 -2.270000000000000E-002   -8.716431252705353E-011
 -2.260000000000000E-002   -1.015733173665298E-010
 -2.250000000000000E-002   -1.104539478555192E-010
 -2.240000000000000E-002   -1.127695784343043E-010
 -2.230000000000000E-002   -1.079602430335755E-010
 -2.220000000000000E-002   -9.603731308579328E-011
 -2.210000000000000E-002   -7.763422762128005E-011
 -2.200000000000000E-002   -5.400460816085025E-011
 -2.190000000000000E-002   -2.696174295521978E-011
 -2.180000000000000E-002    1.240323104198081E-012
 -2.170000000000000E-002    2.807966370226926E-011
 -2.160000000000000E-002    5.098229675881029E-011
 -2.150000000000000E-002    6.756545261701877E-011
 -2.140000000000000E-002    7.588818647469923E-011
 -2.130000000000000E-002    7.468651658961003E-011
 -2.120000000000000E-002    6.356918790805306E-011
 -2.110000000000000E-002    4.315120121406067E-011
 -2.100000000000000E-002    1.510542138161870E-011
 -2.090000000000000E-002   -1.788154111875338E-011
 -2.080000000000000E-002   -5.225622073592974E-011
 -2.070000000000000E-002   -8.384564942976435E-011
 -2.060000000000000E-002   -1.081934349592164E-010
 -2.050000000000000E-002   -1.209631774004157E-010
 -2.040000000000000E-002   -1.183790862928952E-010
 -2.030000000000000E-002   -9.766655005627784E-011
 -2.020000000000000E-002   -5.745143095687622E-011
 -2.010000000000000E-002    1.924440616006172E-012
 -2.000000000000000E-002    7.821042112035497E-011
 -1.990000000000000E-002    1.672098439893896E-010
 -1.980000000000000E-002    2.629189828323423E-010
 -1.970000000000000E-002    3.578499045309699E-010
 -1.960000000000000E-002    4.435276017404569E-010
 -1.950000000000000E-002    5.111345544559277E-010
 -1.940000000000000E-002    5.522588404164023E-010
 -1.930000000000000E-002    5.596870969550217E-010
 -1.920000000000000E-002    5.281733661792444E-010
 -1.910000000000000E-002    4.551093101413695E-010
 -1.900000000000000E-002    3.410224054928682E-010
 -1.890000000000000E-002    1.898382159881003E-010
 -1.880000000000000E-002    8.858983615176152E-012
 -1.870000000000000E-002   -1.915685308217970E-010
 -1.860000000000000E-002   -3.986925343355289E-010
 -1.850000000000000E-002   -5.982722463871825E-010
 -1.840000000000000E-002   -7.757074223868103E-010
 -1.830000000000000E-002   -9.172926569980728E-010
 -1.820000000000000E-002   -1.011484941467134E-009
 -1.810000000000000E-002   -1.050063213129982E-009
 -1.800000000000000E-002   -1.029056049783277E-009
 -1.790000000000000E-002   -9.493257029206947E-010
 -1.780000000000000E-002   -8.167232485442846E-010
 -1.770000000000000E-002   -6.417621498314312E-010
 -1.760000000000000E-002   -4.388044469763034E-010
 -1.750000000000000E-002   -2.248037024377848E-010
 -1.740000000000000E-002   -1.769714386889315E-011
 -1.730000000000000E-002    1.654123458647252E-010
 -1.720000000000000E-002    3.101119555850238E-010
 -1.710000000000000E-002    4.063774921009412E-010
 -1.700000000000000E-002    4.499195149651839E-010
 -1.690000000000000E-002    4.430009771875964E-010
 -1.680000000000000E-002    3.945907058533609E-010
 -1.670000000000000E-002    3.197737132246339E-010
 -1.660000000000000E-002    2.384147501387519E-010
 -1.650000000000000E-002    1.731484268067640E-010
 -1.640000000000000E-002    1.468509941047266E-010
 -1.630000000000000E-002    1.798188388481927E-010
 -1.620000000000000E-002    2.869328666986890E-010
 -1.610000000000000E-002    4.751159993210134E-010
 -1.600000000000000E-002    7.413908696056503E-010
 -1.590000000000000E-002    1.071809805967159E-009
 -1.580000000000000E-002    1.441463423540411E-009
 -1.570000000000000E-002    1.815680048663934E-009
 -1.560000000000000E-002    2.152414271856651E-009
 -1.550000000000000E-002    2.405696105070236E-009
 -1.540000000000000E-002    2.529893162186603E-009
 -1.530000000000000E-002    2.484429260232181E-009
 -1.520000000000000E-002    2.238523260695924E-009
 -1.510000000000000E-002    1.775475562926418E-009
 -1.500000000000000E-002    1.096032954351733E-009
 -1.490000000000000E-002    2.204159168840700E-010
 -1.480000000000000E-002   -8.113001703228261E-010
 -1.470000000000000E-002   -1.940625191063377E-009
 -1.460000000000000E-002   -3.093912609665993E-009
 -1.450000000000000E-002   -4.187258194041975E-009
 -1.440000000000000E-002   -5.132685276266131E-009
 -1.430000000000000E-002   -5.845108554668384E-009
 -1.420000000000000E-002   -6.249467096884648E-009
 -1.410000000000000E-002   -6.287360061267355E-009
 -1.400000000000000E-002   -5.922532291199344E-009
 -1.390000000000000E-002   -5.144645699945795E-009
 -1.380000000000000E-002   -3.970899902574356E-009
 -1.370000000000000E-002   -2.445282971614271E-009
 -1.360000000000000E-002   -6.354426850188675E-010
 -1.350000000000000E-002    1.372583927352188E-009
 -1.340000000000000E-002    3.481311505027498E-009
 -1.330000000000000E-002    5.589767478678135E-009
 -1.320000000000000E-002    7.601690570984112E-009
 -1.310000000000000E-002    9.433129305651757E-009
 -1.300000000000000E-002    1.101864224533594E-008
 -1.290000000000000E-002    1.231542016482838E-008
 -1.280000000000000E-002    1.330485160473032E-008
 -1.270000000000000E-002    1.399131072666451E-008
 -1.260000000000000E-002    1.439825110838171E-008
 -1.250000000000000E-002    1.456198288860707E-008
 -1.240000000000000E-002    1.452379293519040E-008
 -1.230000000000000E-002    1.432128906631437E-008
 -1.220000000000000E-002    1.397998855388216E-008
 -1.210000000000000E-002    1.350619669521314E-008
 -1.200000000000000E-002    1.288216784305300E-008
 -1.190000000000000E-002    1.206433495082823E-008
 -1.180000000000000E-002    1.098514103192831E-008
 -1.170000000000000E-002    9.558641009354482E-009
 -1.160000000000000E-002    7.689668427814709E-009
 -1.150000000000000E-002    5.285998489257940E-009
 -1.140000000000000E-002    2.272551833721309E-009
 -1.130000000000000E-002   -1.393517970658043E-009
 -1.120000000000000E-002   -5.708218397807777E-009
 -1.110000000000000E-002   -1.060793049702811E-008
 -1.100000000000000E-002   -1.595971213011092E-008
 -1.090000000000000E-002   -2.155569906910507E-008
 -1.080000000000000E-002   -2.711223770897553E-008
 -1.070000000000000E-002   -3.227400007571967E-008
 -1.060000000000000E-002   -3.662278784089388E-008
 -1.050000000000000E-002   -3.969029405691336E-008
 -1.040000000000000E-002   -4.097378430167323E-008
 -1.030000000000000E-002   -3.995310544736126E-008
 -1.020000000000000E-002   -3.610740383041864E-008
 -1.010000000000000E-002   -2.893004250634956E-008
 -1.000000000000000E-002   -1.793992347142945E-008
 -9.899999999999999E-003   -2.688121629724147E-009
 -9.800000000000000E-003    1.724101168521824E-008
 -9.699999999999999E-003    4.223470787183366E-008
 -9.599999999999999E-003    7.266225030367105E-008
 -9.500000000000000E-003    1.088903814650210E-007
 -9.399999999999999E-003    1.513022777080305E-007
 -9.299999999999999E-003    2.003184887494750E-007
 -9.200000000000000E-003    2.564180023968959E-007
 -9.099999999999999E-003    3.201572497013077E-007
 -8.999999999999999E-003    3.921854896927545E-007
 -8.900000000000000E-003    4.732547649423803E-007
 -8.799999999999999E-003    5.642238153787079E-007
 -8.699999999999999E-003    6.660546115166232E-007
 -8.600000000000000E-003    7.798027782944504E-007
 -8.499999999999999E-003    9.066017004666536E-007
 -8.399999999999999E-003    1.047642347393712E-006
 -8.300000000000000E-003    1.204150407346396E-006
 -8.199999999999999E-003    1.377362882377047E-006
 -8.100000000000000E-003    1.568507127158395E-006
 -8.000000000000000E-003    1.778783364051348E-006
 -7.899999999999999E-003    2.009354043224969E-006
 -7.800000000000000E-003    2.261340701467201E-006
 -7.699999999999999E-003    2.535829286946445E-006
 -7.599999999999999E-003    2.833884460341194E-006
 -7.499999999999999E-003    3.156571881180550E-006
 -7.399999999999999E-003    3.504986939320793E-006
 -7.299999999999999E-003    3.880288096065985E-006
 -7.199999999999999E-003    4.283732895323026E-006
 -7.100000000000000E-003    4.716712486471619E-006
 -6.999999999999999E-003    5.180783894955400E-006
 -6.899999999999999E-003    5.677693684950099E-006
 -6.800000000000000E-003    6.209396464728468E-006
 -6.699999999999999E-003    6.778061375162591E-006
 -6.599999999999999E-003    7.386069616143576E-006
 -6.499999999999999E-003    8.035999871087437E-006
 -6.399999999999999E-003    8.730608756592732E-006
 -6.299999999999999E-003    9.472800956210449E-006
 -6.199999999999999E-003    1.026559899681043E-005
 -6.100000000000000E-003    1.111210862612814E-005
 -5.999999999999999E-003    1.201549296824165E-005
 -5.899999999999999E-003    1.297894650005831E-005
 -5.800000000000000E-003    1.400568758069158E-005
 -5.699999999999999E-003    1.509895462851418E-005
 -5.599999999999999E-003    1.626202252313185E-005
 -5.499999999999999E-003    1.749822599089717E-005
 -5.399999999999999E-003    1.881100136434015E-005
 -5.299999999999999E-003    2.020393545871124E-005
 -5.199999999999999E-003    2.168082753146681E-005
 -5.099999999999999E-003    2.324574241950753E-005
 -4.999999999999999E-003    2.490307879156840E-005
 -4.899999999999999E-003    2.665761640171828E-005
 -4.799999999999999E-003    2.851456597440108E-005
 -4.699999999999999E-003    3.047959661373152E-005
 -4.599999999999999E-003    3.255885561097891E-005
 -4.499999999999999E-003    3.475897222696604E-005
 -4.399999999999999E-003    3.708703580014896E-005
 -4.299999999999999E-003    3.955057577138042E-005
 -4.199999999999999E-003    4.215752505739478E-005
 -4.099999999999999E-003    4.491616628972459E-005
 -3.999999999999999E-003    4.783510250922978E-005
 -3.899999999999999E-003    5.092322234367490E-005
 -3.799999999999999E-003    5.418966182790999E-005
 -3.699999999999999E-003    5.764381041362061E-005
 -3.599999999999999E-003    6.129530597198282E-005
 -3.499999999999999E-003    6.515407701971745E-005
 -3.399999999999999E-003    6.923037859371455E-005
 -3.299999999999999E-003    7.353487322048719E-005
 -3.199999999999999E-003    7.807870522316969E-005
 -3.099999999999999E-003    8.287358669760852E-005
 -2.999999999999999E-003    8.793189569018956E-005
 -2.899999999999999E-003    9.326677835525569E-005
 -2.799999999999999E-003    9.889221930692727E-005
 -2.699999999999999E-003    1.048231074954636E-004
 -2.599999999999999E-003    1.110752848061470E-004
 -2.499999999999999E-003    1.176655833237886E-004
 -2.399999999999999E-003    1.246118231440715E-004
 -2.299999999999999E-003    1.319328101415143E-004
 -2.199999999999999E-003    1.396482915543189E-004
 -2.099999999999999E-003    1.477789214560492E-004
 -1.999999999999999E-003    1.563462461893100E-004
 -1.899999999999999E-003    1.653726408886985E-004
 -1.799999999999999E-003    1.748813020873496E-004
 -1.699999999999999E-003    1.848962106643140E-004
 -1.599999999999999E-003    1.954421482633819E-004
 -1.499999999999999E-003    2.065447711342086E-004
 -1.399999999999999E-003    2.182306324161826E-004
 -1.299999999999999E-003    2.305272766264631E-004
 -1.199999999999999E-003    2.434633372410078E-004
 -1.099999999999999E-003    2.570686658032699E-004
 -9.999999999999989E-004    2.713744211635365E-004
 -8.999999999999990E-004    2.864132835057234E-004
 -7.999999999999990E-004    3.022194401918158E-004
 -6.999999999999989E-004    3.188287738791882E-004
 -5.999999999999990E-004    3.362789801528014E-004
 -4.999999999999989E-004    3.546095326493965E-004
 -3.999999999999989E-004    3.738617893927165E-004
 -2.999999999999989E-004    3.940789975844391E-004
 -1.999999999999989E-004    4.153063552657892E-004
 -9.999999999999892E-005    4.375909692709187E-004
  1.084202172485504E-018    4.609817798318022E-004
  1.000000000000011E-004    4.855296939888865E-004
  2.000000000000011E-004    5.112874409188251E-004
  3.000000000000011E-004    5.383097044897050E-004
  4.000000000000011E-004    5.666530699490691E-004
  5.000000000000011E-004    5.963761777748435E-004
  6.000000000000011E-004    6.275396826683719E-004
  7.000000000000011E-004    6.602063820268115E-004
  8.000000000000011E-004    6.944413987322804E-004
  9.000000000000012E-004    7.303122034914849E-004
  1.000000000000001E-003    7.678887780717303E-004
  1.100000000000001E-003    8.072437438862801E-004
  1.200000000000001E-003    8.484524785344207E-004
  1.300000000000001E-003    8.915932254331909E-004
  1.400000000000001E-003    9.367472046860144E-004
  1.500000000000001E-003    9.839986967070116E-004
  1.600000000000001E-003    1.033435029384304E-003
  1.700000000000001E-003    1.085146794763097E-003
  1.800000000000001E-003    1.139227704283324E-003
  1.900000000000001E-003    1.195774807588729E-003
  2.000000000000001E-003    1.254888426036072E-003
  2.100000000000001E-003    1.316672234556850E-003
  2.200000000000001E-003    1.381233327517437E-003
  2.300000000000001E-003    1.448682296577001E-003
  2.400000000000001E-003    1.519133387501532E-003
  2.500000000000001E-003    1.592704409923724E-003
  2.600000000000001E-003    1.669516988869021E-003
  2.700000000000001E-003    1.749696613757248E-003
  2.800000000000001E-003    1.833372951846365E-003
  2.900000000000001E-003    1.920679765038278E-003
  3.000000000000001E-003    2.011755294177504E-003
  3.100000000000001E-003    2.106742037536128E-003
  3.200000000000001E-003    2.205787248913191E-003
  3.300000000000001E-003    2.309042749727056E-003
  3.400000000000001E-003    2.416665035535362E-003
  3.500000000000001E-003    2.528815390711950E-003
  3.600000000000001E-003    2.645660104430579E-003
  3.700000000000001E-003    2.767370206284966E-003
  3.800000000000001E-003    2.894121833697695E-003
  3.900000000000001E-003    3.026095544565369E-003
  4.000000000000001E-003    3.163477264638015E-003
  4.100000000000001E-003    3.306457485568331E-003
  4.200000000000001E-003    3.455231700252465E-003
  4.300000000000001E-003    3.610000364008553E-003
  4.400000000000001E-003    3.770969311616498E-003
  4.500000000000001E-003    3.938348873768900E-003
  4.600000000000002E-003    4.112355208488738E-003
  4.700000000000001E-003    4.293209188476966E-003
  4.800000000000001E-003    4.481137382995051E-003
  4.900000000000002E-003    4.676372525454130E-003
  5.000000000000001E-003    4.879151963294686E-003
  5.100000000000001E-003    5.089720051106598E-003
  5.200000000000001E-003    5.308325742236533E-003
  5.300000000000002E-003    5.535224910989717E-003
  5.400000000000001E-003    5.770679499235742E-003
  5.500000000000001E-003    6.014956963874106E-003
  5.600000000000002E-003    6.268331127946636E-003
  5.700000000000001E-003    6.531082397239540E-003
  5.800000000000001E-003    6.803496552742788E-003
  5.900000000000002E-003    7.085865456726759E-003
  6.000000000000001E-003    7.378486863579455E-003
  6.100000000000001E-003    7.681664328809725E-003
  6.200000000000002E-003    7.995707150195293E-003
  6.300000000000002E-003    8.320929975908812E-003
  6.400000000000001E-003    8.657652912030245E-003
  6.500000000000001E-003    9.006201089653164E-003
  6.600000000000002E-003    9.366906451566487E-003
  6.700000000000001E-003    9.740103967555912E-003
  6.800000000000001E-003    1.012613491623049E-002
  6.900000000000002E-003    1.052534584660736E-002
  7.000000000000001E-003    1.093808816625477E-002
  7.100000000000001E-003    1.136471809213646E-002
  7.200000000000002E-003    1.180559604274930E-002
  7.300000000000002E-003    1.226108902443950E-002
  7.400000000000001E-003    1.273156846105712E-002
  7.500000000000001E-003    1.321740862599602E-002
  7.600000000000002E-003    1.371899014803533E-002
  7.700000000000001E-003    1.423669691639618E-002
  7.800000000000001E-003    1.477091709176397E-002
  7.900000000000001E-003    1.532204290218890E-002
  8.000000000000002E-003    1.589046983912577E-002
  8.100000000000001E-003    1.647659806402845E-002
  8.200000000000001E-003    1.708082766679336E-002
  8.300000000000002E-003    1.770356348403024E-002
  8.400000000000001E-003    1.834521177741046E-002
  8.500000000000002E-003    1.900618239248041E-002
  8.600000000000002E-003    1.968688336266134E-002
  8.700000000000001E-003    2.038772633168667E-002
  8.800000000000002E-003    2.110912431141855E-002
  8.900000000000002E-003    2.185148761436199E-002
  9.000000000000001E-003    2.261522967364007E-002
  9.100000000000002E-003    2.340076162013624E-002
  9.200000000000002E-003    2.420849574595783E-002
  9.300000000000001E-003    2.503884111617893E-002
  9.400000000000002E-003    2.589220706381542E-002
  9.500000000000001E-003    2.676899958631953E-002
  9.600000000000001E-003    2.766962145859015E-002
  9.700000000000002E-003    2.859447221187936E-002
  9.800000000000001E-003    2.954395020251850E-002
  9.900000000000001E-003    3.051844635262286E-002
  1.000000000000000E-002    3.151834849280058E-002
  1.010000000000000E-002    3.254403658800462E-002
  1.020000000000000E-002    3.359588434076528E-002
  1.030000000000000E-002    3.467426226672319E-002
  1.040000000000000E-002    3.577952880748982E-002
  1.050000000000000E-002    3.691203446142905E-002
  1.060000000000000E-002    3.807212473998067E-002
  1.070000000000000E-002    3.926013134680540E-002
  1.080000000000000E-002    4.047637648954407E-002
  1.090000000000000E-002    4.172117094404030E-002
  1.100000000000000E-002    4.299481533090994E-002
  1.110000000000000E-002    4.429759314357678E-002
  1.120000000000000E-002    4.562977672814724E-002
  1.130000000000000E-002    4.699162309179939E-002
  1.140000000000000E-002    4.838337827409563E-002
  1.150000000000000E-002    4.980526426314470E-002
  1.160000000000000E-002    5.125749131267665E-002
  1.170000000000000E-002    5.274025241698320E-002
  1.180000000000000E-002    5.425371438646796E-002
  1.190000000000000E-002    5.579803165105329E-002
  1.200000000000000E-002    5.737333233571922E-002
  1.210000000000000E-002    5.897972353587643E-002
  1.220000000000000E-002    6.061729186708062E-002
  1.230000000000000E-002    6.228609480456018E-002
  1.240000000000000E-002    6.398617024618884E-002
  1.250000000000000E-002    6.571752685821564E-002
  1.260000000000000E-002    6.748014383333517E-002
  1.270000000000000E-002    6.927397151218874E-002
  1.280000000000000E-002    7.109893770865708E-002
  1.290000000000000E-002    7.295493957841491E-002
  1.300000000000000E-002    7.484183093413126E-002
  1.310000000000000E-002    7.675944833624740E-002
  1.320000000000000E-002    7.870758901581211E-002
  1.330000000000000E-002    8.068601023192622E-002
  1.340000000000000E-002    8.269444582064527E-002
  1.350000000000000E-002    8.473258179455737E-002
  1.360000000000000E-002    8.680007613352871E-002
  1.370000000000000E-002    8.889653040344993E-002
  1.380000000000000E-002    9.102152824979705E-002
  1.390000000000000E-002    9.317460085947077E-002
  1.400000000000000E-002    9.535523495531181E-002
  1.410000000000000E-002    9.756288209325130E-002
  1.420000000000000E-002    9.979694229873733E-002
  1.430000000000000E-002    0.102056772125585     
  1.440000000000000E-002    0.104341684029940     
  1.450000000000000E-002    0.106650943127357     
  1.460000000000000E-002    0.108983768678553     
  1.470000000000000E-002    0.111339328326984     
  1.480000000000000E-002    0.113716739188298     
  1.490000000000000E-002    0.116115068300099     
  1.500000000000000E-002    0.118533332588106     
  1.510000000000000E-002    0.120970500874029     
  1.520000000000000E-002    0.123425479976055     
  1.530000000000000E-002    0.125897138592071     
  1.540000000000000E-002    0.128384266634449     
  1.550000000000000E-002    0.130885622532475     
  1.560000000000000E-002    0.133399892651095     
  1.570000000000000E-002    0.135925718241314     
  1.580000000000000E-002    0.138461684753929     
  1.590000000000000E-002    0.141006315213891     
  1.600000000000000E-002    0.143558079095583     
  1.610000000000000E-002    0.146115387240927     
  1.620000000000000E-002    0.148676576789342     
  1.630000000000000E-002    0.151239949626260     
  1.640000000000000E-002    0.153803730005135     
  1.650000000000000E-002    0.156366090276128     
  1.660000000000000E-002    0.158925153938857     
  1.670000000000000E-002    0.161478967150241     
  1.680000000000000E-002    0.164025537729346     
  1.690000000000000E-002    0.166562791510481     
  1.700000000000000E-002    0.169088611375195     
  1.710000000000000E-002    0.171600818532328     
  1.720000000000000E-002    0.174097172495132     
  1.730000000000000E-002    0.176575376607868     
  1.740000000000000E-002    0.179033084177107     
  1.750000000000000E-002    0.181467884249715     
  1.760000000000000E-002    0.183877310084234     
  1.770000000000000E-002    0.186258839906305     
  1.780000000000000E-002    0.188609911355207     
  1.790000000000000E-002    0.190927894141467     
  1.800000000000000E-002    0.193210106533184     
  1.810000000000000E-002    0.195453822006910     
  1.820000000000000E-002    0.197656261253570     
  1.830000000000000E-002    0.199814595551672     
  1.840000000000000E-002    0.201925957591366     
  1.850000000000000E-002    0.203987412917123     
  1.860000000000000E-002    0.205996001331137     
  1.870000000000000E-002    0.207948720557898     