 -4.000000000000000E-002    0.000000000000000E+000
 -3.990000000000000E-002    0.000000000000000E+000
 -3.980000000000000E-002    0.000000000000000E+000
 -3.970000000000000E-002    0.000000000000000E+000
 -3.960000000000000E-002   -5.835937828499422E-018
 -3.950000000000000E-002   -5.136581594497006E-017
 -3.940000000000000E-002   -2.494368806251973E-016
 -3.930000000000000E-002   -8.816245176724522E-016
 -3.920000000000000E-002   -2.528610694523727E-015
 -3.910000000000000E-002   -6.228670852286252E-015
 -3.900000000000000E-002   -1.363176282676910E-014
 -3.890000000000000E-002   -2.709370912840492E-014
 -3.880000000000000E-002   -4.963346174512017E-014
 -3.870000000000000E-002   -8.466293382390670E-014
 -3.860000000000000E-002   -1.354005077166518E-013
 -3.850000000000000E-002   -2.039030187183269E-013
 -3.840000000000000E-002   -2.897008630599132E-013
 -3.830000000000000E-002   -3.880970305956549E-013
 -3.820000000000000E-002   -4.882870766967049E-013
 -3.810000000000000E-002   -5.715614824000465E-013
 -3.800000000000000E-002   -6.099455044974093E-013
 -3.790000000000000E-002   -5.656944699088762E-013
 -3.780000000000000E-002   -3.920709776037218E-013
 -3.770000000000000E-002   -3.576901407660752E-014
 -3.760000000000000E-002    5.587904174680237E-013
 -3.750000000000000E-002    1.443285063578431E-012
 -3.740000000000000E-002    2.657703652399812E-012
 -3.730000000000000E-002    4.221514746671899E-012
 -3.720000000000000E-002    6.124640748878729E-012
 -3.710000000000000E-002    8.319316213470150E-012
 -3.700000000000000E-002    1.071402524566832E-011
 -3.690000000000000E-002    1.317068033414019E-011
 -3.680000000000000E-002    1.550604196676694E-011
 -3.670000000000000E-002    1.749802664292119E-011
 -3.660000000000000E-002    1.889710449821677E-011
 -3.650000000000000E-002    1.944244552346685E-011
 -3.640000000000000E-002    1.888192997461968E-011
 -3.630000000000000E-002    1.699462797674413E-011
 -3.620000000000000E-002    1.361399376374797E-011
 -3.610000000000000E-002    8.649748756199888E-012
 -3.600000000000000E-002    2.106450866594780E-012
 -3.590000000000000E-002   -5.903175378844679E-012
 -3.580000000000000E-002   -1.515172916032419E-011
 -3.570000000000000E-002   -2.529861829955682E-011
 -3.560000000000000E-002   -3.590019267548309E-011
 -3.550000000000000E-002   -4.642869291677169E-011
 -3.540000000000000E-002   -5.629957665590960E-011
 -3.530000000000000E-002   -6.490630391753384E-011
 -3.520000000000000E-002   -7.166108925069076E-011
 -3.510000000000000E-002   -7.603957013892448E-011
 -3.500000000000000E-002   -7.762673723372066E-011
 -3.490000000000000E-002   -7.616087421554079E-011
 -3.480000000000000E-002   -7.157159239038834E-011
 -3.470000000000000E-002   -6.400756046581615E-011
 -3.460000000000000E-002   -5.384921584933991E-011
 -3.450000000000000E-002   -4.170189550489788E-011
 -3.440000000000000E-002   -2.836548211617600E-011
 -3.430000000000000E-002   -1.477800099805565E-011
 -3.420000000000000E-002   -1.932961997546275E-012
 -3.410000000000000E-002    9.226985396128454E-012
 -3.400000000000000E-002    1.793387027358969E-011
 -3.390000000000000E-002    2.372564779867612E-011
 -3.380000000000000E-002    2.657140977768753E-011
 -3.370000000000000E-002    2.697421619742242E-011
 -3.360000000000000E-002    2.603396336875055E-011
 -3.350000000000000E-002    2.545330742809072E-011
 -3.340000000000000E-002    2.747292252538168E-011
 -3.330000000000000E-002    3.472744516267920E-011
 -3.320000000000000E-002    5.002209169570855E-011
 -3.310000000000000E-002    7.603865389400105E-011
 -3.300000000000000E-002    1.149905316702476E-010
 -3.290000000000000E-002    1.682561284519317E-010
 -3.280000000000000E-002    2.360278543552944E-010
 -3.270000000000000E-002    3.170191714556825E-010
 -3.260000000000000E-002    4.082717178199381E-010
 -3.250000000000000E-002    5.051012497217807E-010
 -3.240000000000000E-002    6.012092151750033E-010
 -3.230000000000000E-002    6.889741047296289E-010
 -3.220000000000000E-002    7.599169585520581E-010
 -3.210000000000000E-002    8.053152684352661E-010
 -3.200000000000000E-002    8.169219393609610E-010
 -3.190000000000000E-002    7.877268901366546E-010
 -3.180000000000000E-002    7.126892832204472E-010
 -3.170000000000000E-002    5.893640949663895E-010
 -3.160000000000000E-002    4.183516682384700E-010
 -3.150000000000000E-002    2.035084764569834E-010
 -3.140000000000000E-002   -4.811635380577724E-011
 -3.130000000000000E-002   -3.266348132146691E-010
 -3.120000000000000E-002   -6.199465456224121E-010
 -3.110000000000000E-002   -9.145928445667448E-010
 -3.100000000000000E-002   -1.196768054001390E-009
 -3.090000000000000E-002   -1.453399019830550E-009
 -3.080000000000000E-002   -1.673191635656881E-009
 -3.070000000000000E-002   -1.847545618905999E-009
 -3.060000000000000E-002   -1.971247430826493E-009
 -3.050000000000000E-002   -2.042869309994278E-009
 -3.040000000000000E-002   -2.064831108123979E-009
 -3.030000000000000E-002   -2.043107822034652E-009
 -3.020000000000000E-002   -1.986600652470503E-009
 -3.010000000000000E-002   -1.906213255987625E-009
 -3.000000000000000E-002   -1.813704851360572E-009
 -2.990000000000000E-002   -1.720401006681839E-009
 -2.980000000000000E-002   -1.635861572169647E-009
 -2.970000000000000E-002   -1.566599674870962E-009
 -2.960000000000000E-002   -1.514951723731596E-009
 -2.950000000000000E-002   -1.478185554391333E-009
 -2.940000000000000E-002   -1.447922496170609E-009
 -2.930000000000000E-002   -1.409944963709682E-009
 -2.920000000000000E-002   -1.344442239164568E-009
 -2.910000000000000E-002   -1.226731832712229E-009
 -2.900000000000000E-002   -1.028480757470428E-009
 -2.890000000000000E-002   -7.194244082120481E-010
 -2.880000000000000E-002   -2.695532448392391E-010
 -2.870000000000000E-002    3.482998577832852E-010
 -2.860000000000000E-002    1.155579487769852E-009
 -2.850000000000000E-002    2.164996196858552E-009
 -2.840000000000000E-002    3.377587872817274E-009
 -2.830000000000000E-002    4.780105187000904E-009
 -2.820000000000000E-002    6.343003276755729E-009
 -2.810000000000000E-002    8.019324204828360E-009
 -2.800000000000000E-002    9.744744325280676E-009
 -2.790000000000000E-002    1.143899389875713E-008
 -2.780000000000000E-002    1.300877989711567E-008
 -2.770000000000000E-002    1.435220465535116E-008
 -2.760000000000000E-002    1.536454607035533E-008
 -2.750000000000000E-002    1.594508032962501E-008
 -2.740000000000000E-002    1.600449547810860E-008
 -2.730000000000000E-002    1.547230801679408E-008
 -2.720000000000000E-002    1.430361091926886E-008
 -2.710000000000000E-002    1.248446131729815E-008
 -2.700000000000000E-002    1.003527166029268E-008
 -2.690000000000000E-002    7.011698042839647E-009
 -2.680000000000000E-002    3.502717734773358E-009
 -2.670000000000000E-002   -3.741302730079263E-010
 -2.660000000000000E-002   -4.480094262773434E-009
 -2.650000000000000E-002   -8.664589255008780E-009
 -2.640000000000000E-002   -1.277579190956127E-008
 -2.630000000000000E-002   -1.667142859853629E-008
 -2.620000000000000E-002   -2.022865772894057E-008
 -2.610000000000000E-002   -2.335195827905836E-008
 -2.600000000000000E-002   -2.597809825484183E-008
 -2.590000000000000E-002   -2.807752510211607E-008
 -2.580000000000000E-002   -2.965190944435325E-008
 -2.570000000000000E-002   -3.072799831024920E-008
 -2.560000000000000E-002   -3.134838357452908E-008
 -2.550000000000000E-002   -3.156020188848590E-008
 -2.540000000000000E-002   -3.140311257746871E-008
 -2.530000000000000E-002   -3.089804814786381E-008
 -2.520000000000000E-002   -3.003827409959040E-008
 -2.510000000000000E-002   -2.878410101041433E-008
 -2.500000000000000E-002   -2.706224049254788E-008
 -2.490000000000000E-002   -2.477031889822128E-008
 -2.480000000000000E-002   -2.178648460316548E-008
 -2.470000000000000E-002   -1.798340291455708E-008
 -2.460000000000000E-002   -1.324540866650809E-008
 -2.450000000000000E-002   -7.487088218531249E-009
 -2.440000000000000E-002   -6.713170888274704E-010
 -2.430000000000000E-002    7.175334793017632E-009
 -2.420000000000000E-002    1.595169633924340E-008
 -2.410000000000000E-002    2.547713135160999E-008
 -2.400000000000000E-002    3.549367529994157E-008
 -2.390000000000000E-002    4.567540480716773E-008
 -2.380000000000000E-002    5.564458395967459E-008
 -2.370000000000000E-002    6.499339622178476E-008
 -2.360000000000000E-002    7.330947645682287E-008
 -2.350000000000000E-002    8.020307480304978E-008
 -2.340000000000000E-002    8.533347544478985E-008
 -2.330000000000000E-002    8.843239328026910E-008
 -2.320000000000000E-002    8.932237534338273E-008
 -2.310000000000000E-002    8.792875761560294E-008
 -2.300000000000000E-002    8.428438102616171E-008
 -2.290000000000000E-002    7.852699557830220E-008
 -2.280000000000000E-002    7.088998125929118E-008
 -2.270000000000000E-002    6.168765263204075E-008
 -2.260000000000000E-002    5.129683067897757E-008
 -2.250000000000000E-002    4.013663919230908E-008
 -2.240000000000000E-002    2.864839496488036E-008
 -2.230000000000000E-002    1.727757378002533E-008
 -2.220000000000000E-002    6.459090491862769E-009
 -2.210000000000000E-002   -3.392954996061484E-009
 -2.200000000000000E-002   -1.189068960895397E-008
 -2.190000000000000E-002   -1.867304621214246E-008
 -2.180000000000000E-002   -2.340182297396769E-008
 -2.170000000000000E-002   -2.575432604724925E-008
 -2.160000000000000E-002   -2.541304481562897E-008
 -2.150000000000000E-002   -2.205387732765190E-008
 -2.140000000000000E-002   -1.533357348584627E-008
 -2.130000000000000E-002   -4.877479551388502E-009
 -2.120000000000000E-002    9.731826543662990E-009
 -2.110000000000000E-002    2.896412534804974E-008
 -2.100000000000000E-002    5.334911884706177E-008
 -2.090000000000000E-002    8.348121692081506E-008
 -2.080000000000000E-002    1.200212319573778E-007
 -2.070000000000000E-002    1.636943268880197E-007
 -2.060000000000000E-002    2.152842419923439E-007
 -2.050000000000000E-002    2.756228766143682E-007
 -2.040000000000000E-002    3.455759950350214E-007
 -2.030000000000000E-002    4.260245290135873E-007
 -2.020000000000000E-002    5.178431107129032E-007
 -2.010000000000000E-002    6.218765970921942E-007
 -2.000000000000000E-002    7.389167206460614E-007
 -1.990000000000000E-002    8.696812399461418E-007
 -1.980000000000000E-002    1.014798132885692E-006
 -1.970000000000000E-002    1.174797559645556E-006
 -1.960000000000000E-002    1.350114190274723E-006
 -1.950000000000000E-002    1.541101013670525E-006
 -1.940000000000000E-002    1.748055718709899E-006
 -1.930000000000000E-002    1.971259151116735E-006
 -1.920000000000000E-002    2.211023020164447E-006
 -1.910000000000000E-002    2.467743527012187E-006
 -1.900000000000000E-002    2.741957676485709E-006
 -1.890000000000000E-002    3.034392513579829E-006
 -1.880000000000000E-002    3.346007284887455E-006
 -1.870000000000000E-002    3.678018116051094E-006
 -1.860000000000000E-002    4.031903441888435E-006
 -1.850000000000000E-002    4.409387185212173E-006
 -1.840000000000000E-002    4.812399961280484E-006
 -1.830000000000000E-002    5.243019785867658E-006
 -1.820000000000000E-002    5.703399061562862E-006
 -1.810000000000000E-002    6.195684673124630E-006
 -1.800000000000000E-002    6.721937335444089E-006
 -1.790000000000000E-002    7.284065058779049E-006
 -1.780000000000000E-002    7.883777074122924E-006
 -1.770000000000000E-002    8.522563872432093E-006
 -1.760000000000000E-002    9.201710481359973E-006
 -1.750000000000000E-002    9.922346333008217E-006
 -1.740000000000000E-002    1.068552754603637E-005
 -1.730000000000000E-002    1.149234145695663E-005
 -1.720000000000000E-002    1.234403314217888E-005
 -1.710000000000000E-002    1.324213113039762E-005
 -1.700000000000000E-002    1.418856847460501E-005
 -1.690000000000000E-002    1.518577884755164E-005
 -1.680000000000000E-002    1.623675868463916E-005
 -1.670000000000000E-002    1.734508661500901E-005
 -1.660000000000000E-002    1.851490519213531E-005
 -1.650000000000000E-002    1.975084800455648E-005
 -1.640000000000000E-002    2.105793164744559E-005
 -1.630000000000000E-002    2.244142876366909E-005
 -1.620000000000000E-002    2.390671753638169E-005
 -1.610000000000000E-002    2.545915131678130E-005
 -1.600000000000000E-002    2.710393348685823E-005
 -1.590000000000000E-002    2.884604431805050E-005
 -1.580000000000000E-002    3.069020660835126E-005
 -1.570000000000000E-002    3.264091237044131E-005
 -1.560000000000000E-002    3.470249076271045E-005
 -1.550000000000000E-002    3.687925225894898E-005
 -1.540000000000000E-002    3.917564577523957E-005
 -1.530000000000000E-002    4.159644578313003E-005
 -1.520000000000000E-002    4.414694412207311E-005
 -1.510000000000000E-002    4.683312434049150E-005
 -1.500000000000000E-002    4.966180071490278E-005
 -1.490000000000000E-002    5.264071000097622E-005
 -1.480000000000000E-002    5.577855869651908E-005
 -1.470000000000000E-002    5.908498859525699E-005
 -1.460000000000000E-002    6.257050753691566E-005
 -1.450000000000000E-002    6.624637667308254E-005
 -1.440000000000000E-002    7.012446336548014E-005
 -1.430000000000000E-002    7.421708501678869E-005
 -1.420000000000000E-002    7.853686517349751E-005
 -1.410000000000000E-002    8.309661159131903E-005
 -1.400000000000000E-002    8.790926406725374E-005
 -1.390000000000000E-002    9.298783665501188E-005
 -1.380000000000000E-002    9.834548191349505E-005
 -1.370000000000000E-002    1.039955518565483E-004
 -1.360000000000000E-002    1.099517264102774E-004
 -1.350000000000000E-002    1.162281575921730E-004
 -1.340000000000000E-002    1.228396411905987E-004
 -1.330000000000000E-002    1.298017708725622E-004
 -1.320000000000000E-002    1.371310541316445E-004
 -1.310000000000000E-002    1.448450298923680E-004
 -1.300000000000000E-002    1.529623256225152E-004
 -1.290000000000000E-002    1.615027039559939E-004
 -1.280000000000000E-002    1.704870212856185E-004
 -1.270000000000000E-002    1.799371662027191E-004
 -1.260000000000000E-002    1.898760349182721E-004
 -1.250000000000000E-002    2.003274282262044E-004
 -1.240000000000000E-002    2.113160170532644E-004
 -1.230000000000000E-002    2.228672823549834E-004
 -1.220000000000000E-002    2.350074763231086E-004
 -1.210000000000000E-002    2.477636919496614E-004
 -1.200000000000000E-002    2.611638758850051E-004
 -1.190000000000000E-002    2.752368725415205E-004
 -1.180000000000000E-002    2.900125050512265E-004
 -1.170000000000000E-002    3.055216953887447E-004
 -1.160000000000000E-002    3.217964832193332E-004
 -1.150000000000000E-002    3.388701543435197E-004
 -1.140000000000000E-002    3.567772709587495E-004
 -1.130000000000000E-002    3.755536756876123E-004
 -1.120000000000000E-002    3.952365530595295E-004
 -1.110000000000000E-002    4.158644487176644E-004
 -1.100000000000000E-002    4.374772713227696E-004
 -1.090000000000000E-002    4.601163149777021E-004
 -1.080000000000000E-002    4.838243427454767E-004
 -1.070000000000000E-002    5.086456107126798E-004
 -1.060000000000000E-002    5.346259751867591E-004
 -1.050000000000000E-002    5.618130676792850E-004
 -1.040000000000000E-002    5.902562690024652E-004
 -1.030000000000000E-002    6.200070785640210E-004
 -1.020000000000000E-002    6.511190492625151E-004
 -1.010000000000000E-002    6.836479274738057E-004
 -1.000000000000000E-002    7.176518086725098E-004
 -9.899999999999999E-003    7.531910345587090E-004
 -9.800000000000000E-003    7.903283160214627E-004
 -9.699999999999999E-003    8.291286642242618E-004
 -9.599999999999999E-003    8.696593459305847E-004
 -9.500000000000000E-003    9.119897924212670E-004
 -9.399999999999999E-003    9.561914192474767E-004
 -9.299999999999999E-003    1.002337874971375E-003
 -9.200000000000000E-003    1.050504843020483E-003
 -9.099999999999999E-003    1.100770059773748E-003
 -8.999999999999999E-003    1.153213740577861E-003
 -8.900000000000000E-003    1.207918221363815E-003
 -8.799999999999999E-003    1.264968758174946E-003
 -8.699999999999999E-003    1.324453433362881E-003
 -8.600000000000000E-003    1.386463387637172E-003
 -8.499999999999999E-003    1.451093234627909E-003
 -8.399999999999999E-003    1.518440975026670E-003
 -8.300000000000000E-003    1.588608187423274E-003
 -8.199999999999999E-003    1.661700198114904E-003
 -8.100000000000000E-003    1.737825692096762E-003
 -8.000000000000000E-003    1.817096775709640E-003
 -7.899999999999999E-003    1.899628934868893E-003
 -7.800000000000000E-003    1.985540451665936E-003
 -7.699999999999999E-003    2.074952295791447E-003
 -7.599999999999999E-003    2.167988271459038E-003
 -7.499999999999999E-003    2.264774638630806E-003
 -7.399999999999999E-003    2.365439879199445E-003
 -7.299999999999999E-003    2.470115340295388E-003
 -7.199999999999999E-003    2.578934907504334E-003
 -7.100000000000000E-003    2.692035808967467E-003
 -6.999999999999999E-003    2.809558595160625E-003
 -6.899999999999999E-003    2.931647937133481E-003
 -6.800000000000000E-003    3.058452451639466E-003
 -6.699999999999999E-003    3.190125352854018E-003
 -6.599999999999999E-003    3.326824790569200E-003
 -6.499999999999999E-003    3.468713868768719E-003
 -6.399999999999999E-003    3.615960512952126E-003
 -6.299999999999999E-003    3.768737136470963E-003
 -6.199999999999999E-003    3.927220923874531E-003
 -6.100000000000000E-003    4.091592754885155E-003
 -5.999999999999999E-003    4.262037567739944E-003
 -5.899999999999999E-003    4.438742516473896E-003
 -5.800000000000000E-003    4.621898889253947E-003
 -5.699999999999999E-003    4.811699872034198E-003
 -5.599999999999999E-003    5.008340678795569E-003
 -5.499999999999999E-003    5.212019756387159E-003
 -5.399999999999999E-003    5.422937532143245E-003
 -5.299999999999999E-003    5.641297292870284E-003
 -5.199999999999999E-003    5.867306016690238E-003
 -5.099999999999999E-003    6.101173024825994E-003
 -4.999999999999999E-003    6.343112483943310E-003
 -4.899999999999999E-003    6.593342167897679E-003
 -4.799999999999999E-003    6.852084167351885E-003
 -4.699999999999999E-003    7.119564841458216E-003
 -4.599999999999999E-003    7.396014880204531E-003
 -4.499999999999999E-003    7.681668579002710E-003
 -4.399999999999999E-003    7.976763427204969E-003
 -4.299999999999999E-003    8.281541497204496E-003
 -4.199999999999999E-003    8.596244919795246E-003
 -4.099999999999999E-003    8.921120323274499E-003
 -3.999999999999999E-003    9.256413954291319E-003
 -3.899999999999999E-003    9.602375479789160E-003
 -3.799999999999999E-003    9.959253740785117E-003
 -3.699999999999999E-003    1.032729979144978E-002
 -3.599999999999999E-003    1.070676521410840E-002
 -3.499999999999999E-003    1.109790456630354E-002
 -3.399999999999999E-003    1.150097141150144E-002
 -3.299999999999999E-003    1.191622290664579E-002
 -3.199999999999999E-003    1.234391854116398E-002
 -3.099999999999999E-003    1.278431861551891E-002
 -2.999999999999999E-003    1.323768659219526E-002
 -2.899999999999999E-003    1.370428573535057E-002
 -2.799999999999999E-003    1.418438333267284E-002
 -2.699999999999999E-003    1.467824656041463E-002
 -2.599999999999999E-003    1.518614178455066E-002
 -2.499999999999999E-003    1.570833780185574E-002
 -2.399999999999999E-003    1.624510108846123E-002
 -2.299999999999999E-003    1.679669653637481E-002
 -2.199999999999999E-003    1.736338753138507E-002
 -2.099999999999999E-003    1.794543692740375E-002
 -1.999999999999999E-003    1.854310300713168E-002
 -1.899999999999999E-003    1.915664308773929E-002
 -1.799999999999999E-003    1.978631226623890E-002
 -1.699999999999999E-003    2.043236413330955E-002
 -1.599999999999999E-003    2.109504871558785E-002
 -1.499999999999999E-003    2.177461259442181E-002
 -1.399999999999999E-003    2.247130326047055E-002
 -1.299999999999999E-003    2.318536332012638E-002
 -1.199999999999999E-003    2.391703616600423E-002
 -1.099999999999999E-003    2.466655904687779E-002
 -9.999999999999989E-004    2.543416539590872E-002
 -8.999999999999990E-004    2.622008614224334E-002
 -7.999999999999990E-004    2.702454472688748E-002
 -6.999999999999989E-004    2.784775903225903E-002
 -5.999999999999990E-004    2.868993862515525E-002
 -4.999999999999989E-004    2.955128860511076E-002
 -3.999999999999989E-004    3.043200254429394E-002
 -2.999999999999989E-004    3.133226780279913E-002
 -1.999999999999989E-004    3.225226152929839E-002
 -9.999999999999892E-005    3.319215367261603E-002
  1.084202172485504E-018    3.415210312971349E-002
  1.000000000000011E-004    3.513225793963610E-002
  2.000000000000011E-004    3.613276180042999E-002
  3.000000000000011E-004    3.715374461959099E-002
  4.000000000000011E-004    3.819532969716888E-002
  5.000000000000011E-004    3.925762815571286E-002
  6.000000000000011E-004    4.034074237122834E-002
  7.000000000000011E-004    4.144476161921556E-002
  8.000000000000011E-004    4.256976406807805E-002
  9.000000000000012E-004    4.371581386088024E-002
  1.000000000000001E-003    4.488295929102545E-002
  1.100000000000001E-003    4.607123669856755E-002
  1.200000000000001E-003    4.728066722377526E-002
  1.300000000000001E-003    4.851125251911011E-002
  1.400000000000001E-003    4.976297894690436E-002
  1.500000000000001E-003    5.103581508365640E-002
  1.600000000000001E-003    5.232971654341093E-002
  1.700000000000001E-003    5.364461547626235E-002
  1.800000000000001E-003    5.498043076333922E-002
  1.900000000000001E-003    5.633706170180480E-002
  2.000000000000001E-003    5.771439288969649E-002
  2.100000000000001E-003    5.911229085623529E-002
  2.200000000000001E-003    6.053059915082418E-002
  2.300000000000001E-003    6.196914675897967E-002
  2.400000000000001E-003    6.342774321923636E-002
  2.500000000000001E-003    6.490617732246408E-002
  2.600000000000001E-003    6.640421718598717E-002
  2.700000000000001E-003    6.792160445109480E-002
  2.800000000000001E-003    6.945806726264078E-002
  2.900000000000001E-003    7.101329744489895E-002
  3.000000000000001E-003    7.258698030354475E-002
  3.100000000000001E-003    7.417876347654161E-002
  3.200000000000001E-003    7.578826929914645E-002
  3.300000000000001E-003    7.741510875397722E-002
  3.400000000000001E-003    7.905885678877515E-002
  3.500000000000001E-003    8.071906573623315E-002
  3.600000000000001E-003    8.239526828221122E-002
  3.700000000000001E-003    8.408696363550665E-002
  3.800000000000001E-003    8.579363927215809E-002
  3.900000000000001E-003    8.751475517576401E-002
  4.000000000000001E-003    8.924974494534291E-002
  4.100000000000001E-003    9.099801918100754E-002
  4.200000000000001E-003    9.275895915806918E-002
  4.300000000000001E-003    9.453192648761601E-002
  4.400000000000001E-003    9.631625808183668E-002
  4.500000000000001E-003    9.811126620009178E-002
  4.600000000000002E-003    9.991622496974310E-002
  4.700000000000001E-003    0.101730399119811     
  4.800000000000001E-003    0.103553019295886     
  4.900000000000002E-003    0.105383297058553     
  5.000000000000001E-003    0.107220407625622     
  5.100000000000001E-003    0.109063504846579     
  5.200000000000001E-003    0.110911730668600     
  5.300000000000002E-003    0.112764190812661     
  5.400000000000001E-003    0.114619976896302     
  5.500000000000001E-003    0.116478156100932     
  5.600000000000002E-003    0.118337769780487     
  5.700000000000001E-003    0.120197845213763     
  5.800000000000001E-003    0.122057379477037     
  5.900000000000002E-003    0.123915361523341     
  6.000000000000001E-003    0.125770748095629     
  6.100000000000001E-003    0.127622489558814     
  6.200000000000002E-003    0.129469494805028     
  6.300000000000002E-003    0.131310688565464     
  6.400000000000001E-003    0.133144939227703     
  6.500000000000001E-003    0.134971116530074     
  6.600000000000002E-003    0.136788080810103     
  6.700000000000001E-003    0.138594660269557     
  6.800000000000001E-003    0.140389674426605     
  6.900000000000002E-003    0.142171932308960     
  7.000000000000001E-003    0.143940219093337     
  7.100000000000001E-003    0.145693318355789     
  7.200000000000002E-003    0.147430010734681     
  7.300000000000002E-003    0.149149041895986     
  7.400000000000001E-003    0.150849161600171     
  7.500000000000001E-003    0.152529126738133     
  7.600000000000002E-003    0.154187655215127     
  7.700000000000001E-003    0.155823495421652     
  7.800000000000001E-003    0.157435367638925     
  7.900000000000001E-003    0.159021976618470     
  8.000000000000002E-003    0.160582065314390     
  8.100000000000001E-003    0.162114331173759     
  8.200000000000001E-003    0.163617492129262     
  8.300000000000002E-003    0.165090256232147     
  8.400000000000001E-003    0.166531338418812     
  8.500000000000002E-003    0.167939460762296     
  8.600000000000002E-003    0.169313343880416     
  8.700000000000001E-003    0.170651705727526     
  8.800000000000002E-003    0.171953271731397     
  8.900000000000002E-003    0.173216780967258     
  9.000000000000001E-003    0.174440983502276     
  9.100000000000002E-003    0.175624623031535     
  9.200000000000002E-003    0.176766477144834     
  9.300000000000001E-003    0.177865326551468     
  9.400000000000002E-003    0.178919942835172     
  9.500000000000001E-003    0.179929140499464     
  9.600000000000001E-003    0.180891734593691     
  9.700000000000002E-003    0.181806550856792     
  9.800000000000001E-003    0.182672445379057     
  9.900000000000001E-003    0.183488275409298     
  1.000000000000000E-002    0.184252936879061     
  1.010000000000000E-002    0.184965323428085     
  1.020000000000000E-002    0.185624353290101     
  1.030000000000000E-002    0.186228981728538     
  1.040000000000000E-002    0.186778162008617     
  1.050000000000000E-002    0.187270883828777     
  1.060000000000000E-002    0.187706147958158     
  1.070000000000000E-002    0.188082990974435     
  1.080000000000000E-002    0.188400455847470     
  1.090000000000000E-002    0.188657643052805     
  1.100000000000000E-002    0.188853637020373     
  1.110000000000000E-002    0.188987567391952     
  1.120000000000000E-002    0.189058594493340     
  1.130000000000000E-002    0.189065875785957     
  1.140000000000000E-002    0.189008626419005     
  1.150000000000000E-002    0.188886051035143     
  1.160000000000000E-002    0.188697417866985     
  1.170000000000000E-002    0.188441989979236     
  1.180000000000000E-002    0.188119053213925     
  1.190000000000000E-002    0.187727942921977     
  1.200000000000000E-002    0.187267988582090     
  1.210000000000000E-002    0.186738553931403     
  1.220000000000000E-002    0.186139023194359     
  1.230000000000000E-002    0.185468818940759     
  1.240000000000000E-002    0.184727348528754     
  1.250000000000000E-002    0.183914060320907     
  1.260000000000000E-002    0.183028408361627     
  1.270000000000000E-002    0.182069881001134     
  1.280000000000000E-002    0.181037975215636     
  1.290000000000000E-002    0.179932198404346     
  1.300000000000000E-002    0.178752066254871     
  1.310000000000000E-002    0.177497112252671     
  1.320000000000000E-002    0.176166879393566     
  1.330000000000000E-002    0.174760911808147     
  1.340000000000000E-002    0.173278760781712     
  1.350000000000000E-002    0.171719990453854     
  1.360000000000000E-002    0.170084158520316     
  1.370000000000000E-002    0.168370817613451     
  1.380000000000000E-002    0.166579534050069     
  1.390000000000000E-002    0.164709846876127     
  1.400000000000000E-002    0.162761302676588     
  1.410000000000000E-002    0.160733432832537     
  1.420000000000000E-002    0.158625771702483     
  1.430000000000000E-002    0.156437810645835     
  1.440000000000000E-002    0.154169024473005     
  1.450000000000000E-002    0.151818894043399     
  1.460000000000000E-002    0.149386846790521     
  1.470000000000000E-002    0.146872294918286     
  1.480000000000000E-002    0.144274619789183     
  1.490000000000000E-002    0.141593176356177     
  1.500000000000000E-002    0.138827271584637     
  1.510000000000000E-002    0.135976184126617     
  1.520000000000000E-002    0.133039144400063     
  1.530000000000000E-002    0.130015343535019     
  1.540000000000000E-002    0.126903922219624     
  1.550000000000000E-002    0.123703972445571     
  1.560000000000000E-002    0.120414527749047     
  1.570000000000000E-002    0.117034564807950     
  1.580000000000000E-002    0.113562999578760     
  1.590000000000000E-002    0.109998679833247     
  1.600000000000000E-002    0.106340388170492     
  1.610000000000000E-002    0.102586835667902     
  1.620000000000000E-002    9.873665320278921E-002
  1.630000000000000E-002    9.478840191713964E-002
  1.640000000000000E-002    9.074057293698015E-002
  1.650000000000000E-002    8.659155365271715E-002
  1.660000000000000E-002    8.233966301625163E-002
  1.670000000000000E-002    7.798313472225982E-002
  1.680000000000000E-002    7.352011053822276E-002
  1.690000000000000E-002    6.894864893052347E-002
  1.700000000000000E-002    6.426671510513222E-002
  1.710000000000000E-002    5.947218689814054E-002
  1.720000000000000E-002    5.456284021778352E-002
  1.730000000000000E-002    4.953635336131041E-002
  1.740000000000000E-002    4.439031992259936E-002
  1.750000000000000E-002    3.912222404781116E-002
  1.760000000000000E-002    3.372944340775353E-002
  1.770000000000000E-002    2.820925866764856E-002
  1.780000000000000E-002    2.255885097355684E-002
  1.790000000000000E-002    1.677529039733696E-002
  1.800000000000000E-002    1.085555384469910E-002
  1.810000000000000E-002    4.796506304904895E-003
  1.820000000000000E-002   -1.405079914618532E-003
  1.830000000000000E-002   -7.752538240991503E-003
  1.840000000000000E-002   -1.424929192882492E-002
  1.850000000000000E-002   -2.089886658345957E-002
  1.860000000000000E-002   -2.770486569789306E-002
  1.870000000000000E-002   -3.467099267788572E-002