 -4.000000000000000E-002    0.000000000000000E+000
 -3.990000000000000E-002    0.000000000000000E+000
 -3.980000000000000E-002    0.000000000000000E+000
 -3.970000000000000E-002    0.000000000000000E+000
 -3.960000000000000E-002    0.000000000000000E+000
 -3.950000000000000E-002    0.000000000000000E+000
 -3.940000000000000E-002    0.000000000000000E+000
 -3.930000000000000E-002    0.000000000000000E+000
 -3.920000000000000E-002    0.000000000000000E+000
 -3.910000000000000E-002    0.000000000000000E+000
 -3.900000000000000E-002    0.000000000000000E+000
 -3.890000000000000E-002    0.000000000000000E+000
 -3.880000000000000E-002    0.000000000000000E+000
 -3.870000000000000E-002    0.000000000000000E+000
 -3.860000000000000E-002    0.000000000000000E+000
 -3.850000000000000E-002    0.000000000000000E+000
 -3.840000000000000E-002    0.000000000000000E+000
 -3.830000000000000E-002    0.000000000000000E+000
 -3.820000000000000E-002    0.000000000000000E+000
 -3.810000000000000E-002    0.000000000000000E+000
 -3.800000000000000E-002    0.000000000000000E+000
 -3.790000000000000E-002    0.000000000000000E+000
 -3.780000000000000E-002    0.000000000000000E+000
 -3.770000000000000E-002    0.000000000000000E+000
 -3.760000000000000E-002    0.000000000000000E+000
 -3.750000000000000E-002    0.000000000000000E+000
 -3.740000000000000E-002    0.000000000000000E+000
 -3.730000000000000E-002    0.000000000000000E+000
 -3.720000000000000E-002    0.000000000000000E+000
 -3.710000000000000E-002    0.000000000000000E+000
 -3.700000000000000E-002    0.000000000000000E+000
 -3.690000000000000E-002    0.000000000000000E+000
 -3.680000000000000E-002    0.000000000000000E+000
 -3.670000000000000E-002    0.000000000000000E+000
 -3.660000000000000E-002    0.000000000000000E+000
 -3.650000000000000E-002    0.000000000000000E+000
 -3.640000000000000E-002    0.000000000000000E+000
 -3.630000000000000E-002    0.000000000000000E+000
 -3.620000000000000E-002    0.000000000000000E+000
 -3.610000000000000E-002    0.000000000000000E+000
 -3.600000000000000E-002    0.000000000000000E+000
 -3.590000000000000E-002    0.000000000000000E+000
 -3.580000000000000E-002    0.000000000000000E+000
 -3.570000000000000E-002    0.000000000000000E+000
 -3.560000000000000E-002    0.000000000000000E+000
 -3.550000000000000E-002    0.000000000000000E+000
 -3.540000000000000E-002    0.000000000000000E+000
 -3.530000000000000E-002    0.000000000000000E+000
 -3.520000000000000E-002    0.000000000000000E+000
 -3.510000000000000E-002    0.000000000000000E+000
 -3.500000000000000E-002    0.000000000000000E+000
 -3.490000000000000E-002    0.000000000000000E+000
 -3.480000000000000E-002    0.000000000000000E+000
 -3.470000000000000E-002    0.000000000000000E+000
 -3.460000000000000E-002    0.000000000000000E+000
 -3.450000000000000E-002    0.000000000000000E+000
 -3.440000000000000E-002    0.000000000000000E+000
 -3.430000000000000E-002    0.000000000000000E+000
 -3.420000000000000E-002    0.000000000000000E+000
 -3.410000000000000E-002    0.000000000000000E+000
 -3.400000000000000E-002    0.000000000000000E+000
 -3.390000000000000E-002    0.000000000000000E+000
 -3.380000000000000E-002    0.000000000000000E+000
 -3.370000000000000E-002    0.000000000000000E+000
 -3.360000000000000E-002    0.000000000000000E+000
 -3.350000000000000E-002    0.000000000000000E+000
 -3.340000000000000E-002    0.000000000000000E+000
 -3.330000000000000E-002    0.000000000000000E+000
 -3.320000000000000E-002    0.000000000000000E+000
 -3.310000000000000E-002    0.000000000000000E+000
 -3.300000000000000E-002    0.000000000000000E+000
 -3.290000000000000E-002    0.000000000000000E+000
 -3.280000000000000E-002    0.000000000000000E+000
 -3.270000000000000E-002    0.000000000000000E+000
 -3.260000000000000E-002    0.000000000000000E+000
 -3.250000000000000E-002    0.000000000000000E+000
 -3.240000000000000E-002    0.000000000000000E+000
 -3.230000000000000E-002    0.000000000000000E+000
 -3.220000000000000E-002    0.000000000000000E+000
 -3.210000000000000E-002    0.000000000000000E+000
 -3.200000000000000E-002    0.000000000000000E+000
 -3.190000000000000E-002    0.000000000000000E+000
 -3.180000000000000E-002    0.000000000000000E+000
 -3.170000000000000E-002    0.000000000000000E+000
 -3.160000000000000E-002    0.000000000000000E+000
 -3.150000000000000E-002    0.000000000000000E+000
 -3.140000000000000E-002    0.000000000000000E+000
 -3.130000000000000E-002    0.000000000000000E+000
 -3.120000000000000E-002    0.000000000000000E+000
 -3.110000000000000E-002    0.000000000000000E+000
 -3.100000000000000E-002    0.000000000000000E+000
 -3.090000000000000E-002    0.000000000000000E+000
 -3.080000000000000E-002    0.000000000000000E+000
 -3.070000000000000E-002    0.000000000000000E+000
 -3.060000000000000E-002    0.000000000000000E+000
 -3.050000000000000E-002    0.000000000000000E+000
 -3.040000000000000E-002    0.000000000000000E+000
 -3.030000000000000E-002    0.000000000000000E+000
 -3.020000000000000E-002    0.000000000000000E+000
 -3.010000000000000E-002    0.000000000000000E+000
 -3.000000000000000E-002    0.000000000000000E+000
 -2.990000000000000E-002    0.000000000000000E+000
 -2.980000000000000E-002    0.000000000000000E+000
 -2.970000000000000E-002    0.000000000000000E+000
 -2.960000000000000E-002    0.000000000000000E+000
 -2.950000000000000E-002    0.000000000000000E+000
 -2.940000000000000E-002    0.000000000000000E+000
 -2.930000000000000E-002    0.000000000000000E+000
 -2.920000000000000E-002    0.000000000000000E+000
 -2.910000000000000E-002    0.000000000000000E+000
 -2.900000000000000E-002    0.000000000000000E+000
 -2.890000000000000E-002    0.000000000000000E+000
 -2.880000000000000E-002    0.000000000000000E+000
 -2.870000000000000E-002    0.000000000000000E+000
 -2.860000000000000E-002    0.000000000000000E+000
 -2.850000000000000E-002    0.000000000000000E+000
 -2.840000000000000E-002    0.000000000000000E+000
 -2.830000000000000E-002    0.000000000000000E+000
 -2.820000000000000E-002    0.000000000000000E+000
 -2.810000000000000E-002    0.000000000000000E+000
 -2.800000000000000E-002    0.000000000000000E+000
 -2.790000000000000E-002    0.000000000000000E+000
 -2.780000000000000E-002    0.000000000000000E+000
 -2.770000000000000E-002    0.000000000000000E+000
 -2.760000000000000E-002    0.000000000000000E+000
 -2.750000000000000E-002    0.000000000000000E+000
 -2.740000000000000E-002    0.000000000000000E+000
 -2.730000000000000E-002    0.000000000000000E+000
 -2.720000000000000E-002    0.000000000000000E+000
 -2.710000000000000E-002    0.000000000000000E+000
 -2.700000000000000E-002    0.000000000000000E+000
 -2.690000000000000E-002    0.000000000000000E+000
 -2.680000000000000E-002    0.000000000000000E+000
 -2.670000000000000E-002    0.000000000000000E+000
 -2.660000000000000E-002    0.000000000000000E+000
 -2.650000000000000E-002    0.000000000000000E+000
 -2.640000000000000E-002    0.000000000000000E+000
 -2.630000000000000E-002    0.000000000000000E+000
 -2.620000000000000E-002    0.000000000000000E+000
 -2.610000000000000E-002    0.000000000000000E+000
 -2.600000000000000E-002    0.000000000000000E+000
 -2.590000000000000E-002    0.000000000000000E+000
 -2.580000000000000E-002    0.000000000000000E+000
 -2.570000000000000E-002    0.000000000000000E+000
 -2.560000000000000E-002    0.000000000000000E+000
 -2.550000000000000E-002    0.000000000000000E+000
 -2.540000000000000E-002    0.000000000000000E+000
 -2.530000000000000E-002    0.000000000000000E+000
 -2.520000000000000E-002    0.000000000000000E+000
 -2.510000000000000E-002    0.000000000000000E+000
 -2.500000000000000E-002    0.000000000000000E+000
 -2.490000000000000E-002    0.000000000000000E+000
 -2.480000000000000E-002    0.000000000000000E+000
 -2.470000000000000E-002    0.000000000000000E+000
 -2.460000000000000E-002    0.000000000000000E+000
 -2.450000000000000E-002    0.000000000000000E+000
 -2.440000000000000E-002    0.000000000000000E+000
 -2.430000000000000E-002    0.000000000000000E+000
 -2.420000000000000E-002    0.000000000000000E+000
 -2.410000000000000E-002    0.000000000000000E+000
 -2.400000000000000E-002    0.000000000000000E+000
 -2.390000000000000E-002    0.000000000000000E+000
 -2.380000000000000E-002    0.000000000000000E+000
 -2.370000000000000E-002    0.000000000000000E+000
 -2.360000000000000E-002    0.000000000000000E+000
 -2.350000000000000E-002    0.000000000000000E+000
 -2.340000000000000E-002    0.000000000000000E+000
 -2.330000000000000E-002    0.000000000000000E+000
 -2.320000000000000E-002    0.000000000000000E+000
 -2.310000000000000E-002    0.000000000000000E+000
 -2.300000000000000E-002    0.000000000000000E+000
 -2.290000000000000E-002    0.000000000000000E+000
 -2.280000000000000E-002    0.000000000000000E+000
 -2.270000000000000E-002    0.000000000000000E+000
 -2.260000000000000E-002    0.000000000000000E+000
 -2.250000000000000E-002    0.000000000000000E+000
 -2.240000000000000E-002    0.000000000000000E+000
 -2.230000000000000E-002    0.000000000000000E+000
 -2.220000000000000E-002    0.000000000000000E+000
 -2.210000000000000E-002    0.000000000000000E+000
 -2.200000000000000E-002    0.000000000000000E+000
 -2.190000000000000E-002    0.000000000000000E+000
 -2.180000000000000E-002    0.000000000000000E+000
 -2.170000000000000E-002    0.000000000000000E+000
 -2.160000000000000E-002    0.000000000000000E+000
 -2.150000000000000E-002    0.000000000000000E+000
 -2.140000000000000E-002    0.000000000000000E+000
 -2.130000000000000E-002    0.000000000000000E+000
 -2.120000000000000E-002    0.000000000000000E+000
 -2.110000000000000E-002    0.000000000000000E+000
 -2.100000000000000E-002    0.000000000000000E+000
 -2.090000000000000E-002    0.000000000000000E+000
 -2.080000000000000E-002    0.000000000000000E+000
 -2.070000000000000E-002    0.000000000000000E+000
 -2.060000000000000E-002    0.000000000000000E+000
 -2.050000000000000E-002    0.000000000000000E+000
 -2.040000000000000E-002    0.000000000000000E+000
 -2.030000000000000E-002    0.000000000000000E+000
 -2.020000000000000E-002    0.000000000000000E+000
 -2.010000000000000E-002    0.000000000000000E+000
 -2.000000000000000E-002    0.000000000000000E+000
 -1.990000000000000E-002    0.000000000000000E+000
 -1.980000000000000E-002    0.000000000000000E+000
 -1.970000000000000E-002    0.000000000000000E+000
 -1.960000000000000E-002    0.000000000000000E+000
 -1.950000000000000E-002    0.000000000000000E+000
 -1.940000000000000E-002    0.000000000000000E+000
 -1.930000000000000E-002    0.000000000000000E+000
 -1.920000000000000E-002    0.000000000000000E+000
 -1.910000000000000E-002    0.000000000000000E+000
 -1.900000000000000E-002    0.000000000000000E+000
 -1.890000000000000E-002    0.000000000000000E+000
 -1.880000000000000E-002    0.000000000000000E+000
 -1.870000000000000E-002    0.000000000000000E+000
 -1.860000000000000E-002    0.000000000000000E+000
 -1.850000000000000E-002    0.000000000000000E+000
 -1.840000000000000E-002    0.000000000000000E+000
 -1.830000000000000E-002    0.000000000000000E+000
 -1.820000000000000E-002    0.000000000000000E+000
 -1.810000000000000E-002    0.000000000000000E+000
 -1.800000000000000E-002    0.000000000000000E+000
 -1.790000000000000E-002    0.000000000000000E+000
 -1.780000000000000E-002    0.000000000000000E+000
 -1.770000000000000E-002    0.000000000000000E+000
 -1.760000000000000E-002    0.000000000000000E+000
 -1.750000000000000E-002    0.000000000000000E+000
 -1.740000000000000E-002    0.000000000000000E+000
 -1.730000000000000E-002    0.000000000000000E+000
 -1.720000000000000E-002    0.000000000000000E+000
 -1.710000000000000E-002    0.000000000000000E+000
 -1.700000000000000E-002    0.000000000000000E+000
 -1.690000000000000E-002    0.000000000000000E+000
 -1.680000000000000E-002    0.000000000000000E+000
 -1.670000000000000E-002    0.000000000000000E+000
 -1.660000000000000E-002    0.000000000000000E+000
 -1.650000000000000E-002    0.000000000000000E+000
 -1.640000000000000E-002    0.000000000000000E+000
 -1.630000000000000E-002    0.000000000000000E+000
 -1.620000000000000E-002    0.000000000000000E+000
 -1.610000000000000E-002    0.000000000000000E+000
 -1.600000000000000E-002    0.000000000000000E+000
 -1.590000000000000E-002    0.000000000000000E+000
 -1.580000000000000E-002    0.000000000000000E+000
 -1.570000000000000E-002    0.000000000000000E+000
 -1.560000000000000E-002    0.000000000000000E+000
 -1.550000000000000E-002    0.000000000000000E+000
 -1.540000000000000E-002    0.000000000000000E+000
 -1.530000000000000E-002    0.000000000000000E+000
 -1.520000000000000E-002    0.000000000000000E+000
 -1.510000000000000E-002    0.000000000000000E+000
 -1.500000000000000E-002    0.000000000000000E+000
 -1.490000000000000E-002    0.000000000000000E+000
 -1.480000000000000E-002    0.000000000000000E+000
 -1.470000000000000E-002    0.000000000000000E+000
 -1.460000000000000E-002    0.000000000000000E+000
 -1.450000000000000E-002    0.000000000000000E+000
 -1.440000000000000E-002    0.000000000000000E+000
 -1.430000000000000E-002    0.000000000000000E+000
 -1.420000000000000E-002    0.000000000000000E+000
 -1.410000000000000E-002    0.000000000000000E+000
 -1.400000000000000E-002    0.000000000000000E+000
 -1.390000000000000E-002    0.000000000000000E+000
 -1.380000000000000E-002    0.000000000000000E+000
 -1.370000000000000E-002    0.000000000000000E+000
 -1.360000000000000E-002    0.000000000000000E+000
 -1.350000000000000E-002    0.000000000000000E+000
 -1.340000000000000E-002    0.000000000000000E+000
 -1.330000000000000E-002    0.000000000000000E+000
 -1.320000000000000E-002    0.000000000000000E+000
 -1.310000000000000E-002    0.000000000000000E+000
 -1.300000000000000E-002    0.000000000000000E+000
 -1.290000000000000E-002    4.064117519239238E-048
 -1.280000000000000E-002    8.128235038478476E-048
 -1.270000000000000E-002    8.128235038478476E-048
 -1.260000000000000E-002    8.128235038478476E-048
 -1.250000000000000E-002    4.064117519239238E-048
 -1.240000000000000E-002   -1.385494585880785E-048
 -1.230000000000000E-002   -1.089922421024004E-047
 -1.220000000000000E-002    8.746013640222673E-049
 -1.210000000000000E-002   -2.627048941321300E-048
 -1.200000000000000E-002   -8.807322180023320E-048
 -1.190000000000000E-002   -1.360210083284456E-047
 -1.180000000000000E-002   -1.433276196642655E-047
 -1.170000000000000E-002   -1.417686876752194E-047
 -1.160000000000000E-002   -1.051932526327375E-047
 -1.150000000000000E-002   -8.360977126716114E-047
 -1.140000000000000E-002   -1.232962650651598E-046
 -1.130000000000000E-002   -1.458192319242420E-046
 -1.120000000000000E-002   -1.119545313249081E-046
 -1.110000000000000E-002   -5.344456102066271E-047
 -1.100000000000000E-002   -5.962931129544008E-048
 -1.090000000000000E-002    1.172589404708003E-046
 -1.080000000000000E-002    2.582689640919693E-046
 -1.070000000000000E-002    5.018040108005699E-046
 -1.060000000000000E-002    8.604452167157425E-046
 -1.050000000000000E-002    7.838976666690537E-046
 -1.040000000000000E-002    9.354318306667667E-046
 -1.030000000000000E-002    9.857978043023661E-046
 -1.020000000000000E-002    8.561526540825744E-046
 -1.010000000000000E-002    1.255440025815243E-045
 -1.000000000000000E-002    1.114171576846242E-045
 -9.899999999999999E-003    1.158791050582222E-045
 -9.800000000000000E-003    5.014647041095845E-046
 -9.699999999999999E-003   -7.537136668186689E-046
 -9.599999999999999E-003   -2.926010381762991E-045
 -9.500000000000000E-003   -4.964393513530754E-045
 -9.399999999999999E-003   -7.469680022369949E-045
 -9.299999999999999E-003   -9.265022246643998E-045
 -9.200000000000000E-003   -1.061358588349201E-044
 -9.099999999999999E-003   -1.054821295879476E-044
 -8.999999999999999E-003   -8.826634074227750E-045
 -8.900000000000000E-003   -4.674341932777530E-045
 -8.799999999999999E-003    1.876409839737111E-045
 -8.699999999999999E-003    1.229602125712835E-044
 -8.600000000000000E-003    2.548805427624668E-044
 -8.499999999999999E-003    4.126785408024885E-044
 -8.399999999999999E-003    5.818062338786159E-044
 -8.300000000000000E-003    7.518904310950215E-044
 -8.199999999999999E-003    8.787862409895116E-044
 -8.100000000000000E-003    9.269696736593064E-044
 -8.000000000000000E-003    8.634413215561756E-044
 -7.899999999999999E-003    6.401866621223401E-044
 -7.800000000000000E-003    2.144232627758181E-044
 -7.699999999999999E-003   -4.371849647280825E-044
 -7.599999999999999E-003   -1.328873817173144E-043
 -7.499999999999999E-003   -2.440742211271759E-043
 -7.399999999999999E-003   -3.703957030837553E-043
 -7.299999999999999E-003   -4.998269186761550E-043
 -7.199999999999999E-003   -6.137893452965926E-043
 -7.100000000000000E-003   -6.891538647361991E-043
 -6.999999999999999E-003   -6.958967206538772E-043
 -6.899999999999999E-003   -6.018217896619444E-043
 -6.800000000000000E-003   -3.756829687729482E-043
 -6.699999999999999E-003    8.596710595651285E-045
 -6.599999999999999E-003    5.652561882713027E-043
 -6.499999999999999E-003    1.290397720281073E-042
 -6.399999999999999E-003    2.150739992956412E-042
 -6.299999999999999E-003    3.082291188927695E-042
 -6.199999999999999E-003    3.978674129617599E-042
 -6.100000000000000E-003    4.694953329228519E-042
 -5.999999999999999E-003    5.049086028628882E-042
 -5.899999999999999E-003    4.831768842536991E-042
 -5.800000000000000E-003    3.825380342243245E-042
 -5.699999999999999E-003    1.834613474440613E-042
 -5.599999999999999E-003   -1.279773710568549E-042
 -5.499999999999999E-003   -5.554267771513587E-042
 -5.399999999999999E-003   -1.087681988608181E-041
 -5.299999999999999E-003   -1.693877211823411E-041
 -5.199999999999999E-003   -2.319759710755598E-041
 -5.099999999999999E-003   -2.885536036164813E-041
 -4.999999999999999E-003   -3.286961035503669E-041
 -4.899999999999999E-003   -3.399431278501071E-041
 -4.799999999999999E-003   -3.087543275317896E-041
 -4.699999999999999E-003   -2.219331609633703E-041
 -4.599999999999999E-003   -6.863689077138403E-042
 -4.499999999999999E-003    1.572300807377358E-041
 -4.399999999999999E-003    4.542115982845933E-041
 -4.299999999999999E-003    8.105166865128331E-041
 -4.199999999999999E-003    1.201544090635779E-040
 -4.099999999999999E-003    1.588179043735954E-040
 -3.999999999999999E-003    1.916400836283059E-040
 -3.899999999999999E-003    2.118817645691742E-040
 -3.799999999999999E-003    2.118562878807689E-040
 -3.699999999999999E-003    1.835985440147698E-040
 -3.599999999999999E-003    1.198259666395521E-040
 -3.499999999999999E-003    1.517607479152337E-041
 -3.399999999999999E-003   -1.323491697871507E-040
 -3.299999999999999E-003   -3.198440607267094E-040
 -3.199999999999999E-003   -5.380373583726477E-040
 -3.099999999999999E-003   -7.701281982580239E-040
 -2.999999999999999E-003   -9.911823455719113E-040
 -2.899999999999999E-003   -1.168382056896236E-039
 -2.799999999999999E-003   -1.262392744964123E-039
 -2.699999999999999E-003   -1.230075196475123E-039
 -2.599999999999999E-003   -1.028673579485979E-039
 -2.499999999999999E-003   -6.214537845839160E-040
 -2.399999999999999E-003    1.542050476490125E-041
 -2.299999999999999E-003    8.852289011412284E-040
 -2.199999999999999E-003    1.962967506531390E-039
 -2.099999999999999E-003    3.188503323685730E-039
 -1.999999999999999E-003    4.461803019303487E-039
 -1.899999999999999E-003    5.641546932763109E-039
 -1.799999999999999E-003    6.548440444132553E-039
 -1.699999999999999E-003    6.974412734322421E-039
 -1.599999999999999E-003    6.698507489083012E-039
 -1.499999999999999E-003    5.509728955394792E-039
 -1.399999999999999E-003    3.236296239817123E-039
 -1.299999999999999E-003   -2.201997807506825E-040
 -1.199999999999999E-003   -4.848334919296723E-039
 -1.099999999999999E-003   -1.049179458104387E-038
 -9.999999999999989E-004   -1.682044217390543E-038
 -8.999999999999990E-004   -2.331298813214228E-038
 -7.999999999999990E-004   -2.925694810357459E-038
 -6.999999999999989E-004   -3.377138320389321E-038
 -5.999999999999990E-004   -3.585675246562555E-038
 -4.999999999999989E-004   -3.447433531866902E-038
 -3.999999999999989E-004   -2.865489719980128E-038
 -2.999999999999989E-004   -1.763272034400884E-038
 -1.999999999999989E-004   -9.971079557886577E-040
 -9.999999999999892E-005    2.115115728725741E-038
  1.084202172485504E-018    4.805466162009107E-038
  1.000000000000011E-004    7.818552157025180E-038
  2.000000000000011E-004    1.091847519547755E-037
  3.000000000000011E-004    1.378767624420018E-037
  4.000000000000011E-004    1.603787642209520E-037
  5.000000000000011E-004    1.723194088614849E-037
  6.000000000000011E-004    1.691729708864690E-037
  7.000000000000011E-004    1.467042402577684E-037
  8.000000000000011E-004    1.015064508611255E-037
  9.000000000000012E-004    3.159951791576015E-038
  1.000000000000001E-003   -6.295829397386808E-038
  1.100000000000001E-003   -1.795057070356224E-037
  1.200000000000001E-003   -3.123309286359434E-037
  1.300000000000001E-003   -4.524162447739566E-037
  1.400000000000001E-003   -5.874490886761568E-037
  1.500000000000001E-003   -7.021636575137700E-037
  1.600000000000001E-003   -7.790613451552603E-037
  1.700000000000001E-003   -7.995313013971684E-037
  1.800000000000001E-003   -7.453623761009291E-037
  1.900000000000001E-003   -6.005973894813180E-037
  2.000000000000001E-003   -3.536430211477395E-037
  2.100000000000001E-003    4.938476862943107E-040
  2.200000000000001E-003    4.580063882655914E-037
  2.300000000000001E-003    1.004322356712063E-036
  2.400000000000001E-003    1.612583516805857E-036
  2.500000000000001E-003    2.242800543669277E-036
  2.600000000000001E-003    2.841898002636130E-036
  2.700000000000001E-003    3.344858912353635E-036
  2.800000000000001E-003    3.677138856430623E-036
  2.900000000000001E-003    3.758486699895016E-036
  3.000000000000001E-003    3.508239732725417E-036
  3.100000000000001E-003    2.852101973906829E-036
  3.200000000000001E-003    1.730319465914922E-036
  3.300000000000001E-003    1.070513587451418E-037
  3.400000000000001E-003   -2.019399305111209E-036
  3.500000000000001E-003   -4.606006716473264E-036
  3.600000000000001E-003   -7.554820147536653E-036
  3.700000000000001E-003   -1.070411616764111E-035
  3.800000000000001E-003   -1.382215059674593E-035
  3.900000000000001E-003   -1.660505095646205E-035
  4.000000000000001E-003   -1.868060904528636E-035
  4.100000000000001E-003   -1.961995876884201E-035
  4.200000000000001E-003   -1.895905877196086E-035
  4.300000000000001E-003   -1.623172804967968E-035
  4.400000000000001E-003   -1.101538904424079E-035
  4.500000000000001E-003   -2.989685925326068E-036
  4.600000000000002E-003    7.993300304730639E-036
  4.700000000000001E-003    2.183049023667853E-035
  4.800000000000001E-003    3.808656787191459E-035
  4.900000000000002E-003    5.591844306873120E-035
  5.000000000000001E-003    7.401659400528518E-035
  5.100000000000001E-003    9.057700554777544E-035
  5.200000000000001E-003    1.033190721354721E-034
  5.300000000000002E-003    1.095653951407878E-034
  5.400000000000001E-003    1.063978450825805E-034
  5.500000000000001E-003    9.090009866262702E-035
  5.600000000000002E-003    6.049053583834279E-035
  5.700000000000001E-003    1.333865210794308E-035
  5.800000000000001E-003   -5.115481077726778E-035
  5.900000000000002E-003   -1.318483803054822E-034
  6.000000000000001E-003   -2.253734743870574E-034
  6.100000000000001E-003   -3.257387543563245E-034
  6.200000000000002E-003   -4.241065122477674E-034
  6.300000000000002E-003   -5.088302839850721E-034
  6.400000000000001E-003   -5.658415461602135E-034
  6.500000000000001E-003   -5.794610522925123E-034
  6.600000000000002E-003   -5.336837670148578E-034
  6.700000000000001E-003   -4.139441388680827E-034
  6.800000000000001E-003   -2.093102363170930E-034
  6.900000000000002E-003    8.501476725712079E-035
  7.000000000000001E-003    4.650848965720884E-034
  7.100000000000001E-003    9.157808843073300E-034
  7.200000000000002E-003    1.408910243318992E-033
  7.300000000000002E-003    1.902245506047593E-033
  7.400000000000001E-003    2.339923584238490E-033
  7.500000000000001E-003    2.654603825008338E-033
  7.600000000000002E-003    2.771684866759160E-033
  7.700000000000001E-003    2.615738521126207E-033
  7.800000000000001E-003    2.119082675895210E-033
  7.900000000000001E-003    1.232142210349986E-033
  8.000000000000002E-003   -6.509910976646489E-035
  8.100000000000001E-003   -1.751584558317181E-033
  8.200000000000001E-003   -3.754970068615584E-033
  8.300000000000002E-003   -5.944352667650626E-033
  8.400000000000001E-003   -8.127691108472987E-033
  8.500000000000002E-003   -1.005567004615700E-032
  8.600000000000002E-003   -1.143349256008787E-032
  8.700000000000001E-003   -1.194155608506309E-032
  8.800000000000002E-003   -1.126523030923150E-032
  8.900000000000002E-003   -9.132863966592604E-033
  9.000000000000001E-003   -5.359927779238602E-033
  9.100000000000002E-003    1.041227871774816E-034
  9.200000000000002E-003    7.131046149553650E-033
  9.300000000000001E-003    1.537698853183022E-032
  9.400000000000002E-003    2.426024696541867E-032
  9.500000000000001E-003    3.296049156824882E-032
  9.600000000000001E-003    4.044554820610159E-032
  9.700000000000002E-003    4.553049150826708E-032
  9.800000000000001E-003    4.697114203624694E-032
  9.900000000000001E-003    4.359059841956031E-032
  1.000000000000000E-002    3.443318084275562E-032
  1.010000000000000E-002    1.893530944065837E-032
  1.020000000000000E-002   -2.901991511928589E-033
  1.030000000000000E-002   -3.035874794869400E-032
  1.040000000000000E-002   -6.188273079857290E-032
  1.050000000000000E-002   -9.504166118368130E-032
  1.060000000000000E-002   -1.265640696238778E-031
  1.070000000000000E-002   -1.524877628963395E-031
  1.080000000000000E-002   -1.684277195871202E-031
  1.090000000000000E-002   -1.699632865669535E-031
  1.100000000000000E-002   -1.531320832321748E-031
  1.110000000000000E-002   -1.150009765176803E-031
  1.120000000000000E-002   -5.426811486163341E-032
  1.130000000000000E-002    2.816524000525220E-032
  1.140000000000000E-002    1.287270560104407E-031
  1.150000000000000E-002    2.408918795908319E-031
  1.160000000000000E-002    3.551632110180989E-031
  1.170000000000000E-002    4.593904432582283E-031
  1.180000000000000E-002    5.394687558232336E-031
  1.190000000000000E-002    5.804387676806459E-031
  1.200000000000000E-002    5.679591081295287E-031
  1.210000000000000E-002    4.900780265810791E-031
  1.220000000000000E-002    3.391737625204929E-031
  1.230000000000000E-002    1.138847723706710E-031
  1.240000000000000E-002   -1.791952816160876E-031
  1.250000000000000E-002   -5.243058646133692E-031
  1.260000000000000E-002   -8.960504318803240E-031
  1.270000000000000E-002   -1.259905366363285E-030
  1.280000000000000E-002   -1.573879676880651E-030
  1.290000000000000E-002   -1.791420745371842E-030
  1.300000000000000E-002   -1.865530571621606E-030
  1.310000000000000E-002   -1.753915114667462E-030
  1.320000000000000E-002   -1.424826930875762E-030
  1.330000000000000E-002   -8.631029329903419E-031
  1.340000000000000E-002   -7.575725713472407E-032
  1.350000000000000E-002    9.036051350932817E-031
  1.360000000000000E-002    2.012331082751167E-030
  1.370000000000000E-002    3.158955483536732E-030
  1.380000000000000E-002    4.226716163858749E-030
  1.390000000000000E-002    5.080719740766651E-030
  1.400000000000000E-002    5.578775241875970E-030
  1.410000000000000E-002    5.585519570678700E-030
  1.420000000000000E-002    4.988983722731839E-030
  1.430000000000000E-002    3.718302145292538E-030
  1.440000000000000E-002    1.760803353646772E-030
  1.450000000000000E-002   -8.235544803667991E-031
  1.460000000000000E-002   -3.892624591127614E-030
  1.470000000000000E-002   -7.219567451365618E-030
  1.480000000000000E-002   -1.049920710137677E-029
  1.490000000000000E-002   -1.336453449626240E-029
  1.500000000000000E-002   -1.541369075457210E-029
  1.510000000000000E-002   -1.624673711248358E-029
  1.520000000000000E-002   -1.551019710982893E-029
  1.530000000000000E-002   -1.294607837090629E-029
  1.540000000000000E-002   -8.440854362955169E-030
  1.550000000000000E-002   -2.068903860845143E-030
  1.560000000000000E-002    5.875596536255938E-030
  1.570000000000000E-002    1.486440564614524E-029
  1.580000000000000E-002    2.414390810886047E-029
  1.590000000000000E-002    3.277056785524025E-029
  1.600000000000000E-002    3.967493813183503E-029
  1.610000000000000E-002    4.375296904329468E-029
  1.620000000000000E-002    4.398020534196307E-029
  1.630000000000000E-002    3.954082824751881E-029
  1.640000000000000E-002    2.996020149105271E-029
  1.650000000000000E-002    1.522695098046446E-029
  1.660000000000000E-002   -4.111233741988239E-030
  1.670000000000000E-002   -2.689424159333525E-029
  1.680000000000000E-002   -5.135306603364531E-029
  1.690000000000000E-002   -7.518142682406481E-029
  1.700000000000000E-002   -9.568136269016868E-029
  1.710000000000000E-002   -1.099813200027100E-028
  1.720000000000000E-002   -1.153170506992361E-028
  1.730000000000000E-002   -1.093564860680134E-028
  1.740000000000000E-002   -9.054116040408260E-029
  1.750000000000000E-002   -5.840926422716270E-029
  1.760000000000000E-002   -1.386080916128242E-029
  1.770000000000000E-002    4.067644380881407E-029
  1.780000000000000E-002    1.012179767441458E-028
  1.790000000000000E-002    1.623603396625312E-028
  1.800000000000000E-002    2.176035771278323E-028
  1.810000000000000E-002    2.598572332818174E-028
  1.820000000000000E-002    2.821093605038172E-028
  1.830000000000000E-002    2.782148518208352E-028
  1.840000000000000E-002    2.437377139136428E-028
  1.850000000000000E-002    1.767632842247900E-028
  1.860000000000000E-002    7.858315497877364E-029
  1.870000000000000E-002   -4.584761117928110E-029