 -4.000000000000000E-002    0.000000000000000E+000
 -3.990000000000000E-002    0.000000000000000E+000
 -3.980000000000000E-002    0.000000000000000E+000
 -3.970000000000000E-002    0.000000000000000E+000
 -3.960000000000000E-002    0.000000000000000E+000
 -3.950000000000000E-002    0.000000000000000E+000
 -3.940000000000000E-002    0.000000000000000E+000
 -3.930000000000000E-002    0.000000000000000E+000
 -3.920000000000000E-002    0.000000000000000E+000
 -3.910000000000000E-002    0.000000000000000E+000
 -3.900000000000000E-002    0.000000000000000E+000
 -3.890000000000000E-002    0.000000000000000E+000
 -3.880000000000000E-002    0.000000000000000E+000
 -3.870000000000000E-002    0.000000000000000E+000
 -3.860000000000000E-002    0.000000000000000E+000
 -3.850000000000000E-002    8.787005963477251E-048
 -3.840000000000000E-002    1.792471103687314E-046
 -3.830000000000000E-002    2.658220156853272E-045
 -3.820000000000000E-002    2.762898237862093E-044
 -3.810000000000000E-002    2.227529822788926E-043
 -3.800000000000000E-002    1.448979690985553E-042
 -3.790000000000000E-002    7.987157391795942E-042
 -3.780000000000000E-002    3.841110013618126E-041
 -3.770000000000000E-002    1.642359481926435E-040
 -3.760000000000000E-002    6.331775195842292E-040
 -3.750000000000000E-002    2.224422701352193E-039
 -3.740000000000000E-002    7.177961999650142E-039
 -3.730000000000000E-002    2.140020264545994E-038
 -3.720000000000000E-002    5.918333756444700E-038
 -3.710000000000000E-002    1.521502889067105E-037
 -3.700000000000000E-002    3.636124459358693E-037
 -3.690000000000000E-002    8.054599921350541E-037
 -3.680000000000000E-002    1.641429031012530E-036
 -3.670000000000000E-002    3.027230426598385E-036
 -3.660000000000000E-002    4.866473744719222E-036
 -3.650000000000000E-002    6.126116686643965E-036
 -3.640000000000000E-002    3.229214713709930E-036
 -3.630000000000000E-002   -1.328446144007410E-035
 -3.620000000000000E-002   -6.502148774920376E-035
 -3.610000000000000E-002   -1.963737956578950E-034
 -3.600000000000000E-002   -4.907068389127041E-034
 -3.590000000000000E-002   -1.091646222208267E-033
 -3.580000000000000E-002   -2.224715071064066E-033
 -3.570000000000000E-002   -4.205707406946389E-033
 -3.560000000000000E-002   -7.406505470110283E-033
 -3.550000000000000E-002   -1.212468770571931E-032
 -3.540000000000000E-002   -1.827027581006929E-032
 -3.530000000000000E-002   -2.474595987589315E-032
 -3.520000000000000E-002   -2.836920198717457E-032
 -3.510000000000000E-002   -2.219227283659259E-032
 -3.500000000000000E-002    6.836013925046063E-033
 -3.490000000000000E-002    8.069010060809784E-032
 -3.480000000000000E-002    2.329325554252171E-031
 -3.470000000000000E-002    5.098178322034477E-031
 -3.460000000000000E-002    9.672984961551327E-031
 -3.450000000000000E-002    1.659943373676439E-030
 -3.440000000000000E-002    2.616210029584854E-030
 -3.430000000000000E-002    3.793314162816124E-030
 -3.420000000000000E-002    5.004975789316459E-030
 -3.410000000000000E-002    5.817905029459630E-030
 -3.400000000000000E-002    5.419781611393775E-030
 -3.390000000000000E-002    2.474653566300146E-030
 -3.380000000000000E-002   -4.997081351313635E-030
 -3.370000000000000E-002   -1.964689392523981E-029
 -3.360000000000000E-002   -4.462993250893566E-029
 -3.350000000000000E-002   -8.309629552884179E-029
 -3.340000000000000E-002   -1.371666636493627E-028
 -3.330000000000000E-002   -2.062121679695443E-028
 -3.320000000000000E-002   -2.843042786053301E-028
 -3.310000000000000E-002   -3.568278086371177E-028
 -3.300000000000000E-002   -3.964916741603214E-028
 -3.290000000000000E-002   -3.593536016903087E-028
 -3.280000000000000E-002   -1.820044695976451E-028
 -3.270000000000000E-002    2.182945893810571E-028
 -3.260000000000000E-002    9.380457612912748E-028
 -3.250000000000000E-002    2.073484699810230E-027
 -3.240000000000000E-002    3.694864047776928E-027
 -3.230000000000000E-002    5.806340391589252E-027
 -3.220000000000000E-002    8.290368282534774E-027
 -3.210000000000000E-002    1.083859803784658E-026
 -3.200000000000000E-002    1.287616721744734E-026
 -3.190000000000000E-002    1.349300822811984E-026
 -3.180000000000000E-002    1.140401112031504E-026
 -3.170000000000000E-002    4.968617380973785E-027
 -3.160000000000000E-002   -7.692067976910197E-027
 -3.150000000000000E-002   -2.843888577389075E-026
 -3.140000000000000E-002   -5.868075554941524E-026
 -3.130000000000000E-002   -9.873982705875522E-026
 -3.120000000000000E-002   -1.470217779573536E-025
 -3.110000000000000E-002   -1.990447845184544E-025
 -3.100000000000000E-002   -2.464462641303949E-025
 -3.090000000000000E-002   -2.761669771091575E-025
 -3.080000000000000E-002   -2.700992282441952E-025
 -3.070000000000000E-002   -2.055642397818703E-025
 -3.060000000000000E-002   -5.703184604823164E-026
 -3.050000000000000E-002    2.005148356964151E-025
 -3.040000000000000E-002    5.862672186326463E-025
 -3.030000000000000E-002    1.106249741254243E-024
 -3.020000000000000E-002    1.744230427357515E-024
 -3.010000000000000E-002    2.451674866648771E-024
 -3.000000000000000E-002    3.138169338831308E-024
 -2.990000000000000E-002    3.664439611621224E-024
 -2.980000000000000E-002    3.840746894996229E-024
 -2.970000000000000E-002    3.433913112014361E-024
 -2.960000000000000E-002    2.186305692915680E-024
 -2.950000000000000E-002   -1.504021100151752E-025
 -2.940000000000000E-002   -3.765199243696189E-024
 -2.930000000000000E-002   -8.722216918472421E-024
 -2.920000000000000E-002   -1.488377365915733E-023
 -2.910000000000000E-002   -2.183019956682103E-023
 -2.900000000000000E-002   -2.878931076100057E-023
 -2.890000000000000E-002   -3.459298694106680E-023
 -2.880000000000000E-002   -3.768188123299857E-023
 -2.870000000000000E-002   -3.618074157741766E-023
 -2.860000000000000E-002   -2.806493465750440E-023
 -2.850000000000000E-002   -1.143221114937404E-023
 -2.840000000000000E-002    1.511819035967051E-023
 -2.830000000000000E-002    5.201493012881169E-023
 -2.820000000000000E-002    9.819132139202002E-023
 -2.810000000000000E-002    1.505750592783808E-022
 -2.800000000000000E-002    2.036834252478368E-022
 -2.790000000000000E-002    2.494392268267734E-022
 -2.780000000000000E-002    2.773354773649512E-022
 -2.770000000000000E-002    2.750729883079557E-022
 -2.760000000000000E-002    2.297682853130161E-022
 -2.750000000000000E-002    1.297750096250532E-022
 -2.740000000000000E-002   -3.292280058972381E-023
 -2.730000000000000E-002   -2.598992689204657E-022
 -2.720000000000000E-002   -5.433437913847927E-022
 -2.710000000000000E-002   -8.634118277165746E-022
 -2.700000000000000E-002   -1.186418899238543E-021
 -2.690000000000000E-002   -1.464509141376416E-021
 -2.680000000000000E-002   -1.637441229815938E-021
 -2.670000000000000E-002   -1.637044062199783E-021
 -2.660000000000000E-002   -1.394679717652675E-021
 -2.650000000000000E-002   -8.516970775393193E-022
 -2.640000000000000E-002    2.762582251210812E-023
 -2.630000000000000E-002    1.241741326781056E-021
 -2.620000000000000E-002    2.737819779130573E-021
 -2.610000000000000E-002    4.400385794420714E-021
 -2.600000000000000E-002    6.045370899838609E-021
 -2.590000000000000E-002    7.422516991332236E-021
 -2.580000000000000E-002    8.228832586542175E-021
 -2.570000000000000E-002    8.135059534930104E-021
 -2.560000000000000E-002    6.825784047770626E-021
 -2.550000000000000E-002    4.051941471920095E-021
 -2.540000000000000E-002   -3.079009173921463E-022
 -2.530000000000000E-002   -6.183728276909335E-021
 -2.520000000000000E-002   -1.325654403391725E-020
 -2.510000000000000E-002   -2.091804588048701E-020
 -2.500000000000000E-002   -2.825957551824254E-020
 -2.490000000000000E-002   -3.410210592700098E-020
 -2.480000000000000E-002   -3.707680230497099E-020
 -2.470000000000000E-002   -3.576129577391349E-020
 -2.460000000000000E-002   -2.887014022420884E-020
 -2.450000000000000E-002   -1.548931475202725E-020
 -2.440000000000000E-002    4.665323703010553E-021
 -2.430000000000000E-002    3.099586843263716E-020
 -2.420000000000000E-002    6.181563566723865E-020
 -2.410000000000000E-002    9.423299911531401E-020
 -2.400000000000000E-002    1.241720837147176E-019
 -2.390000000000000E-002    1.465712909148915E-019
 -2.380000000000000E-002    1.557875813240719E-019
 -2.370000000000000E-002    1.462133156769620E-019
 -2.360000000000000E-002    1.130837102497217E-019
 -2.350000000000000E-002    5.341845668275845E-020
 -2.340000000000000E-002   -3.299539412717114E-020
 -2.330000000000000E-002   -1.427067487201952E-019
 -2.320000000000000E-002   -2.679436070923837E-019
 -2.310000000000000E-002   -3.963617215978185E-019
 -2.300000000000000E-002   -5.113564459404130E-019
 -2.290000000000000E-002   -5.930621707990493E-019
 -2.280000000000000E-002   -6.201039463724956E-019
 -2.270000000000000E-002   -5.720781223128035E-019
 -2.260000000000000E-002   -4.326307610536938E-019
 -2.250000000000000E-002   -1.928809130330356E-019
 -2.240000000000000E-002    1.451845325404393E-019
 -2.230000000000000E-002    5.658190345393784E-019
 -2.220000000000000E-002    1.037666817256602E-018
 -2.210000000000000E-002    1.513501459368323E-018
 -2.200000000000000E-002    1.932031274937016E-018
 -2.190000000000000E-002    2.222099244320036E-018
 -2.180000000000000E-002    2.309367913019432E-018
 -2.170000000000000E-002    2.125265093125329E-018
 -2.160000000000000E-002    1.617601320047786E-018
 -2.150000000000000E-002    7.618835099664601E-019
 -2.140000000000000E-002   -4.279982567643874E-019
 -2.130000000000000E-002   -1.891301063718720E-018
 -2.120000000000000E-002   -3.515881670087941E-018
 -2.110000000000000E-002   -5.139192680324464E-018
 -2.100000000000000E-002   -6.556123485360330E-018
 -2.090000000000000E-002   -7.534402763046962E-018
 -2.080000000000000E-002   -7.837467015288214E-018
 -2.070000000000000E-002   -7.253675296575585E-018
 -2.060000000000000E-002   -5.629650262276134E-018
 -2.050000000000000E-002   -2.904419895730840E-018
 -2.040000000000000E-002    8.598770742142581E-019
 -2.030000000000000E-002    5.455544550379780E-018
 -2.020000000000000E-002    1.052004768432932E-017
 -2.010000000000000E-002    1.554426403712782E-017
 -2.000000000000000E-002    1.990140204206267E-017
 -1.990000000000000E-002    2.289776496364484E-017
 -1.980000000000000E-002    2.384400616121044E-017
 -1.970000000000000E-002    2.214254844766695E-017
 -1.960000000000000E-002    1.738375796908882E-017
 -1.950000000000000E-002    9.440634762390227E-018
 -1.940000000000000E-002   -1.450363737075419E-018
 -1.930000000000000E-002   -1.463577354687110E-017
 -1.920000000000000E-002   -2.903179937797756E-017
 -1.910000000000000E-002   -4.316192069646304E-017
 -1.900000000000000E-002   -5.525203233321057E-017
 -1.890000000000000E-002   -6.338387045160588E-017
 -1.880000000000000E-002   -6.570024580230374E-017
 -1.870000000000000E-002   -6.064767308967532E-017
 -1.860000000000000E-002   -4.723407049481681E-017
 -1.850000000000000E-002   -2.527264145947213E-017
 -1.840000000000000E-002    4.421538774130783E-018
 -1.830000000000000E-002    3.991672387827651E-017
 -1.820000000000000E-002    7.816309056026373E-017
 -1.810000000000000E-002    1.151287517710358E-016
 -1.800000000000000E-002    1.460850857049476E-016
 -1.790000000000000E-002    1.660371226114902E-016
 -1.780000000000000E-002    1.702758618034070E-016
 -1.770000000000000E-002    1.550096454033340E-016
 -1.760000000000000E-002    1.180130618750018E-016
 -1.750000000000000E-002    5.921758211512921E-017
 -1.740000000000000E-002   -1.884014611315577E-017
 -1.730000000000000E-002   -1.107954406973610E-016
 -1.720000000000000E-002   -2.085301468738993E-016
 -1.710000000000000E-002   -3.015942605233171E-016
 -1.700000000000000E-002   -3.779917770996835E-016
 -1.690000000000000E-002   -4.253066792121050E-016
 -1.680000000000000E-002   -4.320992631278611E-016
 -1.670000000000000E-002   -3.894569061084705E-016
 -1.660000000000000E-002   -2.925425820979742E-016
 -1.650000000000000E-002   -1.419553280633227E-016
 -1.640000000000000E-002    5.529506944214578E-017
 -1.630000000000000E-002    2.853879157876959E-016
 -1.620000000000000E-002    5.280200453050295E-016
 -1.610000000000000E-002    7.575588638337916E-016
 -1.600000000000000E-002    9.450345223244882E-016
 -1.590000000000000E-002    1.060889407577974E-015
 -1.580000000000000E-002    1.078298129103919E-015
 -1.570000000000000E-002    9.767706925226379E-016
 -1.560000000000000E-002    7.456676969772262E-016
 -1.550000000000000E-002    3.872013381711795E-016
 -1.540000000000000E-002   -8.151802136213765E-017
 -1.530000000000000E-002   -6.277932557892928E-016
 -1.520000000000000E-002   -1.204324942639921E-015
 -1.510000000000000E-002   -1.752041951351376E-015
 -1.500000000000000E-002   -2.204765897358642E-015
 -1.490000000000000E-002   -2.495482417728092E-015
 -1.480000000000000E-002   -2.563768436917817E-015
 -1.470000000000000E-002   -2.363717028764431E-015
 -1.460000000000000E-002   -1.871534733900953E-015
 -1.450000000000000E-002   -1.091893199685948E-015
 -1.440000000000000E-002   -6.210739980854002E-017
 -1.430000000000000E-002    1.146683782123289E-015
 -1.420000000000000E-002    2.431948575466419E-015
 -1.410000000000000E-002    3.666104304377401E-015
 -1.400000000000000E-002    4.706671891214281E-015
 -1.390000000000000E-002    5.409695971002728E-015
 -1.380000000000000E-002    5.645429595580139E-015
 -1.370000000000000E-002    5.314875223070189E-015
 -1.360000000000000E-002    4.365457374709452E-015
 -1.350000000000000E-002    2.803950820362567E-015
 -1.340000000000000E-002    7.048015265784203E-016
 -1.330000000000000E-002   -1.787773620403158E-015
 -1.320000000000000E-002   -4.465068071913223E-015
 -1.310000000000000E-002   -7.067054673017814E-015
 -1.300000000000000E-002   -9.303144878569857E-015
 -1.290000000000000E-002   -1.087935418161647E-014
 -1.280000000000000E-002   -1.152980541103146E-014
 -1.270000000000000E-002   -1.104973172567275E-014
 -1.260000000000000E-002   -9.326568377822491E-015
 -1.250000000000000E-002   -6.365451057249384E-015
 -1.240000000000000E-002   -2.305541598264162E-015
 -1.230000000000000E-002    2.575897000417040E-015
 -1.220000000000000E-002    7.873835206324463E-015
 -1.210000000000000E-002    1.308110337960637E-014
 -1.200000000000000E-002    1.762864540248290E-014
 -1.190000000000000E-002    2.093805774692948E-014
 -1.180000000000000E-002    2.248241623225510E-014
 -1.170000000000000E-002    2.184994476140317E-014
 -1.160000000000000E-002    1.880407135349893E-014
 -1.150000000000000E-002    1.333290955216146E-014
 -1.140000000000000E-002    5.681440692051108E-015
 -1.130000000000000E-002   -3.639372663982774E-015
 -1.120000000000000E-002   -1.387060054976453E-014
 -1.110000000000000E-002   -2.405217689462455E-014
 -1.100000000000000E-002   -3.309738330680965E-014
 -1.090000000000000E-002   -3.989073879139218E-014
 -1.080000000000000E-002   -4.340200915762948E-014
 -1.070000000000000E-002   -4.280639808116757E-014
 -1.060000000000000E-002   -3.759906749148608E-014
 -1.050000000000000E-002   -2.769118659231634E-014
 -1.040000000000000E-002   -1.347505286968714E-014
 -1.030000000000000E-002    4.152570116329426E-015
 -1.020000000000000E-002    2.381670651932855E-014
 -1.010000000000000E-002    4.374367754307139E-014
 -1.000000000000000E-002    6.189244955046223E-014
 -9.899999999999999E-003    7.613082603770161E-014
 -9.800000000000000E-003    8.444398268346579E-014
 -9.699999999999999E-003    8.515795315495598E-014
 -9.599999999999999E-003    7.715693547304551E-014
 -9.500000000000000E-003    6.007130876906143E-014
 -9.399999999999999E-003    3.441338261037254E-014
 -9.299999999999999E-003    1.640369209481447E-015
 -9.200000000000000E-003   -3.587097871639298E-014
 -9.099999999999999E-003   -7.494661105451051E-014
 -8.999999999999999E-003   -1.118340094427305E-013
 -8.900000000000000E-003   -1.425074892827238E-013
 -8.799999999999999E-003   -1.630398439705588E-013
 -8.699999999999999E-003   -1.700110404031059E-013
 -8.600000000000000E-003   -1.609173039877710E-013
 -8.499999999999999E-003   -1.345394415540003E-013
 -8.399999999999999E-003   -9.122836154096704E-014
 -8.300000000000000E-003   -3.306874443873612E-014
 -8.199999999999999E-003    3.611043958934823E-014
 -8.100000000000000E-003    1.108985192246687E-013
 -8.000000000000000E-003    1.846437994902952E-013
 -7.899999999999999E-003    2.499600677328346E-013
 -7.800000000000000E-003    2.993686105883088E-013
 -7.699999999999999E-003    3.260281602654729E-013
 -7.599999999999999E-003    3.244906271302413E-013
 -7.499999999999999E-003    2.914103837115614E-013
 -7.399999999999999E-003    2.261307335326039E-013
 -7.299999999999999E-003    1.310742133476681E-013
 -7.199999999999999E-003    1.187411373348273E-014
 -7.100000000000000E-003   -1.227971265806942E-013
 -6.999999999999999E-003   -2.617219329987179E-013
 -6.899999999999999E-003   -3.919435042524964E-013
 -6.800000000000000E-003   -4.998403854918301E-013
 -6.699999999999999E-003   -5.723945824650172E-013
 -6.599999999999999E-003   -5.985494286616405E-013
 -6.499999999999999E-003   -5.705318021896417E-013
 -6.399999999999999E-003   -4.850021480372291E-013
 -6.299999999999999E-003   -3.438962913549413E-013
 -6.199999999999999E-003   -1.548378612827473E-013
 -6.100000000000000E-003    6.897085180835880E-014
 -5.999999999999999E-003    3.094304065989163E-013
 -5.899999999999999E-003    5.447967461141505E-013
 -5.800000000000000E-003    7.514454074717832E-013
 -5.699999999999999E-003    9.060290439043461E-013
 -5.599999999999999E-003    9.878552719379281E-013
 -5.499999999999999E-003    9.812695016769167E-013
 -5.399999999999999E-003    8.777997943519487E-013
 -5.299999999999999E-003    6.778176908571625E-013
 -5.199999999999999E-003    3.914879832493998E-013
 -5.099999999999999E-003    3.882673082530337E-014
 -4.999999999999999E-003   -3.512427749824947E-013
 -4.899999999999999E-003   -7.428564823927572E-013
 -4.799999999999999E-003   -1.096115735400343E-012
 -4.699999999999999E-003   -1.370743428070972E-012
 -4.599999999999999E-003   -1.530199427927872E-012
 -4.499999999999999E-003   -1.545884141612034E-012
 -4.399999999999999E-003   -1.401003147915793E-012
 -4.299999999999999E-003   -1.093652800631603E-012
 -4.199999999999999E-003   -6.387142169948340E-013
 -4.099999999999999E-003   -6.821858736681364E-014
 -3.999999999999999E-003    5.700334191907363E-013
 -3.899999999999999E-003    1.215659416262638E-012
 -3.799999999999999E-003    1.800569014525640E-012
 -3.699999999999999E-003    2.255212182676390E-012
 -3.599999999999999E-003    2.515710842951452E-012
 -3.499999999999999E-003    2.531231787796449E-012
 -3.399999999999999E-003    2.270856907963843E-012
 -3.299999999999999E-003    1.729175998688605E-012
 -3.199999999999999E-003    9.298667336967165E-013
 -3.099999999999999E-003   -7.334639208413756E-014
 -2.999999999999999E-003   -1.198758150656575E-012
 -2.899999999999999E-003   -2.341910508648170E-012
 -2.799999999999999E-003   -3.383800403337615E-012
 -2.699999999999999E-003   -4.201558447809675E-012
 -2.599999999999999E-003   -4.680766567956762E-012
 -2.499999999999999E-003   -4.728325280533322E-012
 -2.399999999999999E-003   -4.284593635382870E-012
 -2.299999999999999E-003   -3.333462525295601E-012
 -2.199999999999999E-003   -1.909084539659611E-012
 -2.099999999999999E-003   -9.819083613218491E-014
 -1.999999999999999E-003    1.962732762019715E-012
 -1.899999999999999E-003    4.095687585354939E-012
 -1.799999999999999E-003    6.094564366399558E-012
 -1.699999999999999E-003    7.742889931892894E-012
 -1.599999999999999E-003    8.834560103294700E-012
 -1.499999999999999E-003    9.195758625466357E-012
 -1.399999999999999E-003    8.705939886248260E-012
 -1.299999999999999E-003    7.315636233393648E-012
 -1.199999999999999E-003    5.058946560079629E-012
 -1.099999999999999E-003    2.058888101194438E-012
 -9.999999999999989E-004   -1.475654598969769E-012
 -8.999999999999990E-004   -5.261910780410935E-012
 -7.999999999999990E-004   -8.963804666435261E-012
 -6.999999999999989E-004   -1.221988815408336E-011
 -5.999999999999990E-004   -1.467650663546917E-011
 -4.999999999999989E-004   -1.602333816674392E-011
 -3.999999999999989E-004   -1.602794087402974E-011
 -2.999999999999989E-004   -1.456572084104567E-011
 -1.999999999999989E-004   -1.164188269798727E-011
 -9.999999999999892E-005   -7.402417941274674E-012
  1.084202172485504E-018   -2.132050240313780E-012
  1.000000000000011E-004    3.761805059002309E-012
  2.000000000000011E-004    9.778656509342729E-012
  3.000000000000011E-004    1.536630285040093E-011
  4.000000000000011E-004    1.997076488649808E-011
  5.000000000000011E-004    2.309044849413657E-011
  6.000000000000011E-004    2.432942922551175E-011
  7.000000000000011E-004    2.344436571045382E-011
  8.000000000000011E-004    2.037981574092555E-011
  9.000000000000012E-004    1.528742404510159E-011
  1.000000000000001E-003    8.525788581033360E-012
  1.100000000000001E-003    6.395014722661296E-013
  1.200000000000001E-003   -7.682098080231581E-012
  1.300000000000001E-003   -1.566381035700061E-011
  1.400000000000001E-003   -2.251641874066586E-011
  1.500000000000001E-003   -2.751512519477697E-011
  1.600000000000001E-003   -3.007702820515112E-011
  1.700000000000001E-003   -2.982962156270118E-011
  1.800000000000001E-003   -2.666259636263203E-011
  1.900000000000001E-003   -2.075638326524353E-011
  2.000000000000001E-003   -1.258275909668137E-011
  2.100000000000001E-003   -2.875394920122061E-012
  2.200000000000001E-003    7.428825120555665E-012
  2.300000000000001E-003    1.727379174272363E-011
  2.400000000000001E-003    2.558661685547517E-011
  2.500000000000001E-003    3.138924556564775E-011
  2.600000000000001E-003    3.390831700744741E-011
  2.700000000000001E-003    3.267165084198548E-011
  2.800000000000001E-003    2.758033296557499E-011
  2.900000000000001E-003    1.894695771528643E-011
  3.000000000000001E-003    7.493515149328874E-012
  3.100000000000001E-003   -5.694018078836249E-012
  3.200000000000001E-003   -1.925295662505241E-011
  3.300000000000001E-003   -3.166722842778262E-011
  3.400000000000001E-003   -4.141670009322345E-011
  3.500000000000001E-003   -4.713902696158716E-011
  3.600000000000001E-003   -4.778816279522686E-011
  3.700000000000001E-003   -4.277286271831521E-011
  3.800000000000001E-003   -3.205917660527671E-011
  3.900000000000001E-003   -1.622353160817965E-011
  4.000000000000001E-003    3.553094143964001E-012
  4.100000000000001E-003    2.555401298304318E-011
  4.200000000000001E-003    4.765670941344683E-011
  4.300000000000001E-003    6.751538535055153E-011
  4.400000000000001E-003    8.278183683775230E-011
  4.500000000000001E-003    9.134528378785306E-011
  4.600000000000002E-003    9.156844925425277E-011
  4.700000000000001E-003    8.249576762576136E-011
  4.800000000000001E-003    6.401063502385844E-011
  4.900000000000002E-003    3.692198191064183E-011
  5.000000000000001E-003    2.965981186154977E-012
  5.100000000000001E-003   -3.528377405584011E-011
  5.200000000000001E-003   -7.459580719103034E-011
  5.300000000000002E-003   -1.113390868671679E-010
  5.400000000000001E-003   -1.418007033694646E-010
  5.500000000000001E-003   -1.625361809951622E-010
  5.600000000000002E-003   -1.707206732509687E-010
  5.700000000000001E-003   -1.644669182540549E-010
  5.800000000000001E-003   -1.430768210542233E-010
  5.900000000000002E-003   -1.071976066357563E-010
  6.000000000000001E-003   -5.886100273406780E-011
  6.100000000000001E-003   -1.393671197652108E-012
  6.200000000000002E-003    6.080113704165621E-011
  6.300000000000002E-003    1.225782083595636E-010
  6.400000000000001E-003    1.784768807601194E-010
  6.500000000000001E-003    2.232046005202775E-010
  6.600000000000002E-003    2.521349900384119E-010
  6.700000000000001E-003    2.617740894532599E-010
  6.800000000000001E-003    2.501484225761215E-010
  6.900000000000002E-003    2.170736770869958E-010
  7.000000000000001E-003    1.642714670109037E-010
  7.100000000000001E-003    9.531464180970697E-011
  7.200000000000002E-003    1.539671545048433E-011
  7.300000000000002E-003   -6.906221285227970E-011
  7.400000000000001E-003   -1.509445130324848E-010
  7.500000000000001E-003   -2.230558476192352E-010
  7.600000000000002E-003   -2.787836328073613E-010
  7.700000000000001E-003   -3.127323916526420E-010
  7.800000000000001E-003   -3.212744316860024E-010
  7.900000000000001E-003   -3.029590339497547E-010
  8.000000000000002E-003   -2.587344215299130E-010
  8.100000000000001E-003   -1.919521034889307E-010
  8.200000000000001E-003   -1.081430196438616E-010
  8.300000000000002E-003   -1.457621073335138E-011
  8.400000000000001E-003    8.036752048333638E-011
  8.500000000000002E-003    1.679549814053582E-010
  8.600000000000002E-003    2.399255161335353E-010
  8.700000000000001E-003    2.893043831447703E-010
  8.800000000000002E-003    3.111245435652075E-010
  8.900000000000002E-003    3.029824973128280E-010
  9.000000000000001E-003    2.653653570444454E-010
  9.100000000000002E-003    2.017068911471259E-010
  9.200000000000002E-003    1.181540252445820E-010
  9.300000000000001E-003    2.305317725328661E-011
  9.400000000000002E-003   -7.380589788620268E-011
  9.500000000000001E-003   -1.621253901977995E-010
  9.600000000000001E-003   -2.321293679830881E-010
  9.700000000000002E-003   -2.755899426803560E-010
  9.800000000000001E-003   -2.867470285251775E-010
  9.900000000000001E-003   -2.630233803651946E-010
  1.000000000000000E-002   -2.054528151188488E-010
  1.010000000000000E-002   -1.187627114860191E-010
  1.020000000000000E-002   -1.108394288816069E-011
  1.030000000000000E-002    1.067031579074701E-010
  1.040000000000000E-002    2.219413876966540E-010
  1.050000000000000E-002    3.214076987830001E-010
  1.060000000000000E-002    3.926545007199352E-010
  1.070000000000000E-002    4.253534415827153E-010
  1.080000000000000E-002    4.125066655861669E-010
  1.090000000000000E-002    3.513953936978471E-010
  1.100000000000000E-002    2.441547636556012E-010
  1.110000000000000E-002    9.789406827796458E-011
  1.120000000000000E-002   -7.567767557317550E-011
  1.130000000000000E-002   -2.611142953293207E-010
  1.140000000000000E-002   -4.405274723227254E-010
  1.150000000000000E-002   -5.952125249629569E-010
  1.160000000000000E-002   -7.074642327038605E-010
  1.170000000000000E-002   -7.624146826608476E-010
  1.180000000000000E-002   -7.497126498043471E-010
  1.190000000000000E-002   -6.648689912829395E-010
  1.200000000000000E-002   -5.101143823962937E-010
  1.210000000000000E-002   -2.946547554396008E-010
  1.220000000000000E-002   -3.426137446604087E-011
  1.230000000000000E-002    2.498057952545191E-010
  1.240000000000000E-002    5.324779966426025E-010
  1.250000000000000E-002    7.870349554159380E-010
  1.260000000000000E-002    9.875598100934547E-010
  1.270000000000000E-002    1.111472784219084E-009
  1.280000000000000E-002    1.141903905701236E-009
  1.290000000000000E-002    1.069667317163050E-009
  1.300000000000000E-002    8.946245145375136E-010
  1.310000000000000E-002    6.262702292704220E-010
  1.320000000000000E-002    2.834409944515872E-010
  1.330000000000000E-002   -1.068765369661244E-010
  1.340000000000000E-002   -5.115740319527451E-010
  1.350000000000000E-002   -8.941410839164773E-010
  1.360000000000000E-002   -1.217856504060993E-009
  1.370000000000000E-002   -1.449175217748522E-009
  1.380000000000000E-002   -1.561002824199162E-009
  1.390000000000000E-002   -1.535544771192992E-009
  1.400000000000000E-002   -1.366441245521276E-009
  1.410000000000000E-002   -1.059954666224266E-009
  1.420000000000000E-002   -6.350524037879658E-010
  1.430000000000000E-002   -1.223268041062150E-010
  1.440000000000000E-002    4.381996106671173E-010
  1.450000000000000E-002    1.000228255663992E-009
  1.460000000000000E-002    1.515045502831970E-009
  1.470000000000000E-002    1.935760326395374E-009
  1.480000000000000E-002    2.221540607913928E-009
  1.490000000000000E-002    2.341453513018601E-009
  1.500000000000000E-002    2.277538951029290E-009
  1.510000000000000E-002    2.026803060707656E-009
  1.520000000000000E-002    1.601908802109278E-009
  1.530000000000000E-002    1.030458016272115E-009
  1.540000000000000E-002    3.528871919522633E-010
  1.550000000000000E-002   -3.808653052798416E-010
  1.560000000000000E-002   -1.115641898927022E-009
  1.570000000000000E-002   -1.795917911011281E-009
  1.580000000000000E-002   -2.370776020268062E-009
  1.590000000000000E-002   -2.798528115344175E-009
  1.600000000000000E-002   -3.050529377366328E-009
  1.610000000000000E-002   -3.113790617158789E-009
  1.620000000000000E-002   -2.992100774470662E-009
  1.630000000000000E-002   -2.705506812902916E-009
  1.640000000000000E-002   -2.288152741172376E-009
  1.650000000000000E-002   -1.784644598808731E-009
  1.660000000000000E-002   -1.245257615489031E-009
  1.670000000000000E-002   -7.204288193810282E-010
  1.680000000000000E-002   -2.550699463166097E-010
  1.690000000000000E-002    1.167279177720679E-010
  1.700000000000000E-002    3.760382527805736E-010
  1.710000000000000E-002    5.220027488681719E-010
  1.720000000000000E-002    5.729261822806043E-010
  1.730000000000000E-002    5.653531551448981E-010
  1.740000000000000E-002    5.511116805724815E-010
  1.750000000000000E-002    5.924997676410767E-010
  1.760000000000000E-002    7.559885590147517E-010
  1.770000000000000E-002    1.104972666186310E-009
  1.780000000000000E-002    1.692223119226094E-009
  1.790000000000000E-002    2.552753913558447E-009
  1.800000000000000E-002    3.697811351086684E-009
  1.810000000000000E-002    5.110625726829921E-009
  1.820000000000000E-002    6.744426709346201E-009
  1.830000000000000E-002    8.523038242106372E-009
  1.840000000000000E-002    1.034414058055925E-008
  1.850000000000000E-002    1.208504572123613E-008
  1.860000000000000E-002    1.361060357389574E-008
  1.870000000000000E-002    1.478262749871637E-008