 -4.000000000000000E-002    0.000000000000000E+000
 -3.990000000000000E-002    0.000000000000000E+000
 -3.980000000000000E-002    0.000000000000000E+000
 -3.970000000000000E-002    0.000000000000000E+000
 -3.960000000000000E-002    0.000000000000000E+000
 -3.950000000000000E-002    0.000000000000000E+000
 -3.940000000000000E-002    0.000000000000000E+000
 -3.930000000000000E-002    0.000000000000000E+000
 -3.920000000000000E-002    0.000000000000000E+000
 -3.910000000000000E-002    0.000000000000000E+000
 -3.900000000000000E-002    0.000000000000000E+000
 -3.890000000000000E-002    0.000000000000000E+000
 -3.880000000000000E-002    0.000000000000000E+000
 -3.870000000000000E-002    0.000000000000000E+000
 -3.860000000000000E-002    0.000000000000000E+000
 -3.850000000000000E-002    0.000000000000000E+000
 -3.840000000000000E-002    0.000000000000000E+000
 -3.830000000000000E-002    0.000000000000000E+000
 -3.820000000000000E-002    0.000000000000000E+000
 -3.810000000000000E-002    0.000000000000000E+000
 -3.800000000000000E-002    0.000000000000000E+000
 -3.790000000000000E-002    0.000000000000000E+000
 -3.780000000000000E-002    0.000000000000000E+000
 -3.770000000000000E-002    0.000000000000000E+000
 -3.760000000000000E-002    0.000000000000000E+000
 -3.750000000000000E-002    0.000000000000000E+000
 -3.740000000000000E-002    0.000000000000000E+000
 -3.730000000000000E-002    0.000000000000000E+000
 -3.720000000000000E-002    0.000000000000000E+000
 -3.710000000000000E-002    0.000000000000000E+000
 -3.700000000000000E-002    0.000000000000000E+000
 -3.690000000000000E-002    0.000000000000000E+000
 -3.680000000000000E-002    0.000000000000000E+000
 -3.670000000000000E-002    0.000000000000000E+000
 -3.660000000000000E-002    0.000000000000000E+000
 -3.650000000000000E-002    0.000000000000000E+000
 -3.640000000000000E-002    0.000000000000000E+000
 -3.630000000000000E-002    0.000000000000000E+000
 -3.620000000000000E-002    0.000000000000000E+000
 -3.610000000000000E-002    0.000000000000000E+000
 -3.600000000000000E-002    0.000000000000000E+000
 -3.590000000000000E-002    0.000000000000000E+000
 -3.580000000000000E-002    0.000000000000000E+000
 -3.570000000000000E-002    0.000000000000000E+000
 -3.560000000000000E-002    0.000000000000000E+000
 -3.550000000000000E-002    0.000000000000000E+000
 -3.540000000000000E-002    0.000000000000000E+000
 -3.530000000000000E-002    0.000000000000000E+000
 -3.520000000000000E-002    0.000000000000000E+000
 -3.510000000000000E-002    0.000000000000000E+000
 -3.500000000000000E-002    0.000000000000000E+000
 -3.490000000000000E-002    0.000000000000000E+000
 -3.480000000000000E-002    0.000000000000000E+000
 -3.470000000000000E-002    0.000000000000000E+000
 -3.460000000000000E-002    0.000000000000000E+000
 -3.450000000000000E-002    0.000000000000000E+000
 -3.440000000000000E-002    0.000000000000000E+000
 -3.430000000000000E-002    0.000000000000000E+000
 -3.420000000000000E-002    0.000000000000000E+000
 -3.410000000000000E-002    0.000000000000000E+000
 -3.400000000000000E-002    0.000000000000000E+000
 -3.390000000000000E-002    0.000000000000000E+000
 -3.380000000000000E-002    0.000000000000000E+000
 -3.370000000000000E-002    0.000000000000000E+000
 -3.360000000000000E-002    0.000000000000000E+000
 -3.350000000000000E-002    0.000000000000000E+000
 -3.340000000000000E-002    0.000000000000000E+000
 -3.330000000000000E-002    0.000000000000000E+000
 -3.320000000000000E-002    0.000000000000000E+000
 -3.310000000000000E-002    0.000000000000000E+000
 -3.300000000000000E-002    0.000000000000000E+000
 -3.290000000000000E-002    0.000000000000000E+000
 -3.280000000000000E-002    0.000000000000000E+000
 -3.270000000000000E-002    0.000000000000000E+000
 -3.260000000000000E-002    0.000000000000000E+000
 -3.250000000000000E-002    0.000000000000000E+000
 -3.240000000000000E-002    0.000000000000000E+000
 -3.230000000000000E-002    0.000000000000000E+000
 -3.220000000000000E-002    0.000000000000000E+000
 -3.210000000000000E-002    0.000000000000000E+000
 -3.200000000000000E-002    0.000000000000000E+000
 -3.190000000000000E-002    0.000000000000000E+000
 -3.180000000000000E-002    0.000000000000000E+000
 -3.170000000000000E-002    0.000000000000000E+000
 -3.160000000000000E-002    0.000000000000000E+000
 -3.150000000000000E-002    0.000000000000000E+000
 -3.140000000000000E-002    0.000000000000000E+000
 -3.130000000000000E-002    0.000000000000000E+000
 -3.120000000000000E-002    0.000000000000000E+000
 -3.110000000000000E-002    0.000000000000000E+000
 -3.100000000000000E-002    0.000000000000000E+000
 -3.090000000000000E-002    0.000000000000000E+000
 -3.080000000000000E-002    0.000000000000000E+000
 -3.070000000000000E-002    0.000000000000000E+000
 -3.060000000000000E-002    0.000000000000000E+000
 -3.050000000000000E-002    0.000000000000000E+000
 -3.040000000000000E-002    0.000000000000000E+000
 -3.030000000000000E-002    0.000000000000000E+000
 -3.020000000000000E-002    0.000000000000000E+000
 -3.010000000000000E-002    0.000000000000000E+000
 -3.000000000000000E-002    0.000000000000000E+000
 -2.990000000000000E-002    0.000000000000000E+000
 -2.980000000000000E-002    0.000000000000000E+000
 -2.970000000000000E-002    0.000000000000000E+000
 -2.960000000000000E-002    0.000000000000000E+000
 -2.950000000000000E-002    0.000000000000000E+000
 -2.940000000000000E-002    0.000000000000000E+000
 -2.930000000000000E-002    0.000000000000000E+000
 -2.920000000000000E-002    0.000000000000000E+000
 -2.910000000000000E-002    0.000000000000000E+000
 -2.900000000000000E-002    0.000000000000000E+000
 -2.890000000000000E-002    0.000000000000000E+000
 -2.880000000000000E-002    0.000000000000000E+000
 -2.870000000000000E-002    0.000000000000000E+000
 -2.860000000000000E-002    0.000000000000000E+000
 -2.850000000000000E-002    0.000000000000000E+000
 -2.840000000000000E-002    0.000000000000000E+000
 -2.830000000000000E-002    0.000000000000000E+000
 -2.820000000000000E-002    0.000000000000000E+000
 -2.810000000000000E-002    0.000000000000000E+000
 -2.800000000000000E-002    0.000000000000000E+000
 -2.790000000000000E-002    0.000000000000000E+000
 -2.780000000000000E-002    0.000000000000000E+000
 -2.770000000000000E-002    0.000000000000000E+000
 -2.760000000000000E-002    0.000000000000000E+000
 -2.750000000000000E-002    0.000000000000000E+000
 -2.740000000000000E-002    0.000000000000000E+000
 -2.730000000000000E-002    0.000000000000000E+000
 -2.720000000000000E-002    0.000000000000000E+000
 -2.710000000000000E-002    0.000000000000000E+000
 -2.700000000000000E-002    0.000000000000000E+000
 -2.690000000000000E-002    0.000000000000000E+000
 -2.680000000000000E-002    0.000000000000000E+000
 -2.670000000000000E-002    0.000000000000000E+000
 -2.660000000000000E-002    0.000000000000000E+000
 -2.650000000000000E-002    0.000000000000000E+000
 -2.640000000000000E-002    0.000000000000000E+000
 -2.630000000000000E-002    0.000000000000000E+000
 -2.620000000000000E-002    0.000000000000000E+000
 -2.610000000000000E-002    0.000000000000000E+000
 -2.600000000000000E-002    0.000000000000000E+000
 -2.590000000000000E-002    0.000000000000000E+000
 -2.580000000000000E-002    0.000000000000000E+000
 -2.570000000000000E-002    0.000000000000000E+000
 -2.560000000000000E-002    0.000000000000000E+000
 -2.550000000000000E-002    0.000000000000000E+000
 -2.540000000000000E-002    0.000000000000000E+000
 -2.530000000000000E-002    0.000000000000000E+000
 -2.520000000000000E-002    0.000000000000000E+000
 -2.510000000000000E-002    0.000000000000000E+000
 -2.500000000000000E-002    0.000000000000000E+000
 -2.490000000000000E-002    0.000000000000000E+000
 -2.480000000000000E-002    0.000000000000000E+000
 -2.470000000000000E-002    0.000000000000000E+000
 -2.460000000000000E-002    0.000000000000000E+000
 -2.450000000000000E-002    0.000000000000000E+000
 -2.440000000000000E-002    0.000000000000000E+000
 -2.430000000000000E-002    0.000000000000000E+000
 -2.420000000000000E-002    0.000000000000000E+000
 -2.410000000000000E-002    0.000000000000000E+000
 -2.400000000000000E-002    0.000000000000000E+000
 -2.390000000000000E-002    0.000000000000000E+000
 -2.380000000000000E-002    0.000000000000000E+000
 -2.370000000000000E-002    0.000000000000000E+000
 -2.360000000000000E-002    0.000000000000000E+000
 -2.350000000000000E-002    0.000000000000000E+000
 -2.340000000000000E-002    0.000000000000000E+000
 -2.330000000000000E-002    0.000000000000000E+000
 -2.320000000000000E-002    0.000000000000000E+000
 -2.310000000000000E-002    0.000000000000000E+000
 -2.300000000000000E-002    0.000000000000000E+000
 -2.290000000000000E-002    0.000000000000000E+000
 -2.280000000000000E-002    0.000000000000000E+000
 -2.270000000000000E-002    0.000000000000000E+000
 -2.260000000000000E-002    0.000000000000000E+000
 -2.250000000000000E-002    0.000000000000000E+000
 -2.240000000000000E-002    0.000000000000000E+000
 -2.230000000000000E-002    0.000000000000000E+000
 -2.220000000000000E-002    0.000000000000000E+000
 -2.210000000000000E-002    0.000000000000000E+000
 -2.200000000000000E-002    0.000000000000000E+000
 -2.190000000000000E-002    0.000000000000000E+000
 -2.180000000000000E-002    0.000000000000000E+000
 -2.170000000000000E-002    0.000000000000000E+000
 -2.160000000000000E-002    0.000000000000000E+000
 -2.150000000000000E-002    0.000000000000000E+000
 -2.140000000000000E-002    0.000000000000000E+000
 -2.130000000000000E-002    0.000000000000000E+000
 -2.120000000000000E-002    0.000000000000000E+000
 -2.110000000000000E-002    0.000000000000000E+000
 -2.100000000000000E-002    0.000000000000000E+000
 -2.090000000000000E-002    0.000000000000000E+000
 -2.080000000000000E-002    0.000000000000000E+000
 -2.070000000000000E-002    0.000000000000000E+000
 -2.060000000000000E-002    0.000000000000000E+000
 -2.050000000000000E-002    0.000000000000000E+000
 -2.040000000000000E-002    0.000000000000000E+000
 -2.030000000000000E-002    0.000000000000000E+000
 -2.020000000000000E-002    0.000000000000000E+000
 -2.010000000000000E-002    0.000000000000000E+000
 -2.000000000000000E-002    0.000000000000000E+000
 -1.990000000000000E-002    0.000000000000000E+000
 -1.980000000000000E-002    0.000000000000000E+000
 -1.970000000000000E-002    0.000000000000000E+000
 -1.960000000000000E-002    0.000000000000000E+000
 -1.950000000000000E-002    0.000000000000000E+000
 -1.940000000000000E-002    0.000000000000000E+000
 -1.930000000000000E-002    0.000000000000000E+000
 -1.920000000000000E-002    0.000000000000000E+000
 -1.910000000000000E-002    0.000000000000000E+000
 -1.900000000000000E-002    0.000000000000000E+000
 -1.890000000000000E-002    0.000000000000000E+000
 -1.880000000000000E-002    0.000000000000000E+000
 -1.870000000000000E-002    0.000000000000000E+000
 -1.860000000000000E-002    0.000000000000000E+000
 -1.850000000000000E-002    0.000000000000000E+000
 -1.840000000000000E-002    0.000000000000000E+000
 -1.830000000000000E-002    0.000000000000000E+000
 -1.820000000000000E-002    0.000000000000000E+000
 -1.810000000000000E-002    7.205613743138697E-048
 -1.800000000000000E-002    1.441122748627739E-047
 -1.790000000000000E-002    2.161684122941609E-047
 -1.780000000000000E-002    2.161684122941609E-047
 -1.770000000000000E-002    2.161684122941609E-047
 -1.760000000000000E-002    1.195476829635327E-047
 -1.750000000000000E-002   -4.912918379848238E-048
 -1.740000000000000E-002    8.756267625201236E-048
 -1.730000000000000E-002   -3.926212076714514E-047
 -1.720000000000000E-002   -2.934484416496079E-047
 -1.710000000000000E-002   -5.871861397395800E-047
 -1.700000000000000E-002   -1.055134791908698E-046
 -1.690000000000000E-002   -8.878618548658521E-047
 -1.680000000000000E-002   -3.599527168630751E-047
 -1.670000000000000E-002   -1.389272329561594E-046
 -1.660000000000000E-002   -2.892683036706089E-046
 -1.650000000000000E-002   -4.198528935717737E-046
 -1.640000000000000E-002   -6.382879522192295E-046
 -1.630000000000000E-002   -8.569660340102242E-046
 -1.620000000000000E-002   -1.538071565056785E-045
 -1.610000000000000E-002   -1.695512805099740E-045
 -1.600000000000000E-002   -1.428947764074828E-045
 -1.590000000000000E-002   -8.332160717157370E-046
 -1.580000000000000E-002    3.850993860785544E-047
 -1.570000000000000E-002    8.877429271059857E-046
 -1.560000000000000E-002    9.849973743371240E-046
 -1.550000000000000E-002    2.180810719149772E-045
 -1.540000000000000E-002    3.218325374158511E-045
 -1.530000000000000E-002    4.501250193208955E-045
 -1.520000000000000E-002    5.357470978218735E-045
 -1.510000000000000E-002    5.075143795851816E-045
 -1.500000000000000E-002    4.242085044367050E-045
 -1.490000000000000E-002    2.746796695720157E-045
 -1.480000000000000E-002   -3.715459097662344E-046
 -1.470000000000000E-002   -3.616953937255757E-045
 -1.460000000000000E-002   -8.269286718608804E-045
 -1.450000000000000E-002   -1.357637952930175E-044
 -1.440000000000000E-002   -1.984453853180765E-044
 -1.430000000000000E-002   -2.518512834953324E-044
 -1.420000000000000E-002   -2.871067267204749E-044
 -1.410000000000000E-002   -2.905971997347004E-044
 -1.400000000000000E-002   -2.564972071976981E-044
 -1.390000000000000E-002   -1.547483894835164E-044
 -1.380000000000000E-002    2.453673930536427E-045
 -1.370000000000000E-002    3.042274244497979E-044
 -1.360000000000000E-002    6.800591782407216E-044
 -1.350000000000000E-002    1.138177749954391E-043
 -1.340000000000000E-002    1.652361575912822E-043
 -1.330000000000000E-002    2.152834174127040E-043
 -1.320000000000000E-002    2.553422016497081E-043
 -1.310000000000000E-002    2.733561160883761E-043
 -1.300000000000000E-002    2.543197798612039E-043
 -1.290000000000000E-002    1.816230306520595E-043
 -1.280000000000000E-002    4.062836684903939E-044
 -1.270000000000000E-002   -1.812614506326267E-043
 -1.260000000000000E-002   -4.867092377362955E-043
 -1.250000000000000E-002   -8.692382363149853E-043
 -1.240000000000000E-002   -1.303097619676732E-042
 -1.230000000000000E-002   -1.743415511455943E-042
 -1.220000000000000E-002   -2.120519552450824E-042
 -1.210000000000000E-002   -2.341054343489320E-042
 -1.200000000000000E-002   -2.290555239003721E-042
 -1.190000000000000E-002   -1.841372287740981E-042
 -1.180000000000000E-002   -8.703099846526558E-043
 -1.170000000000000E-002    7.229431571984345E-043
 -1.160000000000000E-002    2.985759189868635E-042
 -1.150000000000000E-002    5.879414796257932E-042
 -1.140000000000000E-002    9.244688387992664E-042
 -1.130000000000000E-002    1.276988010841238E-041
 -1.120000000000000E-002    1.596589964066039E-041
 -1.110000000000000E-002    1.816618207996075E-041
 -1.100000000000000E-002    1.854371579368898E-041
 -1.090000000000000E-002    1.617149603381836E-041
 -1.080000000000000E-002    1.012293084403543E-041
 -1.070000000000000E-002   -3.791160255957527E-043
 -1.060000000000000E-002   -1.576902804096543E-041
 -1.050000000000000E-002   -3.591108656001666E-041
 -1.040000000000000E-002   -5.985589875379109E-041
 -1.030000000000000E-002   -8.561929315913498E-041
 -1.020000000000000E-002   -1.100200586249882E-040
 -1.010000000000000E-002   -1.286323777553702E-040
 -1.000000000000000E-002   -1.359177548901191E-040
 -9.899999999999999E-003   -1.255907292808688E-040
 -9.800000000000000E-003   -9.126024183850450E-041
 -9.699999999999999E-003   -2.738426469613911E-041
 -9.599999999999999E-003    6.949739023638971E-041
 -9.500000000000000E-003    1.992951725220220E-040
 -9.399999999999999E-003    3.568138343335836E-040
 -9.299999999999999E-003    5.303050151563939E-040
 -9.200000000000000E-003    7.003985117248777E-040
 -9.099999999999999E-003    8.397484032011235E-040
 -8.999999999999999E-003    9.137468794802838E-040
 -8.900000000000000E-003    8.826713469709678E-040
 -8.799999999999999E-003    7.055300937199123E-040
 -8.699999999999999E-003    3.457492834784533E-040
 -8.600000000000000E-003   -2.213867625361684E-040
 -8.499999999999999E-003   -9.999434565556528E-040
 -8.399999999999999E-003   -1.963969738876586E-039
 -8.300000000000000E-003   -3.048723470793806E-039
 -8.199999999999999E-003   -4.144087846342264E-039
 -8.100000000000000E-003   -5.092072368836663E-039
 -8.000000000000000E-003   -5.690476933942697E-039
 -7.899999999999999E-003   -5.704680690499681E-039
 -7.800000000000000E-003   -4.889148537147087E-039
 -7.699999999999999E-003   -3.019348997166759E-039
 -7.599999999999999E-003    6.640141772912210E-041
 -7.499999999999999E-003    4.417461414871753E-039
 -7.399999999999999E-003    9.918018725929769E-039
 -7.299999999999999E-003    1.623735189698482E-038
 -7.199999999999999E-003    2.279186678813289E-038
 -7.100000000000000E-003    2.872910983989732E-038
 -6.999999999999999E-003    3.294489536531668E-038
 -6.899999999999999E-003    3.414402344197447E-038
 -6.800000000000000E-003    3.095261021314525E-038
 -6.699999999999999E-003    2.208599238537800E-038
 -6.599999999999999E-003    6.568938413506652E-039
 -6.499999999999999E-003   -1.600358732780336E-038
 -6.399999999999999E-003   -4.518741314720247E-038
 -6.299999999999999E-003   -7.942554813336144E-038
 -6.199999999999999E-003   -1.158437956145301E-037
 -6.100000000000000E-003   -1.501577683228008E-037
 -5.999999999999999E-003   -1.767461122383835E-037
 -5.899999999999999E-003   -1.889430456665784E-037
 -5.800000000000000E-003   -1.795882455174416E-037
 -5.699999999999999E-003   -1.418524858502869E-037
 -5.599999999999999E-003   -7.032230343737746E-038
 -5.499999999999999E-003    3.771569037806643E-038
 -5.399999999999999E-003    1.809002644055456E-037
 -5.299999999999999E-003    3.524939052827412E-037
 -5.199999999999999E-003    5.393632649234906E-037
 -5.099999999999999E-003    7.214894551679686E-037
 -4.999999999999999E-003    8.722657421488056E-037
 -4.899999999999999E-003    9.598240422767293E-037
 -4.799999999999999E-003    9.495637836652433E-037
 -4.699999999999999E-003    8.079585153801832E-037
 -4.599999999999999E-003    5.075509161407008E-037
 -4.499999999999999E-003    3.285691970117755E-038
 -4.399999999999999E-003   -6.133355998251754E-037
 -4.299999999999999E-003   -1.404012315073206E-036
 -4.199999999999999E-003   -2.283267016407978E-036
 -4.099999999999999E-003   -3.164022794997578E-036
 -3.999999999999999E-003   -3.929269458975884E-036
 -3.899999999999999E-003   -4.437827591505684E-036
 -3.799999999999999E-003   -4.535373717588049E-036
 -3.699999999999999E-003   -4.070964696535802E-036
 -3.599999999999999E-003   -2.918612514783404E-036
 -3.499999999999999E-003   -1.002594825444076E-036
 -3.399999999999999E-003    1.675739364657320E-036
 -3.299999999999999E-003    5.012915000127051E-036
 -3.199999999999999E-003    8.784001630066152E-036
 -3.099999999999999E-003    1.263359913515242E-035
 -2.999999999999999E-003    1.608167809752726E-035
 -2.899999999999999E-003    1.854827703539578E-035
 -2.799999999999999E-003    1.939971800798381E-035
 -2.699999999999999E-003    1.801686201316417E-035
 -2.599999999999999E-003    1.388295427675684E-035
 -2.499999999999999E-003    6.685260121637369E-036
 -2.399999999999999E-003   -3.579237753212426E-036
 -2.299999999999999E-003   -1.650736730538636E-035
 -2.199999999999999E-003   -3.121870244701319E-035
 -2.099999999999999E-003   -4.632772265051439E-035
 -1.999999999999999E-003   -5.997624993314315E-035
 -1.899999999999999E-003   -6.994069631064910E-035
 -1.799999999999999E-003   -7.382207279114847E-035
 -1.699999999999999E-003   -6.931797546366611E-035
 -1.599999999999999E-003   -5.456415248756218E-035
 -1.499999999999999E-003   -2.851914705548600E-035
 -1.399999999999999E-003    8.648108996666828E-036
 -1.299999999999999E-003    5.522102356473725E-035
 -1.199999999999999E-003    1.077106943814514E-034
 -1.099999999999999E-003    1.608100272991952E-034
 -9.999999999999989E-004    2.075862741716814E-034
 -8.999999999999990E-004    2.399585779321220E-034
 -7.999999999999990E-004    2.494784694361497E-034
 -6.999999999999989E-004    2.283955949503723E-034
 -5.999999999999990E-004    1.709446182901835E-034
 -4.999999999999989E-004    7.473756734517892E-035
 -3.999999999999989E-004   -5.790404391283494E-035
 -2.999999999999989E-004   -2.188836933961824E-034
 -1.999999999999989E-004   -3.937659202993903E-034
 -9.999999999999892E-005   -5.619447412698017E-034
  1.084202172485504E-018   -6.977437137565474E-034
  1.000000000000011E-004   -7.725744228183681E-034
  2.000000000000011E-004   -7.581670558848837E-034
  3.000000000000011E-004   -6.307356718963821E-034
  4.000000000000011E-004   -3.757656138008735E-034
  5.000000000000011E-004    7.071963269518005E-036
  6.000000000000011E-004    4.995512223859326E-034
  7.000000000000011E-004    1.061862171827837E-033
  8.000000000000011E-004    1.631778903662453E-033
  9.000000000000012E-004    2.126810698304693E-033
  1.000000000000001E-003    2.449965305472743E-033
  1.100000000000001E-003    2.499406787736006E-033
  1.200000000000001E-003    2.181826220524874E-033
  1.300000000000001E-003    1.428769209128865E-033
  1.400000000000001E-003    2.144758981147373E-034
  1.500000000000001E-003   -1.426840874526572E-033
  1.600000000000001E-003   -3.386938463164439E-033
  1.700000000000001E-003   -5.475737558921174E-033
  1.800000000000001E-003   -7.422798068971889E-033
  1.900000000000001E-003   -8.890843067198604E-033
  2.000000000000001E-003   -9.503086476804857E-033
  2.100000000000001E-003   -8.884864149792234E-033
  2.200000000000001E-003   -6.718131719502563E-033
  2.300000000000001E-003   -2.805137903073932E-033
  2.400000000000001E-003    2.864800826155822E-033
  2.500000000000001E-003    1.005386616081094E-032
  2.600000000000001E-003    1.822983018110435E-032
  2.700000000000001E-003    2.654704667542193E-032
  2.800000000000001E-003    3.386503663550302E-032
  2.900000000000001E-003    3.881409609119032E-032
  3.000000000000001E-003    3.991294840129912E-032
  3.100000000000001E-003    3.573859994589868E-032
  3.200000000000001E-003    2.514088139888333E-032
  3.300000000000001E-003    7.486164959779293E-033
  3.400000000000001E-003   -1.709406089238648E-032
  3.500000000000001E-003   -4.748221801801455E-032
  3.600000000000001E-003   -8.141910722577308E-032
  3.700000000000001E-003   -1.154548279268371E-031
  3.800000000000001E-003   -1.450444260397037E-031
  3.900000000000001E-003   -1.648191941321709E-031
  4.000000000000001E-003   -1.690492218707827E-031
  4.100000000000001E-003   -1.522927418183546E-031
  4.200000000000001E-003   -1.102013985948599E-031
  4.300000000000001E-003   -4.042121761762687E-032
  4.400000000000001E-003    5.650159085747033E-032
  4.500000000000001E-003    1.763275665731095E-031
  4.600000000000002E-003    3.105784362859626E-031
  4.700000000000001E-003    4.463843620045507E-031
  4.800000000000001E-003    5.668538455792807E-031
  4.900000000000002E-003    6.520694408163539E-031
  5.000000000000001E-003    6.807582991627054E-031
  5.100000000000001E-003    6.326135188221595E-031
  5.200000000000001E-003    4.911520574754632E-031
  5.300000000000002E-003    2.468936168348311E-031
  5.400000000000001E-003   -9.945561321243801E-032
  5.500000000000001E-003   -5.342186453164098E-031
  5.600000000000002E-003   -1.028826284400604E-030
  5.700000000000001E-003   -1.539235157788493E-030
  5.800000000000001E-003   -2.007130970922947E-030
  5.900000000000002E-003   -2.363247097469782E-030
  6.000000000000001E-003   -2.532950092486829E-030
  6.100000000000001E-003   -2.444009405703579E-030
  6.200000000000002E-003   -2.036155159130578E-030
  6.300000000000002E-003   -1.271713566769349E-030
  6.400000000000001E-003   -1.462805805519200E-031
  6.500000000000001E-003    1.301883365408422E-030
  6.600000000000002E-003    2.985241314300776E-030
  6.700000000000001E-003    4.764674539395147E-030
  6.800000000000001E-003    6.452915166845267E-030
  6.900000000000002E-003    7.824739111059265E-030
  7.000000000000001E-003    8.634424234905338E-030
  7.100000000000001E-003    8.640162308257223E-030
  7.200000000000002E-003    7.634216850181058E-030
  7.300000000000002E-003    5.476582438293715E-030
  7.400000000000001E-003    2.128897091920477E-030
  7.500000000000001E-003   -2.315427191989611E-030
  7.600000000000002E-003   -7.609520193025453E-030
  7.700000000000001E-003   -1.334444855584611E-029
  7.800000000000001E-003   -1.895804673069765E-029
  7.900000000000001E-003   -2.376429881557342E-029
  8.000000000000002E-003   -2.700472637279014E-029
  8.100000000000001E-003   -2.792092077142928E-029
  8.200000000000001E-003   -2.584454348764687E-029
  8.300000000000002E-003   -2.029810491816333E-029
  8.400000000000001E-003   -1.109692875820080E-029
  8.500000000000002E-003    1.559587590463467E-030
  8.600000000000002E-003    1.702100563852816E-029
  8.700000000000001E-003    3.415686701107075E-029
  8.800000000000002E-003    5.137800158521586E-029
  8.900000000000002E-003    6.671726715310825E-029
  9.000000000000001E-003    7.797371736819874E-029
  9.100000000000002E-003    8.291776899017190E-029
  9.200000000000002E-003    7.954635073171746E-029
  9.300000000000001E-003    6.636927300760102E-029
  9.400000000000002E-003    4.269961397322866E-029
  9.500000000000001E-003    8.914235171014253E-030
  9.600000000000001E-003   -3.335286473948860E-029
  9.700000000000002E-003   -8.112334650005922E-029
  9.800000000000001E-003   -1.301259568751119E-028
  9.900000000000001E-003   -1.750124888828015E-028
  1.000000000000000E-002   -2.097479282860130E-028
  1.010000000000000E-002   -2.281667785375544E-028
  1.020000000000000E-002   -2.246653738037847E-028
  1.030000000000000E-002   -1.949775255057139E-028
  1.040000000000000E-002   -1.369591006748938E-028
  1.050000000000000E-002   -5.129028167373825E-029
  1.060000000000000E-002    5.800535952842113E-029
  1.070000000000000E-002    1.833262654202403E-028
  1.080000000000000E-002    3.136310305170943E-028
  1.090000000000000E-002    4.350101560028735E-028
  1.100000000000000E-002    5.317164408252201E-028
  1.110000000000000E-002    5.876274481215060E-028
  1.120000000000000E-002    5.880534029415177E-028
  1.130000000000000E-002    5.217517880775938E-028
  1.140000000000000E-002    3.829475198805899E-028
  1.150000000000000E-002    1.731222798890870E-028
  1.160000000000000E-002   -9.769049309460703E-029
  1.170000000000000E-002   -4.103559452046105E-028
  1.180000000000000E-002   -7.370588358533778E-028
  1.190000000000000E-002   -1.042833014546764E-027
  1.200000000000000E-002   -1.288247382117314E-027
  1.210000000000000E-002   -1.433162930971647E-027
  1.220000000000000E-002   -1.441320359403825E-027
  1.230000000000000E-002   -1.285385225915738E-027
  1.240000000000000E-002   -9.519324670636151E-028
  1.250000000000000E-002   -4.457631853288748E-028
  1.260000000000000E-002    2.070971082262114E-028
  1.270000000000000E-002    9.583379847605889E-028
  1.280000000000000E-002    1.738758141456458E-027
  1.290000000000000E-002    2.462426227448598E-027
  1.300000000000000E-002    3.033664096629921E-027
  1.310000000000000E-002    3.356552830372128E-027
  1.320000000000000E-002    3.346335136087535E-027
  1.330000000000000E-002    2.941688196533446E-027
  1.340000000000000E-002    2.116575419399592E-027
  1.350000000000000E-002    8.901538113487840E-028
  1.360000000000000E-002   -6.668415500829978E-028
  1.370000000000000E-002   -2.430686119374929E-027
  1.380000000000000E-002   -4.229394960485267E-027
  1.390000000000000E-002   -5.854183819301510E-027
  1.400000000000000E-002   -7.077619220215717E-027
  1.410000000000000E-002   -7.677520869135068E-027
  1.420000000000000E-002   -7.464873490462986E-027
  1.430000000000000E-002   -6.313093034813694E-027
  1.440000000000000E-002   -4.185382986280627E-027
  1.450000000000000E-002   -1.156456647643073E-027
  1.460000000000000E-002    2.575126554867108E-027
  1.470000000000000E-002    6.687297801581232E-027
  1.480000000000000E-002    1.074999308458554E-026
  1.490000000000000E-002    1.425681451477288E-026
  1.500000000000000E-002    1.667221465659412E-026
  1.510000000000000E-002    1.749135778127712E-026
  1.520000000000000E-002    1.630791521898871E-026
  1.530000000000000E-002    1.288295598990942E-026
  1.540000000000000E-002    7.206793127523878E-027
  1.550000000000000E-002   -4.552168841881645E-028
  1.560000000000000E-002   -9.541579084288610E-027
  1.570000000000000E-002   -1.920580856777456E-026
  1.580000000000000E-002   -2.836459612517052E-026
  1.590000000000000E-002   -3.578447045064462E-026
  1.600000000000000E-002   -4.020385014354587E-026
  1.610000000000000E-002   -4.048250663850854E-026
  1.620000000000000E-002   -3.576540008198608E-026
  1.630000000000000E-002   -2.564393222359998E-026
  1.640000000000000E-002   -1.029419032035049E-026
  1.650000000000000E-002    9.429019516489437E-027
  1.660000000000000E-002    3.196264494362859E-026
  1.670000000000000E-002    5.508653709056288E-026
  1.680000000000000E-002    7.606465911625244E-026
  1.690000000000000E-002    9.187721474755924E-026
  1.700000000000000E-002    9.953297009231273E-026
  1.710000000000000E-002    9.643980102649674E-026
  1.720000000000000E-002    8.079950475921920E-026
  1.730000000000000E-002    5.198423851008523E-026
  1.740000000000000E-002    1.084526066875675E-026
  1.750000000000000E-002   -4.009645803711419E-026
  1.760000000000000E-002   -9.662429920701358E-026
  1.770000000000000E-002   -1.529989816618898E-025
  1.780000000000000E-002   -2.023496677200164E-025
  1.790000000000000E-002   -2.372771906147321E-025
  1.800000000000000E-002   -2.506393369001077E-025
  1.810000000000000E-002   -2.364589498103288E-025
  1.820000000000000E-002   -1.908699141379977E-025
  1.830000000000000E-002   -1.129954199097883E-025
  1.840000000000000E-002   -5.640563882246997E-027
  1.850000000000000E-002    1.243186255346205E-025
  1.860000000000000E-002    2.659547865685320E-025
  1.870000000000000E-002    4.047932892379166E-025