 -4.000000000000000E-002    0.000000000000000E+000
 -3.990000000000000E-002    0.000000000000000E+000
 -3.980000000000000E-002    2.119639959343359E-011
 -3.970000000000000E-002    1.115772863479756E-010
 -3.960000000000000E-002    3.540095098327005E-010
 -3.950000000000000E-002    8.750135568754320E-010
 -3.940000000000000E-002    1.851774133770757E-009
 -3.930000000000000E-002    3.514787215170620E-009
 -3.920000000000000E-002    6.143927047999106E-009
 -3.910000000000000E-002    1.005665688353964E-008
 -3.900000000000000E-002    1.558822839842541E-008
 -3.890000000000000E-002    2.306519620048812E-008
 -3.880000000000000E-002    3.277461485686442E-008
 -3.870000000000000E-002    4.493220383651282E-008
 -3.860000000000000E-002    5.965310762746762E-008
 -3.850000000000000E-002    7.692845345344518E-008
 -3.840000000000000E-002    9.661029834372220E-008
 -3.830000000000000E-002    1.184061971949202E-007
 -3.820000000000000E-002    1.418833150739330E-007
 -3.810000000000000E-002    1.664806172179872E-007
 -3.800000000000000E-002    1.915268857714417E-007
 -3.790000000000000E-002    2.162614586561656E-007
 -3.780000000000000E-002    2.398552155651402E-007
 -3.770000000000000E-002    2.614293810770343E-007
 -3.760000000000000E-002    2.800713605958660E-007
 -3.750000000000000E-002    2.948478592403761E-007
 -3.740000000000000E-002    3.048167537983156E-007
 -3.730000000000000E-002    3.090403005526259E-007
 -3.720000000000000E-002    3.066022480181402E-007
 -3.710000000000000E-002    2.966314500579440E-007
 -3.700000000000000E-002    2.783330674479050E-007
 -3.690000000000000E-002    2.510270821970665E-007
 -3.680000000000000E-002    2.141916413991975E-007
 -3.670000000000000E-002    1.675070677825252E-007
 -3.660000000000000E-002    1.108943767723402E-007
 -3.650000000000000E-002    4.454177819005918E-008
 -3.640000000000000E-002   -3.108712529107622E-008
 -3.630000000000000E-002   -1.152686829177048E-007
 -3.620000000000000E-002   -2.070605926611257E-007
 -3.610000000000000E-002   -3.053682823788609E-007
 -3.600000000000000E-002   -4.090320207590141E-007
 -3.590000000000000E-002   -5.169264173116067E-007
 -3.580000000000000E-002   -6.280610966437338E-007
 -3.570000000000000E-002   -7.416702110586711E-007
 -3.560000000000000E-002   -8.572763988482230E-007
 -3.550000000000000E-002   -9.747199911179349E-007
 -3.540000000000000E-002   -1.094142604839414E-006
 -3.530000000000000E-002   -1.215924986733229E-006
 -3.520000000000000E-002   -1.340579088767849E-006
 -3.510000000000000E-002   -1.468605579772256E-006
 -3.500000000000000E-002   -1.600328933496287E-006
 -3.490000000000000E-002   -1.735729978837541E-006
 -3.480000000000000E-002   -1.874294485776174E-006
 -3.470000000000000E-002   -2.014903072613099E-006
 -3.460000000000000E-002   -2.155773426108214E-006
 -3.450000000000000E-002   -2.294473389440905E-006
 -3.440000000000000E-002   -2.428006527518070E-006
 -3.430000000000000E-002   -2.552972150857192E-006
 -3.420000000000000E-002   -2.665785412168591E-006
 -3.410000000000000E-002   -2.762945280764352E-006
 -3.400000000000000E-002   -2.841321452833521E-006
 -3.390000000000000E-002   -2.898439288286100E-006
 -3.380000000000000E-002   -2.932730497236462E-006
 -3.370000000000000E-002   -2.943735018264287E-006
 -3.360000000000000E-002   -2.932224293673152E-006
 -3.350000000000000E-002   -2.900241908363977E-006
 -3.340000000000000E-002   -2.851060008484997E-006
 -3.330000000000000E-002   -2.789043601981474E-006
 -3.320000000000000E-002   -2.719460018437614E-006
 -3.310000000000000E-002   -2.648227997399032E-006
 -3.300000000000000E-002   -2.581643782305694E-006
 -3.290000000000000E-002   -2.526112244278440E-006
 -3.280000000000000E-002   -2.487885286869135E-006
 -3.270000000000000E-002   -2.472852386319344E-006
 -3.260000000000000E-002   -2.486374106682709E-006
 -3.250000000000000E-002   -2.533179667644657E-006
 -3.240000000000000E-002   -2.617324072001241E-006
 -3.230000000000000E-002   -2.742190963984327E-006
 -3.220000000000000E-002   -2.910550820373074E-006
 -3.210000000000000E-002   -3.124630135662194E-006
 -3.200000000000000E-002   -3.386219971428167E-006
 -3.190000000000000E-002   -3.696778408944704E-006
 -3.180000000000000E-002   -4.057531116916404E-006
 -3.170000000000000E-002   -4.469569388544645E-006
 -3.160000000000000E-002   -4.933932788284111E-006
 -3.150000000000000E-002   -5.451680160275275E-006
 -3.140000000000000E-002   -6.023967187671991E-006
 -3.130000000000000E-002   -6.652122811486291E-006
 -3.120000000000000E-002   -7.337694069249159E-006
 -3.110000000000000E-002   -8.082534282203777E-006
 -3.100000000000000E-002   -8.888863241883527E-006
 -3.090000000000000E-002   -9.759330479671565E-006
 -3.080000000000000E-002   -1.069705626864793E-005
 -3.070000000000000E-002   -1.170566574274837E-005
 -3.060000000000000E-002   -1.278928638449974E-005
 -3.050000000000000E-002   -1.395252018291006E-005
 -3.040000000000000E-002   -1.520037728300007E-005
 -3.030000000000000E-002   -1.653819955183211E-005
 -3.020000000000000E-002   -1.797152820682136E-005
 -3.010000000000000E-002   -1.950599867873057E-005
 -3.000000000000000E-002   -2.114724990531161E-005
 -2.990000000000000E-002   -2.290082525644595E-005
 -2.980000000000000E-002   -2.477214758998289E-005
 -2.970000000000000E-002   -2.676652505098669E-005
 -2.960000000000000E-002   -2.888924107877455E-005
 -2.950000000000000E-002   -3.114565297379405E-005
 -2.940000000000000E-002   -3.354142648075504E-005
 -2.930000000000000E-002   -3.608269104269219E-005
 -2.920000000000000E-002   -3.877628877020408E-005
 -2.910000000000000E-002   -4.162988920537299E-005
 -2.900000000000000E-002   -4.465222523536187E-005
 -2.890000000000000E-002   -4.785310739154896E-005
 -2.880000000000000E-002   -5.124343889592935E-005
 -2.870000000000000E-002   -5.483506202132410E-005
 -2.860000000000000E-002   -5.864063013573686E-005
 -2.850000000000000E-002   -6.267335038049446E-005
 -2.840000000000000E-002   -6.694669693638036E-005
 -2.830000000000000E-002   -7.147408209885792E-005
 -2.820000000000000E-002   -7.626869914195795E-005
 -2.810000000000000E-002   -8.134322132044333E-005
 -2.800000000000000E-002   -8.670986827362906E-005
 -2.790000000000000E-002   -9.238030797356818E-005
 -2.780000000000000E-002   -9.836593637804133E-005
 -2.770000000000000E-002   -1.046780945116061E-004
 -2.760000000000000E-002   -1.113284797463290E-004
 -2.750000000000000E-002   -1.183295749832653E-004
 -2.740000000000000E-002   -1.256951109653671E-004
 -2.730000000000000E-002   -1.334404588766896E-004
 -2.720000000000000E-002   -1.415830178268624E-004
 -2.710000000000000E-002   -1.501424200082328E-004
 -2.700000000000000E-002   -1.591407686128148E-004
 -2.690000000000000E-002   -1.686023035852563E-004
 -2.680000000000000E-002   -1.785535883459110E-004
 -2.670000000000000E-002   -1.890229705968482E-004
 -2.660000000000000E-002   -2.000403030336000E-004
 -2.650000000000000E-002   -2.116366642648634E-004
 -2.640000000000000E-002   -2.238439150783682E-004
 -2.630000000000000E-002   -2.366943912115635E-004
 -2.620000000000000E-002   -2.502208366750900E-004
 -2.610000000000000E-002   -2.644564221404247E-004
 -2.600000000000000E-002   -2.794345210723294E-004
 -2.590000000000000E-002   -2.951894977180842E-004
 -2.580000000000000E-002   -3.117566535420913E-004
 -2.570000000000000E-002   -3.291728671546924E-004
 -2.560000000000000E-002   -3.474771380201286E-004
 -2.550000000000000E-002   -3.667106543234908E-004
 -2.540000000000000E-002   -3.869174021421068E-004
 -2.530000000000000E-002   -4.081446759529029E-004
 -2.520000000000000E-002   -4.304428274355289E-004
 -2.510000000000000E-002   -4.538652515076373E-004
 -2.500000000000000E-002   -4.784683387315900E-004
 -2.490000000000000E-002   -5.043114049303516E-004
 -2.480000000000000E-002   -5.314560820567777E-004
 -2.470000000000000E-002   -5.599662845386114E-004
 -2.460000000000000E-002   -5.899077795778671E-004
 -2.450000000000000E-002   -6.213482456776030E-004
 -2.440000000000000E-002   -6.543569547870640E-004
 -2.430000000000000E-002   -6.890049104062270E-004
 -2.420000000000000E-002   -7.253655015768425E-004
 -2.410000000000000E-002   -7.635138405668410E-004
 -2.400000000000000E-002   -8.035286435236549E-004
 -2.390000000000000E-002   -8.454919015405861E-004
 -2.380000000000000E-002   -8.894894384886917E-004
 -2.370000000000000E-002   -9.356112389133301E-004
 -2.360000000000000E-002   -9.839524796490780E-004
 -2.350000000000000E-002   -1.034612931842241E-003
 -2.340000000000000E-002   -1.087698132168375E-003
 -2.330000000000000E-002   -1.143318665690312E-003
 -2.320000000000000E-002   -1.201589943852049E-003
 -2.310000000000000E-002   -1.262632053767263E-003
 -2.300000000000000E-002   -1.326570241527452E-003
 -2.290000000000000E-002   -1.393533762638949E-003
 -2.280000000000000E-002   -1.463655723927269E-003
 -2.270000000000000E-002   -1.537074683056496E-003
 -2.260000000000000E-002   -1.613932047773896E-003
 -2.250000000000000E-002   -1.694374409794628E-003
 -2.240000000000000E-002   -1.778553512090390E-003
 -2.230000000000000E-002   -1.866625976875356E-003
 -2.220000000000000E-002   -1.958754192499536E-003
 -2.210000000000000E-002   -2.055108160414702E-003
 -2.200000000000000E-002   -2.155864063861120E-003
 -2.190000000000000E-002   -2.261206164392597E-003
 -2.180000000000000E-002   -2.371326233889346E-003
 -2.170000000000000E-002   -2.486425959488863E-003
 -2.160000000000000E-002   -2.606712504229391E-003
 -2.150000000000000E-002   -2.732403872102811E-003
 -2.140000000000000E-002   -2.863725501836617E-003
 -2.130000000000000E-002   -3.000911036454077E-003
 -2.120000000000000E-002   -3.144202018511424E-003
 -2.110000000000000E-002   -3.293848102163073E-003
 -2.100000000000000E-002   -3.450106673857138E-003
 -2.090000000000000E-002   -3.613242158126622E-003
 -2.080000000000000E-002   -3.783527774764798E-003
 -2.070000000000000E-002   -3.961244639745212E-003
 -2.060000000000000E-002   -4.146684336260619E-003
 -2.050000000000000E-002   -4.340145818177378E-003
 -2.040000000000000E-002   -4.541941118795920E-003
 -2.030000000000000E-002   -4.752389717034413E-003
 -2.020000000000000E-002   -4.971824650070189E-003
 -2.010000000000000E-002   -5.200590478382795E-003
 -2.000000000000000E-002   -5.439044808471631E-003
 -1.990000000000000E-002   -5.687555353502034E-003
 -1.980000000000000E-002   -5.946506589669890E-003
 -1.970000000000000E-002   -6.216293901716391E-003
 -1.960000000000000E-002   -6.497324058407149E-003
 -1.950000000000000E-002   -6.790020551494298E-003
 -1.940000000000000E-002   -7.094817176722012E-003
 -1.930000000000000E-002   -7.412161745866624E-003
 -1.920000000000000E-002   -7.742513197166922E-003
 -1.910000000000000E-002   -8.086346651692717E-003
 -1.900000000000000E-002   -8.444145251332035E-003
 -1.890000000000000E-002   -8.816412305219330E-003
 -1.880000000000000E-002   -9.203662546326794E-003
 -1.870000000000000E-002   -9.606424219935978E-003
 -1.860000000000000E-002   -1.002524553579355E-002
 -1.850000000000000E-002   -1.046068492380325E-002
 -1.840000000000000E-002   -1.091332562310961E-002
 -1.830000000000000E-002   -1.138376014605248E-002
 -1.820000000000000E-002   -1.187260707180858E-002
 -1.810000000000000E-002   -1.238049404400142E-002
 -1.800000000000000E-002   -1.290807120640623E-002
 -1.790000000000000E-002   -1.345600945001092E-002
 -1.780000000000000E-002   -1.402499365383674E-002
 -1.770000000000000E-002   -1.461572877142974E-002
 -1.760000000000000E-002   -1.522893647248737E-002
 -1.750000000000000E-002   -1.586535763353432E-002
 -1.740000000000000E-002   -1.652574923673675E-002
 -1.730000000000000E-002   -1.721088648312867E-002
 -1.720000000000000E-002   -1.792156821792279E-002
 -1.710000000000000E-002   -1.865860284482451E-002
 -1.700000000000000E-002   -1.942282289982373E-002
 -1.690000000000000E-002   -2.021508686053348E-002
 -1.680000000000000E-002   -2.103626154678193E-002
 -1.670000000000000E-002   -2.188724024901345E-002
 -1.660000000000000E-002   -2.276893945435217E-002
 -1.650000000000000E-002   -2.368228899193560E-002
 -1.640000000000000E-002   -2.462825103660594E-002
 -1.630000000000000E-002   -2.560780024720449E-002
 -1.620000000000000E-002   -2.662193892286950E-002
 -1.610000000000000E-002   -2.767168572858361E-002
 -1.600000000000000E-002   -2.875807897045255E-002
 -1.590000000000000E-002   -2.988218237435028E-002
 -1.580000000000000E-002   -3.104507472223763E-002
 -1.570000000000000E-002   -3.224785633370110E-002
 -1.560000000000000E-002   -3.349165026896863E-002
 -1.550000000000000E-002   -3.477759877872166E-002
 -1.540000000000000E-002   -3.610685474799005E-002
 -1.530000000000000E-002   -3.748060204459066E-002
 -1.520000000000000E-002   -3.890004657820120E-002
 -1.510000000000000E-002   -4.036640182707514E-002
 -1.500000000000000E-002   -4.188090515851136E-002
 -1.490000000000000E-002   -4.344482838240951E-002
 -1.480000000000000E-002   -4.505944816177136E-002
 -1.470000000000000E-002   -4.672605752902062E-002
 -1.460000000000000E-002   -4.844596991335454E-002
 -1.450000000000000E-002   -5.022052725186411E-002
 -1.440000000000000E-002   -5.205109008938424E-002
 -1.430000000000000E-002   -5.393901828465521E-002
 -1.420000000000000E-002   -5.588569794764450E-002
 -1.410000000000000E-002   -5.789252200397734E-002
 -1.400000000000000E-002   -5.996091973372895E-002
 -1.390000000000000E-002   -6.209232111065103E-002
 -1.380000000000000E-002   -6.428815314004588E-002
 -1.370000000000000E-002   -6.654987559760947E-002
 -1.360000000000000E-002   -6.887895451881322E-002
 -1.350000000000000E-002   -7.127686649548803E-002
 -1.340000000000000E-002   -7.374508938195011E-002
 -1.330000000000000E-002   -7.628512784518458E-002
 -1.320000000000000E-002   -7.889848348750857E-002
 -1.310000000000000E-002   -8.158666485552546E-002
 -1.300000000000000E-002   -8.435119268434862E-002
 -1.290000000000000E-002   -8.719359424770785E-002
 -1.280000000000000E-002   -9.011537904099795E-002
 -1.270000000000000E-002   -9.311809229168189E-002
 -1.260000000000000E-002   -9.620325720894206E-002
 -1.250000000000000E-002   -9.937239016911392E-002
 -1.240000000000000E-002   -0.102627028062786     
 -1.230000000000000E-002   -0.105968679503923     
 -1.220000000000000E-002   -0.109398853079261     
 -1.210000000000000E-002   -0.112919054067549     
 -1.200000000000000E-002   -0.116530775376549     
 -1.190000000000000E-002   -0.120235482228559     
 -1.180000000000000E-002   -0.124034674495905     
 -1.170000000000000E-002   -0.127929770461219     
 -1.160000000000000E-002   -0.131922233216423     
 -1.150000000000000E-002   -0.136013460825112     
 -1.140000000000000E-002   -0.140204859730173     
 -1.130000000000000E-002   -0.144497797463917     
 -1.120000000000000E-002   -0.148893620615675     
 -1.110000000000000E-002   -0.153393673089235     
 -1.100000000000000E-002   -0.157999235154441     
 -1.090000000000000E-002   -0.162711552312017     
 -1.080000000000000E-002   -0.167531858294011     
 -1.070000000000000E-002   -0.172461356139526     
 -1.060000000000000E-002   -0.177501158868901     
 -1.050000000000000E-002   -0.182652363284669     
 -1.040000000000000E-002   -0.187916055672114     
 -1.030000000000000E-002   -0.193293198448866     
 -1.020000000000000E-002   -0.198784763193167     
 -1.010000000000000E-002   -0.204391658737155     
 -1.000000000000000E-002   -0.210114712830784     
 -9.899999999999999E-003   -0.215954705040084     
 -9.800000000000000E-003   -0.221912355608594     
 -9.699999999999999E-003   -0.227988338665863     
 -9.599999999999999E-003   -0.234183198022369     
 -9.500000000000000E-003   -0.240497456008263     
 -9.399999999999999E-003   -0.246931546038738     
 -9.299999999999999E-003   -0.253485840246828     
 -9.200000000000000E-003   -0.260160579151051     
 -9.099999999999999E-003   -0.266955996618049     
 -8.999999999999999E-003   -0.273872168978206     
 -8.900000000000000E-003   -0.280909070673853     
 -8.799999999999999E-003   -0.288066630839748     
 -8.699999999999999E-003   -0.295344679172035     
 -8.600000000000000E-003   -0.302742892041660     
 -8.499999999999999E-003   -0.310260904765411     
 -8.399999999999999E-003   -0.317898211099043     
 -8.300000000000000E-003   -0.325654191090467     
 -8.199999999999999E-003   -0.333528128339789     
 -8.100000000000000E-003   -0.341519125322148     
 -8.000000000000000E-003   -0.349626295531427     
 -7.899999999999999E-003   -0.357848487231437     
 -7.800000000000000E-003   -0.366184558664155     
 -7.699999999999999E-003   -0.374633113974616     
 -7.599999999999999E-003   -0.383192701329027     
 -7.499999999999999E-003   -0.391861696035441     
 -7.399999999999999E-003   -0.400638359870669     
 -7.299999999999999E-003   -0.409520767424396     
 -7.199999999999999E-003   -0.418506919796840     
 -7.100000000000000E-003   -0.427594627057954     
 -6.999999999999999E-003   -0.436781580047591     
 -6.899999999999999E-003   -0.446065268312188     
 -6.800000000000000E-003   -0.455443052485583     
 -6.699999999999999E-003   -0.464912158677280     
 -6.599999999999999E-003   -0.474469592416173     
 -6.499999999999999E-003   -0.484112252834968     
 -6.399999999999999E-003   -0.493836864700654     
 -6.299999999999999E-003   -0.503640022071270     
 -6.199999999999999E-003   -0.513518092450934     
 -6.100000000000000E-003   -0.523467306586626     
 -5.999999999999999E-003   -0.533483749709895     
 -5.899999999999999E-003   -0.543563301692989     
 -5.800000000000000E-003   -0.553701687072667     
 -5.699999999999999E-003   -0.563894462380474     
 -5.599999999999999E-003   -0.574136995352147     
 -5.499999999999999E-003   -0.584424549686946     
 -5.399999999999999E-003   -0.594752103534566     
 -5.299999999999999E-003   -0.605114540852529     
 -5.199999999999999E-003   -0.615506547425771     
 -5.099999999999999E-003   -0.625922673168081     
 -4.999999999999999E-003   -0.636357225231543     
 -4.899999999999999E-003   -0.646804370800481     
 -4.799999999999999E-003   -0.657258121931949     
 -4.699999999999999E-003   -0.667712343712430     
 -4.599999999999999E-003   -0.678160676411399     
 -4.499999999999999E-003   -0.688596626367094     
 -4.399999999999999E-003   -0.699013529888463     
 -4.299999999999999E-003   -0.709404581224437     
 -4.199999999999999E-003   -0.719762813659388     
 -4.099999999999999E-003   -0.730081036375036     
 -3.999999999999999E-003   -0.740352068219538     
 -3.899999999999999E-003   -0.750568368498746     
 -3.799999999999999E-003   -0.760722379105470     
 -3.699999999999999E-003   -0.770806450339965     
 -3.599999999999999E-003   -0.780812664752407     
 -3.499999999999999E-003   -0.790732984570051     
 -3.399999999999999E-003   -0.800559250744884     
 -3.299999999999999E-003   -0.810283333077351     
 -3.199999999999999E-003   -0.819896774239639     
 -3.099999999999999E-003   -0.829390998075090     
 -2.999999999999999E-003   -0.838757487823324     
 -2.899999999999999E-003   -0.847987597239820     
 -2.799999999999999E-003   -0.857072415957624     
 -2.699999999999999E-003   -0.866003094437223     
 -2.599999999999999E-003   -0.874770640683065     
 -2.499999999999999E-003   -0.883365920119606     
 -2.399999999999999E-003   -0.891779912215209     
 -2.299999999999999E-003   -0.900003305209351     
 -2.199999999999999E-003   -0.908026974503048     
 -2.099999999999999E-003   -0.915841619125772     
 -1.999999999999999E-003   -0.923437772620176     
 -1.899999999999999E-003   -0.930806148046727     
 -1.799999999999999E-003   -0.937937401367081     
 -1.699999999999999E-003   -0.944822072616807     
 -1.599999999999999E-003   -0.951450774724003     
 -1.499999999999999E-003   -0.957814090365077     
 -1.399999999999999E-003   -0.963902590829801     
 -1.299999999999999E-003   -0.969706964704334     
 -1.199999999999999E-003   -0.975217825207006     
 -1.099999999999999E-003   -0.980425873359603     
 -9.999999999999989E-004   -0.985321930037622     
 -8.999999999999990E-004   -0.989896727814553     
 -7.999999999999990E-004   -0.994141212121918     
 -6.999999999999989E-004   -0.998046318287642     
 -5.999999999999990E-004    -1.00160310701712     
 -4.999999999999989E-004    -1.00480279197969     
 -3.999999999999989E-004    -1.00763661176382     
 -2.999999999999989E-004    -1.01009600628402     
 -1.999999999999989E-004    -1.01217256326386     
 -9.999999999999892E-005    -1.01385793993669     
  1.084202172485504E-018    -1.01514398707626     
  1.000000000000011E-004    -1.01602278809401     
  2.000000000000011E-004    -1.01648652786758     
  3.000000000000011E-004    -1.01652758958065     
  4.000000000000011E-004    -1.01613857993580     
  5.000000000000011E-004    -1.01531236074319     
  6.000000000000011E-004    -1.01404197516988     
  7.000000000000011E-004    -1.01232064505780     
  8.000000000000011E-004    -1.01014196472853     
  9.000000000000012E-004    -1.00749968678851     
  1.000000000000001E-003    -1.00438792307073     
  1.100000000000001E-003    -1.00080093817593     
  1.200000000000001E-003   -0.996733471134739     
  1.300000000000001E-003   -0.992180355765546     
  1.400000000000001E-003   -0.987136836390339     
  1.500000000000001E-003   -0.981598470543720     
  1.600000000000001E-003   -0.975561129428281     
  1.700000000000001E-003   -0.969021045490553     
  1.800000000000001E-003   -0.961974786612395     
  1.900000000000001E-003   -0.954419273454509     
  2.000000000000001E-003   -0.946351788892358     
  2.100000000000001E-003   -0.937769982621379     
  2.200000000000001E-003   -0.928671859377671     
  2.300000000000001E-003   -0.919055903126633     
  2.400000000000001E-003   -0.908920857003105     
  2.500000000000001E-003   -0.898266020448056     
  2.600000000000001E-003   -0.887090972696118     
  2.700000000000001E-003   -0.875395774042280     
  2.800000000000001E-003   -0.863180864272937     
  2.900000000000001E-003   -0.850447130357522     
  3.000000000000001E-003   -0.837195858533313     
  3.100000000000001E-003   -0.823428809588207     
  3.200000000000001E-003   -0.809148185424011     
  3.300000000000001E-003   -0.794356580425602     
  3.400000000000001E-003   -0.779057040955713     
  3.500000000000001E-003   -0.763253119353292     
  3.600000000000001E-003   -0.746948729059284     
  3.700000000000001E-003   -0.730148322116264     
  3.800000000000001E-003   -0.712856745380547     
  3.900000000000001E-003   -0.695079378168585     
  4.000000000000001E-003   -0.676821910838080     
  4.100000000000001E-003   -0.658090560449056     
  4.200000000000001E-003   -0.638892040720958     
  4.300000000000001E-003   -0.619233417698267     
  4.400000000000001E-003   -0.599122281270225     
  4.500000000000001E-003   -0.578566605126506     
  4.600000000000002E-003   -0.557574821745846     
  4.700000000000001E-003   -0.536155807196153     
  4.800000000000001E-003   -0.514318881244760     
  4.900000000000002E-003   -0.492073753744292     
  5.000000000000001E-003   -0.469430586230200     
  5.100000000000001E-003   -0.446399952645418     
  5.200000000000001E-003   -0.422992827772555     
  5.300000000000002E-003   -0.399220600802351     
  5.400000000000001E-003   -0.375095055395089     
  5.500000000000001E-003   -0.350628320995176     
  5.600000000000002E-003   -0.325832947456377     
  5.700000000000001E-003   -0.300721779156288     
  5.800000000000001E-003   -0.275308168577675     
  5.900000000000002E-003   -0.249605646264879     
  6.000000000000001E-003   -0.223628140464372     
  6.100000000000001E-003   -0.197389888401981     
  6.200000000000002E-003   -0.170905451349140     
  6.300000000000002E-003   -0.144189769402500     
  6.400000000000001E-003   -0.117257917321031     
  6.500000000000001E-003   -9.012534099067411E-002
  6.600000000000002E-003   -6.280773503298699E-002
  6.700000000000001E-003   -3.532110881268460E-002
  6.800000000000001E-003   -7.681511422123609E-003
  6.900000000000002E-003    2.009457962016788E-002
  7.000000000000001E-003    4.799062095983106E-002
  7.100000000000001E-003    7.598973907293098E-002
  7.200000000000002E-003    0.104075092404545     
  7.300000000000002E-003    0.132229519495338     
  7.400000000000001E-003    0.160435778515201     
  7.500000000000001E-003    0.188676532189849     
  7.600000000000002E-003    0.216934253145369     
  7.700000000000001E-003    0.245191421526250     
  7.800000000000001E-003    0.273430422070435     
  7.900000000000001E-003    0.301633512372364     
  8.000000000000002E-003    0.329783025825107     
  8.100000000000001E-003    0.357861217881361     
  8.200000000000001E-003    0.385850328152245     
  8.300000000000002E-003    0.413732621268457     
  8.400000000000001E-003    0.441490368751896     
  8.500000000000002E-003    0.469105913455967     
  8.600000000000002E-003    0.496561708694501     
  8.700000000000001E-003    0.523840179380826     
  8.800000000000002E-003    0.550924039477527     
  8.900000000000002E-003    0.577795936361630     
  9.000000000000001E-003    0.604438773809797     
  9.100000000000002E-003    0.630835580034857     
  9.200000000000002E-003    0.656969538461751     
  9.300000000000001E-003    0.682824143380991     
  9.400000000000002E-003    0.708382960205711     
  9.500000000000001E-003    0.733629830968797     
  9.600000000000001E-003    0.758548803892090     
  9.700000000000002E-003    0.783124183905793     
  9.800000000000001E-003    0.807340593694851     
  9.900000000000001E-003    0.831183061567440     
  1.000000000000000E-002    0.854636656931243     
  1.010000000000000E-002    0.877686904972834     
  1.020000000000000E-002    0.900319692902460     
  1.030000000000000E-002    0.922521189151797     
  1.040000000000000E-002    0.944277969831386     
  1.050000000000000E-002    0.965577108435713     
  1.060000000000000E-002    0.986405764211980     
  1.070000000000000E-002     1.00675178077855     
  1.080000000000000E-002     1.02660331652353     
  1.090000000000000E-002     1.04594895760947     
  1.100000000000000E-002     1.06477763161864     
  1.110000000000000E-002     1.08307890960804     
  1.120000000000000E-002     1.10084261625977     
  1.130000000000000E-002     1.11805926692880     
  1.140000000000000E-002     1.13471965334315     
  1.150000000000000E-002     1.15081513982867     
  1.160000000000000E-002     1.16633745831759     
  1.170000000000000E-002     1.18127905031481     
  1.180000000000000E-002     1.19563274968113     
  1.190000000000000E-002     1.20939174470191     
  1.200000000000000E-002     1.22255001258718     
  1.210000000000000E-002     1.23510194481291     
  1.220000000000000E-002     1.24704237910504     
  1.230000000000000E-002     1.25836673370958     
  1.240000000000000E-002     1.26907099112200     
  1.250000000000000E-002     1.27915163000498     
  1.260000000000000E-002     1.28860576651418     
  1.270000000000000E-002     1.29743079957201     
  1.280000000000000E-002     1.30562488682338     
  1.290000000000000E-002     1.31318668282865     
  1.300000000000000E-002     1.32011541300798     
  1.310000000000000E-002     1.32641067229322     
  1.320000000000000E-002     1.33207271840003     
  1.330000000000000E-002     1.33710225289584     
  1.340000000000000E-002     1.34150049609890     
  1.350000000000000E-002     1.34526935365139     
  1.360000000000000E-002     1.34841094369495     
  1.370000000000000E-002     1.35092811698472     
  1.380000000000000E-002     1.35282414333213     
  1.390000000000000E-002     1.35410281908050     
  1.400000000000000E-002     1.35476838911101     
  1.410000000000000E-002     1.35482563611268     
  1.420000000000000E-002     1.35427972191753     
  1.430000000000000E-002     1.35313625858793     
  1.440000000000000E-002     1.35140151901871     
  1.450000000000000E-002     1.34908196329048     
  1.460000000000000E-002     1.34618465609762     
  1.470000000000000E-002     1.34271705950798     
  1.480000000000000E-002     1.33868693448055     
  1.490000000000000E-002     1.33410260937706     
  1.500000000000000E-002     1.32897268565503     
  1.510000000000000E-002     1.32330619232413     
  1.520000000000000E-002     1.31711244640547     
  1.530000000000000E-002     1.31040120142290     
  1.540000000000000E-002     1.30318252528926     
  1.550000000000000E-002     1.29546680473735     
  1.560000000000000E-002     1.28726462219716     
  1.570000000000000E-002     1.27858706851682     
  1.580000000000000E-002     1.26944537309769     
  1.590000000000000E-002     1.25985099381070     
  1.600000000000000E-002     1.24981583689600     
  1.610000000000000E-002     1.23935181740930     
  1.620000000000000E-002     1.22847123326965     
  1.630000000000000E-002     1.21718656260854     
  1.640000000000000E-002     1.20551045000062     
  1.650000000000000E-002     1.19345568914020     
  1.660000000000000E-002     1.18103529978804     
  1.670000000000000E-002     1.16826243118611     
  1.680000000000000E-002     1.15515030849648     
  1.690000000000000E-002     1.14171240387329     
  1.700000000000000E-002     1.12796214809183     
  1.710000000000000E-002     1.11391313441219     
  1.720000000000000E-002     1.09957904116523     
  1.730000000000000E-002     1.08497351631883     
  1.740000000000000E-002     1.07011046245374     
  1.750000000000000E-002     1.05500349334895     
  1.760000000000000E-002     1.03966647118945     
  1.770000000000000E-002     1.02411316230361     
  1.780000000000000E-002     1.00835730996738     
  1.790000000000000E-002    0.992412682589220     
  1.800000000000000E-002    0.976293009963518     
  1.810000000000000E-002    0.960011934107775     
  1.820000000000000E-002    0.943582979057708     
  1.830000000000000E-002    0.927019661596783     
  1.840000000000000E-002    0.910335416191913     
  1.850000000000000E-002    0.893543437646227     
  1.860000000000000E-002    0.876656953190431     
  1.870000000000000E-002    0.859688963921281     