 -4.000000000000000E-002    0.000000000000000E+000
 -3.990000000000000E-002    0.000000000000000E+000
 -3.980000000000000E-002    0.000000000000000E+000
 -3.970000000000000E-002    0.000000000000000E+000
 -3.960000000000000E-002    0.000000000000000E+000
 -3.950000000000000E-002    0.000000000000000E+000
 -3.940000000000000E-002    0.000000000000000E+000
 -3.930000000000000E-002    0.000000000000000E+000
 -3.920000000000000E-002    0.000000000000000E+000
 -3.910000000000000E-002    0.000000000000000E+000
 -3.900000000000000E-002    0.000000000000000E+000
 -3.890000000000000E-002    0.000000000000000E+000
 -3.880000000000000E-002    0.000000000000000E+000
 -3.870000000000000E-002    0.000000000000000E+000
 -3.860000000000000E-002    0.000000000000000E+000
 -3.850000000000000E-002    0.000000000000000E+000
 -3.840000000000000E-002    0.000000000000000E+000
 -3.830000000000000E-002    0.000000000000000E+000
 -3.820000000000000E-002    0.000000000000000E+000
 -3.810000000000000E-002    0.000000000000000E+000
 -3.800000000000000E-002    0.000000000000000E+000
 -3.790000000000000E-002    0.000000000000000E+000
 -3.780000000000000E-002    0.000000000000000E+000
 -3.770000000000000E-002    0.000000000000000E+000
 -3.760000000000000E-002    0.000000000000000E+000
 -3.750000000000000E-002    0.000000000000000E+000
 -3.740000000000000E-002    0.000000000000000E+000
 -3.730000000000000E-002    0.000000000000000E+000
 -3.720000000000000E-002    0.000000000000000E+000
 -3.710000000000000E-002    0.000000000000000E+000
 -3.700000000000000E-002    0.000000000000000E+000
 -3.690000000000000E-002    0.000000000000000E+000
 -3.680000000000000E-002    0.000000000000000E+000
 -3.670000000000000E-002    0.000000000000000E+000
 -3.660000000000000E-002    0.000000000000000E+000
 -3.650000000000000E-002    0.000000000000000E+000
 -3.640000000000000E-002    0.000000000000000E+000
 -3.630000000000000E-002    0.000000000000000E+000
 -3.620000000000000E-002    0.000000000000000E+000
 -3.610000000000000E-002    0.000000000000000E+000
 -3.600000000000000E-002    0.000000000000000E+000
 -3.590000000000000E-002    0.000000000000000E+000
 -3.580000000000000E-002    0.000000000000000E+000
 -3.570000000000000E-002    0.000000000000000E+000
 -3.560000000000000E-002    0.000000000000000E+000
 -3.550000000000000E-002    0.000000000000000E+000
 -3.540000000000000E-002    0.000000000000000E+000
 -3.530000000000000E-002    0.000000000000000E+000
 -3.520000000000000E-002    0.000000000000000E+000
 -3.510000000000000E-002    0.000000000000000E+000
 -3.500000000000000E-002    0.000000000000000E+000
 -3.490000000000000E-002    0.000000000000000E+000
 -3.480000000000000E-002    0.000000000000000E+000
 -3.470000000000000E-002    0.000000000000000E+000
 -3.460000000000000E-002    0.000000000000000E+000
 -3.450000000000000E-002    0.000000000000000E+000
 -3.440000000000000E-002    0.000000000000000E+000
 -3.430000000000000E-002    0.000000000000000E+000
 -3.420000000000000E-002    0.000000000000000E+000
 -3.410000000000000E-002    0.000000000000000E+000
 -3.400000000000000E-002    0.000000000000000E+000
 -3.390000000000000E-002    0.000000000000000E+000
 -3.380000000000000E-002    0.000000000000000E+000
 -3.370000000000000E-002    0.000000000000000E+000
 -3.360000000000000E-002    0.000000000000000E+000
 -3.350000000000000E-002    0.000000000000000E+000
 -3.340000000000000E-002    0.000000000000000E+000
 -3.330000000000000E-002    0.000000000000000E+000
 -3.320000000000000E-002    0.000000000000000E+000
 -3.310000000000000E-002    0.000000000000000E+000
 -3.300000000000000E-002    0.000000000000000E+000
 -3.290000000000000E-002    0.000000000000000E+000
 -3.280000000000000E-002    0.000000000000000E+000
 -3.270000000000000E-002    0.000000000000000E+000
 -3.260000000000000E-002    0.000000000000000E+000
 -3.250000000000000E-002    0.000000000000000E+000
 -3.240000000000000E-002    0.000000000000000E+000
 -3.230000000000000E-002    0.000000000000000E+000
 -3.220000000000000E-002    0.000000000000000E+000
 -3.210000000000000E-002    0.000000000000000E+000
 -3.200000000000000E-002    0.000000000000000E+000
 -3.190000000000000E-002    0.000000000000000E+000
 -3.180000000000000E-002    0.000000000000000E+000
 -3.170000000000000E-002    0.000000000000000E+000
 -3.160000000000000E-002    0.000000000000000E+000
 -3.150000000000000E-002    0.000000000000000E+000
 -3.140000000000000E-002    0.000000000000000E+000
 -3.130000000000000E-002    0.000000000000000E+000
 -3.120000000000000E-002    0.000000000000000E+000
 -3.110000000000000E-002    0.000000000000000E+000
 -3.100000000000000E-002    0.000000000000000E+000
 -3.090000000000000E-002    0.000000000000000E+000
 -3.080000000000000E-002    0.000000000000000E+000
 -3.070000000000000E-002    0.000000000000000E+000
 -3.060000000000000E-002    0.000000000000000E+000
 -3.050000000000000E-002    0.000000000000000E+000
 -3.040000000000000E-002    0.000000000000000E+000
 -3.030000000000000E-002    0.000000000000000E+000
 -3.020000000000000E-002    0.000000000000000E+000
 -3.010000000000000E-002    0.000000000000000E+000
 -3.000000000000000E-002    0.000000000000000E+000
 -2.990000000000000E-002    0.000000000000000E+000
 -2.980000000000000E-002    0.000000000000000E+000
 -2.970000000000000E-002    0.000000000000000E+000
 -2.960000000000000E-002    0.000000000000000E+000
 -2.950000000000000E-002    0.000000000000000E+000
 -2.940000000000000E-002    0.000000000000000E+000
 -2.930000000000000E-002    0.000000000000000E+000
 -2.920000000000000E-002    0.000000000000000E+000
 -2.910000000000000E-002    0.000000000000000E+000
 -2.900000000000000E-002    0.000000000000000E+000
 -2.890000000000000E-002    0.000000000000000E+000
 -2.880000000000000E-002    0.000000000000000E+000
 -2.870000000000000E-002    0.000000000000000E+000
 -2.860000000000000E-002    0.000000000000000E+000
 -2.850000000000000E-002    0.000000000000000E+000
 -2.840000000000000E-002    0.000000000000000E+000
 -2.830000000000000E-002    0.000000000000000E+000
 -2.820000000000000E-002    0.000000000000000E+000
 -2.810000000000000E-002    0.000000000000000E+000
 -2.800000000000000E-002    0.000000000000000E+000
 -2.790000000000000E-002    0.000000000000000E+000
 -2.780000000000000E-002    0.000000000000000E+000
 -2.770000000000000E-002    0.000000000000000E+000
 -2.760000000000000E-002    0.000000000000000E+000
 -2.750000000000000E-002    0.000000000000000E+000
 -2.740000000000000E-002    0.000000000000000E+000
 -2.730000000000000E-002    0.000000000000000E+000
 -2.720000000000000E-002    0.000000000000000E+000
 -2.710000000000000E-002    0.000000000000000E+000
 -2.700000000000000E-002    0.000000000000000E+000
 -2.690000000000000E-002    0.000000000000000E+000
 -2.680000000000000E-002    0.000000000000000E+000
 -2.670000000000000E-002    0.000000000000000E+000
 -2.660000000000000E-002    0.000000000000000E+000
 -2.650000000000000E-002    0.000000000000000E+000
 -2.640000000000000E-002    0.000000000000000E+000
 -2.630000000000000E-002    0.000000000000000E+000
 -2.620000000000000E-002    0.000000000000000E+000
 -2.610000000000000E-002    0.000000000000000E+000
 -2.600000000000000E-002    0.000000000000000E+000
 -2.590000000000000E-002    0.000000000000000E+000
 -2.580000000000000E-002    0.000000000000000E+000
 -2.570000000000000E-002    0.000000000000000E+000
 -2.560000000000000E-002    0.000000000000000E+000
 -2.550000000000000E-002    0.000000000000000E+000
 -2.540000000000000E-002    0.000000000000000E+000
 -2.530000000000000E-002    0.000000000000000E+000
 -2.520000000000000E-002    0.000000000000000E+000
 -2.510000000000000E-002    0.000000000000000E+000
 -2.500000000000000E-002    0.000000000000000E+000
 -2.490000000000000E-002    0.000000000000000E+000
 -2.480000000000000E-002    0.000000000000000E+000
 -2.470000000000000E-002    0.000000000000000E+000
 -2.460000000000000E-002    0.000000000000000E+000
 -2.450000000000000E-002    0.000000000000000E+000
 -2.440000000000000E-002    0.000000000000000E+000
 -2.430000000000000E-002    0.000000000000000E+000
 -2.420000000000000E-002    0.000000000000000E+000
 -2.410000000000000E-002    0.000000000000000E+000
 -2.400000000000000E-002    0.000000000000000E+000
 -2.390000000000000E-002    0.000000000000000E+000
 -2.380000000000000E-002    0.000000000000000E+000
 -2.370000000000000E-002    0.000000000000000E+000
 -2.360000000000000E-002    0.000000000000000E+000
 -2.350000000000000E-002    0.000000000000000E+000
 -2.340000000000000E-002    0.000000000000000E+000
 -2.330000000000000E-002    0.000000000000000E+000
 -2.320000000000000E-002    0.000000000000000E+000
 -2.310000000000000E-002    0.000000000000000E+000
 -2.300000000000000E-002    0.000000000000000E+000
 -2.290000000000000E-002    0.000000000000000E+000
 -2.280000000000000E-002    0.000000000000000E+000
 -2.270000000000000E-002    0.000000000000000E+000
 -2.260000000000000E-002    0.000000000000000E+000
 -2.250000000000000E-002    0.000000000000000E+000
 -2.240000000000000E-002    0.000000000000000E+000
 -2.230000000000000E-002    0.000000000000000E+000
 -2.220000000000000E-002    0.000000000000000E+000
 -2.210000000000000E-002    0.000000000000000E+000
 -2.200000000000000E-002    0.000000000000000E+000
 -2.190000000000000E-002    0.000000000000000E+000
 -2.180000000000000E-002    0.000000000000000E+000
 -2.170000000000000E-002    0.000000000000000E+000
 -2.160000000000000E-002    0.000000000000000E+000
 -2.150000000000000E-002    0.000000000000000E+000
 -2.140000000000000E-002    0.000000000000000E+000
 -2.130000000000000E-002    0.000000000000000E+000
 -2.120000000000000E-002    0.000000000000000E+000
 -2.110000000000000E-002    0.000000000000000E+000
 -2.100000000000000E-002    0.000000000000000E+000
 -2.090000000000000E-002    0.000000000000000E+000
 -2.080000000000000E-002    0.000000000000000E+000
 -2.070000000000000E-002    0.000000000000000E+000
 -2.060000000000000E-002    0.000000000000000E+000
 -2.050000000000000E-002    0.000000000000000E+000
 -2.040000000000000E-002    0.000000000000000E+000
 -2.030000000000000E-002    0.000000000000000E+000
 -2.020000000000000E-002    0.000000000000000E+000
 -2.010000000000000E-002    0.000000000000000E+000
 -2.000000000000000E-002    0.000000000000000E+000
 -1.990000000000000E-002    0.000000000000000E+000
 -1.980000000000000E-002    0.000000000000000E+000
 -1.970000000000000E-002    0.000000000000000E+000
 -1.960000000000000E-002    0.000000000000000E+000
 -1.950000000000000E-002    0.000000000000000E+000
 -1.940000000000000E-002    0.000000000000000E+000
 -1.930000000000000E-002    0.000000000000000E+000
 -1.920000000000000E-002    0.000000000000000E+000
 -1.910000000000000E-002    0.000000000000000E+000
 -1.900000000000000E-002    0.000000000000000E+000
 -1.890000000000000E-002    0.000000000000000E+000
 -1.880000000000000E-002    0.000000000000000E+000
 -1.870000000000000E-002    0.000000000000000E+000
 -1.860000000000000E-002    0.000000000000000E+000
 -1.850000000000000E-002    0.000000000000000E+000
 -1.840000000000000E-002    0.000000000000000E+000
 -1.830000000000000E-002    0.000000000000000E+000
 -1.820000000000000E-002    0.000000000000000E+000
 -1.810000000000000E-002    0.000000000000000E+000
 -1.800000000000000E-002    0.000000000000000E+000
 -1.790000000000000E-002    0.000000000000000E+000
 -1.780000000000000E-002    0.000000000000000E+000
 -1.770000000000000E-002    0.000000000000000E+000
 -1.760000000000000E-002    0.000000000000000E+000
 -1.750000000000000E-002    0.000000000000000E+000
 -1.740000000000000E-002    0.000000000000000E+000
 -1.730000000000000E-002    0.000000000000000E+000
 -1.720000000000000E-002    0.000000000000000E+000
 -1.710000000000000E-002    0.000000000000000E+000
 -1.700000000000000E-002    0.000000000000000E+000
 -1.690000000000000E-002    0.000000000000000E+000
 -1.680000000000000E-002    0.000000000000000E+000
 -1.670000000000000E-002    0.000000000000000E+000
 -1.660000000000000E-002    0.000000000000000E+000
 -1.650000000000000E-002    0.000000000000000E+000
 -1.640000000000000E-002    0.000000000000000E+000
 -1.630000000000000E-002    0.000000000000000E+000
 -1.620000000000000E-002    0.000000000000000E+000
 -1.610000000000000E-002    0.000000000000000E+000
 -1.600000000000000E-002    0.000000000000000E+000
 -1.590000000000000E-002    0.000000000000000E+000
 -1.580000000000000E-002    0.000000000000000E+000
 -1.570000000000000E-002    0.000000000000000E+000
 -1.560000000000000E-002    0.000000000000000E+000
 -1.550000000000000E-002    0.000000000000000E+000
 -1.540000000000000E-002    0.000000000000000E+000
 -1.530000000000000E-002    0.000000000000000E+000
 -1.520000000000000E-002    0.000000000000000E+000
 -1.510000000000000E-002    0.000000000000000E+000
 -1.500000000000000E-002    0.000000000000000E+000
 -1.490000000000000E-002    0.000000000000000E+000
 -1.480000000000000E-002    0.000000000000000E+000
 -1.470000000000000E-002    0.000000000000000E+000
 -1.460000000000000E-002    0.000000000000000E+000
 -1.450000000000000E-002    0.000000000000000E+000
 -1.440000000000000E-002    0.000000000000000E+000
 -1.430000000000000E-002    0.000000000000000E+000
 -1.420000000000000E-002    0.000000000000000E+000
 -1.410000000000000E-002    0.000000000000000E+000
 -1.400000000000000E-002    0.000000000000000E+000
 -1.390000000000000E-002    0.000000000000000E+000
 -1.380000000000000E-002    0.000000000000000E+000
 -1.370000000000000E-002    0.000000000000000E+000
 -1.360000000000000E-002    0.000000000000000E+000
 -1.350000000000000E-002    0.000000000000000E+000
 -1.340000000000000E-002    0.000000000000000E+000
 -1.330000000000000E-002    0.000000000000000E+000
 -1.320000000000000E-002    0.000000000000000E+000
 -1.310000000000000E-002    0.000000000000000E+000
 -1.300000000000000E-002    0.000000000000000E+000
 -1.290000000000000E-002    0.000000000000000E+000
 -1.280000000000000E-002    0.000000000000000E+000
 -1.270000000000000E-002    0.000000000000000E+000
 -1.260000000000000E-002    0.000000000000000E+000
 -1.250000000000000E-002    0.000000000000000E+000
 -1.240000000000000E-002    0.000000000000000E+000
 -1.230000000000000E-002    0.000000000000000E+000
 -1.220000000000000E-002    0.000000000000000E+000
 -1.210000000000000E-002    0.000000000000000E+000
 -1.200000000000000E-002    0.000000000000000E+000
 -1.190000000000000E-002    0.000000000000000E+000
 -1.180000000000000E-002    0.000000000000000E+000
 -1.170000000000000E-002    0.000000000000000E+000
 -1.160000000000000E-002    0.000000000000000E+000
 -1.150000000000000E-002    0.000000000000000E+000
 -1.140000000000000E-002    0.000000000000000E+000
 -1.130000000000000E-002    0.000000000000000E+000
 -1.120000000000000E-002    0.000000000000000E+000
 -1.110000000000000E-002    0.000000000000000E+000
 -1.100000000000000E-002    0.000000000000000E+000
 -1.090000000000000E-002    0.000000000000000E+000
 -1.080000000000000E-002    0.000000000000000E+000
 -1.070000000000000E-002    0.000000000000000E+000
 -1.060000000000000E-002    0.000000000000000E+000
 -1.050000000000000E-002    0.000000000000000E+000
 -1.040000000000000E-002    0.000000000000000E+000
 -1.030000000000000E-002    0.000000000000000E+000
 -1.020000000000000E-002    0.000000000000000E+000
 -1.010000000000000E-002    0.000000000000000E+000
 -1.000000000000000E-002    0.000000000000000E+000
 -9.899999999999999E-003    0.000000000000000E+000
 -9.800000000000000E-003    0.000000000000000E+000
 -9.699999999999999E-003    0.000000000000000E+000
 -9.599999999999999E-003    0.000000000000000E+000
 -9.500000000000000E-003    0.000000000000000E+000
 -9.399999999999999E-003    0.000000000000000E+000
 -9.299999999999999E-003    0.000000000000000E+000
 -9.200000000000000E-003    0.000000000000000E+000
 -9.099999999999999E-003    0.000000000000000E+000
 -8.999999999999999E-003    0.000000000000000E+000
 -8.900000000000000E-003    0.000000000000000E+000
 -8.799999999999999E-003    0.000000000000000E+000
 -8.699999999999999E-003    0.000000000000000E+000
 -8.600000000000000E-003    0.000000000000000E+000
 -8.499999999999999E-003    0.000000000000000E+000
 -8.399999999999999E-003    0.000000000000000E+000
 -8.300000000000000E-003    0.000000000000000E+000
 -8.199999999999999E-003    0.000000000000000E+000
 -8.100000000000000E-003    0.000000000000000E+000
 -8.000000000000000E-003    0.000000000000000E+000
 -7.899999999999999E-003    0.000000000000000E+000
 -7.800000000000000E-003    0.000000000000000E+000
 -7.699999999999999E-003    0.000000000000000E+000
 -7.599999999999999E-003    0.000000000000000E+000
 -7.499999999999999E-003    0.000000000000000E+000
 -7.399999999999999E-003    0.000000000000000E+000
 -7.299999999999999E-003    0.000000000000000E+000
 -7.199999999999999E-003    0.000000000000000E+000
 -7.100000000000000E-003   -2.552000162183326E-048
 -6.999999999999999E-003   -5.104000324366652E-048
 -6.899999999999999E-003    1.090483656494398E-047
 -6.800000000000000E-003    2.427202982699758E-047
 -6.699999999999999E-003    1.459038594913097E-047
 -6.599999999999999E-003    1.459038594913097E-047
 -6.499999999999999E-003    1.714238611131430E-047
 -6.399999999999999E-003    8.879193173627343E-048
 -6.299999999999999E-003    3.584276491177424E-048
 -6.199999999999999E-003    3.393360133094156E-048
 -6.100000000000000E-003   -2.254749195554944E-048
 -5.999999999999999E-003   -1.464632762870177E-047
 -5.899999999999999E-003   -1.189906921341615E-047
 -5.800000000000000E-003   -7.632086964941304E-048
 -5.699999999999999E-003   -1.398938145825347E-047
 -5.599999999999999E-003    5.513337138793512E-047
 -5.499999999999999E-003    1.025795603191501E-046
 -5.399999999999999E-003    3.249838238386011E-046
 -5.299999999999999E-003    5.401956490619837E-046
 -5.199999999999999E-003    7.573054087602196E-046
 -5.099999999999999E-003    9.765982607374196E-046
 -4.999999999999999E-003    1.109573585109157E-045
 -4.899999999999999E-003    1.057159791817992E-045
 -4.799999999999999E-003    7.140264615060821E-046
 -4.699999999999999E-003    1.297350074723292E-045
 -4.599999999999999E-003    1.004003479670295E-045
 -4.499999999999999E-003    5.091808435985869E-046
 -4.399999999999999E-003    8.020931777134677E-046
 -4.299999999999999E-003    4.420239520154002E-046
 -4.199999999999999E-003    2.607458397245024E-047
 -4.099999999999999E-003   -2.333288049424575E-047
 -3.999999999999999E-003   -2.374597283831580E-046
 -3.899999999999999E-003   -1.378573751106312E-045
 -3.799999999999999E-003   -3.080629927884101E-045
 -3.699999999999999E-003   -5.493742931528676E-045
 -3.599999999999999E-003   -7.901319396583956E-045
 -3.499999999999999E-003   -1.023091417181586E-044
 -3.399999999999999E-003   -1.176777058706207E-044
 -3.299999999999999E-003   -1.331319048800257E-044
 -3.199999999999999E-003   -1.408126544030346E-044
 -3.099999999999999E-003   -1.244302810408952E-044
 -2.999999999999999E-003   -8.149338530697760E-045
 -2.899999999999999E-003   -1.761426265330740E-045
 -2.799999999999999E-003    7.221845510714833E-045
 -2.699999999999999E-003    1.885861544024491E-044
 -2.599999999999999E-003    3.382773862355172E-044
 -2.499999999999999E-003    5.014163817209186E-044
 -2.399999999999999E-003    6.692434119744581E-044
 -2.299999999999999E-003    8.090161793543420E-044
 -2.199999999999999E-003    8.983281612375705E-044
 -2.099999999999999E-003    9.097003086206313E-044
 -1.999999999999999E-003    8.004283040208767E-044
 -1.899999999999999E-003    5.328893236562874E-044
 -1.799999999999999E-003    8.492271670701740E-045
 -1.699999999999999E-003   -5.730911645113530E-044
 -1.599999999999999E-003   -1.427151580457462E-043
 -1.499999999999999E-003   -2.458771860734556E-043
 -1.399999999999999E-003   -3.600908617654187E-043
 -1.299999999999999E-003   -4.733445080683198E-043
 -1.199999999999999E-003   -5.700528246598763E-043
 -1.099999999999999E-003   -6.312915402074534E-043
 -9.999999999999989E-004   -6.316171371535318E-043
 -8.999999999999990E-004   -5.464254853346752E-043
 -7.999999999999990E-004   -3.525551874729650E-043
 -6.999999999999989E-004   -2.969976017404775E-044
 -5.999999999999990E-004    4.334634498472855E-043
 -4.999999999999989E-004    1.031336222316020E-042
 -3.999999999999989E-004    1.739609440096494E-042
 -2.999999999999989E-004    2.510123765504820E-042
 -1.999999999999989E-004    3.262789429529825E-042
 -9.999999999999892E-005    3.891442942013055E-042
  1.084202172485504E-018    4.259704338929098E-042
  1.000000000000011E-004    4.211807428574397E-042
  2.000000000000011E-004    3.585197534042067E-042
  3.000000000000011E-004    2.227759702263092E-042
  4.000000000000011E-004    2.526158675833549E-044
  5.000000000000011E-004   -3.070589612667434E-042
  6.000000000000011E-004   -7.008932046824262E-042
  7.000000000000011E-004   -1.160451368521142E-041
  8.000000000000011E-004   -1.651324147946364E-041
  9.000000000000012E-004   -2.121082147251090E-041
  1.000000000000001E-003   -2.499491760502498E-041
  1.100000000000001E-003   -2.700553097918669E-041
  1.200000000000001E-003   -2.628260947171143E-041
  1.300000000000001E-003   -2.184813309024920E-041
  1.400000000000001E-003   -1.283257262265159E-041
  1.500000000000001E-003    1.366842557635304E-042
  1.600000000000001E-003    2.090606525782327E-041
  1.700000000000001E-003    4.530041224009077E-041
  1.800000000000001E-003    7.324418144226112E-041
  1.900000000000001E-003    1.024656979766141E-040
  2.000000000000001E-003    1.296616047301597E-040
  2.100000000000001E-003    1.505372679738199E-040
  2.200000000000001E-003    1.599979584081928E-040
  2.300000000000001E-003    1.525110219707948E-040
  2.400000000000001E-003    1.226676102707009E-040
  2.500000000000001E-003    6.593460174243301E-041
  2.600000000000001E-003   -2.042773298825755E-041
  2.700000000000001E-003   -1.363487442187333E-040
  2.800000000000001E-003   -2.779149502053206E-040
  2.900000000000001E-003   -4.364688906490126E-040
  3.000000000000001E-003   -5.979906176021629E-040
  3.100000000000001E-003   -7.429628981419166E-040
  3.200000000000001E-003   -8.468926284746337E-040
  3.300000000000001E-003   -8.816744088630342E-040
  3.400000000000001E-003   -8.179081217380169E-040
  3.500000000000001E-003   -6.282207672347042E-040
  3.600000000000001E-003   -2.915034094563138E-040
  3.700000000000001E-003    2.021523102824978E-040
  3.800000000000001E-003    8.462177485878894E-040
  3.900000000000001E-003    1.612766375872575E-039
  4.000000000000001E-003    2.448527076653411E-039
  4.100000000000001E-003    3.272813470032522E-039
  4.200000000000001E-003    3.978254968262422E-039
  4.300000000000001E-003    4.435195700021798E-039
  4.400000000000001E-003    4.500461317093180E-039
  4.500000000000001E-003    4.030858290824158E-039
  4.600000000000002E-003    2.901290611330462E-039
  4.700000000000001E-003    1.026733221842333E-039
  4.800000000000001E-003   -1.613454959377539E-039
  4.900000000000002E-003   -4.951194220808878E-039
  5.000000000000001E-003   -8.808422956538330E-039
  5.100000000000001E-003   -1.288266531461036E-038
  5.200000000000001E-003   -1.674351808317564E-038
  5.300000000000002E-003   -1.984411856061990E-038
  5.400000000000001E-003   -2.155106209130976E-038
  5.500000000000001E-003   -2.119504219789379E-038
  5.600000000000002E-003   -1.814250811602595E-038
  5.700000000000001E-003   -1.188615618154538E-038
  5.800000000000001E-003   -2.148874824074735E-039
  5.900000000000002E-003    1.100761513301528E-038
  6.000000000000001E-003    2.708159606626461E-038
  6.100000000000001E-003    4.505277027340249E-038
  6.200000000000002E-003    6.334326994513893E-038
  6.300000000000002E-003    7.983563141975976E-038
  6.400000000000001E-003    9.196341150315857E-038
  6.500000000000001E-003    9.688575295263197E-038
  6.600000000000002E-003    9.175041990779343E-038
  6.700000000000001E-003    7.403961275494400E-038
  6.800000000000001E-003    4.198145397616442E-038
  6.900000000000002E-003   -5.004114699776610E-039
  7.000000000000001E-003   -6.586956485444390E-038
  7.100000000000001E-003   -1.375714259729047E-037
  7.200000000000002E-003   -2.148350236951086E-037
  7.300000000000002E-003   -2.901213749900845E-037
  7.400000000000001E-003   -3.538609700767418E-037
  7.500000000000001E-003   -3.950048335143088E-037
  7.600000000000002E-003   -4.019193060122905E-037
  7.700000000000001E-003   -3.636163638144230E-037
  7.800000000000001E-003   -2.712660996326775E-037
  7.900000000000001E-003   -1.198901721954077E-037
  8.000000000000002E-003    8.991921478870904E-038
  8.100000000000001E-003    3.504563565820964E-037
  8.200000000000001E-003    6.457736840093002E-037
  8.300000000000002E-003    9.512231776310864E-037
  8.400000000000001E-003    1.233913533780244E-036
  8.500000000000002E-003    1.454285659719383E-036
  8.600000000000002E-003    1.568931127395858E-036
  8.700000000000001E-003    1.534658819152151E-036
  8.800000000000002E-003    1.313667485160992E-036
  8.900000000000002E-003    8.795065112861446E-037
  9.000000000000001E-003    2.233248637922459E-037
  9.100000000000002E-003   -6.402601832358383E-037
  9.200000000000002E-003   -1.668482633150935E-036
  9.300000000000001E-003   -2.787811141867356E-036
  9.400000000000002E-003   -3.894263680755743E-036
  9.500000000000001E-003   -4.857392902332683E-036
  9.600000000000001E-003   -5.528440839453663E-036
  9.700000000000002E-003   -5.752790461362752E-036
  9.800000000000001E-003   -5.386362253481184E-036
  9.900000000000001E-003   -4.315045409472873E-036
  1.000000000000000E-002   -2.475646150879842E-036
  1.010000000000000E-002    1.236913725045170E-037
  1.020000000000000E-002    3.386162235935977E-036
  1.030000000000000E-002    7.114838497890995E-036
  1.040000000000000E-002    1.100989165648805E-035
  1.050000000000000E-002    1.467696755429390E-035
  1.060000000000000E-002    1.764849503025371E-035
  1.070000000000000E-002    1.941860304360331E-035
  1.080000000000000E-002    1.949092583545554E-035
  1.090000000000000E-002    1.743688848653341E-035
  1.100000000000000E-002    1.296026397432516E-035
  1.110000000000000E-002    5.962156224325801E-036
  1.120000000000000E-002   -3.401002783980054E-036
  1.130000000000000E-002   -1.467448848674589E-035
  1.140000000000000E-002   -2.708587442679160E-035
  1.150000000000000E-002   -3.955648747784367E-035
  1.160000000000000E-002   -5.074953922536404E-035
  1.170000000000000E-002   -5.915769491367492E-035
  1.180000000000000E-002   -6.322895892373574E-035
  1.190000000000000E-002   -6.152530789858850E-035
  1.200000000000000E-002   -5.290353144956679E-035
  1.210000000000000E-002   -3.670326385056063E-035
  1.220000000000000E-002   -1.292314355213824E-035
  1.230000000000000E-002    1.763683798638639E-035
  1.240000000000000E-002    5.328848266490940E-035
  1.250000000000000E-002    9.144503705199548E-035
  1.260000000000000E-002    1.287038743680686E-034
  1.270000000000000E-002    1.610309669849804E-034
  1.280000000000000E-002    1.840481729892460E-034
  1.290000000000000E-002    1.934125426903813E-034
  1.300000000000000E-002    1.852654195348580E-034
  1.310000000000000E-002    1.567184982109568E-034
  1.320000000000000E-002    1.063337657458355E-034
  1.330000000000000E-002    3.454830209058226E-035
  1.340000000000000E-002   -5.600873072385487E-035
  1.350000000000000E-002   -1.603543131442806E-034
  1.360000000000000E-002   -2.711889903637818E-034
  1.370000000000000E-002   -3.791605903617623E-034
  1.380000000000000E-002   -4.733653486669184E-034
  1.390000000000000E-002   -5.420776287125339E-034
  1.400000000000000E-002   -5.736768505790445E-034
  1.410000000000000E-002   -5.577178806366116E-034
  1.420000000000000E-002   -4.860734248349710E-034
  1.430000000000000E-002   -3.540639808692070E-034
  1.440000000000000E-002   -1.614784653682680E-034
  1.450000000000000E-002    8.660316372404978E-035
  1.460000000000000E-002    3.792865014592396E-034
  1.470000000000000E-002    6.997018647867488E-034
  1.480000000000000E-002    1.025277042579398E-033
  1.490000000000000E-002    1.328480549835839E-033
  1.500000000000000E-002    1.578058993338844E-033
  1.510000000000000E-002    1.740762413680812E-033
  1.520000000000000E-002    1.783536475549791E-033
  1.530000000000000E-002    1.676143502293655E-033
  1.540000000000000E-002    1.394126282338393E-033
  1.550000000000000E-002    9.220376668747798E-034
  1.560000000000000E-002    2.567755549390941E-034
  1.570000000000000E-002   -5.891567047162359E-034
  1.580000000000000E-002   -1.584719790940643E-033
  1.590000000000000E-002   -2.678069286509919E-033
  1.600000000000000E-002   -3.795348386241882E-033
  1.610000000000000E-002   -4.841017711850638E-033
  1.620000000000000E-002   -5.700237781168293E-033
  1.630000000000000E-002   -6.243808869162787E-033
  1.640000000000000E-002   -6.336095539942941E-033
  1.650000000000000E-002   -5.846216037679042E-033
  1.660000000000000E-002   -4.662418534531897E-033
  1.670000000000000E-002   -2.709270038191465E-033
  1.680000000000000E-002    3.335761003394804E-035
  1.690000000000000E-002    3.511005058624708E-033
  1.700000000000000E-002    7.577237516231895E-033
  1.710000000000000E-002    1.198086420859901E-032
  1.720000000000000E-002    1.636088906822771E-032
  1.730000000000000E-002    2.025243854668380E-032
  1.740000000000000E-002    2.310662994249990E-032
  1.750000000000000E-002    2.432654659976726E-032
  1.760000000000000E-002    2.332035147898337E-032
  1.770000000000000E-002    1.957015941889319E-032
  1.780000000000000E-002    1.271373956507081E-032
  1.790000000000000E-002    2.632536332751385E-033
  1.800000000000000E-002   -1.046265938578961E-032
  1.810000000000000E-002   -2.595979936685345E-032
  1.820000000000000E-002   -4.280050960750050E-032
  1.830000000000000E-002   -5.947552435524252E-032
  1.840000000000000E-002   -7.407309303757013E-032
  1.850000000000000E-002   -8.439025205566419E-032
  1.860000000000000E-002   -8.811082100526039E-032
  1.870000000000000E-002   -8.304761952597356E-032