 -4.000000000000000E-002    0.000000000000000E+000
 -3.990000000000000E-002    0.000000000000000E+000
 -3.980000000000000E-002    0.000000000000000E+000
 -3.970000000000000E-002    0.000000000000000E+000
 -3.960000000000000E-002    0.000000000000000E+000
 -3.950000000000000E-002    0.000000000000000E+000
 -3.940000000000000E-002    0.000000000000000E+000
 -3.930000000000000E-002    0.000000000000000E+000
 -3.920000000000000E-002    0.000000000000000E+000
 -3.910000000000000E-002    0.000000000000000E+000
 -3.900000000000000E-002    0.000000000000000E+000
 -3.890000000000000E-002    0.000000000000000E+000
 -3.880000000000000E-002    0.000000000000000E+000
 -3.870000000000000E-002    0.000000000000000E+000
 -3.860000000000000E-002    0.000000000000000E+000
 -3.850000000000000E-002    0.000000000000000E+000
 -3.840000000000000E-002    0.000000000000000E+000
 -3.830000000000000E-002    0.000000000000000E+000
 -3.820000000000000E-002    0.000000000000000E+000
 -3.810000000000000E-002    0.000000000000000E+000
 -3.800000000000000E-002    0.000000000000000E+000
 -3.790000000000000E-002    0.000000000000000E+000
 -3.780000000000000E-002    0.000000000000000E+000
 -3.770000000000000E-002    0.000000000000000E+000
 -3.760000000000000E-002    0.000000000000000E+000
 -3.750000000000000E-002    0.000000000000000E+000
 -3.740000000000000E-002    0.000000000000000E+000
 -3.730000000000000E-002    0.000000000000000E+000
 -3.720000000000000E-002    0.000000000000000E+000
 -3.710000000000000E-002    0.000000000000000E+000
 -3.700000000000000E-002    0.000000000000000E+000
 -3.690000000000000E-002    2.687928481142396E-048
 -3.680000000000000E-002   -3.720049031018161E-049
 -3.670000000000000E-002    4.354260437778257E-048
 -3.660000000000000E-002    2.021022751700625E-047
 -3.650000000000000E-002    8.824391915979023E-047
 -3.640000000000000E-002    2.406153616637537E-046
 -3.630000000000000E-002    6.941439744999518E-046
 -3.620000000000000E-002    2.002335939041007E-045
 -3.610000000000000E-002    4.657562908315022E-045
 -3.600000000000000E-002    1.055486106364513E-044
 -3.590000000000000E-002    2.375337072695104E-044
 -3.580000000000000E-002    4.951453700338648E-044
 -3.570000000000000E-002    9.894326255564903E-044
 -3.560000000000000E-002    1.834813336177487E-043
 -3.550000000000000E-002    3.137684644444604E-043
 -3.540000000000000E-002    4.774932893402319E-043
 -3.530000000000000E-002    5.968490625063438E-043
 -3.520000000000000E-002    4.226255153623530E-043
 -3.510000000000000E-002   -6.644014729195591E-043
 -3.500000000000000E-002   -4.025510293848278E-042
 -3.490000000000000E-002   -1.237723231231065E-041
 -3.480000000000000E-002   -3.074202245447831E-041
 -3.470000000000000E-002   -6.772486311907271E-041
 -3.460000000000000E-002   -1.369590913883271E-040
 -3.450000000000000E-002   -2.581099528768334E-040
 -3.440000000000000E-002   -4.560645490690556E-040
 -3.430000000000000E-002   -7.556140943448972E-040
 -3.420000000000000E-002   -1.166974868010268E-039
 -3.410000000000000E-002   -1.654864275476935E-039
 -3.400000000000000E-002   -2.080893062319394E-039
 -3.390000000000000E-002   -2.106671100722079E-039
 -3.380000000000000E-002   -1.045224760130610E-039
 -3.370000000000000E-002    2.345627264433020E-039
 -3.360000000000000E-002    1.011702986022085E-038
 -3.350000000000000E-002    2.538364545942897E-038
 -3.340000000000000E-002    5.247057918086213E-038
 -3.330000000000000E-002    9.674727843387111E-038
 -3.320000000000000E-002    1.638079071044483E-037
 -3.310000000000000E-002    2.574896220293732E-037
 -3.300000000000000E-002    3.760462754624204E-037
 -3.290000000000000E-002    5.056709166523005E-037
 -3.280000000000000E-002    6.105857307907644E-037
 -3.270000000000000E-002    6.192534857759542E-037
 -3.260000000000000E-002    4.071155705503596E-037
 -3.250000000000000E-002   -2.221045362424488E-037
 -3.240000000000000E-002   -1.551800712575675E-036
 -3.230000000000000E-002   -3.955949756922685E-036
 -3.220000000000000E-002   -7.876819357382137E-036
 -3.210000000000000E-002   -1.375713512507081E-035
 -3.200000000000000E-002   -2.190112702324913E-035
 -3.190000000000000E-002   -3.223528957181240E-035
 -3.180000000000000E-002   -4.394114113377264E-035
 -3.170000000000000E-002   -5.494349098365882E-035
 -3.160000000000000E-002   -6.126361165705685E-035
 -3.150000000000000E-002   -5.629345539657672E-035
 -3.140000000000000E-002   -3.011961580673988E-035
 -3.130000000000000E-002    3.087274921500162E-035
 -3.120000000000000E-002    1.437600807487205E-034
 -3.110000000000000E-002    3.277083628387200E-034
 -3.100000000000000E-002    6.008454115061932E-034
 -3.090000000000000E-002    9.746838859776893E-034
 -3.080000000000000E-002    1.445442165102555E-033
 -3.070000000000000E-002    1.981852456175171E-033
 -3.060000000000000E-002    2.509585932299499E-033
 -3.050000000000000E-002    2.893329913211046E-033
 -3.040000000000000E-002    2.918926518090431E-033
 -3.030000000000000E-002    2.279819710109819E-033
 -3.020000000000000E-002    5.742777058581565E-034
 -3.010000000000000E-002   -2.677784662421574E-033
 -3.000000000000000E-002   -7.987483159373285E-033
 -2.990000000000000E-002   -1.580713723011138E-032
 -2.980000000000000E-002   -2.638670481201435E-032
 -2.970000000000000E-002   -3.956899660161218E-032
 -2.960000000000000E-002   -5.452442067500114E-032
 -2.950000000000000E-002   -6.943922163248453E-032
 -2.940000000000000E-002   -8.119091744984437E-032
 -2.930000000000000E-002   -8.507027876924541E-032
 -2.920000000000000E-002   -7.463933663554088E-032
 -2.910000000000000E-002   -4.184617001808656E-032
 -2.900000000000000E-002    2.245546008021734E-032
 -2.890000000000000E-002    1.274205608628858E-031
 -2.880000000000000E-002    2.804092566575577E-031
 -2.870000000000000E-002    4.843611977728525E-031
 -2.860000000000000E-002    7.343435147754199E-031
 -2.850000000000000E-002    1.013425092278207E-030
 -2.840000000000000E-002    1.288262784939510E-030
 -2.830000000000000E-002    1.505078958139860E-030
 -2.820000000000000E-002    1.587051011953188E-030
 -2.810000000000000E-002    1.434475443867819E-030
 -2.800000000000000E-002    9.293707840938467E-031
 -2.790000000000000E-002   -5.368767713744307E-032
 -2.780000000000000E-002   -1.628823109782272E-030
 -2.770000000000000E-002   -3.871037856532590E-030
 -2.760000000000000E-002   -6.779211517933063E-030
 -2.750000000000000E-002   -1.023144016258085E-029
 -2.740000000000000E-002   -1.393664522108388E-029
 -2.730000000000000E-002   -1.738925179451699E-029
 -2.720000000000000E-002   -1.983716117168476E-029
 -2.710000000000000E-002   -2.027652634643626E-029
 -2.700000000000000E-002   -1.748951756138910E-029
 -2.690000000000000E-002   -1.014249424835681E-029
 -2.680000000000000E-002    3.039464164555256E-030
 -2.670000000000000E-002    2.301082823137437E-029
 -2.660000000000000E-002    5.005599237153676E-029
 -2.650000000000000E-002    8.336637864631284E-029
 -2.640000000000000E-002    1.205808358012186E-028
 -2.630000000000000E-002    1.573520692513004E-028
 -2.620000000000000E-002    1.870315319638284E-028
 -2.610000000000000E-002    2.005935028538003E-028
 -2.600000000000000E-002    1.869413316822755E-028
 -2.590000000000000E-002    1.337469094785192E-028
 -2.580000000000000E-002    2.895887218594542E-029
 -2.570000000000000E-002   -1.369315302247367E-028
 -2.560000000000000E-002   -3.678636395512639E-028
 -2.550000000000000E-002   -6.585525714424113E-028
 -2.540000000000000E-002   -9.905141428663045E-028
 -2.530000000000000E-002   -1.328297750929734E-027
 -2.520000000000000E-002   -1.616679791437655E-027
 -2.510000000000000E-002   -1.779806548402552E-027
 -2.500000000000000E-002   -1.723423453177848E-027
 -2.490000000000000E-002   -1.341378251281494E-027
 -2.480000000000000E-002   -5.274678543359823E-028
 -2.470000000000000E-002    8.067011759201158E-028
 -2.460000000000000E-002    2.707829786585561E-027
 -2.450000000000000E-002    5.152021916506005E-027
 -2.440000000000000E-002    8.013188556162484E-027
 -2.430000000000000E-002    1.103265639367749E-026
 -2.420000000000000E-002    1.379554913407067E-026
 -2.410000000000000E-002    1.572106413114910E-026
 -2.400000000000000E-002    1.607484002736345E-026
 -2.390000000000000E-002    1.401195117479559E-026
 -2.380000000000000E-002    8.657971697405747E-027
 -2.370000000000000E-002   -7.668984581617243E-028
 -2.360000000000000E-002   -1.478050376098794E-026
 -2.350000000000000E-002   -3.343443861219056E-026
 -2.340000000000000E-002   -5.608821783834334E-026
 -2.330000000000000E-002   -8.118691168576323E-026
 -2.320000000000000E-002   -1.060784489048340E-025
 -2.310000000000000E-002   -1.269161135363767E-025
 -2.300000000000000E-002   -1.386987384161607E-025
 -2.290000000000000E-002   -1.355024874895190E-025
 -2.280000000000000E-002   -1.109522949715904E-025
 -2.270000000000000E-002   -5.896487558533775E-026
 -2.260000000000000E-002    2.523198359371154E-026
 -2.250000000000000E-002    1.438387162141361E-025
 -2.240000000000000E-002    2.950679036570487E-025
 -2.230000000000000E-002    4.717153679229170E-025
 -2.220000000000000E-002    6.599226365379615E-025
 -2.210000000000000E-002    8.383885825633787E-025
 -2.200000000000000E-002    9.783248889701123E-025
 -2.190000000000000E-002    1.044458036397740E-024
 -2.180000000000000E-002    9.973483372913498E-025
 -2.170000000000000E-002    7.972114345225654E-025
 -2.160000000000000E-002    4.092808378560985E-025
 -2.150000000000000E-002   -1.894512332125197E-025
 -2.140000000000000E-002   -1.002542569205348E-024
 -2.130000000000000E-002   -2.006175367651510E-024
 -2.120000000000000E-002   -3.142017138445704E-024
 -2.110000000000000E-002   -4.312151508287584E-024
 -2.100000000000000E-002   -5.377543188638668E-024
 -2.090000000000000E-002   -6.161529761036970E-024
 -2.080000000000000E-002   -6.459677721307298E-024
 -2.070000000000000E-002   -6.056912087506205E-024
 -2.060000000000000E-002   -4.752166322848733E-024
 -2.050000000000000E-002   -2.389804145028605E-024
 -2.040000000000000E-002    1.104090442374571E-024
 -2.030000000000000E-002    5.683802806641152E-024
 -2.020000000000000E-002    1.114905079403418E-023
 -2.010000000000000E-002    1.711873008533299E-023
 -2.000000000000000E-002    2.301980148063001E-023
 -1.990000000000000E-002    2.809785392960313E-023
 -1.980000000000000E-002    3.145507960448492E-023
 -1.970000000000000E-002    3.211951386871401E-023
 -1.960000000000000E-002    2.914645976356429E-023
 -1.950000000000000E-002    2.174885450813599E-023
 -1.940000000000000E-002    9.448384287575860E-024
 -1.930000000000000E-002   -7.766140349076100E-024
 -1.920000000000000E-002   -2.929212715457447E-023
 -1.910000000000000E-002   -5.380139862752275E-023
 -1.900000000000000E-002   -7.918898816435212E-023
 -1.890000000000000E-002   -1.026079736328628E-022
 -1.880000000000000E-002   -1.206122320461673E-022
 -1.870000000000000E-002   -1.294206037170584E-022
 -1.860000000000000E-002   -1.253043823991675E-022
 -1.850000000000000E-002   -1.050832612249910E-022
 -1.840000000000000E-002   -6.669623425545219E-023
 -1.830000000000000E-002   -9.793628576619466E-024
 -1.820000000000000E-002    6.372262881615403E-023
 -1.810000000000000E-002    1.492975135930433E-022
 -1.800000000000000E-002    2.395548944924711E-022
 -1.790000000000000E-002    3.244530697605872E-022
 -1.780000000000000E-002    3.918378586326058E-022
 -1.770000000000000E-002    4.284338227453014E-022
 -1.760000000000000E-002    4.212676761048241E-022
 -1.750000000000000E-002    3.594578268806940E-022
 -1.740000000000000E-002    2.362356843072897E-022
 -1.730000000000000E-002    5.099395339087351E-023
 -1.720000000000000E-002   -1.889048267482923E-022
 -1.710000000000000E-002   -4.668694901806817E-022
 -1.700000000000000E-002   -7.566957901062403E-022
 -1.690000000000000E-002   -1.023356193586906E-021
 -1.680000000000000E-002   -1.225188176584545E-021
 -1.670000000000000E-002   -1.317583679029138E-021
 -1.660000000000000E-002   -1.258107416131126E-021
 -1.650000000000000E-002   -1.012761832353488E-021
 -1.640000000000000E-002   -5.628818589386993E-022
 -1.630000000000000E-002    8.808190849097509E-023
 -1.620000000000000E-002    9.088261377246119E-022
 -1.610000000000000E-002    1.836558894546857E-021
 -1.600000000000000E-002    2.776523675307473E-021
 -1.590000000000000E-002    3.605626733796530E-021
 -1.580000000000000E-002    4.180807757213697E-021
 -1.570000000000000E-002    4.352362911704926E-021
 -1.560000000000000E-002    3.981806938959428E-021
 -1.550000000000000E-002    2.963185321087287E-021
 -1.540000000000000E-002    1.245963137289349E-021
 -1.530000000000000E-002   -1.143048548009036E-021
 -1.520000000000000E-002   -4.081860255107117E-021
 -1.510000000000000E-002   -7.342964722607995E-021
 -1.500000000000000E-002   -1.059382622117279E-020
 -1.490000000000000E-002   -1.341101235677297E-020
 -1.480000000000000E-002   -1.530974984502505E-020
 -1.470000000000000E-002   -1.578916845914610E-020
 -1.460000000000000E-002   -1.439155998548965E-020
 -1.450000000000000E-002   -1.077173453198569E-020
 -1.440000000000000E-002   -4.770272889183384E-021
 -1.430000000000000E-002    3.517557532379607E-021
 -1.420000000000000E-002    1.368704928154089E-020
 -1.410000000000000E-002    2.499390006557100E-020
 -1.400000000000000E-002    3.635867850091524E-020
 -1.390000000000000E-002    4.641392091303368E-020
 -1.380000000000000E-002    5.359867618490838E-020
 -1.370000000000000E-002    5.630040966649102E-020
 -1.360000000000000E-002    5.303830095809612E-020
 -1.350000000000000E-002    4.267541705623111E-020
 -1.340000000000000E-002    2.464064652637046E-020
 -1.330000000000000E-002   -8.645713144673941E-022
 -1.320000000000000E-002   -3.270350050203979E-020
 -1.310000000000000E-002   -6.871570121215649E-020
 -1.300000000000000E-002   -1.057310359714981E-019
 -1.290000000000000E-002   -1.397082536771564E-019
 -1.280000000000000E-002   -1.660099947838341E-019
 -1.270000000000000E-002   -1.798125041777658E-019
 -1.260000000000000E-002   -1.766307047860788E-019
 -1.250000000000000E-002   -1.529219338595100E-019
 -1.240000000000000E-002   -1.067131758743695E-019
 -1.230000000000000E-002   -3.818187003123162E-020
 -1.220000000000000E-002    4.988958874341887E-020
 -1.210000000000000E-002    1.518675481956555E-019
 -1.200000000000000E-002    2.593033118380421E-019
 -1.190000000000000E-002    3.613089046412349E-019
 -1.180000000000000E-002    4.452995764228488E-019
 -1.170000000000000E-002    4.980933435102488E-019
 -1.160000000000000E-002    5.073112181329203E-019
 -1.150000000000000E-002    4.629755096849206E-019
 -1.140000000000000E-002    3.591572090307670E-019
 -1.130000000000000E-002    1.954875982297977E-019
 -1.120000000000000E-002   -2.167328539394940E-020
 -1.110000000000000E-002   -2.786193645124893E-019
 -1.100000000000000E-002   -5.544175865527200E-019
 -1.090000000000000E-002   -8.218964193461611E-019
 -1.080000000000000E-002   -1.049562733393187E-018
 -1.070000000000000E-002   -1.204401939887437E-018
 -1.060000000000000E-002   -1.255407172161409E-018
 -1.050000000000000E-002   -1.177561626843335E-018
 -1.040000000000000E-002   -9.558921590225357E-019
 -1.030000000000000E-002   -5.891253170639783E-019
 -1.020000000000000E-002   -9.243832919120296E-020
 -1.010000000000000E-002    5.011984162139882E-019
 -1.000000000000000E-002    1.141518266898672E-018
 -9.899999999999999E-003    1.763587672275850E-018
 -9.800000000000000E-003    2.292666634951766E-018
 -9.699999999999999E-003    2.651146576024034E-018
 -9.599999999999999E-003    2.767140440038011E-018
 -9.500000000000000E-003    2.584017473845430E-018
 -9.399999999999999E-003    2.069927922127188E-018
 -9.299999999999999E-003    1.226184615923193E-018
 -9.200000000000000E-003    9.329180797268788E-020
 -9.099999999999999E-003   -1.246542164041446E-018
 -8.999999999999999E-003   -2.671366898901693E-018
 -8.900000000000000E-003   -4.026534826367374E-018
 -8.799999999999999E-003   -5.136951209182177E-018
 -8.699999999999999E-003   -5.824048293864962E-018
 -8.600000000000000E-003   -5.926361583829603E-018
 -8.499999999999999E-003   -5.321948459711503E-018
 -8.399999999999999E-003   -3.950333187818787E-018
 -8.300000000000000E-003   -1.831313754975244E-018
 -8.199999999999999E-003    9.221829387242119E-019
 -8.100000000000000E-003    4.099813775780291E-018
 -8.000000000000000E-003    7.400191858239052E-018
 -7.899999999999999E-003    1.044914603644155E-017
 -7.800000000000000E-003    1.282993436108347E-017
 -7.699999999999999E-003    1.412408426732743E-017
 -7.599999999999999E-003    1.396005497690371E-017
 -7.499999999999999E-003    1.206552672657545E-017
 -7.399999999999999E-003    8.317888410660410E-018
 -7.299999999999999E-003    2.786797113900627E-018
 -7.199999999999999E-003   -4.237539501821446E-018
 -7.100000000000000E-003   -1.223618095802547E-017
 -6.999999999999999E-003   -2.047791837256310E-017
 -6.899999999999999E-003   -2.806293381414457E-017
 -6.800000000000000E-003   -3.399348454029749E-017
 -6.699999999999999E-003   -3.726844745517211E-017
 -6.599999999999999E-003   -3.699520313816030E-017
 -6.499999999999999E-003   -3.250931847087604E-017
 -6.399999999999999E-003   -2.348997831108068E-017
 -6.299999999999999E-003   -1.005750256079027E-017
 -6.199999999999999E-003    7.160959241156197E-018
 -6.100000000000000E-003    2.701024437989420E-017
 -5.999999999999999E-003    4.784039665510488E-017
 -5.899999999999999E-003    6.759969448395303E-017
 -5.800000000000000E-003    8.398717751368661E-017
 -5.699999999999999E-003    9.465786328711381E-017
 -5.599999999999999E-003    9.746667463421702E-017
 -5.499999999999999E-003    9.073099353896190E-017
 -5.399999999999999E-003    7.348610634516051E-017
 -5.299999999999999E-003    4.570495113824453E-017
 -5.199999999999999E-003    8.452727560404781E-018
 -5.099999999999999E-003   -3.605034097843779E-017
 -4.999999999999999E-003   -8.447908017052831E-017
 -4.899999999999999E-003   -1.325780476198589E-016
 -4.799999999999999E-003   -1.754610153518954E-016
 -4.699999999999999E-003   -2.080219408637664E-016
 -4.599999999999999E-003   -2.254302922337101E-016
 -4.499999999999999E-003   -2.236700997326786E-016
 -4.399999999999999E-003   -2.000723960882380E-016
 -4.299999999999999E-003   -1.537831047576977E-016
 -4.199999999999999E-003   -8.610807566040200E-017
 -4.099999999999999E-003   -6.813273688702086E-019
 -3.999999999999999E-003    9.658585388029530E-017
 -3.899999999999999E-003    1.977997144972874E-016
 -3.799999999999999E-003    2.936249870873046E-016
 -3.699999999999999E-003    3.740479682766226E-016
 -3.599999999999999E-003    4.293110470613617E-016
 -3.499999999999999E-003    4.509429392945852E-016
 -3.399999999999999E-003    4.327877117125875E-016
 -3.299999999999999E-003    3.719245052930255E-016
 -3.199999999999999E-003    2.693660331158000E-016
 -3.099999999999999E-003    1.304336366952324E-016
 -2.999999999999999E-003   -3.527234993923069E-017
 -2.899999999999999E-003   -2.143547284245657E-016
 -2.799999999999999E-003   -3.905601476533970E-016
 -2.699999999999999E-003   -5.461354644719819E-016
 -2.599999999999999E-003   -6.635074102441245E-016
 -2.499999999999999E-003   -7.271454963366097E-016
 -2.399999999999999E-003   -7.254316682437928E-016
 -2.299999999999999E-003   -6.523366473298261E-016
 -2.199999999999999E-003   -5.086982274875304E-016
 -2.099999999999999E-003   -3.029140859483561E-016
 -1.999999999999999E-003   -5.090130081719593E-017
 -1.899999999999999E-003    2.247645051365720E-016
 -1.799999999999999E-003    4.965390737858152E-016
 -1.699999999999999E-003    7.343491948548128E-016
 -1.599999999999999E-003    9.086101598865578E-016
 -1.499999999999999E-003    9.935636282563786E-016
 -1.399999999999999E-003    9.706109666856706E-016
 -1.299999999999999E-003    8.312768818718520E-016
 -1.199999999999999E-003    5.794278594822221E-016
 -1.099999999999999E-003    2.324048585069132E-016
 -9.999999999999989E-004   -1.791971843592584E-016
 -8.999999999999990E-004   -6.132588370538718E-016
 -7.999999999999990E-004   -1.019385804421234E-015
 -6.999999999999989E-004   -1.343525118794664E-015
 -5.999999999999990E-004   -1.533625670791314E-015
 -4.999999999999989E-004   -1.545865313227875E-015
 -3.999999999999989E-004   -1.350837699399462E-015
 -2.999999999999989E-004   -9.390142961460189E-016
 -1.999999999999989E-004   -3.247863889480925E-016
 -9.999999999999892E-005    4.515555394525824E-016
  1.084202172485504E-018    1.324408473417303E-015
  1.000000000000011E-004    2.206311024100469E-015
  2.000000000000011E-004    2.994295424037351E-015
  3.000000000000011E-004    3.578870414697583E-015
  4.000000000000011E-004    3.855038772070605E-015
  5.000000000000011E-004    3.734470676295540E-015
  6.000000000000011E-004    3.157694657082510E-015
  7.000000000000011E-004    2.105024165363244E-015
  8.000000000000011E-004    6.048836328259815E-016
  9.000000000000012E-004   -1.261708388544492E-015
  1.000000000000001E-003   -3.361507566197268E-015
  1.100000000000001E-003   -5.514913159672480E-015
  1.200000000000001E-003   -7.507500200818796E-015
  1.300000000000001E-003   -9.106810137966165E-015
  1.400000000000001E-003   -1.008341028742389E-014
  1.500000000000001E-003   -1.023465637860324E-014
  1.600000000000001E-003   -9.409107589182894E-015
  1.700000000000001E-003   -7.529201442434277E-015
  1.800000000000001E-003   -4.609674063572562E-015
  1.900000000000001E-003   -7.692944873428168E-016
  2.000000000000001E-003    3.766148461721789E-015
  2.100000000000001E-003    8.671050058167473E-015
  2.200000000000001E-003    1.353800048891105E-014
  2.300000000000001E-003    1.790620037564984E-014
  2.400000000000001E-003    2.129878834696626E-014
  2.500000000000001E-003    2.326654943761507E-014
  2.600000000000001E-003    2.343444024134623E-014
  2.700000000000001E-003    2.154678165497794E-014
  2.800000000000001E-003    1.750645440132423E-014
  2.900000000000001E-003    1.140358737706596E-014
  3.000000000000001E-003    3.529660964851942E-015
  3.100000000000001E-003   -5.626052313795862E-015
  3.200000000000001E-003   -1.539942232052378E-014
  3.300000000000001E-003   -2.499375397725567E-014
  3.400000000000001E-003   -3.353951958314983E-014
  3.500000000000001E-003   -4.016765491413825E-014
  3.600000000000001E-003   -4.409077900376851E-014
  3.700000000000001E-003   -4.468532758565926E-014
  3.800000000000001E-003   -4.156665752608934E-014
  3.900000000000001E-003   -3.464909049863031E-014
  4.000000000000001E-003   -2.418344553692961E-014
  4.100000000000001E-003   -1.076607579430675E-014
  4.200000000000001E-003    4.684402603655165E-015
  4.300000000000001E-003    2.098362384243698E-014
  4.400000000000001E-003    3.676902265024609E-014
  4.500000000000001E-003    5.061277991146544E-014
  4.600000000000002E-003    6.115158485132657E-014
  4.700000000000001E-003    6.722182776853684E-014
  4.800000000000001E-003    6.798737371794167E-014
  4.900000000000002E-003    6.304638947497952E-014
  5.000000000000001E-003    5.250455894403581E-014
  5.100000000000001E-003    3.700416251250214E-014
  5.200000000000001E-003    1.770199032180366E-014
  5.300000000000002E-003   -3.806432079291456E-015
  5.400000000000001E-003   -2.561345016942659E-014
  5.500000000000001E-003   -4.566838110089425E-014
  5.600000000000002E-003   -6.197561095130403E-014
  5.700000000000001E-003   -7.280355083236022E-014
  5.800000000000001E-003   -7.688381524022316E-014
  5.900000000000002E-003   -7.357859467634738E-014
  6.000000000000001E-003   -6.299551531259586E-014
  6.100000000000001E-003   -4.603279511105538E-014
  6.200000000000002E-003   -2.434315603345428E-014
  6.300000000000002E-003   -2.124220337407608E-016
  6.400000000000001E-003    2.364240341490451E-014
  6.500000000000001E-003    4.434177979863772E-014
  6.600000000000002E-003    5.915643082639797E-014
  6.700000000000001E-003    6.583458465623856E-014
  6.800000000000001E-003    6.290923467866980E-014
  6.900000000000002E-003    4.994939834577434E-014
  7.000000000000001E-003    2.772151200301460E-014
  7.100000000000001E-003   -1.766756159981125E-015
  7.200000000000002E-003   -3.535844458256751E-014
  7.300000000000002E-003   -6.898023151496265E-014
  7.400000000000001E-003   -9.800689824367398E-014
  7.500000000000001E-003   -1.177324609024918E-013
  7.600000000000002E-003   -1.239084644500123E-013
  7.700000000000001E-003   -1.132985402893537E-013
  7.800000000000001E-003   -8.418975744446682E-014
  7.900000000000001E-003   -3.679995214382927E-014
  8.000000000000002E-003    2.647637241317929E-014
  8.100000000000001E-003    1.010300809123617E-013
  8.200000000000001E-003    1.802369300074027E-013
  8.300000000000002E-003    2.559024372465291E-013
  8.400000000000001E-003    3.189347787100619E-013
  8.500000000000002E-003    3.602013034528924E-013
  8.600000000000002E-003    3.715005745623035E-013
  8.700000000000001E-003    3.465613186986896E-013
  8.800000000000002E-003    2.819660821741127E-013
  8.900000000000002E-003    1.778940904523582E-013
  9.000000000000001E-003    3.858428832199993E-014
  9.100000000000002E-003   -1.275626656258598E-013
  9.200000000000002E-003   -3.082963328814499E-013
  9.300000000000001E-003   -4.882581943095073E-013
  9.400000000000002E-003   -6.501266391321426E-013
  9.500000000000001E-003   -7.760942807250608E-013
  9.600000000000001E-003   -8.495647423659832E-013
  9.700000000000002E-003   -8.569223364146173E-013
  9.800000000000001E-003   -7.892032334766964E-013
  9.900000000000001E-003   -6.434907808389919E-013
  1.000000000000000E-002   -4.238660157627941E-013
  1.010000000000000E-002   -1.417723984383565E-013
  1.020000000000000E-002    1.843011606304244E-013
  1.030000000000000E-002    5.298559648586707E-013
  1.040000000000000E-002    8.661065296221482E-013
  1.050000000000000E-002    1.162286304107727E-012
  1.060000000000000E-002    1.388365181229810E-012
  1.070000000000000E-002    1.517948694043574E-012
  1.080000000000000E-002    1.531089668785608E-012
  1.090000000000000E-002    1.416729751392172E-012
  1.100000000000000E-002    1.174496012771728E-012
  1.110000000000000E-002    8.156214420120624E-013
  1.120000000000000E-002    3.628240224471377E-013
  1.130000000000000E-002   -1.509306029642825E-013
  1.140000000000000E-002   -6.847523419296387E-013
  1.150000000000000E-002   -1.193094961059082E-012
  1.160000000000000E-002   -1.629720179925622E-012
  1.170000000000000E-002   -1.952022513450045E-012
  1.180000000000000E-002   -2.125311962878441E-012
  1.190000000000000E-002   -2.126629868206576E-012
  1.200000000000000E-002   -1.947681065786637E-012
  1.210000000000000E-002   -1.596530148549481E-012
  1.220000000000000E-002   -1.097800463584521E-012
  1.230000000000000E-002   -4.912518229598534E-013
  1.240000000000000E-002    1.712327033863654E-013
  1.250000000000000E-002    8.300598322114416E-013
  1.260000000000000E-002    1.423385929536498E-012
  1.270000000000000E-002    1.893142488465558E-012
  1.280000000000000E-002    2.191050197219678E-012
  1.290000000000000E-002    2.284004862313167E-012
  1.300000000000000E-002    2.158243975483921E-012
  1.310000000000000E-002    1.821776497755008E-012
  1.320000000000000E-002    1.304710431338265E-012
  1.330000000000000E-002    6.573012129920475E-013
  1.340000000000000E-002   -5.423134422281946E-014
  1.350000000000000E-002   -7.538312902689490E-013
  1.360000000000000E-002   -1.363174519870916E-012
  1.370000000000000E-002   -1.809973733014976E-012
  1.380000000000000E-002   -2.036201144743626E-012
  1.390000000000000E-002   -2.005344821569786E-012
  1.400000000000000E-002   -1.707862007154185E-012
  1.410000000000000E-002   -1.164115556275840E-012
  1.420000000000000E-002   -4.242901768146794E-013
  1.430000000000000E-002    4.349295630721070E-013
  1.440000000000000E-002    1.316813852332241E-012
  1.450000000000000E-002    2.113727170287960E-012
  1.460000000000000E-002    2.718191560611801E-012
  1.470000000000000E-002    3.034841887905597E-012
  1.480000000000000E-002    2.992069055721621E-012
  1.490000000000000E-002    2.552089474750133E-012
  1.500000000000000E-002    1.718234495461536E-012
  1.510000000000000E-002    5.384607905294798E-013
  1.520000000000000E-002   -8.956096132117310E-013
  1.530000000000000E-002   -2.454390080666068E-012
  1.540000000000000E-002   -3.980569020886828E-012
  1.550000000000000E-002   -5.303195954574620E-012
  1.560000000000000E-002   -6.254462906205422E-012
  1.570000000000000E-002   -6.687662317082707E-012
  1.580000000000000E-002   -6.494543158028917E-012
  1.590000000000000E-002   -5.620232546708533E-012
  1.600000000000000E-002   -4.073960666387942E-012
  1.610000000000000E-002   -1.934154571505564E-012
  1.620000000000000E-002    6.530991083162108E-013
  1.630000000000000E-002    3.482598977385027E-012
  1.640000000000000E-002    6.305286538161613E-012
  1.650000000000000E-002    8.849207962413471E-012
  1.660000000000000E-002    1.084451260440908E-011
  1.670000000000000E-002    1.205028535782947E-011
  1.680000000000000E-002    1.228066444229565E-011
  1.690000000000000E-002    1.142756271743999E-011
  1.700000000000000E-002    9.477468109036691E-012
  1.710000000000000E-002    6.520200795882313E-012
  1.720000000000000E-002    2.748165406889369E-012
  1.730000000000000E-002   -1.554524267976501E-012
  1.740000000000000E-002   -6.032701697536029E-012
  1.750000000000000E-002   -1.028921815748769E-011
  1.760000000000000E-002   -1.392015485258568E-011
  1.770000000000000E-002   -1.655311782334755E-011
  1.780000000000000E-002   -1.788504877701823E-011
  1.790000000000000E-002   -1.771578433209777E-011
  1.800000000000000E-002   -1.597378859370793E-011
  1.810000000000000E-002   -1.273101906844025E-011
  1.820000000000000E-002   -8.204757689445225E-012
  1.830000000000000E-002   -2.745412081313859E-012
  1.840000000000000E-002    3.189388124335393E-012
  1.850000000000000E-002    9.072692413570274E-012
  1.860000000000000E-002    1.435511866027250E-011
  1.870000000000000E-002    1.851667045280236E-011