 -4.000000000000000E-002    0.000000000000000E+000
 -3.990000000000000E-002    0.000000000000000E+000
 -3.980000000000000E-002    0.000000000000000E+000
 -3.970000000000000E-002    0.000000000000000E+000
 -3.960000000000000E-002    0.000000000000000E+000
 -3.950000000000000E-002    0.000000000000000E+000
 -3.940000000000000E-002    0.000000000000000E+000
 -3.930000000000000E-002    0.000000000000000E+000
 -3.920000000000000E-002    0.000000000000000E+000
 -3.910000000000000E-002    0.000000000000000E+000
 -3.900000000000000E-002    0.000000000000000E+000
 -3.890000000000000E-002    0.000000000000000E+000
 -3.880000000000000E-002    0.000000000000000E+000
 -3.870000000000000E-002    0.000000000000000E+000
 -3.860000000000000E-002    0.000000000000000E+000
 -3.850000000000000E-002    0.000000000000000E+000
 -3.840000000000000E-002    0.000000000000000E+000
 -3.830000000000000E-002    0.000000000000000E+000
 -3.820000000000000E-002    0.000000000000000E+000
 -3.810000000000000E-002    0.000000000000000E+000
 -3.800000000000000E-002    0.000000000000000E+000
 -3.790000000000000E-002    0.000000000000000E+000
 -3.780000000000000E-002    0.000000000000000E+000
 -3.770000000000000E-002    0.000000000000000E+000
 -3.760000000000000E-002    0.000000000000000E+000
 -3.750000000000000E-002    0.000000000000000E+000
 -3.740000000000000E-002    0.000000000000000E+000
 -3.730000000000000E-002    0.000000000000000E+000
 -3.720000000000000E-002    0.000000000000000E+000
 -3.710000000000000E-002    0.000000000000000E+000
 -3.700000000000000E-002    0.000000000000000E+000
 -3.690000000000000E-002    0.000000000000000E+000
 -3.680000000000000E-002    0.000000000000000E+000
 -3.670000000000000E-002    0.000000000000000E+000
 -3.660000000000000E-002    0.000000000000000E+000
 -3.650000000000000E-002    0.000000000000000E+000
 -3.640000000000000E-002    0.000000000000000E+000
 -3.630000000000000E-002    0.000000000000000E+000
 -3.620000000000000E-002    0.000000000000000E+000
 -3.610000000000000E-002    0.000000000000000E+000
 -3.600000000000000E-002    0.000000000000000E+000
 -3.590000000000000E-002    0.000000000000000E+000
 -3.580000000000000E-002    0.000000000000000E+000
 -3.570000000000000E-002    0.000000000000000E+000
 -3.560000000000000E-002    0.000000000000000E+000
 -3.550000000000000E-002    0.000000000000000E+000
 -3.540000000000000E-002    0.000000000000000E+000
 -3.530000000000000E-002    0.000000000000000E+000
 -3.520000000000000E-002    0.000000000000000E+000
 -3.510000000000000E-002    0.000000000000000E+000
 -3.500000000000000E-002    0.000000000000000E+000
 -3.490000000000000E-002    0.000000000000000E+000
 -3.480000000000000E-002    0.000000000000000E+000
 -3.470000000000000E-002    0.000000000000000E+000
 -3.460000000000000E-002    0.000000000000000E+000
 -3.450000000000000E-002    0.000000000000000E+000
 -3.440000000000000E-002    0.000000000000000E+000
 -3.430000000000000E-002    0.000000000000000E+000
 -3.420000000000000E-002    0.000000000000000E+000
 -3.410000000000000E-002    0.000000000000000E+000
 -3.400000000000000E-002    0.000000000000000E+000
 -3.390000000000000E-002    0.000000000000000E+000
 -3.380000000000000E-002    0.000000000000000E+000
 -3.370000000000000E-002    0.000000000000000E+000
 -3.360000000000000E-002    0.000000000000000E+000
 -3.350000000000000E-002    0.000000000000000E+000
 -3.340000000000000E-002    0.000000000000000E+000
 -3.330000000000000E-002    0.000000000000000E+000
 -3.320000000000000E-002    0.000000000000000E+000
 -3.310000000000000E-002    0.000000000000000E+000
 -3.300000000000000E-002    0.000000000000000E+000
 -3.290000000000000E-002    0.000000000000000E+000
 -3.280000000000000E-002    0.000000000000000E+000
 -3.270000000000000E-002    0.000000000000000E+000
 -3.260000000000000E-002    0.000000000000000E+000
 -3.250000000000000E-002    0.000000000000000E+000
 -3.240000000000000E-002    0.000000000000000E+000
 -3.230000000000000E-002    0.000000000000000E+000
 -3.220000000000000E-002    0.000000000000000E+000
 -3.210000000000000E-002    0.000000000000000E+000
 -3.200000000000000E-002    0.000000000000000E+000
 -3.190000000000000E-002    0.000000000000000E+000
 -3.180000000000000E-002    0.000000000000000E+000
 -3.170000000000000E-002    0.000000000000000E+000
 -3.160000000000000E-002    0.000000000000000E+000
 -3.150000000000000E-002    0.000000000000000E+000
 -3.140000000000000E-002    0.000000000000000E+000
 -3.130000000000000E-002    0.000000000000000E+000
 -3.120000000000000E-002    0.000000000000000E+000
 -3.110000000000000E-002    0.000000000000000E+000
 -3.100000000000000E-002    0.000000000000000E+000
 -3.090000000000000E-002    0.000000000000000E+000
 -3.080000000000000E-002    0.000000000000000E+000
 -3.070000000000000E-002    0.000000000000000E+000
 -3.060000000000000E-002    0.000000000000000E+000
 -3.050000000000000E-002    0.000000000000000E+000
 -3.040000000000000E-002    0.000000000000000E+000
 -3.030000000000000E-002    0.000000000000000E+000
 -3.020000000000000E-002    0.000000000000000E+000
 -3.010000000000000E-002    0.000000000000000E+000
 -3.000000000000000E-002    0.000000000000000E+000
 -2.990000000000000E-002    0.000000000000000E+000
 -2.980000000000000E-002    0.000000000000000E+000
 -2.970000000000000E-002    0.000000000000000E+000
 -2.960000000000000E-002    0.000000000000000E+000
 -2.950000000000000E-002    0.000000000000000E+000
 -2.940000000000000E-002    0.000000000000000E+000
 -2.930000000000000E-002    0.000000000000000E+000
 -2.920000000000000E-002    0.000000000000000E+000
 -2.910000000000000E-002    0.000000000000000E+000
 -2.900000000000000E-002    0.000000000000000E+000
 -2.890000000000000E-002    0.000000000000000E+000
 -2.880000000000000E-002    0.000000000000000E+000
 -2.870000000000000E-002    0.000000000000000E+000
 -2.860000000000000E-002    0.000000000000000E+000
 -2.850000000000000E-002    0.000000000000000E+000
 -2.840000000000000E-002    0.000000000000000E+000
 -2.830000000000000E-002    0.000000000000000E+000
 -2.820000000000000E-002    0.000000000000000E+000
 -2.810000000000000E-002    0.000000000000000E+000
 -2.800000000000000E-002    0.000000000000000E+000
 -2.790000000000000E-002    0.000000000000000E+000
 -2.780000000000000E-002    0.000000000000000E+000
 -2.770000000000000E-002    0.000000000000000E+000
 -2.760000000000000E-002    0.000000000000000E+000
 -2.750000000000000E-002    0.000000000000000E+000
 -2.740000000000000E-002    0.000000000000000E+000
 -2.730000000000000E-002    0.000000000000000E+000
 -2.720000000000000E-002    0.000000000000000E+000
 -2.710000000000000E-002    0.000000000000000E+000
 -2.700000000000000E-002    0.000000000000000E+000
 -2.690000000000000E-002    0.000000000000000E+000
 -2.680000000000000E-002    0.000000000000000E+000
 -2.670000000000000E-002    0.000000000000000E+000
 -2.660000000000000E-002    0.000000000000000E+000
 -2.650000000000000E-002    0.000000000000000E+000
 -2.640000000000000E-002    0.000000000000000E+000
 -2.630000000000000E-002    0.000000000000000E+000
 -2.620000000000000E-002    0.000000000000000E+000
 -2.610000000000000E-002    0.000000000000000E+000
 -2.600000000000000E-002    0.000000000000000E+000
 -2.590000000000000E-002    0.000000000000000E+000
 -2.580000000000000E-002    0.000000000000000E+000
 -2.570000000000000E-002    0.000000000000000E+000
 -2.560000000000000E-002    0.000000000000000E+000
 -2.550000000000000E-002    0.000000000000000E+000
 -2.540000000000000E-002    0.000000000000000E+000
 -2.530000000000000E-002    0.000000000000000E+000
 -2.520000000000000E-002    0.000000000000000E+000
 -2.510000000000000E-002    0.000000000000000E+000
 -2.500000000000000E-002    0.000000000000000E+000
 -2.490000000000000E-002    0.000000000000000E+000
 -2.480000000000000E-002    0.000000000000000E+000
 -2.470000000000000E-002    0.000000000000000E+000
 -2.460000000000000E-002    0.000000000000000E+000
 -2.450000000000000E-002    0.000000000000000E+000
 -2.440000000000000E-002    0.000000000000000E+000
 -2.430000000000000E-002    0.000000000000000E+000
 -2.420000000000000E-002    0.000000000000000E+000
 -2.410000000000000E-002    0.000000000000000E+000
 -2.400000000000000E-002    0.000000000000000E+000
 -2.390000000000000E-002    0.000000000000000E+000
 -2.380000000000000E-002    0.000000000000000E+000
 -2.370000000000000E-002    0.000000000000000E+000
 -2.360000000000000E-002    0.000000000000000E+000
 -2.350000000000000E-002    0.000000000000000E+000
 -2.340000000000000E-002    0.000000000000000E+000
 -2.330000000000000E-002    0.000000000000000E+000
 -2.320000000000000E-002    0.000000000000000E+000
 -2.310000000000000E-002    0.000000000000000E+000
 -2.300000000000000E-002    0.000000000000000E+000
 -2.290000000000000E-002    0.000000000000000E+000
 -2.280000000000000E-002    0.000000000000000E+000
 -2.270000000000000E-002    0.000000000000000E+000
 -2.260000000000000E-002    0.000000000000000E+000
 -2.250000000000000E-002    0.000000000000000E+000
 -2.240000000000000E-002    0.000000000000000E+000
 -2.230000000000000E-002    0.000000000000000E+000
 -2.220000000000000E-002    0.000000000000000E+000
 -2.210000000000000E-002    0.000000000000000E+000
 -2.200000000000000E-002    0.000000000000000E+000
 -2.190000000000000E-002    0.000000000000000E+000
 -2.180000000000000E-002    0.000000000000000E+000
 -2.170000000000000E-002    0.000000000000000E+000
 -2.160000000000000E-002    0.000000000000000E+000
 -2.150000000000000E-002    0.000000000000000E+000
 -2.140000000000000E-002    0.000000000000000E+000
 -2.130000000000000E-002    0.000000000000000E+000
 -2.120000000000000E-002    0.000000000000000E+000
 -2.110000000000000E-002    0.000000000000000E+000
 -2.100000000000000E-002    0.000000000000000E+000
 -2.090000000000000E-002    0.000000000000000E+000
 -2.080000000000000E-002    0.000000000000000E+000
 -2.070000000000000E-002    0.000000000000000E+000
 -2.060000000000000E-002    0.000000000000000E+000
 -2.050000000000000E-002    0.000000000000000E+000
 -2.040000000000000E-002    0.000000000000000E+000
 -2.030000000000000E-002    0.000000000000000E+000
 -2.020000000000000E-002    0.000000000000000E+000
 -2.010000000000000E-002    0.000000000000000E+000
 -2.000000000000000E-002    0.000000000000000E+000
 -1.990000000000000E-002    0.000000000000000E+000
 -1.980000000000000E-002    0.000000000000000E+000
 -1.970000000000000E-002    0.000000000000000E+000
 -1.960000000000000E-002    0.000000000000000E+000
 -1.950000000000000E-002    0.000000000000000E+000
 -1.940000000000000E-002    0.000000000000000E+000
 -1.930000000000000E-002    0.000000000000000E+000
 -1.920000000000000E-002    0.000000000000000E+000
 -1.910000000000000E-002    0.000000000000000E+000
 -1.900000000000000E-002    0.000000000000000E+000
 -1.890000000000000E-002    0.000000000000000E+000
 -1.880000000000000E-002    0.000000000000000E+000
 -1.870000000000000E-002    0.000000000000000E+000
 -1.860000000000000E-002    0.000000000000000E+000
 -1.850000000000000E-002    0.000000000000000E+000
 -1.840000000000000E-002    0.000000000000000E+000
 -1.830000000000000E-002    0.000000000000000E+000
 -1.820000000000000E-002    0.000000000000000E+000
 -1.810000000000000E-002    0.000000000000000E+000
 -1.800000000000000E-002    0.000000000000000E+000
 -1.790000000000000E-002    0.000000000000000E+000
 -1.780000000000000E-002    0.000000000000000E+000
 -1.770000000000000E-002    0.000000000000000E+000
 -1.760000000000000E-002    0.000000000000000E+000
 -1.750000000000000E-002    0.000000000000000E+000
 -1.740000000000000E-002    0.000000000000000E+000
 -1.730000000000000E-002    0.000000000000000E+000
 -1.720000000000000E-002    0.000000000000000E+000
 -1.710000000000000E-002    0.000000000000000E+000
 -1.700000000000000E-002    0.000000000000000E+000
 -1.690000000000000E-002    0.000000000000000E+000
 -1.680000000000000E-002    0.000000000000000E+000
 -1.670000000000000E-002    0.000000000000000E+000
 -1.660000000000000E-002    0.000000000000000E+000
 -1.650000000000000E-002    0.000000000000000E+000
 -1.640000000000000E-002    0.000000000000000E+000
 -1.630000000000000E-002    0.000000000000000E+000
 -1.620000000000000E-002    0.000000000000000E+000
 -1.610000000000000E-002    0.000000000000000E+000
 -1.600000000000000E-002    0.000000000000000E+000
 -1.590000000000000E-002    0.000000000000000E+000
 -1.580000000000000E-002    0.000000000000000E+000
 -1.570000000000000E-002    0.000000000000000E+000
 -1.560000000000000E-002    0.000000000000000E+000
 -1.550000000000000E-002    0.000000000000000E+000
 -1.540000000000000E-002    0.000000000000000E+000
 -1.530000000000000E-002    0.000000000000000E+000
 -1.520000000000000E-002    0.000000000000000E+000
 -1.510000000000000E-002    0.000000000000000E+000
 -1.500000000000000E-002    0.000000000000000E+000
 -1.490000000000000E-002    0.000000000000000E+000
 -1.480000000000000E-002    0.000000000000000E+000
 -1.470000000000000E-002    0.000000000000000E+000
 -1.460000000000000E-002    0.000000000000000E+000
 -1.450000000000000E-002    0.000000000000000E+000
 -1.440000000000000E-002    0.000000000000000E+000
 -1.430000000000000E-002    0.000000000000000E+000
 -1.420000000000000E-002    0.000000000000000E+000
 -1.410000000000000E-002    0.000000000000000E+000
 -1.400000000000000E-002    0.000000000000000E+000
 -1.390000000000000E-002    0.000000000000000E+000
 -1.380000000000000E-002    0.000000000000000E+000
 -1.370000000000000E-002    0.000000000000000E+000
 -1.360000000000000E-002    0.000000000000000E+000
 -1.350000000000000E-002    0.000000000000000E+000
 -1.340000000000000E-002    0.000000000000000E+000
 -1.330000000000000E-002    0.000000000000000E+000
 -1.320000000000000E-002    0.000000000000000E+000
 -1.310000000000000E-002    0.000000000000000E+000
 -1.300000000000000E-002    0.000000000000000E+000
 -1.290000000000000E-002    0.000000000000000E+000
 -1.280000000000000E-002    0.000000000000000E+000
 -1.270000000000000E-002    0.000000000000000E+000
 -1.260000000000000E-002    0.000000000000000E+000
 -1.250000000000000E-002    0.000000000000000E+000
 -1.240000000000000E-002    0.000000000000000E+000
 -1.230000000000000E-002    0.000000000000000E+000
 -1.220000000000000E-002    0.000000000000000E+000
 -1.210000000000000E-002    0.000000000000000E+000
 -1.200000000000000E-002    0.000000000000000E+000
 -1.190000000000000E-002    0.000000000000000E+000
 -1.180000000000000E-002    0.000000000000000E+000
 -1.170000000000000E-002    0.000000000000000E+000
 -1.160000000000000E-002    0.000000000000000E+000
 -1.150000000000000E-002    0.000000000000000E+000
 -1.140000000000000E-002    0.000000000000000E+000
 -1.130000000000000E-002    0.000000000000000E+000
 -1.120000000000000E-002    0.000000000000000E+000
 -1.110000000000000E-002    0.000000000000000E+000
 -1.100000000000000E-002    0.000000000000000E+000
 -1.090000000000000E-002    0.000000000000000E+000
 -1.080000000000000E-002    0.000000000000000E+000
 -1.070000000000000E-002    0.000000000000000E+000
 -1.060000000000000E-002    0.000000000000000E+000
 -1.050000000000000E-002    0.000000000000000E+000
 -1.040000000000000E-002    0.000000000000000E+000
 -1.030000000000000E-002    0.000000000000000E+000
 -1.020000000000000E-002    0.000000000000000E+000
 -1.010000000000000E-002    0.000000000000000E+000
 -1.000000000000000E-002    0.000000000000000E+000
 -9.899999999999999E-003    0.000000000000000E+000
 -9.800000000000000E-003    0.000000000000000E+000
 -9.699999999999999E-003    0.000000000000000E+000
 -9.599999999999999E-003    0.000000000000000E+000
 -9.500000000000000E-003    0.000000000000000E+000
 -9.399999999999999E-003    0.000000000000000E+000
 -9.299999999999999E-003    0.000000000000000E+000
 -9.200000000000000E-003    0.000000000000000E+000
 -9.099999999999999E-003    0.000000000000000E+000
 -8.999999999999999E-003    0.000000000000000E+000
 -8.900000000000000E-003    0.000000000000000E+000
 -8.799999999999999E-003    0.000000000000000E+000
 -8.699999999999999E-003    0.000000000000000E+000
 -8.600000000000000E-003    0.000000000000000E+000
 -8.499999999999999E-003    0.000000000000000E+000
 -8.399999999999999E-003    0.000000000000000E+000
 -8.300000000000000E-003    0.000000000000000E+000
 -8.199999999999999E-003    0.000000000000000E+000
 -8.100000000000000E-003    0.000000000000000E+000
 -8.000000000000000E-003    0.000000000000000E+000
 -7.899999999999999E-003    0.000000000000000E+000
 -7.800000000000000E-003    0.000000000000000E+000
 -7.699999999999999E-003    0.000000000000000E+000
 -7.599999999999999E-003    0.000000000000000E+000
 -7.499999999999999E-003    0.000000000000000E+000
 -7.399999999999999E-003    0.000000000000000E+000
 -7.299999999999999E-003    0.000000000000000E+000
 -7.199999999999999E-003    0.000000000000000E+000
 -7.100000000000000E-003   -2.408400472446900E-048
 -6.999999999999999E-003   -4.816800944893800E-048
 -6.899999999999999E-003    1.029122722018097E-047
 -6.800000000000000E-003    2.290625563776391E-047
 -6.699999999999999E-003    1.376939270372404E-047
 -6.599999999999999E-003    1.376939270372404E-047
 -6.499999999999999E-003    1.617779317617094E-047
 -6.399999999999999E-003    8.379565703481798E-048
 -6.299999999999999E-003    1.426904016065403E-048
 -6.199999999999999E-003   -7.089567264571913E-049
 -6.100000000000000E-003   -7.994937098008439E-048
 -5.999999999999999E-003   -1.968924801342043E-047
 -5.899999999999999E-003   -1.709657636576389E-047
 -5.800000000000000E-003   -1.111400778927895E-047
 -5.699999999999999E-003   -1.320220641540745E-047
 -5.599999999999999E-003    4.374298451202693E-047
 -5.499999999999999E-003    8.758202624883090E-047
 -5.399999999999999E-003    1.276149141850998E-046
 -5.299999999999999E-003    2.606833884997635E-046
 -5.199999999999999E-003    3.955430015273649E-046
 -5.099999999999999E-003    3.894170904328310E-046
 -4.999999999999999E-003    3.553656035013062E-046
 -4.899999999999999E-003    3.141891678751982E-046
 -4.799999999999999E-003    4.366675092406175E-047
 -4.699999999999999E-003   -5.157850303693819E-046
 -4.599999999999999E-003   -2.691540799156111E-047
 -4.499999999999999E-003   -3.868975034525879E-046
 -4.399999999999999E-003   -1.005245103881246E-045
 -4.299999999999999E-003   -1.564351468617941E-045
 -4.199999999999999E-003   -2.175049424788372E-045
 -4.099999999999999E-003   -2.218946066292445E-045
 -3.999999999999999E-003   -2.447582000395926E-045
 -3.899999999999999E-003   -3.017678189321053E-045
 -3.799999999999999E-003   -3.605207290704926E-045
 -3.699999999999999E-003   -3.774273195100717E-045
 -3.599999999999999E-003   -3.470942860241606E-045
 -3.499999999999999E-003   -2.255490195890396E-045
 -3.399999999999999E-003    1.929394668123064E-046
 -3.299999999999999E-003    3.851533479975295E-045
 -3.199999999999999E-003    8.703930143587927E-045
 -3.099999999999999E-003    1.467650670523322E-044
 -2.999999999999999E-003    2.185968555961413E-044
 -2.899999999999999E-003    2.875049854857764E-044
 -2.799999999999999E-003    3.580415140911517E-044
 -2.699999999999999E-003    4.172507885571552E-044
 -2.599999999999999E-003    4.424850206043202E-044
 -2.499999999999999E-003    4.090889221680841E-044
 -2.399999999999999E-003    3.104910404465027E-044
 -2.299999999999999E-003    1.233557623268359E-044
 -2.199999999999999E-003   -1.649175564255824E-044
 -2.099999999999999E-003   -5.603862607454757E-044
 -1.999999999999999E-003   -1.056223407537759E-043
 -1.899999999999999E-003   -1.625417325888996E-043
 -1.799999999999999E-003   -2.216742284346529E-043
 -1.699999999999999E-003   -2.757432546208642E-043
 -1.599999999999999E-003   -3.155666202398564E-043
 -1.499999999999999E-003   -3.299681711094362E-043
 -1.399999999999999E-003   -3.054214722361920E-043
 -1.299999999999999E-003   -2.280513824319616E-043
 -1.199999999999999E-003   -8.578397027427650E-044
 -1.099999999999999E-003    1.294001375983091E-043
 -9.999999999999989E-004    4.180650699409208E-043
 -8.999999999999990E-004    7.729450710209083E-043
 -7.999999999999990E-004    1.172647599327717E-042
 -6.999999999999989E-004    1.581322928418235E-042
 -5.999999999999990E-004    1.946781278653124E-042
 -4.999999999999989E-004    2.199737864531341E-042
 -3.999999999999989E-004    2.260025147344090E-042
 -2.999999999999989E-004    2.037172639535821E-042
 -1.999999999999989E-004    1.445282892996767E-042
 -9.999999999999892E-005    4.111570442978118E-043
  1.084202172485504E-018   -1.106801175435429E-042
  1.000000000000011E-004   -3.100690517577521E-042
  2.000000000000011E-004   -5.496454977464422E-042
  3.000000000000011E-004   -8.133143784623770E-042
  4.000000000000011E-004   -1.075385539388167E-041
  5.000000000000011E-004   -1.299760451363384E-041
  6.000000000000011E-004   -1.441139759719381E-041
  7.000000000000011E-004   -1.447062038158264E-041
  8.000000000000011E-004   -1.262558982211909E-041
  9.000000000000012E-004   -8.361755083531031E-042
  1.000000000000001E-003   -1.287666355501662E-042
  1.100000000000001E-003    8.766951147690417E-042
  1.200000000000001E-003    2.164073039311444E-041
  1.300000000000001E-003    3.673057824528504E-041
  1.400000000000001E-003    5.290458609501483E-041
  1.500000000000001E-003    6.844470845185353E-041
  1.600000000000001E-003    8.105175625581928E-041
  1.700000000000001E-003    8.792938070582705E-041
  1.800000000000001E-003    8.596613775885616E-041
  1.900000000000001E-003    7.202679132563864E-041
  2.000000000000001E-003    4.336369819448819E-041
  2.100000000000001E-003   -1.874819280911451E-042
  2.200000000000001E-003   -6.406195883582992E-041
  2.300000000000001E-003   -1.414849846669068E-040
  2.400000000000001E-003   -2.297928231401491E-040
  2.500000000000001E-003   -3.215863632990981E-040
  2.600000000000001E-003   -4.062607142932590E-040
  2.700000000000001E-003   -4.702117469237015E-040
  2.800000000000001E-003   -4.975175670623184E-040
  2.900000000000001E-003   -4.711696611894165E-040
  3.000000000000001E-003   -3.748989626161452E-040
  3.100000000000001E-003   -1.955647242326350E-040
  3.200000000000001E-003    7.400216802500221E-041
  3.300000000000001E-003    4.319207995964951E-040
  3.400000000000001E-003    8.642567061257697E-040
  3.500000000000001E-003    1.342525159351056E-039
  3.600000000000001E-003    1.822203918927857E-039
  3.700000000000001E-003    2.242803316145491E-039
  3.800000000000001E-003    2.530036284258386E-039
  3.900000000000001E-003    2.600535486624027E-039
  4.000000000000001E-003    2.369388133188201E-039
  4.100000000000001E-003    1.760484150241762E-039
  4.200000000000001E-003    7.193006059082231E-040
  4.300000000000001E-003   -7.726964613757788E-040
  4.400000000000001E-003   -2.683357503210848E-039
  4.500000000000001E-003   -4.916649494651640E-039
  4.600000000000002E-003   -7.303171316195760E-039
  4.700000000000001E-003   -9.596859232368306E-039
  4.800000000000001E-003   -1.148036906502967E-038
  4.900000000000002E-003   -1.258135530995212E-038
  5.000000000000001E-003   -1.250115244688283E-038
  5.100000000000001E-003   -1.085630749259118E-038
  5.200000000000001E-003   -7.331845178660489E-039
  5.300000000000002E-003   -1.743319537511451E-039
  5.400000000000001E-003    5.897408214492563E-039
  5.500000000000001E-003    1.531983207692112E-038
  5.600000000000002E-003    2.594494353011398E-038
  5.700000000000001E-003    3.685816816258562E-038
  5.800000000000001E-003    4.681581830953333E-038
  5.900000000000002E-003    5.429485342730386E-038
  6.000000000000001E-003    5.759339150842096E-038
  6.100000000000001E-003    5.498520142682441E-038
  6.200000000000002E-003    4.492556512850717E-038
  6.300000000000002E-003    2.629865112828782E-038
  6.400000000000001E-003   -1.311713234716953E-039
  6.500000000000001E-003   -3.735486502644538E-038
  6.600000000000002E-003   -8.008401047693387E-038
  6.700000000000001E-003   -1.264050628974496E-037
  6.800000000000001E-003   -1.718460865961861E-037
  6.900000000000002E-003   -2.106875217063136E-037
  7.000000000000001E-003   -2.362850933367736E-037
  7.100000000000001E-003   -2.416025804751914E-037
  7.200000000000002E-003   -2.199507480163950E-037
  7.300000000000002E-003   -1.659014941701803E-037
  7.400000000000001E-003   -7.631548281277827E-038
  7.500000000000001E-003    4.861007009507891E-038
  7.600000000000002E-003    2.043971760215494E-037
  7.700000000000001E-003    3.815921574477627E-037
  7.800000000000001E-003    5.654761821661741E-037
  7.900000000000001E-003    7.363321021322294E-037
  8.000000000000002E-003    8.703921438129631E-037
  8.100000000000001E-003    9.415408152444178E-037
  8.200000000000001E-003    9.237757236160099E-037
  8.300000000000002E-003    7.943365768105452E-037
  8.400000000000001E-003    5.373046845609577E-037
  8.500000000000002E-003    1.473641031569628E-037
  8.600000000000002E-003   -3.666862045393050E-037
  8.700000000000001E-003   -9.791634070884417E-037
  8.800000000000002E-003   -1.646007022560276E-036
  8.900000000000002E-003   -2.305077254329877E-036
  9.000000000000001E-003   -2.878682858374486E-036
  9.100000000000002E-003   -3.278612030630260E-036
  9.200000000000002E-003   -3.413714681320712E-036
  9.300000000000001E-003   -3.199775057753647E-036
  9.400000000000002E-003   -2.571080683860173E-036
  9.500000000000001E-003   -1.492730934876462E-036
  9.600000000000001E-003    2.759669209460104E-038
  9.700000000000002E-003    1.929961813239207E-036
  9.800000000000001E-003    4.096205321333512E-036
  9.900000000000001E-003    6.349349829497204E-036
  1.000000000000000E-002    8.459687552422751E-036
  1.010000000000000E-002    1.015844459760974E-035
  1.020000000000000E-002    1.115916433508844E-035
  1.030000000000000E-002    1.118608599126597E-035
  1.040000000000000E-002    1.000778684129338E-035
  1.050000000000000E-002    7.473325913400522E-036
  1.060000000000000E-002    3.547212075022573E-036
  1.070000000000000E-002   -1.661117356355277E-036
  1.080000000000000E-002   -7.877958113513403E-036
  1.090000000000000E-002   -1.466050969683652E-035
  1.100000000000000E-002   -2.141013054487353E-035
  1.110000000000000E-002   -2.740584189760852E-035
  1.120000000000000E-002   -3.185830475830379E-035
  1.130000000000000E-002   -3.398197219707190E-035
  1.140000000000000E-002   -3.308069342724645E-035
  1.150000000000000E-002   -2.863940349353293E-035
  1.160000000000000E-002   -2.041252174327794E-035
  1.170000000000000E-002   -8.498399513159260E-036
  1.180000000000000E-002    6.611028764870586E-036
  1.190000000000000E-002    2.401513404441799E-035
  1.200000000000000E-002    4.243116484891898E-035
  1.210000000000000E-002    6.026565132105776E-035
  1.220000000000000E-002    7.572893297713237E-035
  1.230000000000000E-002    8.698567346024425E-035
  1.240000000000000E-002    9.232840411383078E-035
  1.250000000000000E-002    9.035723383011441E-035
  1.260000000000000E-002    8.014547124136817E-035
  1.270000000000000E-002    6.137114465118531E-035
  1.280000000000000E-002    3.439604921892392E-035
  1.290000000000000E-002    2.804375955851048E-037
  1.300000000000000E-002   -3.927124120150166E-035
  1.310000000000000E-002   -8.202743871892860E-035
  1.320000000000000E-002   -1.253938197481620E-034
  1.330000000000000E-002   -1.665992030366100E-034
  1.340000000000000E-002   -2.028713697902814E-034
  1.350000000000000E-002   -2.315712361261012E-034
  1.360000000000000E-002   -2.502576885280764E-034
  1.370000000000000E-002   -2.566690218188686E-034
  1.380000000000000E-002   -2.486259076679032E-034
  1.390000000000000E-002   -2.238830685274590E-034
  1.400000000000000E-002   -1.799854328518387E-034
  1.410000000000000E-002   -1.142032883690535E-034
  1.420000000000000E-002   -2.363722625570423E-035
  1.430000000000000E-002    9.441604966861117E-035
  1.440000000000000E-002    2.417680185558725E-034
  1.450000000000000E-002    4.182835141242901E-034
  1.460000000000000E-002    6.204980587895615E-034
  1.470000000000000E-002    8.400333909141608E-034
  1.480000000000000E-002    1.062021832823407E-033
  1.490000000000000E-002    1.263847597432496E-033
  1.500000000000000E-002    1.414594106704151E-033
  1.510000000000000E-002    1.475622669690251E-033
  1.520000000000000E-002    1.402681785912180E-033
  1.530000000000000E-002    1.149875733269750E-033
  1.540000000000000E-002    6.756144038604764E-034
  1.550000000000000E-002   -4.958408156506418E-035
  1.560000000000000E-002   -1.033906714342937E-033
  1.570000000000000E-002   -2.254552791383469E-033
  1.580000000000000E-002   -3.648796190842010E-033
  1.590000000000000E-002   -5.107407203620994E-033
  1.600000000000000E-002   -6.472266487406578E-033
  1.610000000000000E-002   -7.540011548706202E-033
  1.620000000000000E-002   -8.073341391051415E-033
  1.630000000000000E-002   -7.820983795943852E-033
  1.640000000000000E-002   -6.546516338891069E-033
  1.650000000000000E-002   -4.064940192352991E-033
  1.660000000000000E-002   -2.845373143681025E-034
  1.670000000000000E-002    4.750081109586283E-033
  1.680000000000000E-002    1.081922265398912E-032
  1.690000000000000E-002    1.750032679125061E-032
  1.700000000000000E-002    2.415840698485743E-032
  1.710000000000000E-002    2.996164758068495E-032
  1.720000000000000E-002    3.392786274208401E-032
  1.730000000000000E-002    3.500501590671751E-032
  1.740000000000000E-002    3.218537789831678E-032
  1.750000000000000E-002    2.464817601487156E-032
  1.760000000000000E-002    1.192038932941450E-032
  1.770000000000000E-002   -5.960177856631471E-033
  1.780000000000000E-002   -2.830040045523964E-032
  1.790000000000000E-002   -5.365003094607143E-032
  1.800000000000000E-002   -7.976816715499107E-032
  1.810000000000000E-002   -1.036816600662679E-031
  1.820000000000000E-002   -1.218536620485790E-031
  1.830000000000000E-002   -1.304712350396823E-031
  1.840000000000000E-002   -1.258475408961484E-031
  1.850000000000000E-002   -1.049185217921548E-031
  1.860000000000000E-002   -6.579569681809889E-032
  1.870000000000000E-002   -8.319316262613797E-033