 -4.000000000000000E-002    0.000000000000000E+000
 -3.990000000000000E-002    0.000000000000000E+000
 -3.980000000000000E-002    0.000000000000000E+000
 -3.970000000000000E-002    0.000000000000000E+000
 -3.960000000000000E-002    0.000000000000000E+000
 -3.950000000000000E-002    0.000000000000000E+000
 -3.940000000000000E-002    0.000000000000000E+000
 -3.930000000000000E-002    0.000000000000000E+000
 -3.920000000000000E-002    0.000000000000000E+000
 -3.910000000000000E-002    0.000000000000000E+000
 -3.900000000000000E-002    0.000000000000000E+000
 -3.890000000000000E-002    0.000000000000000E+000
 -3.880000000000000E-002    0.000000000000000E+000
 -3.870000000000000E-002    0.000000000000000E+000
 -3.860000000000000E-002    0.000000000000000E+000
 -3.850000000000000E-002    0.000000000000000E+000
 -3.840000000000000E-002    0.000000000000000E+000
 -3.830000000000000E-002    0.000000000000000E+000
 -3.820000000000000E-002    0.000000000000000E+000
 -3.810000000000000E-002    0.000000000000000E+000
 -3.800000000000000E-002    0.000000000000000E+000
 -3.790000000000000E-002    0.000000000000000E+000
 -3.780000000000000E-002    0.000000000000000E+000
 -3.770000000000000E-002    0.000000000000000E+000
 -3.760000000000000E-002    0.000000000000000E+000
 -3.750000000000000E-002    0.000000000000000E+000
 -3.740000000000000E-002    0.000000000000000E+000
 -3.730000000000000E-002    0.000000000000000E+000
 -3.720000000000000E-002    0.000000000000000E+000
 -3.710000000000000E-002    0.000000000000000E+000
 -3.700000000000000E-002    0.000000000000000E+000
 -3.690000000000000E-002    0.000000000000000E+000
 -3.680000000000000E-002    0.000000000000000E+000
 -3.670000000000000E-002    0.000000000000000E+000
 -3.660000000000000E-002    0.000000000000000E+000
 -3.650000000000000E-002    0.000000000000000E+000
 -3.640000000000000E-002    0.000000000000000E+000
 -3.630000000000000E-002    0.000000000000000E+000
 -3.620000000000000E-002    0.000000000000000E+000
 -3.610000000000000E-002    0.000000000000000E+000
 -3.600000000000000E-002    0.000000000000000E+000
 -3.590000000000000E-002    0.000000000000000E+000
 -3.580000000000000E-002    0.000000000000000E+000
 -3.570000000000000E-002    0.000000000000000E+000
 -3.560000000000000E-002    0.000000000000000E+000
 -3.550000000000000E-002    0.000000000000000E+000
 -3.540000000000000E-002    0.000000000000000E+000
 -3.530000000000000E-002    0.000000000000000E+000
 -3.520000000000000E-002    0.000000000000000E+000
 -3.510000000000000E-002    0.000000000000000E+000
 -3.500000000000000E-002    0.000000000000000E+000
 -3.490000000000000E-002    0.000000000000000E+000
 -3.480000000000000E-002    0.000000000000000E+000
 -3.470000000000000E-002    0.000000000000000E+000
 -3.460000000000000E-002    0.000000000000000E+000
 -3.450000000000000E-002    0.000000000000000E+000
 -3.440000000000000E-002    0.000000000000000E+000
 -3.430000000000000E-002    0.000000000000000E+000
 -3.420000000000000E-002    0.000000000000000E+000
 -3.410000000000000E-002    0.000000000000000E+000
 -3.400000000000000E-002    0.000000000000000E+000
 -3.390000000000000E-002    0.000000000000000E+000
 -3.380000000000000E-002    0.000000000000000E+000
 -3.370000000000000E-002    0.000000000000000E+000
 -3.360000000000000E-002    0.000000000000000E+000
 -3.350000000000000E-002    0.000000000000000E+000
 -3.340000000000000E-002    0.000000000000000E+000
 -3.330000000000000E-002    0.000000000000000E+000
 -3.320000000000000E-002    0.000000000000000E+000
 -3.310000000000000E-002    0.000000000000000E+000
 -3.300000000000000E-002    0.000000000000000E+000
 -3.290000000000000E-002    0.000000000000000E+000
 -3.280000000000000E-002    0.000000000000000E+000
 -3.270000000000000E-002    0.000000000000000E+000
 -3.260000000000000E-002    0.000000000000000E+000
 -3.250000000000000E-002    0.000000000000000E+000
 -3.240000000000000E-002    0.000000000000000E+000
 -3.230000000000000E-002    0.000000000000000E+000
 -3.220000000000000E-002    0.000000000000000E+000
 -3.210000000000000E-002    0.000000000000000E+000
 -3.200000000000000E-002    0.000000000000000E+000
 -3.190000000000000E-002    0.000000000000000E+000
 -3.180000000000000E-002    0.000000000000000E+000
 -3.170000000000000E-002    0.000000000000000E+000
 -3.160000000000000E-002    0.000000000000000E+000
 -3.150000000000000E-002    0.000000000000000E+000
 -3.140000000000000E-002    0.000000000000000E+000
 -3.130000000000000E-002    0.000000000000000E+000
 -3.120000000000000E-002    0.000000000000000E+000
 -3.110000000000000E-002    0.000000000000000E+000
 -3.100000000000000E-002    0.000000000000000E+000
 -3.090000000000000E-002    0.000000000000000E+000
 -3.080000000000000E-002    0.000000000000000E+000
 -3.070000000000000E-002    0.000000000000000E+000
 -3.060000000000000E-002    0.000000000000000E+000
 -3.050000000000000E-002    0.000000000000000E+000
 -3.040000000000000E-002    0.000000000000000E+000
 -3.030000000000000E-002    0.000000000000000E+000
 -3.020000000000000E-002    0.000000000000000E+000
 -3.010000000000000E-002    0.000000000000000E+000
 -3.000000000000000E-002    0.000000000000000E+000
 -2.990000000000000E-002    0.000000000000000E+000
 -2.980000000000000E-002    0.000000000000000E+000
 -2.970000000000000E-002    0.000000000000000E+000
 -2.960000000000000E-002    0.000000000000000E+000
 -2.950000000000000E-002    0.000000000000000E+000
 -2.940000000000000E-002    0.000000000000000E+000
 -2.930000000000000E-002    0.000000000000000E+000
 -2.920000000000000E-002    0.000000000000000E+000
 -2.910000000000000E-002    0.000000000000000E+000
 -2.900000000000000E-002    0.000000000000000E+000
 -2.890000000000000E-002    0.000000000000000E+000
 -2.880000000000000E-002    0.000000000000000E+000
 -2.870000000000000E-002    0.000000000000000E+000
 -2.860000000000000E-002    0.000000000000000E+000
 -2.850000000000000E-002    0.000000000000000E+000
 -2.840000000000000E-002    0.000000000000000E+000
 -2.830000000000000E-002    0.000000000000000E+000
 -2.820000000000000E-002    0.000000000000000E+000
 -2.810000000000000E-002    0.000000000000000E+000
 -2.800000000000000E-002    0.000000000000000E+000
 -2.790000000000000E-002    0.000000000000000E+000
 -2.780000000000000E-002    0.000000000000000E+000
 -2.770000000000000E-002    0.000000000000000E+000
 -2.760000000000000E-002    0.000000000000000E+000
 -2.750000000000000E-002    0.000000000000000E+000
 -2.740000000000000E-002    0.000000000000000E+000
 -2.730000000000000E-002    0.000000000000000E+000
 -2.720000000000000E-002    0.000000000000000E+000
 -2.710000000000000E-002    0.000000000000000E+000
 -2.700000000000000E-002    0.000000000000000E+000
 -2.690000000000000E-002    0.000000000000000E+000
 -2.680000000000000E-002    0.000000000000000E+000
 -2.670000000000000E-002    0.000000000000000E+000
 -2.660000000000000E-002    0.000000000000000E+000
 -2.650000000000000E-002    0.000000000000000E+000
 -2.640000000000000E-002    0.000000000000000E+000
 -2.630000000000000E-002    0.000000000000000E+000
 -2.620000000000000E-002    0.000000000000000E+000
 -2.610000000000000E-002    0.000000000000000E+000
 -2.600000000000000E-002    0.000000000000000E+000
 -2.590000000000000E-002    0.000000000000000E+000
 -2.580000000000000E-002    0.000000000000000E+000
 -2.570000000000000E-002    0.000000000000000E+000
 -2.560000000000000E-002    0.000000000000000E+000
 -2.550000000000000E-002    0.000000000000000E+000
 -2.540000000000000E-002    0.000000000000000E+000
 -2.530000000000000E-002    0.000000000000000E+000
 -2.520000000000000E-002    0.000000000000000E+000
 -2.510000000000000E-002    0.000000000000000E+000
 -2.500000000000000E-002    0.000000000000000E+000
 -2.490000000000000E-002    0.000000000000000E+000
 -2.480000000000000E-002    0.000000000000000E+000
 -2.470000000000000E-002    0.000000000000000E+000
 -2.460000000000000E-002    0.000000000000000E+000
 -2.450000000000000E-002    0.000000000000000E+000
 -2.440000000000000E-002   -5.514483542572599E-048
 -2.430000000000000E-002   -1.290890462533552E-047
 -2.420000000000000E-002   -1.842338816790812E-047
 -2.410000000000000E-002   -2.393787171048072E-047
 -2.400000000000000E-002   -2.393787171048072E-047
 -2.390000000000000E-002   -1.654345062771780E-047
 -2.380000000000000E-002    4.386701612745181E-047
 -2.370000000000000E-002    1.628080120976007E-046
 -2.360000000000000E-002    3.269471068548545E-046
 -2.350000000000000E-002    6.112431476273916E-046
 -2.340000000000000E-002    9.333428661042708E-046
 -2.330000000000000E-002    1.325360263877672E-045
 -2.320000000000000E-002    1.704662462896204E-045
 -2.310000000000000E-002    1.982243346000510E-045
 -2.300000000000000E-002    1.914166568139615E-045
 -2.290000000000000E-002    1.321352514315980E-045
 -2.280000000000000E-002   -2.944640790342027E-046
 -2.270000000000000E-002   -3.366956202039485E-045
 -2.260000000000000E-002   -7.738212375103476E-045
 -2.250000000000000E-002   -1.351100960360789E-044
 -2.240000000000000E-002   -2.059426899831944E-044
 -2.230000000000000E-002   -2.901105731754224E-044
 -2.220000000000000E-002   -3.666622119840329E-044
 -2.210000000000000E-002   -4.182909273527433E-044
 -2.200000000000000E-002   -4.156759648739928E-044
 -2.190000000000000E-002   -3.246202533187665E-044
 -2.180000000000000E-002   -9.681704838170466E-045
 -2.170000000000000E-002    3.043706270511736E-044
 -2.160000000000000E-002    9.124538685839750E-044
 -2.150000000000000E-002    1.752020137820528E-043
 -2.140000000000000E-002    2.796734333044656E-043
 -2.130000000000000E-002    3.974865578355958E-043
 -2.120000000000000E-002    5.142270883278846E-043
 -2.110000000000000E-002    6.053606385315930E-043
 -2.100000000000000E-002    6.353456603947977E-043
 -2.090000000000000E-002    5.576097991306037E-043
 -2.080000000000000E-002    3.180485665930872E-043
 -2.070000000000000E-002   -1.418195964901232E-043
 -2.060000000000000E-002   -8.694559425043945E-043
 -2.050000000000000E-002   -1.894044755913103E-042
 -2.040000000000000E-002   -3.202456774803256E-042
 -2.030000000000000E-002   -4.717390447407064E-042
 -2.020000000000000E-002   -6.275758883765055E-042
 -2.010000000000000E-002   -7.603119327948532E-042
 -2.000000000000000E-002   -8.303160764871689E-042
 -1.990000000000000E-002   -7.860068654853323E-042
 -1.980000000000000E-002   -5.665245807446768E-042
 -1.970000000000000E-002   -1.081287759975474E-042
 -1.960000000000000E-002    6.456034781059322E-042
 -1.950000000000000E-002    1.728801123772047E-041
 -1.940000000000000E-002    3.133524396762154E-041
 -1.930000000000000E-002    4.787428212193689E-041
 -1.920000000000000E-002    6.529955722555198E-041
 -1.910000000000000E-002    8.091945116300543E-041
 -1.900000000000000E-002    9.084485886862269E-041
 -1.890000000000000E-002    9.003159990566956E-041
 -1.880000000000000E-002    7.256456587201597E-041
 -1.870000000000000E-002    3.226109749866959E-041
 -1.860000000000000E-002   -3.634956857761661E-041
 -1.850000000000000E-002   -1.366335105587652E-040
 -1.840000000000000E-002   -2.680986809560621E-040
 -1.830000000000000E-002   -4.243927570223638E-040
 -1.820000000000000E-002   -5.912933662192043E-040
 -1.810000000000000E-002   -7.450551808360090E-040
 -1.800000000000000E-002   -8.515964419769660E-040
 -1.790000000000000E-002   -8.671169210968078E-040
 -1.780000000000000E-002   -7.407860746188862E-040
 -1.770000000000000E-002   -4.200764600788486E-040
 -1.760000000000000E-002    1.408263388259307E-040
 -1.750000000000000E-002    9.694979878562273E-040
 -1.740000000000000E-002    2.061076267650958E-039
 -1.730000000000000E-002    3.362573510534594E-039
 -1.720000000000000E-002    4.757731424018082E-039
 -1.710000000000000E-002    6.055372163205792E-039
 -1.700000000000000E-002    6.985049502090992E-039
 -1.690000000000000E-002    7.204371783987125E-039
 -1.680000000000000E-002    6.322497269090512E-039
 -1.670000000000000E-002    3.943594969216351E-039
 -1.660000000000000E-002   -2.675473436979751E-040
 -1.650000000000000E-002   -6.498458208526174E-039
 -1.640000000000000E-002   -1.468520877842580E-038
 -1.630000000000000E-002   -2.440190496691836E-038
 -1.620000000000000E-002   -3.475933928154553E-038
 -1.610000000000000E-002   -4.433464623012718E-038
 -1.600000000000000E-002   -5.115879079051365E-038
 -1.590000000000000E-002   -5.279130950781977E-038
 -1.580000000000000E-002   -4.651044664273331E-038
 -1.570000000000000E-002   -2.964007081074785E-038
 -1.560000000000000E-002   -2.120741618460454E-041
 -1.550000000000000E-002    4.338524758197208E-038
 -1.540000000000000E-002    9.980657160272198E-038
 -1.530000000000000E-002    1.659535258469129E-037
 -1.520000000000000E-002    2.354163626611127E-037
 -1.510000000000000E-002    2.983094145615486E-037
 -1.500000000000000E-002    3.413368211866402E-037
 -1.490000000000000E-002    3.484580243517090E-037
 -1.480000000000000E-002    3.023107846124834E-037
 -1.470000000000000E-002    1.864916324796521E-037
 -1.460000000000000E-002   -1.130579198525870E-038
 -1.450000000000000E-002   -2.954381519085642E-037
 -1.440000000000000E-002   -6.580724992206427E-037
 -1.430000000000000E-002   -1.075093152862026E-036
 -1.420000000000000E-002   -1.502899745511980E-036
 -1.410000000000000E-002   -1.877015099337706E-036
 -1.400000000000000E-002   -2.113519795937541E-036
 -1.390000000000000E-002   -2.114299942765136E-036
 -1.380000000000000E-002   -1.776887719134697E-036
 -1.370000000000000E-002   -1.009249095713024E-036
 -1.360000000000000E-002    2.507901968516753E-037
 -1.350000000000000E-002    2.012685730929666E-036
 -1.340000000000000E-002    4.209158654033871E-036
 -1.330000000000000E-002    6.674451380358125E-036
 -1.320000000000000E-002    9.129349353310823E-036
 -1.310000000000000E-002    1.117823960388165E-035
 -1.300000000000000E-002    1.232371367842676E-035
 -1.290000000000000E-002    1.200365652137162E-035
 -1.280000000000000E-002    9.654166664397895E-036
 -1.270000000000000E-002    4.798833847794966E-036
 -1.260000000000000E-002   -2.839113750258814E-036
 -1.250000000000000E-002   -1.321041049365984E-035
 -1.240000000000000E-002   -2.581351772862732E-035
 -1.230000000000000E-002   -3.958877079354468E-035
 -1.220000000000000E-002   -5.285805405206574E-035
 -1.210000000000000E-002   -6.333796494027656E-035
 -1.200000000000000E-002   -6.825396293905481E-035
 -1.190000000000000E-002   -6.457787379535453E-035
 -1.180000000000000E-002   -4.940044885341270E-035
 -1.170000000000000E-002   -2.043396558241470E-035
 -1.160000000000000E-002    2.338274112821706E-035
 -1.150000000000000E-002    8.123135540225052E-035
 -1.140000000000000E-002    1.497967710992782E-034
 -1.130000000000000E-002    2.227957526447693E-034
 -1.120000000000000E-002    2.907821068463953E-034
 -1.110000000000000E-002    3.413659836515237E-034
 -1.100000000000000E-002    3.599735642251697E-034
 -1.090000000000000E-002    3.312375974528872E-034
 -1.080000000000000E-002    2.410460445955916E-034
 -1.070000000000000E-002    7.918430131669844E-035
 -1.060000000000000E-002   -1.576095080111573E-034
 -1.050000000000000E-002   -4.624889292242992E-034
 -1.040000000000000E-002   -8.156887296440397E-034
 -1.030000000000000E-002   -1.182619502657270E-033
 -1.020000000000000E-002   -1.513496843719442E-033
 -1.010000000000000E-002   -1.745134815236159E-033
 -1.000000000000000E-002   -1.805435205564743E-033
 -9.899999999999999E-003   -1.620890404913100E-033
 -9.800000000000000E-003   -1.127076317086212E-033
 -9.699999999999999E-003   -2.816490330001213E-034
 -9.599999999999999E-003    9.211958487583934E-034
 -9.500000000000000E-003    2.436442206686348E-033
 -9.399999999999999E-003    4.156356452248384E-033
 -9.299999999999999E-003    5.903617435741146E-033
 -9.200000000000000E-003    7.432306009796268E-033
 -9.099999999999999E-003    8.439424258998188E-033
 -8.999999999999999E-003    8.588988245869805E-033
 -8.900000000000000E-003    7.549581862136335E-033
 -8.799999999999999E-003    5.044580454846396E-033
 -8.699999999999999E-003    9.120783858719202E-034
 -8.600000000000000E-003   -4.830912808203889E-033
 -8.499999999999999E-003   -1.192795527671312E-032
 -8.399999999999999E-003   -1.983653387077132E-032
 -8.300000000000000E-003   -2.770691829247056E-032
 -8.199999999999999E-003   -3.439842850460757E-032
 -8.100000000000000E-003   -3.854358094338343E-032
 -8.000000000000000E-003   -3.866716076572535E-032
 -7.899999999999999E-003   -3.336159894910590E-032
 -7.800000000000000E-003   -2.151228893605622E-032
 -7.699999999999999E-003   -2.557066339124355E-033
 -7.599999999999999E-003    2.324622392159943E-032
 -7.499999999999999E-003    5.458000887750421E-032
 -7.399999999999999E-003    8.889899077405547E-032
 -7.299999999999999E-003    1.223818921679150E-031
 -7.199999999999999E-003    1.500495388696861E-031
 -7.100000000000000E-003    1.660871137460381E-031
 -6.999999999999999E-003    1.643915481228241E-031
 -6.899999999999999E-003    1.393392368653218E-031
 -6.800000000000000E-003    8.673633528546502E-032
 -6.699999999999999E-003    4.875261817415619E-033
 -6.599999999999999E-003   -1.044186510821535E-031
 -6.499999999999999E-003   -2.349021951389694E-031
 -6.399999999999999E-003   -3.753685546008236E-031
 -6.299999999999999E-003   -5.096261763333476E-031
 -6.199999999999999E-003   -6.171720854555175E-031
 -6.100000000000000E-003   -6.746840303077641E-031
 -5.999999999999999E-003   -6.583793113009325E-031
 -5.899999999999999E-003   -5.471795680046658E-031
 -5.800000000000000E-003   -3.264884425236704E-031
 -5.699999999999999E-003    7.758242420909604E-033
 -5.599999999999999E-003    4.452534757512378E-031
 -5.499999999999999E-003    9.582952825015052E-031
 -5.399999999999999E-003    1.500252419442673E-030
 -5.299999999999999E-003    2.006191038024560E-030
 -5.199999999999999E-003    2.396235273784048E-030
 -5.099999999999999E-003    2.582024655608271E-030
 -4.999999999999999E-003    2.476307515133809E-030
 -4.899999999999999E-003    2.005281539936212E-030
 -4.799999999999999E-003    1.122790957158592E-030
 -4.699999999999999E-003   -1.750361266128236E-031
 -4.599999999999999E-003   -1.836612458965597E-030
 -4.499999999999999E-003   -3.745442665256233E-030
 -4.399999999999999E-003   -5.716817901440868E-030
 -4.299999999999999E-003   -7.502929986372544E-030
 -4.199999999999999E-003   -8.808181023420914E-030
 -4.099999999999999E-003   -9.315570670868856E-030
 -3.999999999999999E-003   -8.723755777892571E-030
 -3.899999999999999E-003   -6.792788801859609E-030
 -3.799999999999999E-003   -3.394741198069539E-030
 -3.699999999999999E-003    1.436345173595550E-030
 -3.599999999999999E-003    7.462262442738250E-030
 -3.499999999999999E-003    1.421424887849575E-029
 -3.399999999999999E-003    2.099059341630574E-029
 -3.299999999999999E-003    2.688545080565302E-029
 -3.199999999999999E-003    3.085384621347744E-029
 -3.099999999999999E-003    3.181426388758175E-029
 -2.999999999999999E-003    2.878546160955352E-029
 -2.899999999999999E-003    2.104843600251829E-029
 -2.799999999999999E-003    8.318482082885048E-030
 -2.699999999999999E-003   -9.093394786353574E-030
 -2.599999999999999E-003   -3.015481762311891E-029
 -2.499999999999999E-003   -5.304937369681948E-029
 -2.399999999999999E-003   -7.520321738139647E-029
 -2.299999999999999E-003   -9.342231240366345E-029
 -2.199999999999999E-003   -1.041524815959966E-028
 -2.099999999999999E-003   -1.038610314440785E-028
 -1.999999999999999E-003   -8.952179272412900E-029
 -1.899999999999999E-003   -5.916615324771169E-029
 -1.799999999999999E-003   -1.244343363897561E-029
 -1.699999999999999E-003    4.888303331695307E-029
 -1.599999999999999E-003    1.205892701214180E-028
 -1.499999999999999E-003    1.958816597537843E-028
 -1.399999999999999E-003    2.656056102117906E-028
 -1.299999999999999E-003    3.188307587086146E-028
 -1.199999999999999E-003    3.438366532568555E-028
 -1.099999999999999E-003    3.294748436469001E-028
 -9.999999999999989E-004    2.668262732635886E-028
 -8.999999999999990E-004    1.510107973466991E-028
 -7.999999999999990E-004   -1.705357905513387E-029
 -6.999999999999989E-004   -2.291919003834829E-028
 -5.999999999999990E-004   -4.690907445241381E-028
 -4.999999999999989E-004   -7.122679157980411E-028
 -3.999999999999989E-004   -9.271259810948227E-028
 -2.999999999999989E-004   -1.077239737438763E-027
 -1.999999999999989E-004   -1.124901803664935E-027
 -9.999999999999892E-005   -1.035790370476372E-027
  1.084202172485504E-018   -7.844359824084642E-028
  1.000000000000011E-004   -3.599738634659879E-028
  2.000000000000011E-004    2.285054555942910E-028
  3.000000000000011E-004    9.478214033967517E-028
  4.000000000000011E-004    1.738650511177284E-027
  5.000000000000011E-004    2.516373491007536E-027
  6.000000000000011E-004    3.175468007041649E-027
  7.000000000000011E-004    3.597797111139948E-027
  8.000000000000011E-004    3.664718087343273E-027
  9.000000000000012E-004    3.272417874667520E-027
  1.000000000000001E-003    2.349306311581049E-027
  1.100000000000001E-003    8.737280220124884E-028
  1.200000000000001E-003   -1.110227187798199E-027
  1.300000000000001E-003   -3.481357866282780E-027
  1.400000000000001E-003   -6.037031510858066E-027
  1.500000000000001E-003   -8.498262434609738E-027
  1.600000000000001E-003   -1.052590763423752E-026
  1.700000000000001E-003   -1.174869894527576E-026
  1.800000000000001E-003   -1.180247567201736E-026
  1.900000000000001E-003   -1.037839431771232E-026
  2.000000000000001E-003   -7.276166856055169E-027
  2.100000000000001E-003   -2.456781761563979E-027
  2.200000000000001E-003    3.912145830451787E-027
  2.300000000000001E-003    1.142598641521182E-026
  2.400000000000001E-003    1.943519170316033E-026
  2.500000000000001E-003    2.706636826370218E-026
  2.600000000000001E-003    3.327669822891823E-026
  2.700000000000001E-003    3.694290883637115E-026
  2.800000000000001E-003    3.698188490307237E-026
  2.900000000000001E-003    3.249533746697602E-026
  3.000000000000001E-003    2.292610553211037E-026
  3.100000000000001E-003    8.209238622372010E-027
  3.200000000000001E-003   -1.110226891682255E-026
  3.300000000000001E-003   -3.375878837175405E-026
  3.400000000000001E-003   -5.780325034148441E-026
  3.500000000000001E-003   -8.064539909307654E-026
  3.600000000000001E-003   -9.923163125416328E-026
  3.700000000000001E-003   -1.103114254930663E-025
  3.800000000000001E-003   -1.107895483907415E-025
  3.900000000000001E-003   -9.814006824701826E-026
  4.000000000000001E-003   -7.084508793325213E-026
  4.100000000000001E-003   -2.880964495599331E-026
  4.200000000000001E-003    2.630372010231611E-026
  4.300000000000001E-003    9.088002516993615E-026
  4.400000000000001E-003    1.593516495493490E-025
  4.500000000000001E-003    2.244362764571753E-025
  4.600000000000002E-003    2.776364675876146E-025
  4.700000000000001E-003    3.099973846046967E-025
  4.800000000000001E-003    3.130864546206253E-025
  4.900000000000002E-003    2.801236679098318E-025
  5.000000000000001E-003    2.071571271870094E-025
  5.100000000000001E-003    9.415024436376942E-026
  5.200000000000001E-003   -5.417120316154272E-026
  5.300000000000002E-003   -2.278665933757015E-025
  5.400000000000001E-003   -4.118621220689027E-025
  5.500000000000001E-003   -5.866697201509806E-025
  5.600000000000002E-003   -7.297909203980132E-025
  5.700000000000001E-003   -8.177788928602908E-025
  5.800000000000001E-003   -8.288463366559199E-025
  5.900000000000002E-003   -7.458163958418910E-025
  6.000000000000001E-003   -5.591298537007684E-025
  6.100000000000001E-003   -2.695554156633512E-025
  6.200000000000002E-003    1.097867036226558E-025
  6.300000000000002E-003    5.524742667388178E-025
  6.400000000000001E-003    1.019239983604780E-024
  6.500000000000001E-003    1.460067551384568E-024
  6.600000000000002E-003    1.818004821986129E-024
  6.700000000000001E-003    2.034580473966265E-024
  6.800000000000001E-003    2.056489690479260E-024
  6.900000000000002E-003    1.842995093146962E-024
  7.000000000000001E-003    1.373289312850147E-024
  7.100000000000001E-003    6.529194505023582E-025
  7.200000000000002E-003   -2.816905451166159E-025
  7.300000000000002E-003   -1.361544516043929E-024
  7.400000000000001E-003   -2.486970569328788E-024
  7.500000000000001E-003   -3.533585586805294E-024
  7.600000000000002E-003   -4.362407429236439E-024
  7.700000000000001E-003   -4.833698767934117E-024
  7.800000000000001E-003   -4.823598849594176E-024
  7.900000000000001E-003   -4.242066229012446E-024
  8.000000000000002E-003   -3.050217245651966E-024
  8.100000000000001E-003   -1.274835550732390E-024
  8.200000000000001E-003    9.822497790672610E-025
  8.300000000000002E-003    3.542051958758846E-024
  8.400000000000001E-003    6.155236227379029E-024
  8.500000000000002E-003    8.518745226109608E-024
  8.600000000000002E-003    1.030211379242441E-023
  8.700000000000001E-003    1.118213592038391E-023
  8.800000000000002E-003    1.088328548445092E-023
  8.900000000000002E-003    9.220082495898810E-024
  9.000000000000001E-003    6.136640854308526E-024
  9.100000000000002E-003    1.738057858884250E-024
  9.200000000000002E-003   -3.691717074857154E-024
  9.300000000000001E-003   -9.690280147209129E-024
  9.400000000000002E-003   -1.563886219030525E-023
  9.500000000000001E-003   -2.080755602894051E-023
  9.600000000000001E-003   -2.442258665055860E-023
  9.700000000000002E-003   -2.575165961606608E-023
  9.800000000000001E-003   -2.420046765294975E-023
  9.900000000000001E-003   -1.941077800345135E-023
  1.000000000000000E-002   -1.134853886321529E-023
  1.010000000000000E-002   -3.694483521708363E-025
  1.020000000000000E-002    1.275018699203636E-023
  1.030000000000000E-002    2.682756953509064E-023
  1.040000000000000E-002    4.033925548619759E-023
  1.050000000000000E-002    5.154051873403430E-023
  1.060000000000000E-002    5.863387584198800E-023
  1.070000000000000E-002    5.997569868105164E-023
  1.080000000000000E-002    5.430314693663420E-023
  1.090000000000000E-002    4.095797016313882E-023
  1.100000000000000E-002    2.007969018111594E-023
  1.110000000000000E-002   -7.260723098930089E-024
  1.120000000000000E-002   -3.901377666662800E-023
  1.130000000000000E-002   -7.221270316367522E-023
  1.140000000000000E-002   -1.031557870260474E-022
  1.150000000000000E-002   -1.277104229216600E-022
  1.160000000000000E-002   -1.417250688547013E-022
  1.170000000000000E-002   -1.415199384011987E-022
  1.180000000000000E-002   -1.244124925770543E-022
  1.190000000000000E-002   -8.922169796692841E-023
  1.200000000000000E-002   -3.668722933871336E-023
  1.210000000000000E-002    3.026153895989255E-023
  1.220000000000000E-002    1.064460464320346E-022
  1.230000000000000E-002    1.846336646258709E-022
  1.240000000000000E-002    2.560106594048438E-022
  1.250000000000000E-002    3.109274472690598E-022
  1.260000000000000E-002    3.398775770531943E-022
  1.270000000000000E-002    3.346375079011183E-022
  1.280000000000000E-002    2.894622665067599E-022
  1.290000000000000E-002    2.022066577288730E-022
  1.300000000000000E-002    7.522782109400660E-023
  1.310000000000000E-002   -8.407554895411272E-023
  1.320000000000000E-002   -2.632145418937261E-022
  1.330000000000000E-002   -4.451444693574931E-022
  1.340000000000000E-002   -6.094230075741076E-022
  1.350000000000000E-002   -7.339670544304005E-022
  1.360000000000000E-002   -7.973094283216285E-022
  1.370000000000000E-002   -7.811812575818243E-022
  1.380000000000000E-002   -6.731778434335673E-022
  1.390000000000000E-002   -4.692145418381458E-022
  1.400000000000000E-002   -1.754528670234107E-022
  1.410000000000000E-002    1.906162747355753E-022
  1.420000000000000E-002    6.002016249557687E-022
  1.430000000000000E-002    1.014540355794144E-021
  1.440000000000000E-002    1.387594702911328E-021
  1.450000000000000E-002    1.670041246576161E-021
  1.460000000000000E-002    1.814314007530388E-021
  1.470000000000000E-002    1.780303524842388E-021
  1.480000000000000E-002    1.541170435532177E-021
  1.490000000000000E-002    1.088631718402196E-021
  1.500000000000000E-002    4.370272229673473E-022
  1.510000000000000E-002   -3.744969057970283E-022
  1.520000000000000E-002   -1.282249272002479E-021
  1.530000000000000E-002   -2.201072772338570E-021
  1.540000000000000E-002   -3.030356196764868E-021
  1.550000000000000E-002   -3.662781181184731E-021
  1.560000000000000E-002   -3.995256664332737E-021
  1.570000000000000E-002   -3.941169715056813E-021
  1.580000000000000E-002   -3.442776447819933E-021
  1.590000000000000E-002   -2.482363782455068E-021
  1.600000000000000E-002   -1.090726618327817E-021
  1.610000000000000E-002    6.484241634545677E-022
  1.620000000000000E-002    2.599268718710503E-021
  1.630000000000000E-002    4.580639255003509E-021
  1.640000000000000E-002    6.378923462701579E-021
  1.650000000000000E-002    7.766635101429937E-021
  1.660000000000000E-002    8.525468449540456E-021
  1.670000000000000E-002    8.471963854247496E-021
  1.680000000000000E-002    7.483323600992778E-021
  1.690000000000000E-002    5.520527290805585E-021
  1.700000000000000E-002    2.645744746911614E-021
  1.710000000000000E-002   -9.687718246857798E-022
  1.720000000000000E-002   -5.042621146508550E-021
  1.730000000000000E-002   -9.201462199546040E-021
  1.740000000000000E-002   -1.300380142863377E-020
  1.750000000000000E-002   -1.597930513005515E-020
  1.760000000000000E-002   -1.767614542891560E-020
  1.770000000000000E-002   -1.771350129062847E-020
  1.780000000000000E-002   -1.583418699230483E-020
  1.790000000000000E-002   -1.195160330587589E-020
  1.800000000000000E-002   -6.184969463140146E-021
  1.810000000000000E-002    1.122802851846001E-021
  1.820000000000000E-002    9.409158470234276E-021
  1.830000000000000E-002    1.792068227324249E-020
  1.840000000000000E-002    2.576711389639681E-020
  1.850000000000000E-002    3.199836399726468E-020
  1.860000000000000E-002    3.569945230074294E-020
  1.870000000000000E-002    3.609557031494602E-020