 -4.000000000000000E-002    0.000000000000000E+000
 -3.990000000000000E-002    0.000000000000000E+000
 -3.980000000000000E-002    0.000000000000000E+000
 -3.970000000000000E-002    0.000000000000000E+000
 -3.960000000000000E-002    0.000000000000000E+000
 -3.950000000000000E-002    0.000000000000000E+000
 -3.940000000000000E-002    0.000000000000000E+000
 -3.930000000000000E-002    0.000000000000000E+000
 -3.920000000000000E-002    0.000000000000000E+000
 -3.910000000000000E-002    0.000000000000000E+000
 -3.900000000000000E-002    0.000000000000000E+000
 -3.890000000000000E-002    0.000000000000000E+000
 -3.880000000000000E-002    0.000000000000000E+000
 -3.870000000000000E-002    0.000000000000000E+000
 -3.860000000000000E-002    0.000000000000000E+000
 -3.850000000000000E-002    0.000000000000000E+000
 -3.840000000000000E-002    0.000000000000000E+000
 -3.830000000000000E-002    0.000000000000000E+000
 -3.820000000000000E-002    0.000000000000000E+000
 -3.810000000000000E-002    0.000000000000000E+000
 -3.800000000000000E-002    0.000000000000000E+000
 -3.790000000000000E-002    0.000000000000000E+000
 -3.780000000000000E-002    0.000000000000000E+000
 -3.770000000000000E-002    0.000000000000000E+000
 -3.760000000000000E-002    0.000000000000000E+000
 -3.750000000000000E-002    0.000000000000000E+000
 -3.740000000000000E-002    0.000000000000000E+000
 -3.730000000000000E-002    0.000000000000000E+000
 -3.720000000000000E-002    0.000000000000000E+000
 -3.710000000000000E-002    0.000000000000000E+000
 -3.700000000000000E-002    0.000000000000000E+000
 -3.690000000000000E-002    0.000000000000000E+000
 -3.680000000000000E-002    0.000000000000000E+000
 -3.670000000000000E-002    0.000000000000000E+000
 -3.660000000000000E-002    0.000000000000000E+000
 -3.650000000000000E-002    0.000000000000000E+000
 -3.640000000000000E-002    0.000000000000000E+000
 -3.630000000000000E-002    0.000000000000000E+000
 -3.620000000000000E-002    0.000000000000000E+000
 -3.610000000000000E-002    0.000000000000000E+000
 -3.600000000000000E-002    0.000000000000000E+000
 -3.590000000000000E-002    0.000000000000000E+000
 -3.580000000000000E-002    0.000000000000000E+000
 -3.570000000000000E-002    0.000000000000000E+000
 -3.560000000000000E-002    0.000000000000000E+000
 -3.550000000000000E-002    0.000000000000000E+000
 -3.540000000000000E-002    0.000000000000000E+000
 -3.530000000000000E-002    0.000000000000000E+000
 -3.520000000000000E-002    0.000000000000000E+000
 -3.510000000000000E-002    0.000000000000000E+000
 -3.500000000000000E-002    0.000000000000000E+000
 -3.490000000000000E-002    0.000000000000000E+000
 -3.480000000000000E-002    0.000000000000000E+000
 -3.470000000000000E-002    0.000000000000000E+000
 -3.460000000000000E-002    0.000000000000000E+000
 -3.450000000000000E-002    0.000000000000000E+000
 -3.440000000000000E-002    0.000000000000000E+000
 -3.430000000000000E-002    0.000000000000000E+000
 -3.420000000000000E-002    0.000000000000000E+000
 -3.410000000000000E-002    0.000000000000000E+000
 -3.400000000000000E-002    0.000000000000000E+000
 -3.390000000000000E-002    0.000000000000000E+000
 -3.380000000000000E-002    0.000000000000000E+000
 -3.370000000000000E-002    0.000000000000000E+000
 -3.360000000000000E-002    0.000000000000000E+000
 -3.350000000000000E-002    0.000000000000000E+000
 -3.340000000000000E-002    0.000000000000000E+000
 -3.330000000000000E-002    0.000000000000000E+000
 -3.320000000000000E-002    0.000000000000000E+000
 -3.310000000000000E-002    0.000000000000000E+000
 -3.300000000000000E-002    0.000000000000000E+000
 -3.290000000000000E-002    0.000000000000000E+000
 -3.280000000000000E-002    0.000000000000000E+000
 -3.270000000000000E-002    0.000000000000000E+000
 -3.260000000000000E-002    0.000000000000000E+000
 -3.250000000000000E-002    0.000000000000000E+000
 -3.240000000000000E-002    0.000000000000000E+000
 -3.230000000000000E-002    0.000000000000000E+000
 -3.220000000000000E-002    0.000000000000000E+000
 -3.210000000000000E-002    0.000000000000000E+000
 -3.200000000000000E-002    0.000000000000000E+000
 -3.190000000000000E-002    0.000000000000000E+000
 -3.180000000000000E-002    0.000000000000000E+000
 -3.170000000000000E-002    0.000000000000000E+000
 -3.160000000000000E-002    0.000000000000000E+000
 -3.150000000000000E-002    0.000000000000000E+000
 -3.140000000000000E-002    0.000000000000000E+000
 -3.130000000000000E-002    0.000000000000000E+000
 -3.120000000000000E-002    0.000000000000000E+000
 -3.110000000000000E-002    0.000000000000000E+000
 -3.100000000000000E-002    0.000000000000000E+000
 -3.090000000000000E-002    0.000000000000000E+000
 -3.080000000000000E-002    0.000000000000000E+000
 -3.070000000000000E-002    0.000000000000000E+000
 -3.060000000000000E-002    0.000000000000000E+000
 -3.050000000000000E-002    0.000000000000000E+000
 -3.040000000000000E-002    0.000000000000000E+000
 -3.030000000000000E-002    0.000000000000000E+000
 -3.020000000000000E-002    0.000000000000000E+000
 -3.010000000000000E-002    0.000000000000000E+000
 -3.000000000000000E-002    0.000000000000000E+000
 -2.990000000000000E-002    0.000000000000000E+000
 -2.980000000000000E-002    0.000000000000000E+000
 -2.970000000000000E-002    0.000000000000000E+000
 -2.960000000000000E-002    0.000000000000000E+000
 -2.950000000000000E-002    0.000000000000000E+000
 -2.940000000000000E-002    0.000000000000000E+000
 -2.930000000000000E-002    0.000000000000000E+000
 -2.920000000000000E-002    0.000000000000000E+000
 -2.910000000000000E-002    0.000000000000000E+000
 -2.900000000000000E-002    0.000000000000000E+000
 -2.890000000000000E-002    0.000000000000000E+000
 -2.880000000000000E-002    0.000000000000000E+000
 -2.870000000000000E-002    0.000000000000000E+000
 -2.860000000000000E-002    0.000000000000000E+000
 -2.850000000000000E-002    0.000000000000000E+000
 -2.840000000000000E-002    0.000000000000000E+000
 -2.830000000000000E-002    0.000000000000000E+000
 -2.820000000000000E-002    0.000000000000000E+000
 -2.810000000000000E-002    0.000000000000000E+000
 -2.800000000000000E-002    0.000000000000000E+000
 -2.790000000000000E-002    0.000000000000000E+000
 -2.780000000000000E-002    0.000000000000000E+000
 -2.770000000000000E-002    0.000000000000000E+000
 -2.760000000000000E-002    0.000000000000000E+000
 -2.750000000000000E-002    0.000000000000000E+000
 -2.740000000000000E-002    0.000000000000000E+000
 -2.730000000000000E-002    0.000000000000000E+000
 -2.720000000000000E-002    0.000000000000000E+000
 -2.710000000000000E-002    0.000000000000000E+000
 -2.700000000000000E-002    0.000000000000000E+000
 -2.690000000000000E-002    0.000000000000000E+000
 -2.680000000000000E-002    0.000000000000000E+000
 -2.670000000000000E-002    0.000000000000000E+000
 -2.660000000000000E-002    0.000000000000000E+000
 -2.650000000000000E-002    0.000000000000000E+000
 -2.640000000000000E-002    0.000000000000000E+000
 -2.630000000000000E-002    0.000000000000000E+000
 -2.620000000000000E-002    0.000000000000000E+000
 -2.610000000000000E-002    0.000000000000000E+000
 -2.600000000000000E-002    0.000000000000000E+000
 -2.590000000000000E-002    0.000000000000000E+000
 -2.580000000000000E-002    0.000000000000000E+000
 -2.570000000000000E-002    0.000000000000000E+000
 -2.560000000000000E-002    0.000000000000000E+000
 -2.550000000000000E-002    0.000000000000000E+000
 -2.540000000000000E-002    0.000000000000000E+000
 -2.530000000000000E-002    0.000000000000000E+000
 -2.520000000000000E-002    0.000000000000000E+000
 -2.510000000000000E-002    0.000000000000000E+000
 -2.500000000000000E-002    0.000000000000000E+000
 -2.490000000000000E-002    0.000000000000000E+000
 -2.480000000000000E-002    0.000000000000000E+000
 -2.470000000000000E-002    0.000000000000000E+000
 -2.460000000000000E-002    0.000000000000000E+000
 -2.450000000000000E-002    0.000000000000000E+000
 -2.440000000000000E-002    0.000000000000000E+000
 -2.430000000000000E-002    0.000000000000000E+000
 -2.420000000000000E-002    0.000000000000000E+000
 -2.410000000000000E-002    0.000000000000000E+000
 -2.400000000000000E-002    0.000000000000000E+000
 -2.390000000000000E-002    0.000000000000000E+000
 -2.380000000000000E-002    0.000000000000000E+000
 -2.370000000000000E-002    0.000000000000000E+000
 -2.360000000000000E-002    0.000000000000000E+000
 -2.350000000000000E-002    0.000000000000000E+000
 -2.340000000000000E-002    0.000000000000000E+000
 -2.330000000000000E-002    0.000000000000000E+000
 -2.320000000000000E-002    0.000000000000000E+000
 -2.310000000000000E-002    0.000000000000000E+000
 -2.300000000000000E-002    0.000000000000000E+000
 -2.290000000000000E-002   -5.485091622035438E-048
 -2.280000000000000E-002   -1.284010081151679E-047
 -2.270000000000000E-002   -6.008848199906816E-047
 -2.260000000000000E-002   -1.073368631866195E-046
 -2.250000000000000E-002   -1.545852443741709E-046
 -2.240000000000000E-002   -1.999637079942763E-046
 -2.230000000000000E-002   -1.926086988047950E-046
 -2.220000000000000E-002   -1.325202168057268E-046
 -2.210000000000000E-002   -1.234325280759053E-047
 -2.200000000000000E-002    2.138746659624647E-046
 -2.190000000000000E-002    5.455595303516934E-046
 -2.180000000000000E-002    9.840969883023419E-046
 -2.170000000000000E-002    1.542024307357465E-045
 -2.160000000000000E-002    2.175195931117723E-045
 -2.150000000000000E-002    2.814423111907424E-045
 -2.140000000000000E-002    3.302057713270604E-045
 -2.130000000000000E-002    3.302641098522106E-045
 -2.120000000000000E-002    2.325964013063213E-045
 -2.110000000000000E-002   -1.764410360333709E-047
 -2.100000000000000E-002   -3.819389365545194E-045
 -2.090000000000000E-002   -9.595263438223001E-045
 -2.080000000000000E-002   -1.732037160029814E-044
 -2.070000000000000E-002   -2.679848985484594E-044
 -2.060000000000000E-002   -3.712036470295593E-044
 -2.050000000000000E-002   -4.731341956066202E-044
 -2.040000000000000E-002   -5.421287862065817E-044
 -2.030000000000000E-002   -5.496415348835112E-044
 -2.020000000000000E-002   -4.519708086562478E-044
 -2.010000000000000E-002   -2.050174550499653E-044
 -2.000000000000000E-002    2.414324626045148E-044
 -1.990000000000000E-002    9.348212588665803E-044
 -1.980000000000000E-002    1.876122577367599E-043
 -1.970000000000000E-002    3.053872191992642E-043
 -1.960000000000000E-002    4.375133474613594E-043
 -1.950000000000000E-002    5.686607377124588E-043
 -1.940000000000000E-002    6.725469764649424E-043
 -1.930000000000000E-002    7.127266456162849E-043
 -1.920000000000000E-002    6.428538458335933E-043
 -1.910000000000000E-002    4.096574071605027E-043
 -1.900000000000000E-002   -4.158650010845635E-044
 -1.890000000000000E-002   -7.545745833783585E-043
 -1.880000000000000E-002   -1.751101431169436E-042
 -1.870000000000000E-002   -3.013271515622708E-042
 -1.860000000000000E-002   -4.461128379836211E-042
 -1.850000000000000E-002   -5.936362515279500E-042
 -1.840000000000000E-002   -7.184677901452062E-042
 -1.830000000000000E-002   -7.847841684216055E-042
 -1.820000000000000E-002   -7.473549079980006E-042
 -1.810000000000000E-002   -5.544216606101128E-042
 -1.800000000000000E-002   -1.536266073548362E-042
 -1.790000000000000E-002    4.985910663190199E-042
 -1.780000000000000E-002    1.424332343378881E-041
 -1.770000000000000E-002    2.608820800571692E-041
 -1.760000000000000E-002    3.982660774109903E-041
 -1.750000000000000E-002    5.405256790995928E-041
 -1.740000000000000E-002    6.651580476593523E-041
 -1.730000000000000E-002    7.408227025113494E-041
 -1.720000000000000E-002    7.281823644144993E-041
 -1.710000000000000E-002    5.827236188521359E-041
 -1.700000000000000E-002    2.599646437106379E-041
 -1.690000000000000E-002   -2.767076475519509E-041
 -1.680000000000000E-002   -1.045510274971744E-040
 -1.670000000000000E-002   -2.033582463309208E-040
 -1.660000000000000E-002   -3.183391339130968E-040
 -1.650000000000000E-002   -4.380097857922668E-040
 -1.640000000000000E-002   -5.442590829261068E-040
 -1.630000000000000E-002   -6.121692507185825E-040
 -1.620000000000000E-002   -6.109321604886579E-040
 -1.610000000000000E-002   -5.062504456406615E-040
 -1.600000000000000E-002   -2.645276873851039E-040
 -1.590000000000000E-002    1.410039304434892E-040
 -1.580000000000000E-002    7.223441564902502E-040
 -1.570000000000000E-002    1.467473838449637E-039
 -1.560000000000000E-002    2.330777241145457E-039
 -1.550000000000000E-002    3.224616466766800E-039
 -1.540000000000000E-002    4.014089101646328E-039
 -1.530000000000000E-002    4.517371050630339E-039
 -1.520000000000000E-002    4.514245688886255E-039
 -1.510000000000000E-002    3.765199384363794E-039
 -1.500000000000000E-002    2.042786672780029E-039
 -1.490000000000000E-002   -8.243752799262705E-040
 -1.480000000000000E-002   -4.896608051612893E-039
 -1.470000000000000E-002   -1.006143439573876E-038
 -1.460000000000000E-002   -1.597250161455310E-038
 -1.450000000000000E-002   -2.199980658168439E-038
 -1.440000000000000E-002   -2.720483434154185E-038
 -1.430000000000000E-002   -3.035615295396945E-038
 -1.420000000000000E-002   -3.000117693295569E-038
 -1.410000000000000E-002   -2.460738697377993E-038
 -1.400000000000000E-002   -1.278053103611994E-038
 -1.390000000000000E-002    6.442294541103473E-039
 -1.380000000000000E-002    3.324032384339605E-038
 -1.370000000000000E-002    6.663007254306421E-038
 -1.360000000000000E-002    1.041109266694573E-037
 -1.350000000000000E-002    1.414051861441054E-037
 -1.340000000000000E-002    1.723772714119694E-037
 -1.330000000000000E-002    1.892238096939203E-037
 -1.320000000000000E-002    1.830212297636681E-037
 -1.310000000000000E-002    1.446957366588519E-037
 -1.300000000000000E-002    6.643839179090040E-038
 -1.290000000000000E-002   -5.647555820333108E-038
 -1.280000000000000E-002   -2.235884032572165E-037
 -1.270000000000000E-002   -4.271070150005362E-037
 -1.260000000000000E-002   -6.500242781596443E-037
 -1.250000000000000E-002   -8.649377318934323E-037
 -1.240000000000000E-002   -1.034052807043295E-036
 -1.230000000000000E-002   -1.110869572595297E-036
 -1.220000000000000E-002   -1.043985375496330E-036
 -1.210000000000000E-002   -7.832834001473067E-037
 -1.200000000000000E-002   -2.885006710472386E-037
 -1.190000000000000E-002    4.602176295241991E-037
 -1.180000000000000E-002    1.450654579130595E-036
 -1.170000000000000E-002    2.627164869790149E-036
 -1.160000000000000E-002    3.881570531824381E-036
 -1.150000000000000E-002    5.048686964823164E-036
 -1.140000000000000E-002    5.909078034353151E-036
 -1.130000000000000E-002    6.201539000547392E-036
 -1.120000000000000E-002    5.647256900148716E-036
 -1.110000000000000E-002    3.986521374124360E-036
 -1.100000000000000E-002    1.027217755120418E-036
 -1.090000000000000E-002   -3.297842536299166E-036
 -1.080000000000000E-002   -8.870265784511141E-036
 -1.070000000000000E-002   -1.533030889642821E-035
 -1.060000000000000E-002   -2.203668142457418E-035
 -1.050000000000000E-002   -2.805433370075750E-035
 -1.040000000000000E-002   -3.218313184615675E-035
 -1.030000000000000E-002   -3.303891931668502E-035
 -1.020000000000000E-002   -2.919475585237028E-035
 -1.010000000000000E-002   -1.938376487875603E-035
 -1.000000000000000E-002   -2.755987392833124E-036
 -9.899999999999999E-003    2.082965793095925E-035
 -9.800000000000000E-003    5.050983322213547E-035
 -9.699999999999999E-003    8.416175782150933E-035
 -9.599999999999999E-003    1.182432352163009E-034
 -9.500000000000000E-003    1.477881968117875E-034
 -9.399999999999999E-003    1.666171903717411E-034
 -9.299999999999999E-003    1.678113598094185E-034
 -9.200000000000000E-003    1.444765588226342E-034
 -9.099999999999999E-003    9.078968606241322E-035
 -8.999999999999999E-003    3.273562887286828E-036
 -8.900000000000000E-003   -1.178078018602957E-034
 -8.799999999999999E-003   -2.670996612781531E-034
 -8.699999999999999E-003   -4.330725018209020E-034
 -8.600000000000000E-003   -5.974634311611772E-034
 -8.499999999999999E-003   -7.355174791737453E-034
 -8.399999999999999E-003   -8.172831046441427E-034
 -8.300000000000000E-003   -8.101481524501974E-034
 -8.199999999999999E-003   -6.826851654092818E-034
 -8.100000000000000E-003   -4.097022891278725E-034
 -8.000000000000000E-003    2.181905394089358E-035
 -7.899999999999999E-003    6.064644275346841E-034
 -7.800000000000000E-003    1.314615047466229E-033
 -7.699999999999999E-003    2.088187754779059E-033
 -7.599999999999999E-003    2.839042787754822E-033
 -7.499999999999999E-003    3.451225160988169E-033
 -7.399999999999999E-003    3.788041283635151E-033
 -7.299999999999999E-003    3.704612366596779E-033
 -7.199999999999999E-003    3.065956503132921E-033
 -7.100000000000000E-003    1.769864436099286E-033
 -6.999999999999999E-003   -2.271237041542036E-034
 -6.899999999999999E-003   -2.883355019353969E-033
 -6.800000000000000E-003   -6.049006537596987E-033
 -6.699999999999999E-003   -9.450786034924482E-033
 -6.599999999999999E-003   -1.268921067618406E-032
 -6.499999999999999E-003   -1.525306727423362E-032
 -6.399999999999999E-003   -1.655470129064494E-032
 -6.299999999999999E-003   -1.598797328451029E-032
 -6.199999999999999E-003   -1.300806832833410E-032
 -6.100000000000000E-003   -7.228912589062337E-033
 -5.999999999999999E-003    1.469966605245519E-033
 -5.899999999999999E-003    1.283932563457064E-032
 -5.800000000000000E-003    2.617456934364917E-032
 -5.699999999999999E-003    4.026679339230274E-032
 -5.599999999999999E-003    5.340930481245481E-032
 -5.499999999999999E-003    6.347653089025077E-032
 -5.399999999999999E-003    6.808727638599238E-032
 -5.299999999999999E-003    6.485612879475626E-032
 -5.199999999999999E-003    5.172539082084343E-032
 -5.099999999999999E-003    2.735611974772244E-032
 -4.999999999999999E-003   -8.458302473127625E-033
 -4.899999999999999E-003   -5.440734694557714E-032
 -4.799999999999999E-003   -1.073704218965514E-031
 -4.699999999999999E-003   -1.622857898256280E-031
 -4.599999999999999E-003   -2.122499201920591E-031
 -4.499999999999999E-003   -2.489046429968324E-031
 -4.399999999999999E-003   -2.631464771655564E-031
 -4.299999999999999E-003   -2.461576423589444E-031
 -4.199999999999999E-003   -1.907127640909814E-031
 -4.099999999999999E-003   -9.266253719935564E-032
 -3.999999999999999E-003    4.755937002785345E-032
 -3.899999999999999E-003    2.236095986519154E-031
 -3.799999999999999E-003    4.223283288569734E-031
 -3.699999999999999E-003    6.235051329754650E-031
 -3.599999999999999E-003    8.005519380695577E-031
 -3.499999999999999E-003    9.222607125233676E-031
 -3.399999999999999E-003    9.557240976770612E-031
 -3.299999999999999E-003    8.703584689180752E-031
 -3.199999999999999E-003    6.427968792937779E-031
 -3.099999999999999E-003    2.622281637870569E-031
 -2.999999999999999E-003   -2.644274778173017E-031
 -2.899999999999999E-003   -9.082731253082446E-031
 -2.799999999999999E-003   -1.615981934853867E-030
 -2.699999999999999E-003   -2.309999492482797E-030
 -2.599999999999999E-003   -2.892149288079854E-030
 -2.499999999999999E-003   -3.251129679164842E-030
 -2.399999999999999E-003   -3.273994672571778E-030
 -2.299999999999999E-003   -2.861181266046241E-030
 -2.199999999999999E-003   -1.944030882392320E-030
 -2.099999999999999E-003   -5.030975956869285E-031
 -1.999999999999999E-003    1.415057991547725E-030
 -1.899999999999999E-003    3.685344965495111E-030
 -1.799999999999999E-003    6.098838393838152E-030
 -1.699999999999999E-003    8.367492893171410E-030
 -1.599999999999999E-003    1.014107892582423E-029
 -1.499999999999999E-003    1.103748541057572E-029
 -1.399999999999999E-003    1.068602040186468E-029
 -1.299999999999999E-003    8.781427297965582E-030
 -1.199999999999999E-003    5.144234583583127E-030
 -1.099999999999999E-003   -2.190729820147134E-031
 -9.999999999999989E-004   -7.064367986499230E-030
 -8.999999999999990E-004   -1.487615128040194E-029
 -7.999999999999990E-004   -2.286145642885357E-029
 -6.999999999999989E-004   -2.997997019844827E-029
 -5.999999999999990E-004   -3.501638783426301E-029
 -4.999999999999989E-004   -3.669692574782655E-029
 -3.999999999999989E-004   -3.384641185535904E-029
 -2.999999999999989E-004   -2.557584477716513E-029
 -1.999999999999989E-004   -1.148335337911695E-029
 -9.999999999999892E-005    8.155044845482847E-030
  1.084202172485504E-018    3.223359632124910E-029
  1.000000000000011E-004    5.873522466689227E-029
  2.000000000000011E-004    8.475061619008631E-029
  3.000000000000011E-004    1.066230902693834E-028
  4.000000000000011E-004    1.202342431805414E-028
  5.000000000000011E-004    1.214303969517563E-028
  6.000000000000011E-004    1.065710553363705E-028
  7.000000000000011E-004    7.315883134027864E-029
  8.000000000000011E-004    2.048871500635344E-029
  9.000000000000012E-004   -4.976509199891762E-029
  1.000000000000001E-003   -1.331199487162757E-028
  1.100000000000001E-003   -2.221129984434046E-028
  1.200000000000001E-003   -3.064788987691160E-028
  1.300000000000001E-003   -3.737472707220441E-028
  1.400000000000001E-003   -4.102930939206737E-028
  1.500000000000001E-003   -4.028216620840339E-028
  1.600000000000001E-003   -3.402078567531268E-028
  1.700000000000001E-003   -2.155413408891193E-028
  1.800000000000001E-003   -2.816306204774123E-029
  1.900000000000001E-003    2.145764351398077E-028
  2.000000000000001E-003    4.961399382282356E-028
  2.100000000000001E-003    7.905138404562548E-028
  2.200000000000001E-003    1.063074722354911E-027
  2.300000000000001E-003    1.272799860896938E-027
  2.400000000000001E-003    1.375882403628082E-027
  2.500000000000001E-003    1.330645159492497E-027
  2.600000000000001E-003    1.103451232069176E-027
  2.700000000000001E-003    6.751036519019321E-028
  2.800000000000001E-003    4.703486829585818E-029
  2.900000000000001E-003   -7.535621201904432E-028
  3.000000000000001E-003   -1.670586755200803E-027
  3.100000000000001E-003   -2.618770694093790E-027
  3.200000000000001E-003   -3.487060194233338E-027
  3.300000000000001E-003   -4.146120505825188E-027
  3.400000000000001E-003   -4.460031393540094E-027
  3.500000000000001E-003   -4.301727621923337E-027
  3.600000000000001E-003   -3.571149992764679E-027
  3.700000000000001E-003   -2.214478292565647E-027
  3.800000000000001E-003   -2.422812120458893E-028
  3.900000000000001E-003    2.255964559449147E-027
  4.000000000000001E-003    5.103691611601288E-027
  4.100000000000001E-003    8.037946949175266E-027
  4.200000000000001E-003    1.072103226779021E-026
  4.300000000000001E-003    1.276422597184443E-026
  4.400000000000001E-003    1.376350468856736E-026
  4.500000000000001E-003    1.334563680700828E-026
  4.600000000000002E-003    1.122136274887498E-026
  4.700000000000001E-003    7.240705702449167E-027
  4.800000000000001E-003    1.444049357700712E-027
  4.900000000000002E-003   -5.898325557416623E-027
  5.000000000000001E-003   -1.426580898932552E-026
  5.100000000000001E-003   -2.289304405459441E-026
  5.200000000000001E-003   -3.080677711369992E-026
  5.300000000000002E-003   -3.689657111164287E-026
  5.400000000000001E-003   -4.001832543229363E-026
  5.500000000000001E-003   -3.912529102992202E-026
  5.600000000000002E-003   -3.341665399420067E-026
  5.700000000000001E-003   -2.248938836236204E-026
  5.800000000000001E-003   -6.475502329457317E-027
  5.900000000000002E-003    1.385536849040510E-026
  6.000000000000001E-003    3.704817718322895E-026
  6.100000000000001E-003    6.098734687386406E-026
  6.200000000000002E-003    8.300714104814875E-026
  6.300000000000002E-003    1.000926178245942E-025
  6.400000000000001E-003    1.091662317432723E-025
  6.500000000000001E-003    1.074436608052278E-025
  6.600000000000002E-003    9.283029578345104E-026
  6.700000000000001E-003    6.431888865918573E-026
  6.800000000000001E-003    2.234021918136508E-026
  6.900000000000002E-003   -3.098575649939177E-026
  7.000000000000001E-003   -9.174975819134187E-026
  7.100000000000001E-003   -1.543478505402825E-025
  7.200000000000002E-003   -2.118000703402383E-025
  7.300000000000002E-003   -2.563010502790845E-025
  7.400000000000001E-003   -2.799837460001796E-025
  7.500000000000001E-003   -2.758476655351228E-025
  7.600000000000002E-003   -2.387728899476245E-025
  7.700000000000001E-003   -1.665143543432105E-025
  7.800000000000001E-003   -6.055193228600722E-026
  7.900000000000001E-003    7.333612313265758E-026
  8.000000000000002E-003    2.249020758657930E-025
  8.100000000000001E-003    3.797617286958004E-025
  8.200000000000001E-003    5.202929190944631E-025
  8.300000000000002E-003    6.271039187024382E-025
  8.400000000000001E-003    6.810075099958649E-025
  8.500000000000002E-003    6.653626565978314E-025
  8.600000000000002E-003    5.685721719115423E-025
  8.700000000000001E-003    3.864647916581253E-025
  8.800000000000002E-003    1.242495314061380E-025
  8.900000000000002E-003   -2.022793772011144E-025
  9.000000000000001E-003   -5.665807333159914E-025
  9.100000000000002E-003   -9.324723736359483E-025
  9.200000000000002E-003   -1.256619184048883E-024
  9.300000000000001E-003   -1.492371178446223E-024
  9.400000000000002E-003   -1.594748857289959E-024
  9.500000000000001E-003   -1.526193149574921E-024
  9.600000000000001E-003   -1.262530790825673E-024
  9.700000000000002E-003   -7.984704235332360E-025
  9.800000000000001E-003   -1.518712416734618E-025
  9.900000000000001E-003    6.339729443312199E-025
  1.000000000000000E-002    1.490695833326303E-024
  1.010000000000000E-002    2.328332236769282E-024
  1.020000000000000E-002    3.042082224718548E-024
  1.030000000000000E-002    3.522174507822429E-024
  1.040000000000000E-002    3.666226309734492E-024
  1.050000000000000E-002    3.393075115949019E-024
  1.060000000000000E-002    2.656682159757523E-024
  1.070000000000000E-002    1.458431929965767E-024
  1.080000000000000E-002   -1.439761373011020E-025
  1.090000000000000E-002   -2.032775572908003E-024
  1.100000000000000E-002   -4.032956419527216E-024
  1.110000000000000E-002   -5.922578557979160E-024
  1.120000000000000E-002   -7.450746507751151E-024
  1.130000000000000E-002   -8.362525124159729E-024
  1.140000000000000E-002   -8.429090094716673E-024
  1.150000000000000E-002   -7.480454051606172E-024
  1.160000000000000E-002   -5.437286947817543E-024
  1.170000000000000E-002   -2.337808103255381E-024
  1.180000000000000E-002    1.644441012414312E-024
  1.190000000000000E-002    6.195818041148066E-024
  1.200000000000000E-002    1.087382483534177E-023
  1.210000000000000E-002    1.513604423368716E-023
  1.220000000000000E-002    1.838660727812808E-023
  1.230000000000000E-002    2.003788350612901E-023
  1.240000000000000E-002    1.958283007446684E-023
  1.250000000000000E-002    1.667128485502242E-023
  1.260000000000000E-002    1.118177556976170E-023
  1.270000000000000E-002    3.279369069051077E-024
  1.280000000000000E-002   -6.549971392069485E-024
  1.290000000000000E-002   -1.749702465798136E-023
  1.300000000000000E-002   -2.846518434683453E-023
  1.310000000000000E-002   -3.814737630478797E-023
  1.320000000000000E-002   -4.514242923625036E-023
  1.330000000000000E-002   -4.810434400685287E-023
  1.340000000000000E-002   -4.591271136388687E-023
  1.350000000000000E-002   -3.784793503493327E-023
  1.360000000000000E-002   -2.375128809142849E-023
  1.370000000000000E-002   -4.148040939570330E-024
  1.380000000000000E-002    1.968770375666252E-023
  1.390000000000000E-002    4.574477647023650E-023
  1.400000000000000E-002    7.137586845114428E-023
  1.410000000000000E-002    9.349192390237350E-023
  1.420000000000000E-002    1.088439712535129E-022
  1.430000000000000E-002    1.143750458887153E-022
  1.440000000000000E-002    1.076134381069913E-022
  1.450000000000000E-002    8.706853403417292E-023
  1.460000000000000E-002    5.258325623925155E-023
  1.470000000000000E-002    5.594096488879501E-024
  1.480000000000000E-002   -5.074815521932216E-023
  1.490000000000000E-002   -1.116358593231769E-022
  1.500000000000000E-002   -1.708650166672479E-022
  1.510000000000000E-002   -2.213043499886601E-022
  1.520000000000000E-002   -2.555551436913918E-022
  1.530000000000000E-002   -2.667587382393975E-022
  1.540000000000000E-002   -2.494837709408625E-022
  1.550000000000000E-002   -2.006043187468174E-022
  1.560000000000000E-002   -1.200657962640363E-022
  1.570000000000000E-002   -1.143052236885251E-023
  1.580000000000000E-002    1.178980409465779E-022
  1.590000000000000E-002    2.568536350165384E-022
  1.600000000000000E-002    3.913367602385551E-022
  1.610000000000000E-002    5.053003541908974E-022
  1.620000000000000E-002    5.822447814703522E-022
  1.630000000000000E-002    6.070201985426399E-022
  1.640000000000000E-002    5.677821256629592E-022
  1.650000000000000E-002    4.579022968692907E-022
  1.660000000000000E-002    2.776088468083374E-022
  1.670000000000000E-002    3.512333688411793E-023
  1.680000000000000E-002   -2.529192946955293E-022
  1.690000000000000E-002   -5.619352299622990E-022
  1.700000000000000E-002   -8.608348414078941E-022
  1.710000000000000E-002   -1.114442245456110E-021
  1.720000000000000E-002   -1.286778366480561E-021
  1.730000000000000E-002   -1.344977354720171E-021
  1.740000000000000E-002   -1.263496157363414E-021
  1.750000000000000E-002   -1.028189843902699E-021
  1.760000000000000E-002   -6.397700261091367E-022
  1.770000000000000E-002   -1.161562034050963E-022
  1.780000000000000E-002    5.067244518014758E-022
  1.790000000000000E-002    1.176028267058033E-021
  1.800000000000000E-002    1.825158883837431E-021
  1.810000000000000E-002    2.378979184776029E-021
  1.820000000000000E-002    2.760813282837260E-021
  1.830000000000000E-002    2.900737515783983E-021
  1.840000000000000E-002    2.744435616082703E-021
  1.850000000000000E-002    2.261716473497442E-021
  1.860000000000000E-002    1.453688216114440E-021
  1.870000000000000E-002    3.575763130653438E-022