 -4.000000000000000E-002    0.000000000000000E+000
 -3.990000000000000E-002    0.000000000000000E+000
 -3.980000000000000E-002    0.000000000000000E+000
 -3.970000000000000E-002    0.000000000000000E+000
 -3.960000000000000E-002    0.000000000000000E+000
 -3.950000000000000E-002    0.000000000000000E+000
 -3.940000000000000E-002    0.000000000000000E+000
 -3.930000000000000E-002    0.000000000000000E+000
 -3.920000000000000E-002    0.000000000000000E+000
 -3.910000000000000E-002    0.000000000000000E+000
 -3.900000000000000E-002    3.405528624516427E-034
 -3.890000000000000E-002    6.610669776659881E-033
 -3.880000000000000E-002    6.664745753851142E-032
 -3.870000000000000E-002    4.641767656004608E-031
 -3.860000000000000E-002    2.506624674177220E-030
 -3.850000000000000E-002    1.116994755853623E-029
 -3.840000000000000E-002    4.269044205132940E-029
 -3.830000000000000E-002    1.436108015882535E-028
 -3.820000000000000E-002    4.330794455311646E-028
 -3.810000000000000E-002    1.186422024901217E-027
 -3.800000000000000E-002    2.981375440761869E-027
 -3.790000000000000E-002    6.920086106737478E-027
 -3.780000000000000E-002    1.490394715308922E-026
 -3.770000000000000E-002    2.985013587890753E-026
 -3.760000000000000E-002    5.556760920784725E-026
 -3.750000000000000E-002    9.572723365684863E-026
 -3.740000000000000E-002    1.509545152045892E-025
 -3.730000000000000E-002    2.125774039984935E-025
 -3.720000000000000E-002    2.510900840665658E-025
 -3.710000000000000E-002    1.971820539254787E-025
 -3.700000000000000E-002   -8.637432562314638E-026
 -3.690000000000000E-002   -8.420210149816231E-025
 -3.680000000000000E-002   -2.460343890009087E-024
 -3.670000000000000E-002   -5.518807739024333E-024
 -3.660000000000000E-002   -1.079692998130835E-023
 -3.650000000000000E-002   -1.923562472925373E-023
 -3.640000000000000E-002   -3.179301378753149E-023
 -3.630000000000000E-002   -4.913336631491522E-023
 -3.620000000000000E-002   -7.107444630362093E-023
 -3.610000000000000E-002   -9.571837839302254E-023
 -3.600000000000000E-002   -1.182119173883928E-022
 -3.590000000000000E-002   -1.291363941640694E-022
 -3.580000000000000E-002   -1.126284623208081E-022
 -3.570000000000000E-002   -4.449310059129561E-023
 -3.560000000000000E-002    1.092035564635249E-022
 -3.550000000000000E-002    3.922859241204436E-022
 -3.540000000000000E-002    8.562633150255121E-022
 -3.530000000000000E-002    1.554348707057428E-021
 -3.520000000000000E-002    2.530064919255245E-021
 -3.510000000000000E-002    3.798800534130585E-021
 -3.500000000000000E-002    5.321058584888378E-021
 -3.490000000000000E-002    6.967097104666348E-021
 -3.480000000000000E-002    8.474365212594970E-021
 -3.470000000000000E-002    9.401757300893737E-021
 -3.460000000000000E-002    9.088254380552884E-021
 -3.450000000000000E-002    6.627866289193421E-021
 -3.440000000000000E-002    8.774764193509565E-022
 -3.430000000000000E-002   -9.481541046944063E-021
 -3.420000000000000E-002   -2.580438447682775E-020
 -3.410000000000000E-002   -4.924362339214666E-020
 -3.400000000000000E-002   -8.039239463575141E-020
 -3.390000000000000E-002   -1.188052985855498E-019
 -3.380000000000000E-002   -1.624135714202002E-019
 -3.370000000000000E-002   -2.068817050242100E-019
 -3.360000000000000E-002   -2.449918523449751E-019
 -3.350000000000000E-002   -2.661872408352846E-019
 -3.340000000000000E-002   -2.564505607049642E-019
 -3.330000000000000E-002   -1.987292038174462E-019
 -3.320000000000000E-002   -7.413465971442282E-020
 -3.310000000000000E-002    1.358753188726616E-019
 -3.300000000000000E-002    4.461914062177618E-019
 -3.290000000000000E-002    8.636115960750345E-019
 -3.280000000000000E-002    1.381447776886699E-018
 -3.270000000000000E-002    1.973624000195288E-018
 -3.260000000000000E-002    2.589018652584316E-018
 -3.250000000000000E-002    3.147126122111894E-018
 -3.240000000000000E-002    3.536403637690840E-018
 -3.230000000000000E-002    3.616850569920528E-018
 -3.220000000000000E-002    3.228365564108538E-018
 -3.210000000000000E-002    2.206167948346681E-018
 -3.200000000000000E-002    4.039567398308945E-019
 -3.190000000000000E-002   -2.275496454928811E-018
 -3.180000000000000E-002   -5.843985722448297E-018
 -3.170000000000000E-002   -1.018905281444077E-017
 -3.160000000000000E-002   -1.503782826458331E-017
 -3.150000000000000E-002   -1.993033289879642E-017
 -3.140000000000000E-002   -2.421031009443672E-017
 -3.130000000000000E-002   -2.704210750299791E-017
 -3.120000000000000E-002   -2.746137408540877E-017
 -3.110000000000000E-002   -2.446507160297239E-017
 -3.100000000000000E-002   -1.714219194277533E-017
 -3.090000000000000E-002   -4.840832628900277E-018
 -3.080000000000000E-002    1.264008966706239E-017
 -3.070000000000000E-002    3.485426825619484E-017
 -3.060000000000000E-002    6.053443019153787E-017
 -3.050000000000000E-002    8.747605851802015E-017
 -3.040000000000000E-002    1.125162742290076E-016
 -3.030000000000000E-002    1.316446200232297E-016
 -3.020000000000000E-002    1.402752594604994E-016
 -3.010000000000000E-002    1.336961310331686E-016
 -3.000000000000000E-002    1.076891377548727E-016
 -2.990000000000000E-002    5.928824582233631E-017
 -2.980000000000000E-002   -1.238942908440586E-017
 -2.970000000000000E-002   -1.053361242120895E-016
 -2.960000000000000E-002   -2.139943028150518E-016
 -2.950000000000000E-002   -3.288884989661958E-016
 -2.940000000000000E-002   -4.366935797159828E-016
 -2.930000000000000E-002   -5.208666928349193E-016
 -2.920000000000000E-002   -5.629277759640753E-016
 -2.910000000000000E-002   -5.444064579525862E-016
 -2.900000000000000E-002   -4.493812650087153E-016
 -2.890000000000000E-002   -2.674317952095085E-016
 -2.880000000000000E-002    3.289806774296923E-018
 -2.870000000000000E-002    3.532627164496511E-016
 -2.860000000000000E-002    7.595489305927348E-016
 -2.850000000000000E-002    1.184993679839172E-015
 -2.840000000000000E-002    1.579144124846259E-015
 -2.830000000000000E-002    1.881246068975937E-015
 -2.820000000000000E-002    2.025489940769895E-015
 -2.810000000000000E-002    1.948411909777612E-015
 -2.800000000000000E-002    1.598031584131756E-015
 -2.790000000000000E-002    9.439522338458741E-016
 -2.780000000000000E-002   -1.268348988905219E-017
 -2.770000000000000E-002   -1.230772668643368E-015
 -2.760000000000000E-002   -2.623904474331906E-015
 -2.750000000000000E-002   -4.059613945777136E-015
 -2.740000000000000E-002   -5.364533467740735E-015
 -2.730000000000000E-002   -6.336277125810627E-015
 -2.720000000000000E-002   -6.762201930439260E-015
 -2.710000000000000E-002   -6.444306878469378E-015
 -2.700000000000000E-002   -5.228535812143864E-015
 -2.690000000000000E-002   -3.035737809094202E-015
 -2.680000000000000E-002    1.093424273540215E-016
 -2.670000000000000E-002    4.055280859188659E-015
 -2.660000000000000E-002    8.511835580744215E-015
 -2.650000000000000E-002    1.305255038408796E-014
 -2.640000000000000E-002    1.713523601148170E-014
 -2.630000000000000E-002    2.014188812380194E-014
 -2.620000000000000E-002    2.143747052442924E-014
 -2.610000000000000E-002    2.044444049179524E-014
 -2.600000000000000E-002    1.672722023765714E-014
 -2.590000000000000E-002    1.007825900818485E-014
 -2.580000000000000E-002    5.953549976341391E-016
 -2.570000000000000E-002   -1.126125449980651E-014
 -2.560000000000000E-002   -2.464340272394649E-014
 -2.550000000000000E-002   -3.833097093853308E-014
 -2.540000000000000E-002   -5.079606873937351E-014
 -2.530000000000000E-002   -6.031764556944707E-014
 -2.520000000000000E-002   -6.514299002260396E-014
 -2.510000000000000E-002   -6.368618291797599E-014
 -2.500000000000000E-002   -5.474710379944414E-014
 -2.490000000000000E-002   -3.772892666725774E-014
 -2.480000000000000E-002   -1.282803187990981E-014
 -2.470000000000000E-002    1.883143812409483E-014
 -2.460000000000000E-002    5.514464562833016E-014
 -2.450000000000000E-002    9.307616653925911E-014
 -2.440000000000000E-002    1.288262470753146E-013
 -2.430000000000000E-002    1.581149224579696E-013
 -2.420000000000000E-002    1.765722194418963E-013
 -2.410000000000000E-002    1.802080407709708E-013
 -2.400000000000000E-002    1.659216478470658E-013
 -2.390000000000000E-002    1.319991400550209E-013
 -2.380000000000000E-002    7.854017920589923E-014
 -2.370000000000000E-002    7.753535731353678E-015
 -2.360000000000000E-002   -7.593346865167416E-014
 -2.350000000000000E-002   -1.659942156949312E-013
 -2.340000000000000E-002   -2.541737348802564E-013
 -2.330000000000000E-002   -3.311093167388413E-013
 -2.320000000000000E-002   -3.871699745238835E-013
 -2.310000000000000E-002   -4.134545797866530E-013
 -2.300000000000000E-002   -4.028610505741274E-013
 -2.290000000000000E-002   -3.511188234845724E-013
 -2.280000000000000E-002   -2.576641091757416E-013
 -2.270000000000000E-002   -1.262385368328212E-013
 -2.260000000000000E-002    3.489496677745421E-014
 -2.250000000000000E-002    2.131972192229190E-013
 -2.240000000000000E-002    3.925966304121435E-013
 -2.230000000000000E-002    5.547200217353431E-013
 -2.220000000000000E-002    6.805427749141923E-013
 -2.210000000000000E-002    7.523355755758309E-013
 -2.200000000000000E-002    7.557362066174501E-013
 -2.190000000000000E-002    6.817381393042393E-013
 -2.180000000000000E-002    5.283701269353192E-013
 -2.170000000000000E-002    3.018446729241197E-013
 -2.160000000000000E-002    1.698241991602861E-014
 -2.150000000000000E-002   -3.032267235445856E-013
 -2.140000000000000E-002   -6.289899713600785E-013
 -2.130000000000000E-002   -9.259785974443698E-013
 -2.120000000000000E-002   -1.158369801740523E-012
 -2.110000000000000E-002   -1.292439203395722E-012
 -2.100000000000000E-002   -1.300395964605836E-012
 -2.090000000000000E-002   -1.164088347219460E-012
 -2.080000000000000E-002   -8.781774621352174E-013
 -2.070000000000000E-002   -4.523853276331796E-013
 -2.060000000000000E-002    8.753001389580248E-014
 -2.050000000000000E-002    7.003265055026698E-013
 -2.040000000000000E-002    1.331486012729755E-012
 -2.030000000000000E-002    1.917053884167908E-012
 -2.020000000000000E-002    2.388917105076311E-012
 -2.010000000000000E-002    2.681161456425742E-012
 -2.000000000000000E-002    2.737001693778293E-012
 -1.990000000000000E-002    2.515660113548586E-012
 -1.980000000000000E-002    1.998508388212442E-012
 -1.970000000000000E-002    1.193780273162647E-012
 -1.960000000000000E-002    1.392265385621230E-013
 -1.950000000000000E-002   -1.097788484221613E-012
 -1.940000000000000E-002   -2.423055128365358E-012
 -1.930000000000000E-002   -3.721219220054925E-012
 -1.920000000000000E-002   -4.864208085511800E-012
 -1.910000000000000E-002   -5.721895238766640E-012
 -1.900000000000000E-002   -6.174242121565020E-012
 -1.890000000000000E-002   -6.123944383134655E-012
 -1.880000000000000E-002   -5.508439896281388E-012
 -1.870000000000000E-002   -4.310074637281828E-012
 -1.860000000000000E-002   -2.563254970368044E-012
 -1.850000000000000E-002   -3.575649425034955E-013
 -1.840000000000000E-002    2.163916574770586E-012
 -1.830000000000000E-002    4.811506361233788E-012
 -1.820000000000000E-002    7.360981926384471E-012
 -1.810000000000000E-002    9.570311722071464E-012
 -1.800000000000000E-002    1.120003626168898E-011
 -1.790000000000000E-002    1.203583859810482E-011
 -1.780000000000000E-002    1.191145178350959E-011
 -1.770000000000000E-002    1.072980341954973E-011
 -1.760000000000000E-002    8.480201545724243E-012
 -1.750000000000000E-002    5.249467138050372E-012
 -1.740000000000000E-002    1.225229200497849E-012
 -1.730000000000000E-002   -3.309884973341198E-012
 -1.720000000000000E-002   -7.993734219301922E-012
 -1.710000000000000E-002   -1.240954231162119E-011
 -1.700000000000000E-002   -1.611896110522918E-011
 -1.690000000000000E-002   -1.870117539141872E-011
 -1.680000000000000E-002   -1.979503648106121E-011
 -1.670000000000000E-002   -1.914056094145155E-011
 -1.660000000000000E-002   -1.661569051441767E-011
 -1.650000000000000E-002   -1.226415561186645E-011
 -1.640000000000000E-002   -6.310631751406750E-012
 -1.630000000000000E-002    8.399039505133001E-013
 -1.620000000000000E-002    8.620505951433340E-012
 -1.610000000000000E-002    1.633869310152693E-011
 -1.600000000000000E-002    2.322963904374162E-011
 -1.590000000000000E-002    2.852292413581623E-011
 -1.580000000000000E-002    3.151788625890700E-011
 -1.570000000000000E-002    3.166111767792864E-011
 -1.560000000000000E-002    2.861859386555106E-011
 -1.550000000000000E-002    2.233454504482243E-011
 -1.540000000000000E-002    1.306947457164217E-011
 -1.530000000000000E-002    1.410960619272308E-012
 -1.520000000000000E-002   -1.174718350789620E-011
 -1.510000000000000E-002   -2.525910302923724E-011
 -1.500000000000000E-002   -3.781294931358690E-011
 -1.490000000000000E-002   -4.804384924917649E-011
 -1.480000000000000E-002   -5.466541013366574E-011
 -1.470000000000000E-002   -5.660853991378262E-011
 -1.460000000000000E-002   -5.315416695227826E-011
 -1.450000000000000E-002   -4.404551566794948E-011
 -1.440000000000000E-002   -2.956603816113938E-011
 -1.430000000000000E-002   -1.057096285425859E-011
 -1.420000000000000E-002    1.153606589708172E-011
 -1.410000000000000E-002    3.488511542605132E-011
 -1.400000000000000E-002    5.727898979752305E-011
 -1.390000000000000E-002    7.638115689091196E-011
 -1.380000000000000E-002    8.993855393044618E-011
 -1.370000000000000E-002    9.602007249566518E-011
 -1.360000000000000E-002    9.324770728256262E-011
 -1.350000000000000E-002    8.099565692754142E-011
 -1.340000000000000E-002    5.953331881227468E-011
 -1.330000000000000E-002    3.009140375859950E-011
 -1.320000000000000E-002   -5.163816710157096E-012
 -1.310000000000000E-002   -4.325497631730548E-011
 -1.300000000000000E-002   -8.061417212430101E-011
 -1.290000000000000E-002   -1.133866239597446E-010
 -1.280000000000000E-002   -1.377944334549570E-010
 -1.270000000000000E-002   -1.505289099095629E-010
 -1.260000000000000E-002   -1.491337592121479E-010
 -1.250000000000000E-002   -1.323388167840861E-010
 -1.240000000000000E-002   -1.003049935823435E-010
 -1.230000000000000E-002   -5.474688165958821E-011
 -1.220000000000000E-002    1.091291680030397E-012
 -1.210000000000000E-002    6.261754180599057E-011
 -1.200000000000000E-002    1.242277619721370E-010
 -1.190000000000000E-002    1.797747727144504E-010
 -1.180000000000000E-002    2.231348006377847E-010
 -1.170000000000000E-002    2.488221661968110E-010
 -1.160000000000000E-002    2.525937537412983E-010
 -1.150000000000000E-002    2.319807923230280E-010
 -1.140000000000000E-002    1.866877342062778E-010
 -1.130000000000000E-002    1.188067233223752E-010
 -1.120000000000000E-002    3.281070651632964E-011
 -1.110000000000000E-002   -6.469192160531736E-011
 -1.100000000000000E-002   -1.654352809558976E-010
 -1.090000000000000E-002   -2.601763640765959E-010
 -1.080000000000000E-002   -3.395247644398156E-010
 -1.070000000000000E-002   -3.948492863493909E-010
 -1.060000000000000E-002   -4.191758396668446E-010
 -1.050000000000000E-002   -4.079858345278637E-010
 -1.040000000000000E-002   -3.598274207235526E-010
 -1.030000000000000E-002   -2.766652775521777E-010
 -1.020000000000000E-002   -1.639156759372073E-010
 -1.010000000000000E-002   -3.014217149838423E-011
 -1.000000000000000E-002    1.135803408695411E-010
 -9.899999999999999E-003    2.545908735145594E-010
 -9.800000000000000E-003    3.797828376928693E-010
 -9.699999999999999E-003    4.768588739974209E-010
 -9.599999999999999E-003    5.355812715004425E-010
 -9.500000000000000E-003    5.488920716911045E-010
 -9.399999999999999E-003    5.137824812459536E-010
 -9.299999999999999E-003    4.318088579242739E-010
 -9.200000000000000E-003    3.091826174244087E-010
 -9.099999999999999E-003    1.563993511626000E-010
 -8.999999999999999E-003   -1.258248235848867E-011
 -8.900000000000000E-003   -1.815571226222556E-010
 -8.799999999999999E-003   -3.335820157773690E-010
 -8.699999999999999E-003   -4.526483668891315E-010
 -8.600000000000000E-003   -5.253529150476753E-010
 -8.499999999999999E-003   -5.424027987801927E-010
 -8.399999999999999E-003   -4.997919381709732E-010
 -8.300000000000000E-003   -3.995122265038792E-010
 -8.199999999999999E-003   -2.496999789870373E-010
 -8.100000000000000E-003   -6.417009872953685E-011
 -8.000000000000000E-003    1.386514722892903E-010
 -7.899999999999999E-003    3.373260887328279E-010
 -7.800000000000000E-003    5.094032007770794E-010
 -7.699999999999999E-003    6.336485289124264E-010
 -7.599999999999999E-003    6.922914465991155E-010
 -7.499999999999999E-003    6.730695836564567E-010
 -7.399999999999999E-003    5.708565494516601E-010
 -7.299999999999999E-003    3.886859407421027E-010
 -7.199999999999999E-003    1.380349830963393E-010
 -7.100000000000000E-003   -1.617058585150160E-010
 -6.999999999999999E-003   -4.845749653112209E-010
 -6.899999999999999E-003   -8.001129395845436E-010
 -6.800000000000000E-003   -1.076010726754412E-009
 -6.699999999999999E-003   -1.281112342109784E-009
 -6.599999999999999E-003   -1.388504763349483E-009
 -6.499999999999999E-003   -1.378404623769541E-009
 -6.399999999999999E-003   -1.240553932711302E-009
 -6.299999999999999E-003   -9.758679480057815E-010
 -6.199999999999999E-003   -5.971343573117238E-010
 -6.100000000000000E-003   -1.286413739983783E-010
 -5.999999999999999E-003    3.952928505353424E-010
 -5.899999999999999E-003    9.328163319012815E-010
 -5.800000000000000E-003    1.437890872858289E-009
 -5.699999999999999E-003    1.864228412829445E-009
 -5.599999999999999E-003    2.169484095746977E-009
 -5.499999999999999E-003    2.319332842676796E-009
 -5.399999999999999E-003    2.291044960784795E-009
 -5.299999999999999E-003    2.076205843217718E-009
 -5.199999999999999E-003    1.682281357294132E-009
 -5.099999999999999E-003    1.132824391655203E-009
 -4.999999999999999E-003    4.662313987404985E-010
 -4.899999999999999E-003   -2.669126572120933E-010
 -4.799999999999999E-003   -1.007730627757040E-009
 -4.699999999999999E-003   -1.693897695578130E-009
 -4.599999999999999E-003   -2.265037477030340E-009
 -4.499999999999999E-003   -2.668204596270500E-009
 -4.399999999999999E-003   -2.862954887462499E-009
 -4.299999999999999E-003   -2.825519618486194E-009
 -4.199999999999999E-003   -2.551657894754537E-009
 -4.099999999999999E-003   -2.057863913699134E-009
 -3.999999999999999E-003   -1.380740653673297E-009
 -3.899999999999999E-003   -5.745135557355818E-010
 -3.799999999999999E-003    2.931707222523144E-010
 -3.699999999999999E-003    1.146850895533899E-009
 -3.599999999999999E-003    1.909805667092005E-009
 -3.499999999999999E-003    2.510990691102349E-009
 -3.399999999999999E-003    2.891731121075300E-009
 -3.299999999999999E-003    3.011535442916459E-009
 -3.199999999999999E-003    2.852451409634184E-009
 -3.099999999999999E-003    2.421497388776718E-009
 -2.999999999999999E-003    1.750861405332448E-009
 -2.899999999999999E-003    8.957613681040301E-010
 -2.799999999999999E-003   -6.992264172475235E-011
 -2.699999999999999E-003   -1.059916693070931E-009
 -2.599999999999999E-003   -1.983193044491378E-009
 -2.499999999999999E-003   -2.752303895179634E-009
 -2.399999999999999E-003   -3.291629839823747E-009
 -2.299999999999999E-003   -3.544738013452355E-009
 -2.199999999999999E-003   -3.480101424876748E-009
 -2.099999999999999E-003   -3.094557447906309E-009
 -1.999999999999999E-003   -2.414077699132744E-009
 -1.899999999999999E-003   -1.491671831652861E-009
 -1.799999999999999E-003   -4.025271195816732E-010
 -1.699999999999999E-003    7.632352672796902E-010
 -1.599999999999999E-003    1.909547076188418E-009
 -1.499999999999999E-003    2.944275423672197E-009
 -1.399999999999999E-003    3.789022275543584E-009
 -1.299999999999999E-003    4.387820222164533E-009
 -1.199999999999999E-003    4.713766068189869E-009
 -1.099999999999999E-003    4.772792335870563E-009
 -9.999999999999989E-004    4.604030227107272E-009
 -8.999999999999990E-004    4.276528664734870E-009
 -7.999999999999990E-004    3.882466921022677E-009
 -6.999999999999989E-004    3.527352299193867E-009
 -5.999999999999990E-004    3.318042719013304E-009
 -4.999999999999989E-004    3.349700082041694E-009
 -3.999999999999989E-004    3.692960206867521E-009
 -2.999999999999989E-004    4.382664672053081E-009
 -1.999999999999989E-004    5.409428775787053E-009
 -9.999999999999892E-005    6.715112575622074E-009
  1.084202172485504E-018    8.192953409569137E-009
  1.000000000000011E-004    9.692697529624482E-009
  2.000000000000011E-004    1.103061426740440E-008
  3.000000000000011E-004    1.200378425346307E-008
  4.000000000000011E-004    1.240763410588060E-008
  5.000000000000011E-004    1.205529979159011E-008
  6.000000000000011E-004    1.079717778287809E-008
  7.000000000000011E-004    8.538914130224032E-009
  8.000000000000011E-004    5.256156289511463E-009
  9.000000000000012E-004    1.004618086813444E-009
  1.000000000000001E-003   -4.075606550371341E-009
  1.100000000000001E-003   -9.762055237584669E-009
  1.200000000000001E-003   -1.575822415242537E-008
  1.300000000000001E-003   -2.170762751764593E-008
  1.400000000000001E-003   -2.721243191129399E-008
  1.500000000000001E-003   -3.185504148054227E-008
  1.600000000000001E-003   -3.522070523270978E-008
  1.700000000000001E-003   -3.691902661939576E-008
  1.800000000000001E-003   -3.660232116528279E-008
  1.900000000000001E-003   -3.397901206023460E-008
  2.000000000000001E-003   -2.882065054052120E-008
  2.100000000000001E-003   -2.096171985835370E-008
  2.200000000000001E-003   -1.029204172847627E-008
  2.300000000000001E-003    3.257656773521737E-009
  2.400000000000001E-003    1.973590560215316E-008
  2.500000000000001E-003    3.919459911710590E-008
  2.600000000000001E-003    6.171486452655140E-008
  2.700000000000001E-003    8.743237614756436E-008
  2.800000000000001E-003    1.165595973504255E-007
  2.900000000000001E-003    1.494029756317128E-007
  3.000000000000001E-003    1.863732242704253E-007
  3.100000000000001E-003    2.279876753832878E-007
  3.200000000000001E-003    2.748642319276877E-007
  3.300000000000001E-003    3.277074346932145E-007
  3.400000000000001E-003    3.872877105113415E-007
  3.500000000000001E-003    4.544157248172335E-007
  3.600000000000001E-003    5.299141345721917E-007
  3.700000000000001E-003    6.145893836692120E-007
  3.800000000000001E-003    7.092063351598023E-007
  3.900000000000001E-003    8.144679383565931E-007
  4.000000000000001E-003    9.310026914272140E-007
  4.100000000000001E-003    1.059360243619414E-006
  4.200000000000001E-003    1.200017035151105E-006
  4.300000000000001E-003    1.353390942257478E-006
  4.400000000000001E-003    1.519863462431871E-006
  4.500000000000001E-003    1.699809318314366E-006
  4.600000000000002E-003    1.893628804570847E-006
  4.700000000000001E-003    2.101781850525366E-006
  4.800000000000001E-003    2.324819529013685E-006
  4.900000000000002E-003    2.563410796818530E-006
  5.000000000000001E-003    2.818362285232462E-006
  5.100000000000001E-003    3.090628961479382E-006
  5.200000000000001E-003    3.381314309375646E-006
  5.300000000000002E-003    3.691660739906819E-006
  5.400000000000001E-003    4.023031406116360E-006
  5.500000000000001E-003    4.376884304188027E-006
  5.600000000000002E-003    4.754743432857120E-006
  5.700000000000001E-003    5.158166149498956E-006
  5.800000000000001E-003    5.588715523144809E-006
  5.900000000000002E-003    6.047934889334053E-006
  6.000000000000001E-003    6.537334340847282E-006
  6.100000000000001E-003    7.058384895884570E-006
  6.200000000000002E-003    7.612524825851646E-006
  6.300000000000002E-003    8.201181470114585E-006
  6.400000000000001E-003    8.825798488480493E-006
  6.500000000000001E-003    9.487877280435985E-006
  6.600000000000002E-003    1.018902305423372E-005
  6.700000000000001E-003    1.093099296466741E-005
  6.800000000000001E-003    1.171574535594709E-005
  6.900000000000002E-003    1.254548064321632E-005
  7.000000000000001E-003    1.342267840909151E-005
  7.100000000000001E-003    1.435011642267854E-005
  7.200000000000002E-003    1.533088157894881E-005
  7.300000000000002E-003    1.636836423987271E-005
  7.400000000000001E-003    1.746624116437405E-005
  7.500000000000001E-003    1.862844327390218E-005
  7.600000000000002E-003    1.985911557461890E-005
  7.700000000000001E-003    2.116257541754818E-005
  7.800000000000001E-003    2.254327097087093E-005
  7.900000000000001E-003    2.400573506513000E-005
  8.000000000000002E-003    2.555456473693994E-005
  8.100000000000001E-003    2.719439728262286E-005
  8.200000000000001E-003    2.892991069083821E-005
  8.300000000000002E-003    3.076584001740045E-005
  8.400000000000001E-003    3.270701380606965E-005
  8.500000000000002E-003    3.475839231710516E-005
  8.600000000000002E-003    3.692513507972351E-005
  8.700000000000001E-003    3.921266800457253E-005
  8.800000000000002E-003    4.162675020147686E-005
  8.900000000000002E-003    4.417354439001524E-005
  9.000000000000001E-003    4.685967176099231E-005
  9.100000000000002E-003    4.969226421637228E-005
  9.200000000000002E-003    5.267899641933242E-005
  9.300000000000001E-003    5.582809550187769E-005
  9.400000000000002E-003    5.914833699656973E-005
  9.500000000000001E-003    6.264903689722811E-005
  9.600000000000001E-003    6.633999030015072E-005
  9.700000000000002E-003    7.023146055525527E-005
  9.800000000000001E-003    7.433410733835497E-005
  9.900000000000001E-003    7.865896818212728E-005
  1.000000000000000E-002    8.321740950798305E-005
  1.010000000000000E-002    8.802111539243414E-005
  1.020000000000000E-002    9.308208474520146E-005
  1.030000000000000E-002    9.841264817583297E-005
  1.040000000000000E-002    1.040255105363926E-004
  1.050000000000000E-002    1.099338294517563E-004
  1.060000000000000E-002    1.161512628762580E-004
  1.070000000000000E-002    1.226920916815715E-004
  1.080000000000000E-002    1.295712821033959E-004
  1.090000000000000E-002    1.368045998870776E-004
  1.100000000000000E-002    1.444086914243708E-004
  1.110000000000000E-002    1.524011603038800E-004
  1.120000000000000E-002    1.608006034232786E-004
  1.130000000000000E-002    1.696266565465353E-004
  1.140000000000000E-002    1.788999932273520E-004
  1.150000000000000E-002    1.886423132074899E-004
  1.160000000000000E-002    1.988763045806966E-004
  1.170000000000000E-002    2.096256167777919E-004
  1.180000000000000E-002    2.209148019376436E-004
  1.190000000000000E-002    2.327692543288534E-004
  1.200000000000000E-002    2.452151680977750E-004
  1.210000000000000E-002    2.582795592591439E-004
  1.220000000000000E-002    2.719901736300793E-004
  1.230000000000000E-002    2.863755975055292E-004
  1.240000000000000E-002    3.014652483121568E-004
  1.250000000000000E-002    3.172894479240980E-004
  1.260000000000000E-002    3.338795525141477E-004
  1.270000000000000E-002    3.512680310432863E-004
  1.280000000000000E-002    3.694886448302929E-004
  1.290000000000000E-002    3.885764641017664E-004
  1.300000000000000E-002    4.085681019138887E-004
  1.310000000000000E-002    4.295017481190591E-004
  1.320000000000000E-002    4.514172871285694E-004
  1.330000000000000E-002    4.743563470957499E-004
  1.340000000000000E-002    4.983623206787922E-004
  1.350000000000000E-002    5.234804982254870E-004
  1.360000000000000E-002    5.497578540487084E-004
  1.370000000000000E-002    5.772432052465237E-004
  1.380000000000000E-002    6.059871175485786E-004
  1.390000000000000E-002    6.360417877898603E-004
  1.400000000000000E-002    6.674611136765488E-004
  1.410000000000000E-002    7.003005629929048E-004
  1.420000000000000E-002    7.346172429962131E-004
  1.430000000000000E-002    7.704699178855286E-004
  1.440000000000000E-002    8.079190217856928E-004
  1.450000000000000E-002    8.470266669514382E-004
  1.460000000000000E-002    8.878568233504390E-004
  1.470000000000000E-002    9.304754331969896E-004
  1.480000000000000E-002    9.749505198830117E-004
  1.490000000000000E-002    1.021352219178832E-003
  1.500000000000000E-002    1.069752929982848E-003
  1.510000000000000E-002    1.120227738059601E-003
  1.520000000000000E-002    1.172853967568199E-003
  1.530000000000000E-002    1.227711898592569E-003
  1.540000000000000E-002    1.284884132458104E-003
  1.550000000000000E-002    1.344456299912685E-003
  1.560000000000000E-002    1.406516494239201E-003
  1.570000000000000E-002    1.471155618137308E-003
  1.580000000000000E-002    1.538467236592435E-003
  1.590000000000000E-002    1.608547424986411E-003
  1.600000000000000E-002    1.681494985017232E-003
  1.610000000000000E-002    1.757411038006071E-003
  1.620000000000000E-002    1.836399353682805E-003
  1.630000000000000E-002    1.918566196467350E-003
  1.640000000000000E-002    2.004020036424740E-003
  1.650000000000000E-002    2.092872570774995E-003
  1.660000000000000E-002    2.185237315992557E-003
  1.670000000000000E-002    2.281231124038950E-003
  1.680000000000000E-002    2.380973301405780E-003
  1.690000000000000E-002    2.484586189569441E-003
  1.700000000000000E-002    2.592195428137265E-003
  1.710000000000000E-002    2.703929331829461E-003
  1.720000000000000E-002    2.819920072441081E-003
  1.730000000000000E-002    2.940302518127837E-003
  1.740000000000000E-002    3.065215571979852E-003
  1.750000000000000E-002    3.194800862093841E-003
  1.760000000000000E-002    3.329203906710704E-003
  1.770000000000000E-002    3.468573203155327E-003
  1.780000000000000E-002    3.613060445067728E-003
  1.790000000000000E-002    3.762820680293330E-003
  1.800000000000000E-002    3.918011693045646E-003
  1.810000000000000E-002    4.078794490087623E-003
  1.820000000000000E-002    4.245332623717813E-003
  1.830000000000000E-002    4.417792588009105E-003
  1.840000000000000E-002    4.596343553285383E-003
  1.850000000000000E-002    4.781156992363049E-003
  1.860000000000000E-002    4.972407197338337E-003
  1.870000000000000E-002    5.170271109912598E-003