 -4.000000000000000E-002    0.000000000000000E+000
 -3.990000000000000E-002    0.000000000000000E+000
 -3.980000000000000E-002    0.000000000000000E+000
 -3.970000000000000E-002    0.000000000000000E+000
 -3.960000000000000E-002    0.000000000000000E+000
 -3.950000000000000E-002    0.000000000000000E+000
 -3.940000000000000E-002    0.000000000000000E+000
 -3.930000000000000E-002    0.000000000000000E+000
 -3.920000000000000E-002    0.000000000000000E+000
 -3.910000000000000E-002    0.000000000000000E+000
 -3.900000000000000E-002    0.000000000000000E+000
 -3.890000000000000E-002    0.000000000000000E+000
 -3.880000000000000E-002    0.000000000000000E+000
 -3.870000000000000E-002    0.000000000000000E+000
 -3.860000000000000E-002    0.000000000000000E+000
 -3.850000000000000E-002    0.000000000000000E+000
 -3.840000000000000E-002    0.000000000000000E+000
 -3.830000000000000E-002    0.000000000000000E+000
 -3.820000000000000E-002    0.000000000000000E+000
 -3.810000000000000E-002    0.000000000000000E+000
 -3.800000000000000E-002    0.000000000000000E+000
 -3.790000000000000E-002    0.000000000000000E+000
 -3.780000000000000E-002    0.000000000000000E+000
 -3.770000000000000E-002    0.000000000000000E+000
 -3.760000000000000E-002    0.000000000000000E+000
 -3.750000000000000E-002    0.000000000000000E+000
 -3.740000000000000E-002    0.000000000000000E+000
 -3.730000000000000E-002    0.000000000000000E+000
 -3.720000000000000E-002    0.000000000000000E+000
 -3.710000000000000E-002    0.000000000000000E+000
 -3.700000000000000E-002    0.000000000000000E+000
 -3.690000000000000E-002    0.000000000000000E+000
 -3.680000000000000E-002    0.000000000000000E+000
 -3.670000000000000E-002    0.000000000000000E+000
 -3.660000000000000E-002    0.000000000000000E+000
 -3.650000000000000E-002    0.000000000000000E+000
 -3.640000000000000E-002    0.000000000000000E+000
 -3.630000000000000E-002    0.000000000000000E+000
 -3.620000000000000E-002    0.000000000000000E+000
 -3.610000000000000E-002    0.000000000000000E+000
 -3.600000000000000E-002    0.000000000000000E+000
 -3.590000000000000E-002    0.000000000000000E+000
 -3.580000000000000E-002    0.000000000000000E+000
 -3.570000000000000E-002    0.000000000000000E+000
 -3.560000000000000E-002    0.000000000000000E+000
 -3.550000000000000E-002    0.000000000000000E+000
 -3.540000000000000E-002    0.000000000000000E+000
 -3.530000000000000E-002    0.000000000000000E+000
 -3.520000000000000E-002    0.000000000000000E+000
 -3.510000000000000E-002    0.000000000000000E+000
 -3.500000000000000E-002    0.000000000000000E+000
 -3.490000000000000E-002    0.000000000000000E+000
 -3.480000000000000E-002    0.000000000000000E+000
 -3.470000000000000E-002    0.000000000000000E+000
 -3.460000000000000E-002    0.000000000000000E+000
 -3.450000000000000E-002    0.000000000000000E+000
 -3.440000000000000E-002    0.000000000000000E+000
 -3.430000000000000E-002    0.000000000000000E+000
 -3.420000000000000E-002    0.000000000000000E+000
 -3.410000000000000E-002    0.000000000000000E+000
 -3.400000000000000E-002    0.000000000000000E+000
 -3.390000000000000E-002    0.000000000000000E+000
 -3.380000000000000E-002    0.000000000000000E+000
 -3.370000000000000E-002    0.000000000000000E+000
 -3.360000000000000E-002    0.000000000000000E+000
 -3.350000000000000E-002    0.000000000000000E+000
 -3.340000000000000E-002    0.000000000000000E+000
 -3.330000000000000E-002    0.000000000000000E+000
 -3.320000000000000E-002    0.000000000000000E+000
 -3.310000000000000E-002    0.000000000000000E+000
 -3.300000000000000E-002    0.000000000000000E+000
 -3.290000000000000E-002   -2.087933852015265E-047
 -3.280000000000000E-002   -1.705786797132627E-046
 -3.270000000000000E-002   -4.114517595805318E-046
 -3.260000000000000E-002   -8.175952128232116E-046
 -3.250000000000000E-002   -1.373438007259001E-045
 -3.240000000000000E-002   -2.164845575224208E-045
 -3.230000000000000E-002   -3.219201454873182E-045
 -3.220000000000000E-002   -4.272915661665149E-045
 -3.210000000000000E-002   -4.163670130608373E-045
 -3.200000000000000E-002   -2.346650127816480E-045
 -3.190000000000000E-002    2.353335643915614E-045
 -3.180000000000000E-002    1.441797013489119E-044
 -3.170000000000000E-002    3.841233738134007E-044
 -3.160000000000000E-002    8.144001645086403E-044
 -3.150000000000000E-002    1.516054928458998E-043
 -3.140000000000000E-002    2.553850997474829E-043
 -3.130000000000000E-002    3.969196564426412E-043
 -3.120000000000000E-002    5.687535383593095E-043
 -3.110000000000000E-002    7.419955542413895E-043
 -3.100000000000000E-002    8.471403695661707E-043
 -3.090000000000000E-002    7.551402994254777E-043
 -3.080000000000000E-002    2.486753764762134E-043
 -3.070000000000000E-002   -1.001889902633733E-042
 -3.060000000000000E-002   -3.454841831668085E-042
 -3.050000000000000E-002   -7.678040607786699E-042
 -3.040000000000000E-002   -1.427848303266337E-041
 -3.030000000000000E-002   -2.373285973492850E-041
 -3.020000000000000E-002   -3.607823966817859E-041
 -3.010000000000000E-002   -5.040695716873890E-041
 -3.000000000000000E-002   -6.413348591449878E-041
 -2.990000000000000E-002   -7.203041435142598E-041
 -2.980000000000000E-002   -6.510482128248002E-041
 -2.970000000000000E-002   -2.950453430868229E-041
 -2.960000000000000E-002    5.416067958610368E-041
 -2.950000000000000E-002    2.104767960085239E-040
 -2.940000000000000E-002    4.669456777265623E-040
 -2.930000000000000E-002    8.485937683875412E-040
 -2.920000000000000E-002    1.368089718701668E-039
 -2.910000000000000E-002    2.010015279215798E-039
 -2.900000000000000E-002    2.708417469608799E-039
 -2.890000000000000E-002    3.317852998947528E-039
 -2.880000000000000E-002    3.580196289162145E-039
 -2.870000000000000E-002    3.092670835599869E-039
 -2.860000000000000E-002    1.286995333747227E-039
 -2.850000000000000E-002   -2.564911743266054E-039
 -2.840000000000000E-002   -9.297209760632405E-039
 -2.830000000000000E-002   -1.972160037188013E-038
 -2.820000000000000E-002   -3.439452859380497E-038
 -2.810000000000000E-002   -5.325359504252258E-038
 -2.800000000000000E-002   -7.510878257045250E-038
 -2.790000000000000E-002   -9.699956692426562E-038
 -2.780000000000000E-002   -1.134718054027110E-037
 -2.770000000000000E-002   -1.158909732451132E-037
 -2.760000000000000E-002   -9.199018134584651E-038
 -2.750000000000000E-002   -2.594726064725043E-038
 -2.740000000000000E-002    1.006188555560634E-037
 -2.730000000000000E-002    3.062687532955024E-037
 -2.720000000000000E-002    6.054995773994844E-037
 -2.710000000000000E-002    1.002243666707261E-036
 -2.700000000000000E-002    1.480953819937973E-036
 -2.690000000000000E-002    1.995568425595194E-036
 -2.680000000000000E-002    2.457349732097717E-036
 -2.670000000000000E-002    2.723548928424967E-036
 -2.660000000000000E-002    2.590038683209539E-036
 -2.650000000000000E-002    1.792347516836371E-036
 -2.640000000000000E-002    2.071435868695671E-038
 -2.630000000000000E-002   -3.044487659162586E-036
 -2.620000000000000E-002   -7.670784170001005E-036
 -2.610000000000000E-002   -1.398055858371891E-035
 -2.600000000000000E-002   -2.182611294592421E-035
 -2.590000000000000E-002   -3.063829772230869E-035
 -2.580000000000000E-002   -3.926334018196983E-035
 -2.570000000000000E-002   -4.581441758198981E-035
 -2.560000000000000E-002   -4.757832787137523E-035
 -2.550000000000000E-002   -4.103161682930846E-035
 -2.540000000000000E-002   -2.203193808494411E-035
 -2.530000000000000E-002    1.374480946508297E-035
 -2.520000000000000E-002    7.005777856865800E-035
 -2.510000000000000E-002    1.490050196044178E-034
 -2.500000000000000E-002    2.495841594859429E-034
 -2.490000000000000E-002    3.659886393673943E-034
 -2.480000000000000E-002    4.858172642651050E-034
 -2.470000000000000E-002    5.884963263919266E-034
 -2.460000000000000E-002    6.443460165063626E-034
 -2.450000000000000E-002    6.148457744630283E-034
 -2.440000000000000E-002    4.547386461207073E-034
 -2.430000000000000E-002    1.166217179617508E-034
 -2.420000000000000E-002   -4.414419042916286E-034
 -2.410000000000000E-002   -1.245033202721308E-033
 -2.400000000000000E-002   -2.289432185095742E-033
 -2.390000000000000E-002   -3.523539760593711E-033
 -2.380000000000000E-002   -4.833488430800570E-033
 -2.370000000000000E-002   -6.028808620110899E-033
 -2.360000000000000E-002   -6.835067407668833E-033
 -2.350000000000000E-002   -6.897786976368120E-033
 -2.340000000000000E-002   -5.802898259683792E-033
 -2.330000000000000E-002   -3.118699020468554E-033
 -2.320000000000000E-002    1.537058292004970E-033
 -2.310000000000000E-002    8.404018860491930E-033
 -2.300000000000000E-002    1.746333642515971E-032
 -2.290000000000000E-002    2.830812001955863E-032
 -2.280000000000000E-002    4.001631832489921E-032
 -2.270000000000000E-002    5.104971430688050E-032
 -2.260000000000000E-002    5.920982664083397E-032
 -2.250000000000000E-002    6.168651585345693E-032
 -2.240000000000000E-002    5.523626020599752E-032
 -2.230000000000000E-002    3.652215341523569E-032
 -2.220000000000000E-002    2.634770567824200E-033
 -2.210000000000000E-002   -4.820930356890301E-032
 -2.200000000000000E-002   -1.158269810214167E-031
 -2.190000000000000E-002   -1.971632555083489E-031
 -2.180000000000000E-002   -2.854451855114402E-031
 -2.170000000000000E-002   -3.695672810534263E-031
 -2.160000000000000E-002   -4.339197795969318E-031
 -2.150000000000000E-002   -4.588929730437529E-031
 -2.140000000000000E-002   -4.222815436253966E-031
 -2.130000000000000E-002   -3.017612012096299E-031
 -2.120000000000000E-002   -7.850666400148869E-032
 -2.110000000000000E-002    2.581430543778982E-031
 -2.100000000000000E-002    7.052834316610227E-031
 -2.090000000000000E-002    1.240880036423009E-030
 -2.080000000000000E-002    1.818892591240945E-030
 -2.070000000000000E-002    2.366196288526819E-030
 -2.060000000000000E-002    2.782590779399425E-030
 -2.050000000000000E-002    2.945231430114766E-030
 -2.040000000000000E-002    2.718657625856696E-030
 -2.030000000000000E-002    1.971170815538819E-030
 -2.020000000000000E-002    5.975866806457441E-031
 -2.010000000000000E-002   -1.452650668834501E-030
 -2.000000000000000E-002   -4.144305415123718E-030
 -1.990000000000000E-002   -7.325918676627739E-030
 -1.980000000000000E-002   -1.070533182987406E-029
 -1.970000000000000E-002   -1.383758557193730E-029
 -1.960000000000000E-002   -1.613223253533669E-029
 -1.950000000000000E-002   -1.688684230745504E-029
 -1.940000000000000E-002   -1.535201337450215E-029
 -1.930000000000000E-002   -1.083025514932114E-029
 -1.920000000000000E-002   -2.806664198959375E-030
 -1.910000000000000E-002    8.896650600740072E-030
 -1.900000000000000E-002    2.395738749805276E-029
 -1.890000000000000E-002    4.140347575009758E-029
 -1.880000000000000E-002    5.950606064021710E-029
 -1.870000000000000E-002    7.574866286558767E-029
 -1.860000000000000E-002    8.690711439894086E-029
 -1.850000000000000E-002    8.927090733081648E-029
 -1.840000000000000E-002    7.902611002824083E-029
 -1.830000000000000E-002    5.280250528973810E-029
 -1.820000000000000E-002    8.362772331160452E-030
 -1.810000000000000E-002   -5.461881718423232E-029
 -1.800000000000000E-002   -1.337746949744215E-028
 -1.790000000000000E-002   -2.233786130156274E-028
 -1.780000000000000E-002   -3.139428185752189E-028
 -1.770000000000000E-002   -3.922375345708501E-028
 -1.760000000000000E-002   -4.418870215102992E-028
 -1.750000000000000E-002   -4.446647545712004E-028
 -1.740000000000000E-002   -3.825479002111026E-028
 -1.730000000000000E-002   -2.404977834272359E-028
 -1.720000000000000E-002   -9.809766076901967E-030
 -1.710000000000000E-002    3.082664733496593E-028
 -1.700000000000000E-002    6.990839755369333E-028
 -1.690000000000000E-002    1.131913294918715E-027
 -1.680000000000000E-002    1.558688758895042E-027
 -1.670000000000000E-002    1.914880842521805E-027
 -1.660000000000000E-002    2.123117630860464E-027
 -1.650000000000000E-002    2.099983177626529E-027
 -1.640000000000000E-002    1.766096819337864E-027
 -1.630000000000000E-002    1.059125468180517E-027
 -1.620000000000000E-002   -5.117476338655561E-029
 -1.610000000000000E-002   -1.547400494950498E-027
 -1.600000000000000E-002   -3.350531944574974E-027
 -1.590000000000000E-002   -5.310139225545414E-027
 -1.580000000000000E-002   -7.201608685353327E-027
 -1.570000000000000E-002   -8.733159576952864E-027
 -1.560000000000000E-002   -9.564922187592994E-027
 -1.550000000000000E-002   -9.341331197959014E-027
 -1.540000000000000E-002   -7.736580944714222E-027
 -1.530000000000000E-002   -4.510897981460883E-027
 -1.520000000000000E-002    4.269070440566495E-028
 -1.510000000000000E-002    6.957533656553672E-027
 -1.500000000000000E-002    1.469900823269309E-026
 -1.490000000000000E-002    2.297481324068613E-026
 -1.480000000000000E-002    3.081342375748105E-026
 -1.470000000000000E-002    3.698935941547596E-026
 -1.460000000000000E-002    4.011315174636656E-026
 -1.450000000000000E-002    3.877299289023462E-026
 -1.440000000000000E-002    3.172434625283596E-026
 -1.430000000000000E-002    1.811582496128605E-026
 -1.420000000000000E-002   -2.269118599666409E-027
 -1.410000000000000E-002   -2.878371329476471E-026
 -1.400000000000000E-002   -5.973869065930332E-026
 -1.390000000000000E-002   -9.231259860657339E-026
 -1.380000000000000E-002   -1.225915235333334E-025
 -1.370000000000000E-002   -1.457719768489345E-025
 -1.360000000000000E-002   -1.565482834471606E-025
 -1.350000000000000E-002   -1.496861838123504E-025
 -1.340000000000000E-002   -1.207591689159375E-025
 -1.330000000000000E-002   -6.699424360074685E-026
 -1.320000000000000E-002    1.185686153029307E-026
 -1.310000000000000E-002    1.127336418464161E-025
 -1.300000000000000E-002    2.287030466401213E-025
 -1.290000000000000E-002    3.487578058494738E-025
 -1.280000000000000E-002    4.581100303791243E-025
 -1.270000000000000E-002    5.390829515872914E-025
 -1.260000000000000E-002    5.726521534687050E-025
 -1.250000000000000E-002    5.406126061972232E-025
 -1.240000000000000E-002    4.282557103406873E-025
 -1.230000000000000E-002    2.273382646472815E-025
 -1.220000000000000E-002   -6.097590631800894E-026
 -1.210000000000000E-002   -4.236069541875317E-025
 -1.200000000000000E-002   -8.339422238273485E-025
 -1.190000000000000E-002   -1.251577935460133E-024
 -1.180000000000000E-002   -1.623830843097847E-024
 -1.170000000000000E-002   -1.889306318828359E-024
 -1.160000000000000E-002   -1.983608499820772E-024
 -1.150000000000000E-002   -1.847017338095399E-024
 -1.140000000000000E-002   -1.433640409258514E-024
 -1.130000000000000E-002   -7.212216465177463E-025
 -1.120000000000000E-002    2.795204928796216E-025
 -1.110000000000000E-002    1.517393216136025E-024
 -1.100000000000000E-002    2.896549890445914E-024
 -1.090000000000000E-002    4.277068118793981E-024
 -1.080000000000000E-002    5.481467988201361E-024
 -1.070000000000000E-002    6.307869911245631E-024
 -1.060000000000000E-002    6.549804567773436E-024
 -1.050000000000000E-002    6.021802058898477E-024
 -1.040000000000000E-002    4.588900895007205E-024
 -1.030000000000000E-002    2.197228073985615E-024
 -1.020000000000000E-002   -1.098078638261293E-024
 -1.010000000000000E-002   -5.111930189565066E-024
 -1.000000000000000E-002   -9.519829936491838E-024
 -9.899999999999999E-003   -1.386404784956113E-023
 -9.800000000000000E-003   -1.757855338797934E-023
 -9.699999999999999E-003   -2.003418771522689E-023
 -9.599999999999999E-003   -2.060326790148097E-023
 -9.500000000000000E-003   -1.874009086341160E-023
 -9.399999999999999E-003   -1.407088305371596E-023
 -9.299999999999999E-003   -6.483900341131860E-024
 -9.200000000000000E-003    3.791870863419897E-024
 -9.099999999999999E-003    1.613233269340785E-023
 -8.999999999999999E-003    2.950107433446449E-023
 -8.900000000000000E-003    4.248057833043010E-023
 -8.799999999999999E-003    5.335940883877175E-023
 -8.699999999999999E-003    6.027769226137805E-023
 -8.600000000000000E-003    6.142615015022174E-023
 -8.499999999999999E-003    5.528598288411980E-023
 -8.399999999999999E-003    4.088871216479275E-023
 -8.300000000000000E-003    1.806757404525030E-023
 -8.199999999999999E-003   -1.233345530849248E-023
 -8.100000000000000E-003   -4.832942307856569E-023
 -8.000000000000000E-003   -8.677769892967821E-023
 -7.899999999999999E-003   -1.235031507208804E-022
 -7.800000000000000E-003   -1.535819837067701E-022
 -7.699999999999999E-003   -1.717847072264780E-022
 -7.599999999999999E-003   -1.731585030506726E-022
 -7.499999999999999E-003   -1.537073640472739E-022
 -7.399999999999999E-003   -1.111063128949118E-022
 -7.299999999999999E-003   -4.536765190425509E-023
 -7.199999999999999E-003    4.063523748567986E-023
 -7.100000000000000E-003    1.408841070698760E-022
 -6.999999999999999E-003    2.462609403031435E-022
 -6.899999999999999E-003    3.449892745532887E-022
 -6.800000000000000E-003    4.235035593554680E-022
 -6.699999999999999E-003    4.677326959601982E-022
 -6.599999999999999E-003    4.647277057052190E-022
 -6.499999999999999E-003    4.045060248188803E-022
 -6.399999999999999E-003    2.819299387718974E-022
 -6.299999999999999E-003    9.839311589973704E-023
 -6.199999999999999E-003   -1.369355113351462E-022
 -6.100000000000000E-003   -4.065597188035189E-022
 -5.999999999999999E-003   -6.850123504721095E-022
 -5.899999999999999E-003   -9.402690914649073E-022
 -5.800000000000000E-003   -1.136269867969462E-021
 -5.699999999999999E-003   -1.236471644499721E-021
 -5.599999999999999E-003   -1.208211370852137E-021
 -5.499999999999999E-003   -1.027514044228396E-021
 -5.399999999999999E-003   -6.838476962797262E-022
 -5.299999999999999E-003   -1.842320884981319E-022
 -5.199999999999999E-003    4.439360277129544E-022
 -5.099999999999999E-003    1.151950889946546E-021
 -4.999999999999999E-003    1.871262081361144E-021
 -4.899999999999999E-003    2.517649359893034E-021
 -4.799999999999999E-003    2.998150035467373E-021
 -4.699999999999999E-003    3.220461895988646E-021
 -4.599999999999999E-003    3.104178383595688E-021
 -4.499999999999999E-003    2.592871370712381E-021
 -4.399999999999999E-003    1.665729774223588E-021
 -4.299999999999999E-003    3.472633662366834E-022
 -4.199999999999999E-003   -1.286477909611764E-021
 -4.099999999999999E-003   -3.106607157908185E-021
 -3.999999999999999E-003   -4.936147775754888E-021
 -3.899999999999999E-003   -6.561443205530837E-021
 -3.799999999999999E-003   -7.750167793025431E-021
 -3.699999999999999E-003   -8.275065279398955E-021
 -3.599999999999999E-003   -7.941712918207489E-021
 -3.499999999999999E-003   -6.617770702863155E-021
 -3.399999999999999E-003   -4.260554040213992E-021
 -3.299999999999999E-003   -9.393363375129646E-022
 -3.199999999999999E-003    3.151232977159859E-021
 -3.099999999999999E-003    7.689853363108755E-021
 -2.999999999999999E-003    1.224185835851021E-020
 -2.899999999999999E-003    1.628819498382666E-020
 -2.799999999999999E-003    1.926962757955313E-020
 -2.699999999999999E-003    2.064377840149306E-020
 -2.599999999999999E-003    1.995069226843690E-020
 -2.499999999999999E-003    1.688085482794948E-020
 -2.399999999999999E-003    1.133818348006551E-020
 -2.299999999999999E-003    3.489785213594463E-021
 -2.199999999999999E-003   -6.205635418791639E-021
 -2.099999999999999E-003   -1.699779002251702E-020
 -1.999999999999999E-003   -2.787825120407675E-020
 -1.899999999999999E-003   -3.764930173006032E-020
 -1.799999999999999E-003   -4.502643342961811E-020
 -1.699999999999999E-003   -4.876852899306341E-020
 -1.599999999999999E-003   -4.782550993556212E-020
 -1.499999999999999E-003   -4.148953837753681E-020
 -1.399999999999999E-003   -2.953304757273100E-020
 -1.299999999999999E-003   -1.231558155744150E-020
 -1.199999999999999E-003    9.157934227364530E-021
 -1.099999999999999E-003    3.324228095058136E-020
 -9.999999999999989E-004    5.773023467507227E-020
 -8.999999999999990E-004    8.000721931825493E-020
 -7.999999999999990E-004    9.727714866549786E-020
 -6.999999999999989E-004    1.068454121196167E-019
 -5.999999999999990E-004    1.064360400036156E-019
 -4.999999999999989E-004    9.451257382397734E-020
 -3.999999999999989E-004    7.056679522047224E-020
 -2.999999999999989E-004    3.533754742922310E-020
 -1.999999999999989E-004   -9.076249399957040E-021
 -9.999999999999892E-005   -5.923780900921194E-020
  1.084202172485504E-018   -1.105484235669696E-019
  1.000000000000011E-004   -1.575813372862836E-019
  2.000000000000011E-004   -1.945600154649237E-019
  3.000000000000011E-004   -2.159491690819420E-019
  4.000000000000011E-004   -2.171088944409923E-019
  5.000000000000011E-004   -1.949476357879036E-019
  6.000000000000011E-004   -1.485000876873060E-019
  7.000000000000011E-004   -7.935320716155913E-020
  8.000000000000011E-004    8.150737088491764E-021
  9.000000000000012E-004    1.069904838879847E-019
  1.000000000000001E-003    2.078549850149027E-019
  1.100000000000001E-003    2.998485982481853E-019
  1.200000000000001E-003    3.714794252868273E-019
  1.300000000000001E-003    4.118618010891761E-019
  1.400000000000001E-003    4.120292071207923E-019
  1.500000000000001E-003    3.662254064321035E-019
  1.600000000000001E-003    2.730252040958910E-019
  1.700000000000001E-003    1.361332483037334E-019
  1.800000000000001E-003   -3.527708950912440E-020
  1.900000000000001E-003   -2.267908000147935E-019
  2.000000000000001E-003   -4.196023410913807E-019
  2.100000000000001E-003   -5.919875333489156E-019
  2.200000000000001E-003   -7.213211486504647E-019
  2.300000000000001E-003   -7.864959194527668E-019
  2.400000000000001E-003   -7.705289135180790E-019
  2.500000000000001E-003   -6.630913705570414E-019
  2.600000000000001E-003   -4.626679252557843E-019
  2.700000000000001E-003   -1.780483217012792E-019
  2.800000000000001E-003    1.711122842728052E-019
  2.900000000000001E-003    5.548638654001468E-019
  3.000000000000001E-003    9.347663470751127E-019
  3.100000000000001E-003    1.266908423844903E-018
  3.200000000000001E-003    1.505983289806094E-018
  3.300000000000001E-003    1.610127773116219E-018
  3.400000000000001E-003    1.546098666266028E-018
  3.500000000000001E-003    1.294268070304937E-018
  3.600000000000001E-003    8.528621847441552E-019
  3.700000000000001E-003    2.408681526228405E-019
  3.800000000000001E-003   -5.009015074551959E-019
  3.900000000000001E-003   -1.310971050718452E-018
  4.000000000000001E-003   -2.110783085434403E-018
  4.100000000000001E-003   -2.810664524471892E-018
  4.200000000000001E-003   -3.317868213532217E-018
  4.300000000000001E-003   -3.546130643187799E-018
  4.400000000000001E-003   -3.425924387573448E-018
  4.500000000000001E-003   -2.914412049622463E-018
  4.600000000000002E-003   -2.003996883437926E-018
  4.700000000000001E-003   -7.283576462543551E-019
  4.800000000000001E-003    8.350227375358380E-019
  4.900000000000002E-003    2.566595887942241E-018
  5.000000000000001E-003    4.311159532500302E-018
  5.100000000000001E-003    5.888921358629541E-018
  5.200000000000001E-003    7.110687390632163E-018
  5.300000000000002E-003    7.796160160300101E-018
  5.400000000000001E-003    7.793855038814792E-018
  5.500000000000001E-003    7.000786754119531E-018
  5.600000000000002E-003    5.379858633756035E-018
  5.700000000000001E-003    2.972840189158506E-018
  5.800000000000001E-003   -9.298620980501073E-020
  5.900000000000002E-003   -3.606023153869515E-018
  6.000000000000001E-003   -7.280315297084697E-018
  6.100000000000001E-003   -1.077439165421985E-017
  6.200000000000002E-003   -1.371819813989854E-017
  6.300000000000002E-003   -1.574644674405380E-017
  6.400000000000001E-003   -1.653578143992020E-017
  6.500000000000001E-003   -1.584249832367853E-017
  6.600000000000002E-003   -1.353705305661460E-017
  6.700000000000001E-003   -9.631474726891537E-018
  6.800000000000001E-003   -4.296037595682164E-018
  6.900000000000002E-003    2.137809210084843E-018
  7.000000000000001E-003    9.190226264622377E-018
  7.100000000000001E-003    1.626211382165340E-017
  7.200000000000002E-003    2.267962544542492E-017
  7.300000000000002E-003    2.775143018689559E-017
  7.400000000000001E-003    3.083451803917418E-017
  7.500000000000001E-003    3.140295355783295E-017
  7.600000000000002E-003    2.911302688730276E-017
  7.700000000000001E-003    2.385788632949395E-017
  7.800000000000001E-003    1.580494405372340E-017
  7.900000000000001E-003    5.410344208614506E-018
  8.000000000000002E-003   -6.593578391844625E-018
  8.100000000000001E-003   -1.923962727406143E-017
  8.200000000000001E-003   -3.139505231665759E-017
  8.300000000000002E-003   -4.185489385538997E-017
  8.400000000000001E-003   -4.945276213801375E-017
  8.500000000000002E-003   -5.317984218133583E-017
  8.600000000000002E-003   -5.230105419108008E-017
  8.700000000000001E-003   -4.645630491014062E-017
  8.800000000000002E-003   -3.573501886026739E-017
  8.900000000000002E-003   -2.071353433951959E-017
  9.000000000000001E-003   -2.447375718950916E-018
  9.100000000000002E-003    1.758549937379268E-017
  9.200000000000002E-003    3.759026244275835E-017
  9.300000000000001E-003    5.560391863816818E-017
  9.400000000000002E-003    6.967671120735786E-017
  9.500000000000001E-003    7.807123264599836E-017
  9.600000000000001E-003    7.946063160743058E-017
  9.700000000000002E-003    7.310537861372835E-017
  9.800000000000001E-003    5.898814603433424E-017
  9.900000000000001E-003    3.788816678448594E-017
  1.000000000000000E-002    1.138074868401153E-017
  1.010000000000000E-002   -1.824614900717341E-017
  1.020000000000000E-002   -4.815872972781225E-017
  1.030000000000000E-002   -7.521923671287637E-017
  1.040000000000000E-002   -9.628610645213042E-017
  1.050000000000000E-002   -1.085469369004206E-016
  1.060000000000000E-002   -1.098531732514211E-016
  1.070000000000000E-002   -9.902132095228806E-017
  1.080000000000000E-002   -7.606476668439156E-017
  1.090000000000000E-002   -4.232402964533060E-017
  1.100000000000000E-002   -4.696682748166013E-019
  1.110000000000000E-002    4.563720737095379E-017
  1.120000000000000E-002    9.122816976680981E-017
  1.130000000000000E-002    1.310418272014483E-016
  1.140000000000000E-002    1.598398623087320E-016
  1.150000000000000E-002    1.729820843459773E-016
  1.160000000000000E-002    1.670061005207059E-016
  1.170000000000000E-002    1.401500558759000E-016
  1.180000000000000E-002    9.275595834896062E-017
  1.190000000000000E-002    2.749573295248791E-017
  1.200000000000000E-002   -5.062553226017872E-017
  1.210000000000000E-002   -1.345167671495422E-016
  1.220000000000000E-002   -2.155028713656773E-016
  1.230000000000000E-002   -2.840598798536244E-016
  1.240000000000000E-002   -3.307332616768088E-016
  1.250000000000000E-002   -3.471649445780591E-016
  1.260000000000000E-002   -3.271336150850288E-016
  1.270000000000000E-002   -2.675001433213143E-016
  1.280000000000000E-002   -1.689462315930642E-016
  1.290000000000000E-002   -3.640321074188722E-017
  1.300000000000000E-002    1.209119733893020E-016
  1.310000000000000E-002    2.899067784284479E-016
  1.320000000000000E-002    4.544793365243884E-016
  1.330000000000000E-002    5.968083737442221E-016
  1.340000000000000E-002    6.989816662994395E-016
  1.350000000000000E-002    7.448376668864290E-016
  1.360000000000000E-002    7.218530364146909E-016
  1.370000000000000E-002    6.228881311761254E-016
  1.380000000000000E-002    4.475923025252848E-016
  1.390000000000000E-002    2.032851789340705E-016
  1.400000000000000E-002   -9.483920298445792E-017
  1.410000000000000E-002   -4.242836604714737E-016
  1.420000000000000E-002   -7.566287681349292E-016
  1.430000000000000E-002   -1.059673645477260E-015
  1.440000000000000E-002   -1.300206651592917E-015
  1.450000000000000E-002   -1.447195645731158E-015
  1.460000000000000E-002   -1.475122231005171E-015
  1.470000000000000E-002   -1.367138471268262E-015
  1.480000000000000E-002   -1.117709127830194E-015
  1.490000000000000E-002   -7.344154174035007E-016
  1.500000000000000E-002   -2.386514273165555E-016
  1.510000000000000E-002    3.349779250753776E-016
  1.520000000000000E-002    9.406297271092895E-016
  1.530000000000000E-002    1.524516750245443E-015
  1.540000000000000E-002    2.029327078720355E-015
  1.550000000000000E-002    2.399440269511698E-015
  1.560000000000000E-002    2.586506204146602E-015
  1.570000000000000E-002    2.554861586591738E-015
  1.580000000000000E-002    2.286232216340833E-015
  1.590000000000000E-002    1.783182770310852E-015
  1.600000000000000E-002    1.070849774661898E-015
  1.610000000000000E-002    1.966265783476439E-016
  1.620000000000000E-002   -7.723703199588833E-016
  1.630000000000000E-002   -1.753992453108604E-015
  1.640000000000000E-002   -2.657658940440055E-015
  1.650000000000000E-002   -3.392367549680901E-015
  1.660000000000000E-002   -3.875457928246107E-015
  1.670000000000000E-002   -4.041322838026514E-015
  1.680000000000000E-002   -3.849198162129587E-015
  1.690000000000000E-002   -3.289177781810707E-015
  1.700000000000000E-002   -2.385710109397195E-015
  1.710000000000000E-002   -1.198006780084515E-015
  1.720000000000000E-002    1.829212410984365E-016
  1.730000000000000E-002    1.640605714926252E-015
  1.740000000000000E-002    3.042466875945567E-015
  1.750000000000000E-002    4.251489010316050E-015
  1.760000000000000E-002    5.139261852193338E-015
  1.770000000000000E-002    5.599174314206982E-015
  1.780000000000000E-002    5.558478993960111E-015
  1.790000000000000E-002    4.987931463120561E-015
  1.800000000000000E-002    3.907848321981347E-015
  1.810000000000000E-002    2.389713084075768E-015
  1.820000000000000E-002    5.528191077467640E-016
  1.830000000000000E-002   -1.444083656436201E-015
  1.840000000000000E-002   -3.415682124318647E-015
  1.850000000000000E-002   -5.166597595238301E-015
  1.860000000000000E-002   -6.510075762118976E-015
  1.870000000000000E-002   -7.287184706979903E-015