 -4.000000000000000E-002    0.000000000000000E+000
 -3.990000000000000E-002    0.000000000000000E+000
 -3.980000000000000E-002    0.000000000000000E+000
 -3.970000000000000E-002    0.000000000000000E+000
 -3.960000000000000E-002    0.000000000000000E+000
 -3.950000000000000E-002    0.000000000000000E+000
 -3.940000000000000E-002    0.000000000000000E+000
 -3.930000000000000E-002    0.000000000000000E+000
 -3.920000000000000E-002    0.000000000000000E+000
 -3.910000000000000E-002    0.000000000000000E+000
 -3.900000000000000E-002    0.000000000000000E+000
 -3.890000000000000E-002    0.000000000000000E+000
 -3.880000000000000E-002    0.000000000000000E+000
 -3.870000000000000E-002    0.000000000000000E+000
 -3.860000000000000E-002    0.000000000000000E+000
 -3.850000000000000E-002    0.000000000000000E+000
 -3.840000000000000E-002    0.000000000000000E+000
 -3.830000000000000E-002    0.000000000000000E+000
 -3.820000000000000E-002    0.000000000000000E+000
 -3.810000000000000E-002    0.000000000000000E+000
 -3.800000000000000E-002    0.000000000000000E+000
 -3.790000000000000E-002    0.000000000000000E+000
 -3.780000000000000E-002    0.000000000000000E+000
 -3.770000000000000E-002    0.000000000000000E+000
 -3.760000000000000E-002    0.000000000000000E+000
 -3.750000000000000E-002    0.000000000000000E+000
 -3.740000000000000E-002    0.000000000000000E+000
 -3.730000000000000E-002    0.000000000000000E+000
 -3.720000000000000E-002    0.000000000000000E+000
 -3.710000000000000E-002    0.000000000000000E+000
 -3.700000000000000E-002    0.000000000000000E+000
 -3.690000000000000E-002    0.000000000000000E+000
 -3.680000000000000E-002    0.000000000000000E+000
 -3.670000000000000E-002    0.000000000000000E+000
 -3.660000000000000E-002    0.000000000000000E+000
 -3.650000000000000E-002    0.000000000000000E+000
 -3.640000000000000E-002    0.000000000000000E+000
 -3.630000000000000E-002    0.000000000000000E+000
 -3.620000000000000E-002    0.000000000000000E+000
 -3.610000000000000E-002    0.000000000000000E+000
 -3.600000000000000E-002    0.000000000000000E+000
 -3.590000000000000E-002    0.000000000000000E+000
 -3.580000000000000E-002    0.000000000000000E+000
 -3.570000000000000E-002    0.000000000000000E+000
 -3.560000000000000E-002    0.000000000000000E+000
 -3.550000000000000E-002    0.000000000000000E+000
 -3.540000000000000E-002    0.000000000000000E+000
 -3.530000000000000E-002    0.000000000000000E+000
 -3.520000000000000E-002    0.000000000000000E+000
 -3.510000000000000E-002    0.000000000000000E+000
 -3.500000000000000E-002    0.000000000000000E+000
 -3.490000000000000E-002    0.000000000000000E+000
 -3.480000000000000E-002    0.000000000000000E+000
 -3.470000000000000E-002    0.000000000000000E+000
 -3.460000000000000E-002    0.000000000000000E+000
 -3.450000000000000E-002    0.000000000000000E+000
 -3.440000000000000E-002    0.000000000000000E+000
 -3.430000000000000E-002    0.000000000000000E+000
 -3.420000000000000E-002    0.000000000000000E+000
 -3.410000000000000E-002    0.000000000000000E+000
 -3.400000000000000E-002    0.000000000000000E+000
 -3.390000000000000E-002    0.000000000000000E+000
 -3.380000000000000E-002    0.000000000000000E+000
 -3.370000000000000E-002    0.000000000000000E+000
 -3.360000000000000E-002    0.000000000000000E+000
 -3.350000000000000E-002    0.000000000000000E+000
 -3.340000000000000E-002    0.000000000000000E+000
 -3.330000000000000E-002    0.000000000000000E+000
 -3.320000000000000E-002    0.000000000000000E+000
 -3.310000000000000E-002    0.000000000000000E+000
 -3.300000000000000E-002    0.000000000000000E+000
 -3.290000000000000E-002    0.000000000000000E+000
 -3.280000000000000E-002    0.000000000000000E+000
 -3.270000000000000E-002    0.000000000000000E+000
 -3.260000000000000E-002    0.000000000000000E+000
 -3.250000000000000E-002    0.000000000000000E+000
 -3.240000000000000E-002    0.000000000000000E+000
 -3.230000000000000E-002    0.000000000000000E+000
 -3.220000000000000E-002    0.000000000000000E+000
 -3.210000000000000E-002    0.000000000000000E+000
 -3.200000000000000E-002    0.000000000000000E+000
 -3.190000000000000E-002    0.000000000000000E+000
 -3.180000000000000E-002    0.000000000000000E+000
 -3.170000000000000E-002    0.000000000000000E+000
 -3.160000000000000E-002    0.000000000000000E+000
 -3.150000000000000E-002    0.000000000000000E+000
 -3.140000000000000E-002    0.000000000000000E+000
 -3.130000000000000E-002    0.000000000000000E+000
 -3.120000000000000E-002    0.000000000000000E+000
 -3.110000000000000E-002    0.000000000000000E+000
 -3.100000000000000E-002    0.000000000000000E+000
 -3.090000000000000E-002    0.000000000000000E+000
 -3.080000000000000E-002    0.000000000000000E+000
 -3.070000000000000E-002    0.000000000000000E+000
 -3.060000000000000E-002    0.000000000000000E+000
 -3.050000000000000E-002    0.000000000000000E+000
 -3.040000000000000E-002    0.000000000000000E+000
 -3.030000000000000E-002    0.000000000000000E+000
 -3.020000000000000E-002    0.000000000000000E+000
 -3.010000000000000E-002    0.000000000000000E+000
 -3.000000000000000E-002    0.000000000000000E+000
 -2.990000000000000E-002    0.000000000000000E+000
 -2.980000000000000E-002    0.000000000000000E+000
 -2.970000000000000E-002    0.000000000000000E+000
 -2.960000000000000E-002    0.000000000000000E+000
 -2.950000000000000E-002    0.000000000000000E+000
 -2.940000000000000E-002    0.000000000000000E+000
 -2.930000000000000E-002    0.000000000000000E+000
 -2.920000000000000E-002    0.000000000000000E+000
 -2.910000000000000E-002    0.000000000000000E+000
 -2.900000000000000E-002    0.000000000000000E+000
 -2.890000000000000E-002    0.000000000000000E+000
 -2.880000000000000E-002    0.000000000000000E+000
 -2.870000000000000E-002    0.000000000000000E+000
 -2.860000000000000E-002    0.000000000000000E+000
 -2.850000000000000E-002    0.000000000000000E+000
 -2.840000000000000E-002    0.000000000000000E+000
 -2.830000000000000E-002    0.000000000000000E+000
 -2.820000000000000E-002    0.000000000000000E+000
 -2.810000000000000E-002    0.000000000000000E+000
 -2.800000000000000E-002    0.000000000000000E+000
 -2.790000000000000E-002    0.000000000000000E+000
 -2.780000000000000E-002    0.000000000000000E+000
 -2.770000000000000E-002    0.000000000000000E+000
 -2.760000000000000E-002    0.000000000000000E+000
 -2.750000000000000E-002    0.000000000000000E+000
 -2.740000000000000E-002    0.000000000000000E+000
 -2.730000000000000E-002    0.000000000000000E+000
 -2.720000000000000E-002    0.000000000000000E+000
 -2.710000000000000E-002    0.000000000000000E+000
 -2.700000000000000E-002    0.000000000000000E+000
 -2.690000000000000E-002    0.000000000000000E+000
 -2.680000000000000E-002    0.000000000000000E+000
 -2.670000000000000E-002    0.000000000000000E+000
 -2.660000000000000E-002    0.000000000000000E+000
 -2.650000000000000E-002    0.000000000000000E+000
 -2.640000000000000E-002    0.000000000000000E+000
 -2.630000000000000E-002    0.000000000000000E+000
 -2.620000000000000E-002    0.000000000000000E+000
 -2.610000000000000E-002    0.000000000000000E+000
 -2.600000000000000E-002    0.000000000000000E+000
 -2.590000000000000E-002    0.000000000000000E+000
 -2.580000000000000E-002    0.000000000000000E+000
 -2.570000000000000E-002    0.000000000000000E+000
 -2.560000000000000E-002    0.000000000000000E+000
 -2.550000000000000E-002    0.000000000000000E+000
 -2.540000000000000E-002    0.000000000000000E+000
 -2.530000000000000E-002    0.000000000000000E+000
 -2.520000000000000E-002    0.000000000000000E+000
 -2.510000000000000E-002    0.000000000000000E+000
 -2.500000000000000E-002    0.000000000000000E+000
 -2.490000000000000E-002    0.000000000000000E+000
 -2.480000000000000E-002    0.000000000000000E+000
 -2.470000000000000E-002    0.000000000000000E+000
 -2.460000000000000E-002    0.000000000000000E+000
 -2.450000000000000E-002    0.000000000000000E+000
 -2.440000000000000E-002    0.000000000000000E+000
 -2.430000000000000E-002    0.000000000000000E+000
 -2.420000000000000E-002    0.000000000000000E+000
 -2.410000000000000E-002    0.000000000000000E+000
 -2.400000000000000E-002    0.000000000000000E+000
 -2.390000000000000E-002    0.000000000000000E+000
 -2.380000000000000E-002    0.000000000000000E+000
 -2.370000000000000E-002    0.000000000000000E+000
 -2.360000000000000E-002    0.000000000000000E+000
 -2.350000000000000E-002    0.000000000000000E+000
 -2.340000000000000E-002    0.000000000000000E+000
 -2.330000000000000E-002    0.000000000000000E+000
 -2.320000000000000E-002    0.000000000000000E+000
 -2.310000000000000E-002    0.000000000000000E+000
 -2.300000000000000E-002    0.000000000000000E+000
 -2.290000000000000E-002    0.000000000000000E+000
 -2.280000000000000E-002    0.000000000000000E+000
 -2.270000000000000E-002    0.000000000000000E+000
 -2.260000000000000E-002    0.000000000000000E+000
 -2.250000000000000E-002    0.000000000000000E+000
 -2.240000000000000E-002    0.000000000000000E+000
 -2.230000000000000E-002    0.000000000000000E+000
 -2.220000000000000E-002    0.000000000000000E+000
 -2.210000000000000E-002    0.000000000000000E+000
 -2.200000000000000E-002    0.000000000000000E+000
 -2.190000000000000E-002    0.000000000000000E+000
 -2.180000000000000E-002    0.000000000000000E+000
 -2.170000000000000E-002    0.000000000000000E+000
 -2.160000000000000E-002    0.000000000000000E+000
 -2.150000000000000E-002    0.000000000000000E+000
 -2.140000000000000E-002    0.000000000000000E+000
 -2.130000000000000E-002    0.000000000000000E+000
 -2.120000000000000E-002    0.000000000000000E+000
 -2.110000000000000E-002    0.000000000000000E+000
 -2.100000000000000E-002    0.000000000000000E+000
 -2.090000000000000E-002    0.000000000000000E+000
 -2.080000000000000E-002    0.000000000000000E+000
 -2.070000000000000E-002    0.000000000000000E+000
 -2.060000000000000E-002    0.000000000000000E+000
 -2.050000000000000E-002    0.000000000000000E+000
 -2.040000000000000E-002    0.000000000000000E+000
 -2.030000000000000E-002    0.000000000000000E+000
 -2.020000000000000E-002    0.000000000000000E+000
 -2.010000000000000E-002    0.000000000000000E+000
 -2.000000000000000E-002    0.000000000000000E+000
 -1.990000000000000E-002    0.000000000000000E+000
 -1.980000000000000E-002    0.000000000000000E+000
 -1.970000000000000E-002    0.000000000000000E+000
 -1.960000000000000E-002    0.000000000000000E+000
 -1.950000000000000E-002   -7.054546710902434E-048
 -1.940000000000000E-002   -5.763378292659049E-047
 -1.930000000000000E-002   -1.082130191422785E-046
 -1.920000000000000E-002   -2.023169448627522E-046
 -1.910000000000000E-002   -2.964208705832259E-046
 -1.900000000000000E-002   -3.417390888906607E-046
 -1.890000000000000E-002   -3.801875629343477E-046
 -1.880000000000000E-002   -3.557412361431910E-046
 -1.870000000000000E-002   -2.225717083714802E-046
 -1.860000000000000E-002    1.767226528452148E-046
 -1.850000000000000E-002    7.587445910189030E-046
 -1.840000000000000E-002    1.483252103303249E-045
 -1.830000000000000E-002    2.393295989886265E-045
 -1.820000000000000E-002    3.271257905447718E-045
 -1.810000000000000E-002    4.143077042830787E-045
 -1.800000000000000E-002    4.727869866570131E-045
 -1.790000000000000E-002    4.783445451842697E-045
 -1.780000000000000E-002    3.680772085810826E-045
 -1.770000000000000E-002    1.378094062700282E-045
 -1.760000000000000E-002   -2.870526470721903E-045
 -1.750000000000000E-002   -8.842794766026756E-045
 -1.740000000000000E-002   -1.690533638571549E-044
 -1.730000000000000E-002   -2.709082552776837E-044
 -1.720000000000000E-002   -3.749462867593225E-044
 -1.710000000000000E-002   -4.766828626584293E-044
 -1.700000000000000E-002   -5.505847501248437E-044
 -1.690000000000000E-002   -5.645935623134816E-044
 -1.680000000000000E-002   -4.948362555986574E-044
 -1.670000000000000E-002   -2.882148776967035E-044
 -1.660000000000000E-002    7.455719546850353E-045
 -1.650000000000000E-002    6.306612186394315E-044
 -1.640000000000000E-002    1.380960908743197E-043
 -1.630000000000000E-002    2.293564137654660E-043
 -1.620000000000000E-002    3.302657391259327E-043
 -1.610000000000000E-002    4.271563634529808E-043
 -1.600000000000000E-002    5.028748193928768E-043
 -1.590000000000000E-002    5.311277066938506E-043
 -1.580000000000000E-002    4.813127552958181E-043
 -1.570000000000000E-002    3.217686776723289E-043
 -1.560000000000000E-002    2.161791807661894E-044
 -1.550000000000000E-002   -4.392944315562350E-043
 -1.540000000000000E-002   -1.066441712541024E-042
 -1.530000000000000E-002   -1.835541548896879E-042
 -1.520000000000000E-002   -2.688667955888851E-042
 -1.510000000000000E-002   -3.521256720019760E-042
 -1.500000000000000E-002   -4.181126501717434E-042
 -1.490000000000000E-002   -4.466361794536562E-042
 -1.480000000000000E-002   -4.140210735412570E-042
 -1.470000000000000E-002   -2.950844297024120E-042
 -1.460000000000000E-002   -6.709432177153694E-043
 -1.450000000000000E-002    2.854579781320421E-042
 -1.440000000000000E-002    7.644450901957819E-042
 -1.430000000000000E-002    1.351015064435575E-041
 -1.420000000000000E-002    1.998973487746423E-041
 -1.410000000000000E-002    2.629169480042409E-041
 -1.400000000000000E-002    3.127135027695040E-041
 -1.390000000000000E-002    3.345618586456189E-041
 -1.380000000000000E-002    3.113968644667928E-041
 -1.370000000000000E-002    2.255951237088696E-041
 -1.360000000000000E-002    6.168408973914358E-042
 -1.350000000000000E-002   -1.900160400044466E-041
 -1.340000000000000E-002   -5.290362600908811E-041
 -1.330000000000000E-002   -9.400784472770637E-041
 -1.320000000000000E-002   -1.388637372823625E-040
 -1.310000000000000E-002   -1.817918888263713E-040
 -1.300000000000000E-002   -2.147989207197728E-040
 -1.290000000000000E-002   -2.278518105171075E-040
 -1.280000000000000E-002   -2.096152361465535E-040
 -1.270000000000000E-002   -1.487476630855627E-040
 -1.260000000000000E-002   -3.579018069170859E-041
 -1.250000000000000E-002    1.344065160292513E-040
 -1.240000000000000E-002    3.598727858086891E-040
 -1.230000000000000E-002    6.286348049303544E-040
 -1.220000000000000E-002    9.162023832616213E-040
 -1.210000000000000E-002    1.184009172706542E-039
 -1.200000000000000E-002    1.379498325284530E-039
 -1.190000000000000E-002    1.438555665665685E-039
 -1.180000000000000E-002    1.290940102924425E-039
 -1.170000000000000E-002    8.691179921524572E-040
 -1.160000000000000E-002    1.205261056376703E-040
 -1.150000000000000E-002   -9.772497429218499E-040
 -1.140000000000000E-002   -2.399624560766360E-039
 -1.130000000000000E-002   -4.058547821767042E-039
 -1.120000000000000E-002   -5.789269181059049E-039
 -1.110000000000000E-002   -7.343934722689693E-039
 -1.100000000000000E-002   -8.395951929978228E-039
 -1.090000000000000E-002   -8.559054499321539E-039
 -1.080000000000000E-002   -7.424197658560151E-039
 -1.070000000000000E-002   -4.615861288158932E-039
 -1.060000000000000E-002    1.331573146435733E-040
 -1.050000000000000E-002    6.892807715396565E-039
 -1.040000000000000E-002    1.544113093650138E-038
 -1.030000000000000E-002    2.517676727517403E-038
 -1.020000000000000E-002    3.505572606092980E-038
 -1.010000000000000E-002    4.357264400141048E-038
 -1.000000000000000E-002    4.880798474612973E-038
 -9.899999999999999E-003    4.856085521106124E-038
 -9.800000000000000E-003    4.058141920237879E-038
 -9.699999999999999E-003    2.290669695132577E-038
 -9.599999999999999E-003   -5.711424694488073E-039
 -9.500000000000000E-003   -4.531640046654763E-038
 -9.399999999999999E-003   -9.424794228465655E-038
 -9.299999999999999E-003   -1.487087719455836E-037
 -9.200000000000000E-003   -2.024919749884992E-037
 -9.099999999999999E-003   -2.469762715348355E-037
 -8.999999999999999E-003   -2.714969919299178E-037
 -8.900000000000000E-003   -2.641840223610282E-037
 -8.799999999999999E-003   -2.133210103477953E-037
 -8.699999999999999E-003   -1.092198420068159E-037
 -8.600000000000000E-003    5.347877868452681E-038
 -8.499999999999999E-003    2.732685511598083E-037
 -8.399999999999999E-003    5.393053375766912E-037
 -8.300000000000000E-003    8.294067641296001E-037
 -8.199999999999999E-003    1.109014649447927E-036
 -8.100000000000000E-003    1.331651860283885E-036
 -8.000000000000000E-003    1.441377214717027E-036
 -7.899999999999999E-003    1.377628390766851E-036
 -7.800000000000000E-003    1.082622133758642E-036
 -7.699999999999999E-003    5.111555527161595E-037
 -7.599999999999999E-003   -3.577752783288634E-037
 -7.499999999999999E-003   -1.508617845330243E-036
 -7.399999999999999E-003   -2.877763675701125E-036
 -7.299999999999999E-003   -4.344962906395826E-036
 -7.199999999999999E-003   -5.730036929980370E-036
 -7.100000000000000E-003   -6.797343670599458E-036
 -6.999999999999999E-003   -7.270190917715072E-036
 -6.899999999999999E-003   -6.856693611350186E-036
 -6.800000000000000E-003   -5.287397160906694E-036
 -6.699999999999999E-003   -2.363343114753132E-036
 -6.599999999999999E-003    1.988793012012355E-036
 -6.499999999999999E-003    7.660130393537867E-036
 -6.399999999999999E-003    1.430945250530499E-035
 -6.299999999999999E-003    2.132926120967400E-035
 -6.199999999999999E-003    2.783879790318097E-035
 -6.100000000000000E-003    3.271466948523265E-035
 -5.999999999999999E-003    3.466787306939562E-035
 -5.899999999999999E-003    3.237228002398928E-035
 -5.800000000000000E-003    2.464380319153258E-035
 -5.699999999999999E-003    1.066173423097042E-035
 -5.599999999999999E-003   -9.785399009774247E-036
 -5.499999999999999E-003   -3.605682183497102E-035
 -5.399999999999999E-003   -6.645573667011634E-035
 -5.299999999999999E-003   -9.810787644027927E-035
 -5.199999999999999E-003   -1.269682621330764E-034
 -5.099999999999999E-003   -1.479988542416068E-034
 -4.999999999999999E-003   -1.555494551116930E-034
 -4.899999999999999E-003   -1.439556079069620E-034
 -4.799999999999999E-003   -1.083403064160116E-034
 -4.699999999999999E-003   -4.557238694174799E-035
 -4.599999999999999E-003    4.470390116658903E-035
 -4.499999999999999E-003    1.590923095570372E-034
 -4.399999999999999E-003    2.896786716339843E-034
 -4.299999999999999E-003    4.236549716079053E-034
 -4.199999999999999E-003    5.435150831071396E-034
 -4.099999999999999E-003    6.279817754979620E-034
 -3.999999999999999E-003    6.537705427895653E-034
 -3.899999999999999E-003    5.982109768369549E-034
 -3.799999999999999E-003    4.426294256780860E-034
 -3.699999999999999E-003    1.762569970732520E-034
 -3.599999999999999E-003   -1.997240461092946E-034
 -3.499999999999999E-003   -6.685258530000599E-034
 -3.399999999999999E-003   -1.195136025958585E-033
 -3.299999999999999E-003   -1.725434347805556E-033
 -3.199999999999999E-003   -2.187718509393037E-033
 -3.099999999999999E-003   -2.497183113511651E-033
 -2.999999999999999E-003   -2.563644787497030E-033
 -2.899999999999999E-003   -2.302437261189442E-033
 -2.799999999999999E-003   -1.647925407460799E-033
 -2.699999999999999E-003   -5.685431249937227E-034
 -2.599999999999999E-003    9.182948728963732E-034
 -2.499999999999999E-003    2.733551420768726E-033
 -2.399999999999999E-003    4.728677898785641E-033
 -2.299999999999999E-003    6.685048100420159E-033
 -2.199999999999999E-003    8.323038072975119E-033
 -2.099999999999999E-003    9.322416984839344E-033
 -1.999999999999999E-003    9.354616370993253E-033
 -1.899999999999999E-003    8.125941683737212E-033
 -1.799999999999999E-003    5.428950571341872E-033
 -1.699999999999999E-003    1.197233597239650E-033
 -1.599999999999999E-003   -4.443097967315996E-033
 -1.499999999999999E-003   -1.113344964859342E-032
 -1.399999999999999E-003   -1.826339910219291E-032
 -1.299999999999999E-003   -2.498085931295983E-032
 -1.199999999999999E-003   -3.023914493668734E-032
 -1.099999999999999E-003   -3.288532599036989E-032
 -9.999999999999989E-004   -3.178971120086711E-032
 -8.999999999999990E-004   -2.601049515523026E-032
 -7.999999999999990E-004   -1.498079545162273E-032
 -6.999999999999989E-004    1.301573382048019E-033
 -5.999999999999990E-004    2.210749178971170E-032
 -4.999999999999989E-004    4.586339672699819E-032
 -3.999999999999989E-004    7.012327309953224E-032
 -2.999999999999989E-004    9.165484507101220E-032
 -1.999999999999989E-004    1.066614425244365E-031
 -9.999999999999892E-005    1.111483063353633E-031
  1.084202172485504E-018    1.014242262740695E-031
  1.000000000000011E-004    7.470787214375295E-032
  2.000000000000011E-004    2.978431260003728E-032
  3.000000000000011E-004   -3.236561667247789E-032
  4.000000000000011E-004   -1.080593887408438E-031
  5.000000000000011E-004   -1.906371149966154E-031
  6.000000000000011E-004   -2.705221306124817E-031
  7.000000000000011E-004   -3.357073921617785E-031
  8.000000000000011E-004   -3.727237268671037E-031
  9.000000000000012E-004   -3.680951287378702E-031
  1.000000000000001E-003   -3.102195610580813E-031
  1.100000000000001E-003   -1.915370491175984E-031
  1.200000000000001E-003   -1.076638877220746E-032
  1.300000000000001E-003    2.250802116106641E-031
  1.400000000000001E-003    4.992487235521645E-031
  1.500000000000001E-003    7.847251521762507E-031
  1.600000000000001E-003    1.044988040967062E-030
  1.700000000000001E-003    1.236293888336892E-030
  1.800000000000001E-003    1.311620870648115E-030
  1.900000000000001E-003    1.226203956133669E-030
  2.000000000000001E-003    9.443574777759212E-031
  2.100000000000001E-003    4.470170254811577E-031
  2.200000000000001E-003   -2.608264435832502E-031
  2.300000000000001E-003   -1.143846888967916E-030
  2.400000000000001E-003   -2.132441512998636E-030
  2.500000000000001E-003   -3.122329191470144E-030
  2.600000000000001E-003   -3.978742158128393E-030
  2.700000000000001E-003   -4.545941692204613E-030
  2.800000000000001E-003   -4.662270432263554E-030
  2.900000000000001E-003   -4.180264968369936E-030
  3.000000000000001E-003   -2.990538140719964E-030
  3.100000000000001E-003   -1.047278838439752E-030
  3.200000000000001E-003    1.607597606703478E-030
  3.300000000000001E-003    4.825251247791127E-030
  3.400000000000001E-003    8.339601055086460E-030
  3.500000000000001E-003    1.176970815449740E-029
  3.600000000000001E-003    1.463804208704071E-029
  3.700000000000001E-003    1.640654890795323E-029
  3.800000000000001E-003    1.653063324361611E-029
  3.900000000000001E-003    1.452879932717666E-029
  4.000000000000001E-003    1.006304735094372E-029
  4.100000000000001E-003    3.022390437581647E-030
  4.200000000000001E-003   -6.400599210675810E-030
  4.300000000000001E-003   -1.765207544447904E-029
  4.400000000000001E-003   -2.979056097451287E-029
  4.500000000000001E-003   -4.150372153799245E-029
  4.600000000000002E-003   -5.117750282106962E-029
  4.700000000000001E-003   -5.702249147526863E-029
  4.800000000000001E-003   -5.725623784649396E-029
  4.900000000000002E-003   -5.033267183989639E-029
  5.000000000000001E-003   -3.520143570596651E-029
  5.100000000000001E-003   -1.157162294324267E-029
  5.200000000000001E-003    1.985266125515507E-029
  5.300000000000002E-003    5.720218195263003E-029
  5.400000000000001E-003    9.737635706839907E-029
  5.500000000000001E-003    1.361157393651739E-028
  5.600000000000002E-003    1.682392216804974E-028
  5.700000000000001E-003    1.880574339224331E-028
  5.800000000000001E-003    1.899543952045811E-028
  5.900000000000002E-003    1.691061388286579E-028
  6.000000000000001E-003    1.222799448151316E-028
  6.100000000000001E-003    4.863372578065785E-029
  6.200000000000002E-003   -4.958457606054413E-029
  6.300000000000002E-003   -1.665497166115115E-028
  6.400000000000001E-003   -2.926965943187995E-028
  6.500000000000001E-003   -4.149816888555792E-028
  6.600000000000002E-003   -5.176384734962592E-028
  6.700000000000001E-003   -5.834516430725633E-028
  6.800000000000001E-003   -5.955163925684492E-028
  6.900000000000002E-003   -5.393803490147687E-028
  7.000000000000001E-003   -4.053934580009026E-028
  7.100000000000001E-003   -1.910250143594937E-028
  7.200000000000002E-003    9.714638921710396E-029
  7.300000000000002E-003    4.420916008887495E-028
  7.400000000000001E-003    8.159545568391772E-028
  7.500000000000001E-003    1.180910728673863E-027
  7.600000000000002E-003    1.491439364318428E-027
  7.700000000000001E-003    1.698056063814861E-027
  7.800000000000001E-003    1.752380692632164E-027
  7.900000000000001E-003    1.613224909953073E-027
  8.000000000000002E-003    1.253184897144534E-027
  8.100000000000001E-003    6.650473398917620E-028
  8.200000000000001E-003   -1.328143636983389E-028
  8.300000000000002E-003   -1.092938199016362E-027
  8.400000000000001E-003   -2.138013419555961E-027
  8.500000000000002E-003   -3.163560885511402E-027
  8.600000000000002E-003   -4.044485160471364E-027
  8.700000000000001E-003   -4.645551490360869E-027
  8.800000000000002E-003   -4.835369646321968E-027
  8.900000000000002E-003   -4.502948223051069E-027
  9.000000000000001E-003   -3.575366824066923E-027
  9.100000000000002E-003   -2.034661794963858E-027
  9.200000000000002E-003    6.829150179491762E-029
  9.300000000000001E-003    2.605223410503450E-027
  9.400000000000002E-003    5.369413651082621E-027
  9.500000000000001E-003    8.083849013650672E-027
  9.600000000000001E-003    1.041955329566315E-026
  9.700000000000002E-003    1.202400823921727E-026
  9.800000000000001E-003    1.255833642292764E-026
  9.900000000000001E-003    1.174057577040179E-026
  1.000000000000000E-002    9.391073280192769E-027
  1.010000000000000E-002    5.474941985009132E-027
  1.020000000000000E-002    1.358412629509174E-028
  1.030000000000000E-002   -6.284793780369718E-027
  1.040000000000000E-002   -1.324838387894606E-026
  1.050000000000000E-002   -2.004367144641633E-026
  1.060000000000000E-002   -2.583691732229390E-026
  1.070000000000000E-002   -2.974697470298044E-026
  1.080000000000000E-002   -3.094118204965761E-026
  1.090000000000000E-002   -2.874466970188293E-026
  1.100000000000000E-002   -2.275253771830212E-026
  1.110000000000000E-002   -1.293190210928337E-026
  1.120000000000000E-002    3.005716861120091E-028
  1.130000000000000E-002    1.603994217069281E-026
  1.140000000000000E-002    3.290546909149921E-026
  1.150000000000000E-002    4.911294664753479E-026
  1.160000000000000E-002    6.260998169920985E-026
  1.170000000000000E-002    7.127020794141224E-026
  1.180000000000000E-002    7.313455122616489E-026
  1.190000000000000E-002    6.667946922908871E-026
  1.200000000000000E-002    5.108494550364730E-026
  1.210000000000000E-002    2.646963444292250E-026
  1.220000000000000E-002   -5.941766242564378E-027
  1.230000000000000E-002   -4.375253395017995E-026
  1.240000000000000E-002   -8.345700364792905E-026
  1.250000000000000E-002   -1.206502287584024E-025
  1.260000000000000E-002   -1.503871040360418E-025
  1.270000000000000E-002   -1.676763661586595E-025
  1.280000000000000E-002   -1.680754372474749E-025
  1.290000000000000E-002   -1.483332963796065E-025
  1.300000000000000E-002   -1.070125202902721E-025
  1.310000000000000E-002   -4.501078419182052E-026
  1.320000000000000E-002    3.410094177459163E-026
  1.330000000000000E-002    1.239998991623227E-025
  1.340000000000000E-002    2.158521488929509E-025
  1.350000000000000E-002    2.989042522376255E-025
  1.360000000000000E-002    3.614213520843278E-025
  1.370000000000000E-002    3.919237333785923E-025
  1.380000000000000E-002    3.806288200990642E-025
  1.390000000000000E-002    3.209622604961083E-025
  1.400000000000000E-002    2.109677411754330E-025
  1.410000000000000E-002    5.442473264150780E-026
  1.420000000000000E-002   -1.385172465068672E-025
  1.430000000000000E-002   -3.513569059764519E-025
  1.440000000000000E-002   -5.620338069375213E-025
  1.450000000000000E-002   -7.445464202665283E-025
  1.460000000000000E-002   -8.713555937099983E-025
  1.470000000000000E-002   -9.164307433295166E-025
  1.480000000000000E-002   -8.586916422028686E-025
  1.490000000000000E-002   -6.855028217833007E-025
  1.500000000000000E-002   -3.958078275328058E-025
  1.510000000000000E-002   -2.455557708187125E-027
  1.520000000000000E-002    4.667151126147372E-025
  1.530000000000000E-002    9.693970252937041E-025
  1.540000000000000E-002    1.451182825684865E-024
  1.550000000000000E-002    1.849839768262927E-024
  1.560000000000000E-002    2.101333897326458E-024
  1.570000000000000E-002    2.147205572104840E-024
  1.580000000000000E-002    1.942660459996029E-024
  1.590000000000000E-002    1.464536703164161E-024
  1.600000000000000E-002    7.181664284980616E-025
  1.610000000000000E-002   -2.578979364618552E-025
  1.620000000000000E-002   -1.390258449451216E-024
  1.630000000000000E-002   -2.572917595179644E-024
  1.640000000000000E-002   -3.673846538887467E-024
  1.650000000000000E-002   -4.545889038787016E-024
  1.660000000000000E-002   -5.041502839757684E-024
  1.670000000000000E-002   -5.030281226460710E-024
  1.680000000000000E-002   -4.417684142910951E-024
  1.690000000000000E-002   -3.162965040436989E-024
  1.700000000000000E-002   -1.294013289428882E-024
  1.710000000000000E-002    1.083217689655898E-024
  1.720000000000000E-002    3.782807329253530E-024
  1.730000000000000E-002    6.546089535041726E-024
  1.740000000000000E-002    9.058807399538502E-024
  1.750000000000000E-002    1.097797623551936E-023
  1.760000000000000E-002    1.196704309669400E-023
  1.770000000000000E-002    1.173669114366570E-023
  1.780000000000000E-002    1.008750293381273E-023
  1.790000000000000E-002    6.949788822616393E-024
  1.800000000000000E-002    2.415386532002511E-024
  1.810000000000000E-002   -3.243741756033867E-024
  1.820000000000000E-002   -9.574663502644234E-024
  1.830000000000000E-002   -1.596364740371469E-023
  1.840000000000000E-002   -2.167873717692517E-023
  1.850000000000000E-002   -2.593372268427994E-023
  1.860000000000000E-002   -2.796984888895728E-023
  1.870000000000000E-002   -2.714884851477354E-023