 -4.000000000000000E-002    0.000000000000000E+000
 -3.990000000000000E-002    0.000000000000000E+000
 -3.980000000000000E-002    0.000000000000000E+000
 -3.970000000000000E-002    0.000000000000000E+000
 -3.960000000000000E-002    0.000000000000000E+000
 -3.950000000000000E-002    0.000000000000000E+000
 -3.940000000000000E-002    0.000000000000000E+000
 -3.930000000000000E-002    0.000000000000000E+000
 -3.920000000000000E-002    0.000000000000000E+000
 -3.910000000000000E-002    0.000000000000000E+000
 -3.900000000000000E-002    0.000000000000000E+000
 -3.890000000000000E-002    0.000000000000000E+000
 -3.880000000000000E-002    0.000000000000000E+000
 -3.870000000000000E-002    0.000000000000000E+000
 -3.860000000000000E-002    0.000000000000000E+000
 -3.850000000000000E-002    0.000000000000000E+000
 -3.840000000000000E-002    0.000000000000000E+000
 -3.830000000000000E-002    0.000000000000000E+000
 -3.820000000000000E-002    0.000000000000000E+000
 -3.810000000000000E-002    0.000000000000000E+000
 -3.800000000000000E-002    0.000000000000000E+000
 -3.790000000000000E-002    0.000000000000000E+000
 -3.780000000000000E-002    0.000000000000000E+000
 -3.770000000000000E-002    0.000000000000000E+000
 -3.760000000000000E-002    0.000000000000000E+000
 -3.750000000000000E-002    0.000000000000000E+000
 -3.740000000000000E-002    0.000000000000000E+000
 -3.730000000000000E-002    0.000000000000000E+000
 -3.720000000000000E-002    0.000000000000000E+000
 -3.710000000000000E-002    0.000000000000000E+000
 -3.700000000000000E-002    0.000000000000000E+000
 -3.690000000000000E-002    2.687928481142396E-048
 -3.680000000000000E-002    3.121750432966959E-047
 -3.670000000000000E-002    1.049317392396038E-046
 -3.660000000000000E-002    3.188659085276103E-046
 -3.650000000000000E-002    8.254870309738366E-046
 -3.640000000000000E-002    1.900258193810705E-045
 -3.630000000000000E-002    3.769240323620457E-045
 -3.620000000000000E-002    5.773983719495218E-045
 -3.610000000000000E-002    6.028974493240093E-045
 -3.600000000000000E-002   -5.357081819983086E-045
 -3.590000000000000E-002   -5.542362658325220E-044
 -3.580000000000000E-002   -2.182747036412954E-043
 -3.570000000000000E-002   -6.725042324683240E-043
 -3.560000000000000E-002   -1.813813867943974E-042
 -3.550000000000000E-002   -4.464310345718369E-042
 -3.540000000000000E-002   -1.020429825908327E-041
 -3.530000000000000E-002   -2.187126570615420E-041
 -3.520000000000000E-002   -4.415405465871051E-041
 -3.510000000000000E-002   -8.404996467552655E-041
 -3.500000000000000E-002   -1.504909521828886E-040
 -3.490000000000000E-002   -2.517108857470703E-040
 -3.480000000000000E-002   -3.875778227228417E-040
 -3.470000000000000E-002   -5.322331844462485E-040
 -3.460000000000000E-002   -5.999428393462426E-040
 -3.450000000000000E-002   -3.847459724603774E-040
 -3.440000000000000E-002    5.362712391737385E-040
 -3.430000000000000E-002    2.942391273599600E-039
 -3.420000000000000E-002    8.144149482578400E-039
 -3.410000000000000E-002    1.815560377058643E-038
 -3.400000000000000E-002    3.576765679374017E-038
 -3.390000000000000E-002    6.432987663563227E-038
 -3.380000000000000E-002    1.069070304482886E-037
 -3.370000000000000E-002    1.642946800095225E-037
 -3.360000000000000E-002    2.311852763743217E-037
 -3.350000000000000E-002    2.896440496448488E-037
 -3.340000000000000E-002    2.991207674310162E-037
 -3.330000000000000E-002    1.827122278367229E-037
 -3.320000000000000E-002   -1.893780804204164E-037
 -3.310000000000000E-002   -1.015864827696404E-036
 -3.300000000000000E-002   -2.572651382914702E-036
 -3.290000000000000E-002   -5.200371369694191E-036
 -3.280000000000000E-002   -9.250803635986457E-036
 -3.270000000000000E-002   -1.496356322549980E-035
 -3.260000000000000E-002   -2.223768144809365E-035
 -3.250000000000000E-002   -3.026131567333860E-035
 -3.240000000000000E-002   -3.697315897864259E-035
 -3.230000000000000E-002   -3.835976250722973E-035
 -3.220000000000000E-002   -2.765446075998870E-035
 -3.210000000000000E-002    5.393960596540584E-036
 -3.200000000000000E-002    7.486415477778287E-035
 -3.190000000000000E-002    1.981018134301589E-034
 -3.180000000000000E-002    3.935186033744178E-034
 -3.170000000000000E-002    6.758091629824730E-034
 -3.160000000000000E-002    1.047541598180531E-033
 -3.150000000000000E-002    1.486198232384841E-033
 -3.140000000000000E-002    1.926254645129001E-033
 -3.130000000000000E-002    2.236985494675867E-033
 -3.120000000000000E-002    2.198565943203759E-033
 -3.110000000000000E-002    1.481827697594131E-033
 -3.100000000000000E-002   -3.592858788878216E-034
 -3.090000000000000E-002   -3.869234576014099E-033
 -3.080000000000000E-002   -9.628839916038223E-033
 -3.070000000000000E-002   -1.812928148474662E-032
 -3.060000000000000E-002   -2.956200813516061E-032
 -3.050000000000000E-002   -4.351031967987311E-032
 -3.040000000000000E-002   -5.854273344930919E-032
 -3.030000000000000E-002   -7.173379655950362E-032
 -3.020000000000000E-002   -7.817686801834675E-032
 -3.010000000000000E-002   -7.060553169156744E-032
 -3.000000000000000E-002   -3.930251815061975E-032
 -2.990000000000000E-002    2.746073072319221E-032
 -2.980000000000000E-002    1.421590107903843E-031
 -2.970000000000000E-002    3.156103647477573E-031
 -2.960000000000000E-002    5.531672430369152E-031
 -2.950000000000000E-002    8.493746811951231E-031
 -2.940000000000000E-002    1.181236290642971E-030
 -2.930000000000000E-002    1.500651067731309E-030
 -2.920000000000000E-002    1.727164434856790E-030
 -2.910000000000000E-002    1.742886350264698E-030
 -2.900000000000000E-002    1.392197886074102E-030
 -2.890000000000000E-002    4.895481598664438E-031
 -2.880000000000000E-002   -1.160957408721142E-030
 -2.870000000000000E-002   -3.730642386965456E-030
 -2.860000000000000E-002   -7.313523421760260E-030
 -2.850000000000000E-002   -1.185549241498002E-029
 -2.840000000000000E-002   -1.706884907295934E-029
 -2.830000000000000E-002   -2.234083917117019E-029
 -2.820000000000000E-002   -2.665146215679423E-029
 -2.810000000000000E-002   -2.852317725461136E-029
 -2.800000000000000E-002   -2.603225214132341E-029
 -2.790000000000000E-002   -1.691659217691963E-029
 -2.780000000000000E-002    1.184022490870755E-030
 -2.770000000000000E-002    3.032513330385783E-029
 -2.760000000000000E-002    7.167704990680705E-029
 -2.750000000000000E-002    1.247779735521722E-028
 -2.740000000000000E-002    1.866714702877777E-028
 -2.730000000000000E-002    2.510300268730987E-028
 -2.720000000000000E-002    3.074255149944000E-028
 -2.710000000000000E-002    3.409673520958331E-028
 -2.700000000000000E-002    3.325789350173773E-028
 -2.690000000000000E-002    2.602065882782633E-028
 -2.680000000000000E-002    1.012360355263188E-028
 -2.670000000000000E-002   -1.636911328265560E-028
 -2.660000000000000E-002   -5.454295801406961E-028
 -2.650000000000000E-002   -1.039869440437406E-027
 -2.640000000000000E-002   -1.620818388624623E-027
 -2.630000000000000E-002   -2.233185278455587E-027
 -2.620000000000000E-002   -2.787852503160408E-027
 -2.610000000000000E-002   -3.160009385621852E-027
 -2.600000000000000E-002   -3.192970640695163E-027
 -2.590000000000000E-002   -2.709506780930668E-027
 -2.580000000000000E-002   -1.532354112869141E-027
 -2.570000000000000E-002    4.852614216167528E-028
 -2.560000000000000E-002    3.419635776629076E-027
 -2.550000000000000E-002    7.229608775665411E-027
 -2.540000000000000E-002    1.170747346164029E-026
 -2.530000000000000E-002    1.643528689518037E-026
 -2.520000000000000E-002    2.075663085631563E-026
 -2.510000000000000E-002    2.377579480572623E-026
 -2.500000000000000E-002    2.439706187420684E-026
 -2.490000000000000E-002    2.141558306398215E-026
 -2.480000000000000E-002    1.366763301543268E-026
 -2.470000000000000E-002    2.413414513353637E-028
 -2.460000000000000E-002   -1.926081868348430E-026
 -2.450000000000000E-002   -4.442908338139576E-026
 -2.440000000000000E-002   -7.375870121116160E-026
 -2.430000000000000E-002   -1.044177286238158E-025
 -2.420000000000000E-002   -1.321327019764146E-025
 -2.410000000000000E-002   -1.512614508399139E-025
 -2.400000000000000E-002   -1.551203427775376E-025
 -2.390000000000000E-002   -1.366191136576160E-025
 -2.380000000000000E-002   -8.922788668032989E-026
 -2.370000000000000E-002   -8.256046957589848E-027
 -2.360000000000000E-002    1.076366478219381E-025
 -2.350000000000000E-002    2.548470978051220E-025
 -2.340000000000000E-002    4.233786075675558E-025
 -2.330000000000000E-002    5.958250249953397E-025
 -2.320000000000000E-002    7.471269558103390E-025
 -2.310000000000000E-002    8.454473461376557E-025
 -2.300000000000000E-002    8.544696592009600E-025
 -2.290000000000000E-002    7.373123890068498E-025
 -2.280000000000000E-002    4.620701598113472E-025
 -2.270000000000000E-002    8.735574285599003E-027
 -2.260000000000000E-002   -6.230588452880897E-025
 -2.250000000000000E-002   -1.406383477007250E-024
 -2.240000000000000E-002   -2.280674556261877E-024
 -2.230000000000000E-002   -3.148211872943396E-024
 -2.220000000000000E-002   -3.875022844091581E-024
 -2.210000000000000E-002   -4.297731892508991E-024
 -2.200000000000000E-002   -4.237508626621983E-024
 -2.190000000000000E-002   -3.521585587963454E-024
 -2.180000000000000E-002   -2.011812633969715E-024
 -2.170000000000000E-002    3.615701903132415E-025
 -2.160000000000000E-002    3.564224230537802E-024
 -2.150000000000000E-002    7.424828896010493E-024
 -2.140000000000000E-002    1.161105907041410E-023
 -2.130000000000000E-002    1.562124364739325E-023
 -2.120000000000000E-002    1.879854878666969E-023
 -2.110000000000000E-002    2.037349953943764E-023
 -2.100000000000000E-002    1.953839723725942E-023
 -2.090000000000000E-002    1.555358990434630E-023
 -2.080000000000000E-002    7.880744908944908E-024
 -2.070000000000000E-002   -3.667463416079341E-024
 -2.060000000000000E-002   -1.877789445976233E-023
 -2.050000000000000E-002   -3.650997555547697E-023
 -2.040000000000000E-002   -5.521764572296723E-023
 -2.030000000000000E-002   -7.254819290671422E-023
 -2.020000000000000E-002   -8.554393917601346E-023
 -2.010000000000000E-002   -9.086608008605151E-023
 -2.000000000000000E-002   -8.514840659103829E-023
 -1.990000000000000E-002   -6.547204952380239E-023
 -1.980000000000000E-002   -2.993183298080245E-023
 -1.970000000000000E-002    2.175805404257111E-023
 -1.960000000000000E-002    8.769390238091758E-023
 -1.950000000000000E-002    1.633413400689254E-022
 -1.940000000000000E-002    2.413278071520213E-022
 -1.930000000000000E-002    3.115722809584066E-022
 -1.920000000000000E-002    3.618402107490178E-022
 -1.910000000000000E-002    3.787775537407678E-022
 -1.900000000000000E-002    3.494262287391053E-022
 -1.890000000000000E-002    2.631552794494200E-022
 -1.880000000000000E-002    1.138625408116628E-022
 -1.870000000000000E-002   -9.778072262100606E-023
 -1.860000000000000E-002   -3.623446131476089E-022
 -1.850000000000000E-002   -6.602715412650503E-022
 -1.840000000000000E-002   -9.614995730941094E-022
 -1.830000000000000E-002   -1.226426359768749E-021
 -1.820000000000000E-002   -1.408477243504905E-021
 -1.810000000000000E-002   -1.458393154088582E-021
 -1.800000000000000E-002   -1.330148216194692E-021
 -1.790000000000000E-002   -9.881535206779612E-022
 -1.780000000000000E-002   -4.151263210009572E-022
 -1.770000000000000E-002    3.802664086179985E-022
 -1.760000000000000E-002    1.357103745476253E-021
 -1.750000000000000E-002    2.438489427009138E-021
 -1.740000000000000E-002    3.511652284084296E-021
 -1.730000000000000E-002    4.432928114674680E-021
 -1.720000000000000E-002    5.038308238413702E-021
 -1.710000000000000E-002    5.159668901362821E-021
 -1.700000000000000E-002    4.646051938397525E-021
 -1.690000000000000E-002    3.388502024194909E-021
 -1.680000000000000E-002    1.346085345787516E-021
 -1.670000000000000E-002   -1.430100830476262E-021
 -1.660000000000000E-002   -4.778693887585759E-021
 -1.650000000000000E-002   -8.419606370835930E-021
 -1.640000000000000E-002   -1.195908447232404E-020
 -1.630000000000000E-002   -1.491120123541945E-020
 -1.620000000000000E-002   -1.673725598782597E-020
 -1.610000000000000E-002   -1.690254259665401E-020
 -1.600000000000000E-002   -1.494747924822564E-020
 -1.590000000000000E-002   -1.056739580910897E-020
 -1.580000000000000E-002   -3.692656865002068E-021
 -1.570000000000000E-002    5.441388686021896E-021
 -1.560000000000000E-002    1.624645784317598E-020
 -1.550000000000000E-002    2.776730833280903E-020
 -1.540000000000000E-002    3.871206045806923E-020
 -1.530000000000000E-002    4.753407193755102E-020
 -1.520000000000000E-002    5.256756485748604E-020
 -1.510000000000000E-002    5.221267678851025E-020
 -1.500000000000000E-002    4.515805340091005E-020
 -1.490000000000000E-002    3.062129157762410E-020
 -1.480000000000000E-002    8.580322453011847E-021
 -1.470000000000000E-002   -2.003644759272154E-020
 -1.460000000000000E-002   -5.323588889351565E-020
 -1.450000000000000E-002   -8.795489306019107E-020
 -1.440000000000000E-002   -1.201909888342590E-019
 -1.430000000000000E-002   -1.452845003268160E-019
 -1.420000000000000E-002   -1.583520298255124E-019
 -1.410000000000000E-002   -1.548515385311479E-019
 -1.400000000000000E-002   -1.312376567421659E-019
 -1.390000000000000E-002   -8.564462822974944E-020
 -1.380000000000000E-002   -1.851631077264332E-020
 -1.370000000000000E-002    6.690916692530888E-020
 -1.360000000000000E-002    1.643551470890744E-019
 -1.350000000000000E-002    2.645885495843032E-019
 -1.340000000000000E-002    3.558923227300024E-019
 -1.330000000000000E-002    4.249570464669546E-019
 -1.320000000000000E-002    4.581738158513606E-019
 -1.310000000000000E-002    4.432554958494387E-019
 -1.300000000000000E-002    3.710564833838178E-019
 -1.290000000000000E-002    2.374064071510651E-019
 -1.280000000000000E-002    4.473192210215572E-020
 -1.270000000000000E-002   -1.967823544544175E-019
 -1.260000000000000E-002   -4.687389776828095E-019
 -1.250000000000000E-002   -7.449882572885670E-019
 -1.240000000000000E-002   -9.931445090602868E-019
 -1.230000000000000E-002   -1.177195890605311E-018
 -1.220000000000000E-002   -1.261118376439457E-018
 -1.210000000000000E-002   -1.213259774585897E-018
 -1.200000000000000E-002   -1.011115798059404E-018
 -1.190000000000000E-002   -6.459921302517495E-019
 -1.180000000000000E-002   -1.269560051811106E-019
 -1.170000000000000E-002    5.165547461402236E-019
 -1.160000000000000E-002    1.234061498755519E-018
 -1.150000000000000E-002    1.955792262814534E-018
 -1.140000000000000E-002    2.597126083136584E-018
 -1.130000000000000E-002    3.065738965606869E-018
 -1.120000000000000E-002    3.271125495225411E-018
 -1.110000000000000E-002    3.135814440117362E-018
 -1.100000000000000E-002    2.607255671668023E-018
 -1.090000000000000E-002    1.669068456239269E-018
 -1.080000000000000E-002    3.501660875983800E-019
 -1.070000000000000E-002   -1.269764573850414E-018
 -1.060000000000000E-002   -3.059800045486969E-018
 -1.050000000000000E-002   -4.843364175881136E-018
 -1.040000000000000E-002   -6.410354058056654E-018
 -1.030000000000000E-002   -7.535607512994042E-018
 -1.020000000000000E-002   -8.002707997487385E-018
 -1.010000000000000E-002   -7.631287094557822E-018
 -1.000000000000000E-002   -6.305217581841669E-018
 -9.899999999999999E-003   -3.998497295000731E-018
 -9.800000000000000E-003   -7.952947957520142E-019
 -9.699999999999999E-003    3.099317898891913E-018
 -9.599999999999999E-003    7.360952834504556E-018
 -9.500000000000000E-003    1.156190486400494E-017
 -9.399999999999999E-003    1.520230662570041E-017
 -9.299999999999999E-003    1.775552198113436E-017
 -9.200000000000000E-003    1.872499633301730E-017
 -9.099999999999999E-003    1.770791473641710E-017
 -8.999999999999999E-003    1.445938707134089E-017
 -8.900000000000000E-003    8.949678171985311E-018
 -8.799999999999999E-003    1.406511144849389E-018
 -8.699999999999999E-003   -7.665195782227003E-018
 -8.600000000000000E-003   -1.749246597337500E-017
 -8.499999999999999E-003   -2.707630347134037E-017
 -8.399999999999999E-003   -3.526748782697339E-017
 -8.300000000000000E-003   -4.087317957265585E-017
 -8.199999999999999E-003   -4.278725652548825E-017
 -8.100000000000000E-003   -4.013332386205019E-017
 -8.000000000000000E-003   -3.240595934312036E-017
 -7.899999999999999E-003   -1.959351294403319E-017
 -7.800000000000000E-003   -2.265081920618106E-018
 -7.699999999999999E-003    1.839447369851848E-017
 -7.599999999999999E-003    4.061430927440842E-017
 -7.499999999999999E-003    6.213963376507681E-017
 -7.399999999999999E-003    8.040640307130906E-017
 -7.299999999999999E-003    9.278069403511985E-017
 -7.199999999999999E-003    9.684612850587653E-017
 -7.100000000000000E-003    9.071440553457040E-017
 -6.999999999999999E-003    7.332728350698980E-017
 -6.899999999999999E-003    4.471432489854561E-017
 -6.800000000000000E-003    6.169871753093604E-018
 -6.699999999999999E-003   -3.968383852102543E-017
 -6.599999999999999E-003   -8.897282780051775E-017
 -6.499999999999999E-003   -1.368004935004487E-016
 -6.399999999999999E-003   -1.776281252206762E-016
 -6.299999999999999E-003   -2.057880703170761E-016
 -6.199999999999999E-003   -2.160926409789316E-016
 -6.100000000000000E-003   -2.044856771041551E-016
 -5.999999999999999E-003   -1.686705486704659E-016
 -5.899999999999999E-003   -1.086407944729458E-016
 -5.800000000000000E-003   -2.703959483962500E-017
 -5.699999999999999E-003    7.071817131981151E-017
 -5.599999999999999E-003    1.766106726197007E-016
 -5.499999999999999E-003    2.804857889552158E-016
 -5.399999999999999E-003    3.708436668652221E-016
 -5.299999999999999E-003    4.358846231477179E-016
 -5.199999999999999E-003    4.647462086286455E-016
 -5.099999999999999E-003    4.488213100830818E-016
 -4.999999999999999E-003    3.830249877292850E-016
 -4.899999999999999E-003    2.668633488481380E-016
 -4.799999999999999E-003    1.051595678961051E-016
 -4.699999999999999E-003   -9.169173416585624E-017
 -4.599999999999999E-003   -3.080366187148409E-016
 -4.499999999999999E-003   -5.238869305036864E-016
 -4.399999999999999E-003   -7.164444357738504E-016
 -4.299999999999999E-003   -8.621425642724208E-016
 -4.199999999999999E-003   -9.390569450260885E-016
 -4.099999999999999E-003   -9.294749603589853E-016
 -3.999999999999999E-003   -8.223686136320091E-016
 -3.899999999999999E-003   -6.154909333069766E-016
 -3.799999999999999E-003   -3.168179039680195E-016
 -3.699999999999999E-003    5.490765369896173E-017
 -3.599999999999999E-003    4.707103855239513E-016
 -3.499999999999999E-003    8.930824584103860E-016
 -3.399999999999999E-003    1.278822960320685E-015
 -3.299999999999999E-003    1.582863581242194E-015
 -3.199999999999999E-003    1.762802103507381E-015
 -3.099999999999999E-003    1.783750710452021E-015
 -2.999999999999999E-003    1.623022578117082E-015
 -2.899999999999999E-003    1.274133501773742E-015
 -2.799999999999999E-003    7.496009178003348E-016
 -2.699999999999999E-003    8.208494685258755E-017
 -2.599999999999999E-003   -6.764671213189744E-016
 -2.499999999999999E-003   -1.457840407671438E-015
 -2.399999999999999E-003   -2.182695034663907E-015
 -2.299999999999999E-003   -2.767557384386339E-015
 -2.199999999999999E-003   -3.133155075050986E-015
 -2.099999999999999E-003   -3.213379255449805E-015
 -1.999999999999999E-003   -2.964002359476702E-015
 -1.899999999999999E-003   -2.370191508562398E-015
 -1.799999999999999E-003   -1.451863539802962E-015
 -1.699999999999999E-003   -2.660339592907601E-016
 -1.599999999999999E-003    1.094475953627952E-015
 -1.499999999999999E-003    2.506304949901454E-015
 -1.399999999999999E-003    3.824743468457089E-015
 -1.299999999999999E-003    4.896380981617035E-015
 -1.199999999999999E-003    5.574313918077357E-015
 -1.099999999999999E-003    5.734633051826275E-015
 -9.999999999999989E-004    5.292610178715486E-015
 -8.999999999999990E-004    4.216834704789551E-015
 -7.999999999999990E-004    2.539539888986733E-015
 -6.999999999999989E-004    3.615380496242658E-016
 -5.999999999999990E-004   -2.149453793090239E-015
 -4.999999999999989E-004   -4.767776270478019E-015
 -3.999999999999989E-004   -7.226079107286822E-015
 -2.999999999999989E-004   -9.238099803143139E-015
 -1.999999999999989E-004   -1.052642149486403E-014
 -9.999999999999892E-005   -1.085295032427094E-014
  1.084202172485504E-018   -1.004926540747184E-014
  1.000000000000011E-004   -8.043665219596910E-015
  2.000000000000011E-004   -4.881641954841667E-015
  3.000000000000011E-004   -7.368058208813605E-016
  4.000000000000011E-004    4.090121025144132E-015
  5.000000000000011E-004    9.185682309607678E-015
  6.000000000000011E-004    1.405167836682560E-014
  7.000000000000011E-004    1.814562808071756E-014
  8.000000000000011E-004    2.093112861365684E-014
  9.000000000000012E-004    2.193418310161176E-014
  1.000000000000001E-003    2.080045325617268E-014
  1.100000000000001E-003    1.734765890450968E-014
  1.200000000000001E-003    1.160710331431756E-014
  1.300000000000001E-003    3.848670809283563E-015
  1.400000000000001E-003   -5.415380917655104E-015
  1.500000000000001E-003   -1.545092663629769E-014
  1.600000000000001E-003   -2.534775982699176E-014
  1.700000000000001E-003   -3.408917378859820E-014
  1.800000000000001E-003   -4.064125100793253E-014
  1.900000000000001E-003   -4.405520754845199E-014
  2.000000000000001E-003   -4.357402393175212E-014
  2.100000000000001E-003   -3.873302685936788E-014
  2.200000000000001E-003   -2.944347153087010E-014
  2.300000000000001E-003   -1.604850444392008E-014
  2.400000000000001E-003    6.575320431082098E-016
  2.500000000000001E-003    1.945291189005920E-014
  2.600000000000001E-003    3.875827534488344E-014
  2.700000000000001E-003    5.675080236837505E-014
  2.800000000000001E-003    7.151659725898172E-014
  2.900000000000001E-003    8.123040105257256E-014
  3.000000000000001E-003    8.434773217339414E-014
  3.100000000000001E-003    7.979143722301115E-014
  3.200000000000001E-003    6.711313103409415E-014
  3.300000000000001E-003    4.661023961662505E-014
  3.400000000000001E-003    1.938165592042082E-014
  3.500000000000001E-003   -1.269073040198718E-014
  3.600000000000001E-003   -4.704125736825813E-014
  3.700000000000001E-003   -8.059961901182481E-014
  3.800000000000001E-003   -1.100407551743678E-013
  3.900000000000001E-003   -1.320881485218369E-013
  4.000000000000001E-003   -1.438456492268344E-013
  4.100000000000001E-003   -1.431272255801540E-013
  4.200000000000001E-003   -1.287508593592333E-013
  4.300000000000001E-003   -1.007626495307158E-013
  4.400000000000001E-003   -6.056054578051187E-014
  4.500000000000001E-003   -1.089415271464674E-014
  4.600000000000002E-003    4.427287560430261E-014
  4.700000000000001E-003    1.000385597220391E-013
  4.800000000000001E-003    1.509630061674504E-013
  4.900000000000002E-003    1.915656785832761E-013
  5.000000000000001E-003    2.168785163179229E-013
  5.100000000000001E-003    2.230038784907093E-013
  5.200000000000001E-003    2.076199462165211E-013
  5.300000000000002E-003    1.703756096491420E-013
  5.400000000000001E-003    1.131222120936569E-013
  5.500000000000001E-003    3.994071941913951E-014
  5.600000000000002E-003   -4.306011561349085E-014
  5.700000000000001E-003   -1.281776157582804E-013
  5.800000000000001E-003   -2.067601407483228E-013
  5.900000000000002E-003   -2.700177842672109E-013
  6.000000000000001E-003   -3.099311007716773E-013
  6.100000000000001E-003   -3.201726134080278E-013
  6.200000000000002E-003   -2.969454305362020E-013
  6.300000000000002E-003   -2.396416200598419E-013
  6.400000000000001E-003   -1.512317192090711E-013
  6.500000000000001E-003   -3.831582685162506E-014
  6.600000000000002E-003    8.920534259336936E-014
  6.700000000000001E-003    2.188447138575015E-013
  6.800000000000001E-003    3.365940031922526E-013
  6.900000000000002E-003    4.282639646658828E-013
  7.000000000000001E-003    4.809870387812435E-013
  7.100000000000001E-003    4.847401925484180E-013
  7.200000000000002E-003    4.337283763935397E-013
  7.300000000000002E-003    3.274666274428256E-013
  7.400000000000001E-003    1.714137603442532E-013
  7.500000000000001E-003   -2.295816158573666E-014
  7.600000000000002E-003   -2.387267220490540E-013
  7.700000000000001E-003   -4.547228618960989E-013
  7.800000000000001E-003   -6.473171468937018E-013
  7.900000000000001E-003   -7.926626893060745E-013
  8.000000000000002E-003   -8.692066566904683E-013
  8.100000000000001E-003   -8.602348373760543E-013
  8.200000000000001E-003   -7.561844994461155E-013
  8.300000000000002E-003   -5.564576271757531E-013
  8.400000000000001E-003   -2.704910929087556E-013
  8.500000000000002E-003    8.210822439920400E-014
  8.600000000000002E-003    4.724759252981363E-013
  8.700000000000001E-003    8.644663329627486E-013
  8.800000000000002E-003    1.217598275318357E-012
  8.900000000000002E-003    1.490765708318470E-012
  9.000000000000001E-003    1.646408103823117E-012
  9.100000000000002E-003    1.654755739784613E-012
  9.200000000000002E-003    1.497719242929932E-012
  9.300000000000001E-003    1.171986428075823E-012
  9.400000000000002E-003    6.909262624992697E-013
  9.500000000000001E-003    8.498491596345501E-014
  9.600000000000001E-003   -5.996170445586391E-013
  9.700000000000002E-003   -1.303921580480903E-012
  9.800000000000001E-003   -1.960864384555143E-012
  9.900000000000001E-003   -2.501182165397875E-012
  1.000000000000000E-002   -2.860119014127342E-012
  1.010000000000000E-002   -2.984325427270076E-012
  1.020000000000000E-002   -2.838268438902917E-012
  1.030000000000000E-002   -2.409457737237589E-012
  1.040000000000000E-002   -1.711849598640907E-012
  1.050000000000000E-002   -7.869167009100279E-013
  1.060000000000000E-002    2.979339820781389E-013
  1.070000000000000E-002    1.453675198157847E-012
  1.080000000000000E-002    2.576511142932826E-012
  1.090000000000000E-002    3.556800873921375E-012
  1.100000000000000E-002    4.289334031139668E-012
  1.110000000000000E-002    4.684043166214683E-012
  1.120000000000000E-002    4.676110957388256E-012
  1.130000000000000E-002    4.234408441380524E-012
  1.140000000000000E-002    3.367276055633844E-012
  1.150000000000000E-002    2.124849802991710E-012
  1.160000000000000E-002    5.974183357389822E-013
  1.170000000000000E-002   -1.090344501011782E-012
  1.180000000000000E-002   -2.789019157742250E-012
  1.190000000000000E-002   -4.337289328074915E-012
  1.200000000000000E-002   -5.576959368844395E-012
  1.210000000000000E-002   -6.368795979110703E-012
  1.220000000000000E-002   -6.607664686017303E-012
  1.230000000000000E-002   -6.235381459011360E-012
  1.240000000000000E-002   -5.249812619462816E-012
  1.250000000000000E-002   -3.709021287676019E-012
  1.260000000000000E-002   -1.729676835051989E-012
  1.270000000000000E-002    5.205409999789065E-013
  1.280000000000000E-002    2.836213837441249E-012
  1.290000000000000E-002    4.992205000882588E-012
  1.300000000000000E-002    6.764947684209546E-012
  1.310000000000000E-002    7.955078646101184E-012
  1.320000000000000E-002    8.409213994126961E-012
  1.330000000000000E-002    8.038591914974123E-012
  1.340000000000000E-002    6.832458363678135E-012
  1.350000000000000E-002    4.864453099927823E-012
  1.360000000000000E-002    2.290841473413297E-012
  1.370000000000000E-002   -6.598119911915094E-013
  1.380000000000000E-002   -3.705091381291259E-012
  1.390000000000000E-002   -6.533994229103386E-012
  1.400000000000000E-002   -8.836918501413897E-012
  1.410000000000000E-002   -1.033764584084881E-011
  1.420000000000000E-002   -1.082418478958189E-011
  1.430000000000000E-002   -1.017523480112866E-011
  1.440000000000000E-002   -8.379242466061038E-012
  1.450000000000000E-002   -5.543554710720831E-012
  1.460000000000000E-002   -1.892013117688846E-012
  1.470000000000000E-002    2.249608012193224E-012
  1.480000000000000E-002    6.479716249163693E-012
  1.490000000000000E-002    1.035674355004189E-011
  1.500000000000000E-002    1.344175670835131E-011
  1.510000000000000E-002    1.534397906804352E-011
  1.520000000000000E-002    1.576478292182775E-011
  1.530000000000000E-002    1.453554482899449E-011
  1.540000000000000E-002    1.164504967540080E-011
  1.550000000000000E-002    7.252874287070955E-012
  1.560000000000000E-002    1.686354391839106E-012
  1.570000000000000E-002   -4.579773874942368E-012
  1.580000000000000E-002   -1.096027004116939E-011
  1.590000000000000E-002   -1.681030506613801E-011
  1.600000000000000E-002   -2.148627004133220E-011
  1.610000000000000E-002   -2.441106502464567E-011
  1.620000000000000E-002   -2.513759574293462E-011
  1.630000000000000E-002   -2.340395855576259E-011
  1.640000000000000E-002   -1.917412939811826E-011
  1.650000000000000E-002   -1.265903311715089E-011
  1.660000000000000E-002   -4.314436877938829E-012
  1.670000000000000E-002    5.185796683095587E-012
  1.680000000000000E-002    1.500019318607486E-011
  1.690000000000000E-002    2.419055792348224E-011
  1.700000000000000E-002    3.180765907962616E-011
  1.710000000000000E-002    3.698422445753518E-011
  1.720000000000000E-002    3.902652273583997E-011
  1.730000000000000E-002    3.749534234815468E-011
  1.740000000000000E-002    3.226760077139315E-011
  1.750000000000000E-002    2.357112881633534E-011
  1.760000000000000E-002    1.198734799835046E-011
  1.770000000000000E-002   -1.580618419586003E-012
  1.780000000000000E-002   -1.597362380395549E-011
  1.790000000000000E-002   -2.987177117706581E-011
  1.800000000000000E-002   -4.191188670157826E-011
  1.810000000000000E-002   -5.081715009204421E-011
  1.820000000000000E-002   -5.552691432931159E-011
  1.830000000000000E-002   -5.531401733651610E-011
  1.840000000000000E-002   -4.987724903387775E-011
  1.850000000000000E-002   -3.939830869844565E-011
  1.860000000000000E-002   -2.455538180000051E-011
  1.870000000000000E-002   -6.489238679627332E-012