 -4.000000000000000E-002    0.000000000000000E+000
 -3.990000000000000E-002    0.000000000000000E+000
 -3.980000000000000E-002    0.000000000000000E+000
 -3.970000000000000E-002    0.000000000000000E+000
 -3.960000000000000E-002    0.000000000000000E+000
 -3.950000000000000E-002    0.000000000000000E+000
 -3.940000000000000E-002    0.000000000000000E+000
 -3.930000000000000E-002    0.000000000000000E+000
 -3.920000000000000E-002    0.000000000000000E+000
 -3.910000000000000E-002    0.000000000000000E+000
 -3.900000000000000E-002    0.000000000000000E+000
 -3.890000000000000E-002    0.000000000000000E+000
 -3.880000000000000E-002    0.000000000000000E+000
 -3.870000000000000E-002    0.000000000000000E+000
 -3.860000000000000E-002    0.000000000000000E+000
 -3.850000000000000E-002    0.000000000000000E+000
 -3.840000000000000E-002    0.000000000000000E+000
 -3.830000000000000E-002    0.000000000000000E+000
 -3.820000000000000E-002    0.000000000000000E+000
 -3.810000000000000E-002    0.000000000000000E+000
 -3.800000000000000E-002    0.000000000000000E+000
 -3.790000000000000E-002    0.000000000000000E+000
 -3.780000000000000E-002    0.000000000000000E+000
 -3.770000000000000E-002    0.000000000000000E+000
 -3.760000000000000E-002    0.000000000000000E+000
 -3.750000000000000E-002    0.000000000000000E+000
 -3.740000000000000E-002    0.000000000000000E+000
 -3.730000000000000E-002    0.000000000000000E+000
 -3.720000000000000E-002    0.000000000000000E+000
 -3.710000000000000E-002    0.000000000000000E+000
 -3.700000000000000E-002    0.000000000000000E+000
 -3.690000000000000E-002    1.870335700999560E-047
 -3.680000000000000E-002    2.172201130108723E-046
 -3.670000000000000E-002    7.301443451516092E-046
 -3.660000000000000E-002    2.218758038894619E-045
 -3.650000000000000E-002    5.714165454304168E-045
 -3.640000000000000E-002    1.315045124483258E-044
 -3.630000000000000E-002    2.891127298642206E-044
 -3.620000000000000E-002    5.634540831040150E-044
 -3.610000000000000E-002    9.223884278987055E-044
 -3.600000000000000E-002    1.036069382780741E-043
 -3.590000000000000E-002   -3.810950585364727E-044
 -3.580000000000000E-002   -7.133636808123573E-043
 -3.570000000000000E-002   -2.900554378431137E-042
 -3.560000000000000E-002   -8.886060901445570E-042
 -3.550000000000000E-002   -2.359769717143161E-041
 -3.540000000000000E-002   -5.692606455839880E-041
 -3.530000000000000E-002   -1.274049210841851E-040
 -3.520000000000000E-002   -2.673361029572755E-040
 -3.510000000000000E-002   -5.285716351115784E-040
 -3.500000000000000E-002   -9.860163494480054E-040
 -3.490000000000000E-002   -1.731607285475788E-039
 -3.480000000000000E-002   -2.843951782238861E-039
 -3.470000000000000E-002   -4.306729239068255E-039
 -3.460000000000000E-002   -5.832122028485487E-039
 -3.450000000000000E-002   -6.525594126849881E-039
 -3.440000000000000E-002   -4.311633426293531E-039
 -3.430000000000000E-002    4.959268601304493E-039
 -3.420000000000000E-002    2.875764897909881E-038
 -3.410000000000000E-002    7.938040969950331E-038
 -3.400000000000000E-002    1.753405204808645E-037
 -3.390000000000000E-002    3.417667389640679E-037
 -3.380000000000000E-002    6.081446708955558E-037
 -3.370000000000000E-002    1.000607865774148E-036
 -3.360000000000000E-002    1.524606490591829E-036
 -3.350000000000000E-002    2.132407810028042E-036
 -3.340000000000000E-002    2.669117501178273E-036
 -3.330000000000000E-002    2.791822298985871E-036
 -3.320000000000000E-002    1.860714955350663E-036
 -3.310000000000000E-002   -1.189043448576042E-036
 -3.300000000000000E-002   -7.967729674330879E-036
 -3.290000000000000E-002   -2.068756809897635E-035
 -3.280000000000000E-002   -4.205773918730899E-035
 -3.270000000000000E-002   -7.486825122210184E-035
 -3.260000000000000E-002   -1.210576696130450E-034
 -3.250000000000000E-002   -1.800170562458735E-034
 -3.240000000000000E-002   -2.458804210976791E-034
 -3.230000000000000E-002   -3.036327276280342E-034
 -3.220000000000000E-002   -3.240869539036431E-034
 -3.210000000000000E-002   -2.582057924083986E-034
 -3.200000000000000E-002   -3.193535020396139E-035
 -3.190000000000000E-002    4.562889561924278E-034
 -3.180000000000000E-002    1.331935746687942E-033
 -3.170000000000000E-002    2.729830056313251E-033
 -3.160000000000000E-002    4.762570303399168E-033
 -3.150000000000000E-002    7.465229136012189E-033
 -3.140000000000000E-002    1.071049570358336E-032
 -3.130000000000000E-002    1.409168912894927E-032
 -3.120000000000000E-002    1.677791181030201E-032
 -3.110000000000000E-002    1.735710210682654E-032
 -3.100000000000000E-002    1.369960261411116E-032
 -3.090000000000000E-002    2.896834979494971E-033
 -3.080000000000000E-002   -1.864503133097627E-032
 -3.070000000000000E-002   -5.485192303732215E-032
 -3.060000000000000E-002   -1.092479257355369E-031
 -3.050000000000000E-002   -1.837204913699139E-031
 -3.040000000000000E-002   -2.766976715691307E-031
 -3.030000000000000E-002   -3.807299942854435E-031
 -3.020000000000000E-002   -4.796115173783549E-031
 -3.010000000000000E-002   -5.453886633191984E-031
 -3.000000000000000E-002   -5.358914774386593E-031
 -2.990000000000000E-002   -3.937631280274856E-031
 -2.980000000000000E-002   -4.831530800450015E-032
 -2.970000000000000E-002    5.781742426113665E-031
 -2.960000000000000E-002    1.557992107836604E-030
 -2.950000000000000E-002    2.937824968097066E-030
 -2.940000000000000E-002    4.710070143567047E-030
 -2.930000000000000E-002    6.776136175851827E-030
 -2.920000000000000E-002    8.904370294392187E-030
 -2.910000000000000E-002    1.068816638929220E-029
 -2.900000000000000E-002    1.151341269956796E-029
 -2.890000000000000E-002    1.054832181318241E-029
 -2.880000000000000E-002    6.772264584239024E-030
 -2.870000000000000E-002   -9.375527487364734E-031
 -2.860000000000000E-002   -1.364309272173292E-029
 -2.850000000000000E-002   -3.209214586127147E-029
 -2.840000000000000E-002   -5.637070839747666E-029
 -2.830000000000000E-002   -8.547394562659474E-029
 -2.820000000000000E-002   -1.168328248956875E-028
 -2.810000000000000E-002   -1.458641418943463E-028
 -2.800000000000000E-002   -1.656465137658485E-028
 -2.790000000000000E-002   -1.668587514068116E-028
 -2.780000000000000E-002   -1.381436624292259E-028
 -2.770000000000000E-002   -6.706865671706954E-029
 -2.760000000000000E-002    5.816490922594548E-029
 -2.750000000000000E-002    2.461722392302524E-028
 -2.740000000000000E-002    4.990139021499864E-028
 -2.730000000000000E-002    8.081877486322246E-028
 -2.720000000000000E-002    1.150386444798553E-027
 -2.710000000000000E-002    1.483680185837744E-027
 -2.700000000000000E-002    1.745050324481124E-027
 -2.690000000000000E-002    1.850428845033665E-027
 -2.680000000000000E-002    1.698531923716367E-027
 -2.670000000000000E-002    1.179735635079989E-027
 -2.660000000000000E-002    1.909561377575913E-028
 -2.650000000000000E-002   -1.343109211729349E-027
 -2.640000000000000E-002   -3.442989162589491E-027
 -2.630000000000000E-002   -6.043628754610763E-027
 -2.620000000000000E-002   -8.963311056920556E-027
 -2.610000000000000E-002   -1.187760841291505E-026
 -2.600000000000000E-002   -1.430529845390497E-026
 -2.590000000000000E-002   -1.561434302009863E-026
 -2.580000000000000E-002   -1.505632434917572E-026
 -2.570000000000000E-002   -1.183667485174282E-026
 -2.560000000000000E-002   -5.225214448253742E-027
 -2.550000000000000E-002    5.293348769946479E-027
 -2.540000000000000E-002    1.983632137294977E-026
 -2.530000000000000E-002    3.792352950073295E-026
 -2.520000000000000E-002    5.828760847021249E-026
 -2.510000000000000E-002    7.873011463290233E-026
 -2.500000000000000E-002    9.606751286384271E-026
 -2.490000000000000E-002    1.062150503178954E-025
 -2.480000000000000E-002    1.044541445505529E-025
 -2.470000000000000E-002    8.591775462984890E-026
 -2.460000000000000E-002    4.630650659453991E-026
 -2.450000000000000E-002   -1.718427732142888E-026
 -2.440000000000000E-002   -1.047897491384316E-025
 -2.430000000000000E-002   -2.130662498285149E-025
 -2.420000000000000E-002   -3.339132332237097E-025
 -2.410000000000000E-002   -4.539379410224265E-025
 -2.400000000000000E-002   -5.544046399373361E-025
 -2.390000000000000E-002   -6.120119799778655E-025
 -2.380000000000000E-002   -6.007061892991379E-025
 -2.370000000000000E-002   -4.946522002466917E-025
 -2.360000000000000E-002   -2.723479590862906E-025
 -2.350000000000000E-002    7.832271063543812E-026
 -2.340000000000000E-002    5.545321444361263E-025
 -2.330000000000000E-002    1.133127166905488E-024
 -2.320000000000000E-002    1.766337661760118E-024
 -2.310000000000000E-002    2.379666713824641E-024
 -2.300000000000000E-002    2.873120309522059E-024
 -2.290000000000000E-002    3.126846972005764E-024
 -2.280000000000000E-002    3.011963589476015E-024
 -2.270000000000000E-002    2.406825060204712E-024
 -2.260000000000000E-002    1.218237143038466E-024
 -2.250000000000000E-002   -5.938346700952584E-025
 -2.240000000000000E-002   -2.990581891169196E-024
 -2.230000000000000E-002   -5.831274990543981E-024
 -2.220000000000000E-002   -8.857263629597792E-024
 -2.210000000000000E-002   -1.168803600932767E-023
 -2.200000000000000E-002   -1.383424291927542E-023
 -2.190000000000000E-002   -1.473175199494517E-023
 -2.180000000000000E-002   -1.379899566542330E-023
 -2.170000000000000E-002   -1.051717270312057E-023
 -2.160000000000000E-002   -4.529217095242748E-024
 -2.150000000000000E-002    4.250750734800785E-024
 -2.140000000000000E-002    1.553022101736921E-023
 -2.130000000000000E-002    2.855004705003429E-023
 -2.120000000000000E-002    4.203468429963851E-023
 -2.110000000000000E-002    5.420129288690436E-023
 -2.100000000000000E-002    6.284615221989105E-023
 -2.090000000000000E-002    6.552150170694142E-023
 -2.080000000000000E-002    5.980697966774370E-023
 -2.070000000000000E-002    4.366718634588913E-023
 -2.060000000000000E-002    1.587163861318581E-023
 -2.050000000000000E-002   -2.356349448924443E-023
 -2.040000000000000E-002   -7.296871659320162E-023
 -2.030000000000000E-002   -1.287194072067860E-022
 -2.020000000000000E-002   -1.851158713174245E-022
 -2.010000000000000E-002   -2.345199887305010E-022
 -2.000000000000000E-002   -2.678100496534465E-022
 -1.990000000000000E-002   -2.751884461692538E-022
 -1.980000000000000E-002   -2.473375951118487E-022
 -1.970000000000000E-002   -1.768680073768314E-022
 -1.960000000000000E-002   -5.994396445887986E-023
 -1.950000000000000E-002    1.020879101452080E-022
 -1.940000000000000E-002    3.012945298792522E-022
 -1.930000000000000E-002    5.222409942277847E-022
 -1.920000000000000E-002    7.418376408624590E-022
 -1.910000000000000E-002    9.301975385887633E-022
 -1.900000000000000E-002    1.052682994989906E-021
 -1.890000000000000E-002    1.073207312299275E-021
 -1.880000000000000E-002    9.587005621912795E-022
 -1.870000000000000E-002    6.844616743221665E-022
 -1.860000000000000E-002    2.399163623341117E-022
 -1.850000000000000E-002   -3.658923598931360E-022
 -1.840000000000000E-002   -1.099907231459247E-021
 -1.830000000000000E-002   -1.902661431316964E-021
 -1.820000000000000E-002   -2.688770413282524E-021
 -1.810000000000000E-002   -3.351048178271214E-021
 -1.800000000000000E-002   -3.768690890607285E-021
 -1.790000000000000E-002   -3.819538699315005E-021
 -1.780000000000000E-002   -3.395875785984487E-021
 -1.770000000000000E-002   -2.422599346917308E-021
 -1.760000000000000E-002   -8.759554668253072E-022
 -1.750000000000000E-002    1.199517140264813E-021
 -1.740000000000000E-002    3.678580536355073E-021
 -1.730000000000000E-002    6.350286491109509E-021
 -1.720000000000000E-002    8.922968933195655E-021
 -1.710000000000000E-002    1.104119718547004E-020
 -1.700000000000000E-002    1.231553835231172E-020
 -1.690000000000000E-002    1.236449401269318E-020
 -1.680000000000000E-002    1.086619166357313E-020
 -1.670000000000000E-002    7.615480641270322E-021
 -1.660000000000000E-002    2.580286959786284E-021
 -1.650000000000000E-002   -4.050389892165055E-021
 -1.640000000000000E-002   -1.183523598322267E-020
 -1.630000000000000E-002   -2.007442119111251E-020
 -1.620000000000000E-002   -2.783547216164812E-020
 -1.610000000000000E-002   -3.401572555000008E-020
 -1.600000000000000E-002   -3.744223816308528E-020
 -1.590000000000000E-002   -3.700521209678305E-020
 -1.580000000000000E-002   -3.181577950220282E-020
 -1.570000000000000E-002   -2.137349326283711E-020
 -1.560000000000000E-002   -5.724174377480433E-021
 -1.550000000000000E-002    1.441463563512041E-020
 -1.540000000000000E-002    3.758449758408569E-020
 -1.530000000000000E-002    6.159541950103446E-020
 -1.520000000000000E-002    8.363091261652954E-020
 -1.510000000000000E-002    1.004577266910282E-019
 -1.500000000000000E-002    1.087376104773405E-019
 -1.490000000000000E-002    1.054248597798189E-019
 -1.480000000000000E-002    8.821851980323676E-020
 -1.470000000000000E-002    5.602415242019937E-020
 -1.460000000000000E-002    9.368509035504375E-021
 -1.450000000000000E-002   -4.929613582051874E-020
 -1.440000000000000E-002   -1.154614877736085E-019
 -1.430000000000000E-002   -1.826618537926893E-019
 -1.420000000000000E-002   -2.428404504582294E-019
 -1.410000000000000E-002   -2.869963151476248E-019
 -1.400000000000000E-002   -3.060922556459196E-019
 -1.390000000000000E-002   -2.921667289143330E-019
 -1.380000000000000E-002   -2.395547960777252E-019
 -1.370000000000000E-002   -1.460889362934457E-019
 -1.360000000000000E-002   -1.412548289426205E-020
 -1.350000000000000E-002    1.487681653277144E-019
 -1.340000000000000E-002    3.296231756083295E-019
 -1.330000000000000E-002    5.105040399726912E-019
 -1.320000000000000E-002    6.696455315486818E-019
 -1.310000000000000E-002    7.832976557793664E-019
 -1.300000000000000E-002    8.281973851616844E-019
 -1.290000000000000E-002    7.844919733170022E-019
 -1.280000000000000E-002    6.388463954899010E-019
 -1.270000000000000E-002    3.873916351086712E-019
 -1.260000000000000E-002    3.812009696398478E-020
 -1.250000000000000E-002   -3.876754971968250E-019
 -1.240000000000000E-002   -8.552855756032661E-019
 -1.230000000000000E-002   -1.318066267982445E-018
 -1.220000000000000E-002   -1.720655474804554E-018
 -1.210000000000000E-002   -2.003869637343236E-018
 -1.200000000000000E-002   -2.111016273411669E-018
 -1.190000000000000E-002   -1.995130622062340E-018
 -1.180000000000000E-002   -1.626438112030257E-018
 -1.170000000000000E-002   -9.991875317872253E-019
 -1.160000000000000E-002   -1.369096530851751E-019
 -1.150000000000000E-002    9.048254236195190E-019
 -1.140000000000000E-002    2.038955152296520E-018
 -1.130000000000000E-002    3.151321289016914E-018
 -1.120000000000000E-002    4.109104953161653E-018
 -1.110000000000000E-002    4.773031517714379E-018
 -1.100000000000000E-002    5.012578124480357E-018
 -1.090000000000000E-002    4.722912250625830E-018
 -1.080000000000000E-002    3.841856573534452E-018
 -1.070000000000000E-002    2.364865916101169E-018
 -1.060000000000000E-002    3.558807559192197E-019
 -1.050000000000000E-002   -2.047965729809905E-018
 -1.040000000000000E-002   -4.639426218188649E-018
 -1.030000000000000E-002   -7.153013163099992E-018
 -1.020000000000000E-002   -9.285794702021985E-018
 -1.010000000000000E-002   -1.072620891800746E-017
 -1.000000000000000E-002   -1.118888155508206E-017
 -9.899999999999999E-003   -1.045238172955686E-017
 -9.800000000000000E-003   -8.395968483565930E-018
 -9.699999999999999E-003   -5.030844158173642E-018
 -9.599999999999999E-003   -5.213176686496010E-019
 -9.500000000000000E-003    4.808312183265829E-018
 -9.399999999999999E-003    1.048433398404697E-017
 -9.299999999999999E-003    1.591335503786928E-017
 -9.200000000000000E-003    2.043088052014967E-017
 -9.099999999999999E-003    2.336620097239650E-017
 -8.999999999999999E-003    2.411872001593979E-017
 -8.900000000000000E-003    2.223871048346983E-017
 -8.799999999999999E-003    1.750388143682438E-017
 -8.699999999999999E-003    9.982192667294401E-018
 -8.600000000000000E-003    7.145975821437591E-020
 -8.499999999999999E-003   -1.149254675769301E-017
 -8.399999999999999E-003   -2.366545471606366E-017
 -8.300000000000000E-003   -3.516365716293860E-017
 -8.199999999999999E-003   -4.457203234777411E-017
 -8.100000000000000E-003   -5.048375210113334E-017
 -8.000000000000000E-003   -5.166112625593941E-017
 -7.899999999999999E-003   -4.720247452355572E-017
 -7.800000000000000E-003   -3.669694662413702E-017
 -7.699999999999999E-003   -2.034785865763241E-017
 -7.599999999999999E-003    9.542306239837124E-019
 -7.499999999999999E-003    2.562458230831319E-017
 -7.399999999999999E-003    5.145423730866346E-017
 -7.299999999999999E-003    7.576050163820913E-017
 -7.199999999999999E-003    9.561308622697877E-017
 -7.100000000000000E-003    1.081217409046282E-016
 -6.999999999999999E-003    1.107622932752379E-016
 -6.899999999999999E-003    1.017103075504151E-016
 -6.800000000000000E-003    8.014638288645971E-017
 -6.699999999999999E-003    4.649513140008712E-017
 -6.599999999999999E-003    2.561814226931261E-018
 -6.499999999999999E-003   -4.846296301034054E-017
 -6.399999999999999E-003   -1.021496836767549E-016
 -6.299999999999999E-003   -1.531325347102129E-016
 -6.199999999999999E-003   -1.955568433206047E-016
 -6.100000000000000E-003   -2.236422504844144E-016
 -5.999999999999999E-003   -2.323160990759161E-016
 -5.899999999999999E-003   -2.178575488651481E-016
 -5.800000000000000E-003   -1.784838538490963E-016
 -5.699999999999999E-003   -1.148073575090581E-016
 -5.599999999999999E-003   -3.009660427793402E-017
 -5.499999999999999E-003    6.971271083721680E-017
 -5.399999999999999E-003    1.762908317386202E-016
 -5.299999999999999E-003    2.794787603168407E-016
 -5.199999999999999E-003    3.681219319421513E-016
 -5.099999999999999E-003    4.311176326217564E-016
 -4.999999999999999E-003    4.585916462883021E-016
 -4.899999999999999E-003    4.430943778899779E-016
 -4.799999999999999E-003    3.806915778808832E-016
 -4.699999999999999E-003    2.718199897202012E-016
 -4.599999999999999E-003    1.217880304251334E-016
 -4.499999999999999E-003   -5.917561750632774E-017
 -4.399999999999999E-003   -2.563859217039436E-016
 -4.299999999999999E-003   -4.516911436470923E-016
 -4.199999999999999E-003   -6.249470708217631E-016
 -4.099999999999999E-003   -7.558781002762660E-016
 -3.999999999999999E-003   -8.261751271520755E-016
 -3.899999999999999E-003   -8.216364744324691E-016
 -3.799999999999999E-003   -7.341316614250779E-016
 -3.699999999999999E-003   -5.631596387303587E-016
 -3.599999999999999E-003   -3.167898160666882E-016
 -3.499999999999999E-003   -1.181436144462288E-017
 -3.399999999999999E-003    3.269963273246371E-016
 -3.299999999999999E-003    6.685618361349323E-016
 -3.199999999999999E-003    9.780147363851138E-016
 -3.099999999999999E-003    1.219913619552756E-015
 -2.999999999999999E-003    1.361888077707618E-015
 -2.899999999999999E-003    1.378382049720908E-015
 -2.799999999999999E-003    1.254115674067197E-015
 -2.699999999999999E-003    9.868671853750997E-016
 -2.599999999999999E-003    5.892046843264392E-016
 -2.499999999999999E-003    8.886364669952138E-017
 -2.399999999999999E-003   -4.724277635754281E-016
 -2.299999999999999E-003   -1.041733317649303E-015
 -2.199999999999999E-003   -1.559199809948952E-015
 -2.099999999999999E-003   -1.963582679010023E-015
 -1.999999999999999E-003   -2.198570401634011E-015
 -1.899999999999999E-003   -2.219341221406756E-015
 -1.799999999999999E-003   -1.998689666039670E-015
 -1.699999999999999E-003   -1.532033382333424E-015
 -1.599999999999999E-003   -8.406405302293307E-016
 -1.499999999999999E-003    2.747533978301513E-017
 -1.399999999999999E-003    9.993657960929663E-016
 -1.299999999999999E-003    1.981804458845394E-015
 -1.199999999999999E-003    2.868649177766777E-015
 -1.099999999999999E-003    3.550473631930266E-015
 -9.999999999999989E-004    3.925741901641569E-015
 -8.999999999999990E-004    3.912556603983047E-015
 -7.999999999999990E-004    3.459826442535677E-015
 -6.999999999999989E-004    2.556623955592443E-015
 -5.999999999999990E-004    1.238536889144881E-015
 -4.999999999999989E-004   -4.100184617143105E-016
 -3.999999999999989E-004   -2.258265493678034E-015
 -2.999999999999989E-004   -4.136664864011750E-015
 -1.999999999999989E-004   -5.849495046548060E-015
 -9.999999999999892E-005   -7.191753288105811E-015
  1.084202172485504E-018   -7.969179372223500E-015
  1.000000000000011E-004   -8.019737933091148E-015
  2.000000000000011E-004   -7.234541645555276E-015
  3.000000000000011E-004   -5.576007551688082E-015
  4.000000000000011E-004   -3.091036128878724E-015
  5.000000000000011E-004    8.274555778358745E-017
  6.000000000000011E-004    3.719190447118462E-015
  7.000000000000011E-004    7.515105883530088E-015
  8.000000000000011E-004    1.111098626188884E-014
  9.000000000000012E-004    1.412005314704992E-014
  1.000000000000001E-003    1.616366846189214E-014
  1.100000000000001E-003    1.691031335281208E-014
  1.200000000000001E-003    1.611465615640423E-014
  1.300000000000001E-003    1.365272286970293E-014
  1.400000000000001E-003    9.549174231277842E-015
  1.500000000000001E-003    3.992975682745322E-015
  1.600000000000001E-003   -2.661502374679174E-015
  1.700000000000001E-003   -9.909795315569891E-015
  1.800000000000001E-003   -1.712946729321991E-014
  1.900000000000001E-003   -2.362773552376349E-014
  2.000000000000001E-003   -2.870163097723470E-014
  2.100000000000001E-003   -3.170602502750465E-014
  2.200000000000001E-003   -3.212359415560169E-014
  2.300000000000001E-003   -2.962982569398656E-014
  2.400000000000001E-003   -2.414597415014550E-014
  2.500000000000001E-003   -1.587325312307970E-014
  2.600000000000001E-003   -5.302738702735903E-015
  2.700000000000001E-003    6.802674683335952E-015
  2.800000000000001E-003    1.945546193470723E-014
  2.900000000000001E-003    3.151811134339632E-014
  3.000000000000001E-003    4.180054499330968E-014
  3.100000000000001E-003    4.917274620102429E-014
  3.200000000000001E-003    5.268269947680089E-014
  3.300000000000001E-003    5.166806154155464E-014
  3.400000000000001E-003    4.584941824650496E-014
  3.500000000000001E-003    3.539370358128617E-014
  3.600000000000001E-003    2.093815989188848E-014
  3.700000000000001E-003    3.568387049704784E-015
  3.800000000000001E-003   -1.525178229022953E-014
  3.900000000000001E-003   -3.379607212692713E-014
  4.000000000000001E-003   -5.022958597852822E-014
  4.100000000000001E-003   -6.278825266644035E-014
  4.200000000000001E-003   -6.996746513354044E-014
  4.300000000000001E-003   -7.070084221459776E-014
  4.400000000000001E-003   -6.450921300252738E-014
  4.500000000000001E-003   -5.160099864256437E-014
  4.600000000000002E-003   -3.290848943707195E-014
  4.700000000000001E-003   -1.004996522309655E-014
  4.800000000000001E-003    1.478562994748141E-014
  4.900000000000002E-003    3.902641395251926E-014
  5.000000000000001E-003    5.996468384153852E-014
  5.100000000000001E-003    7.504204702690577E-014
  5.200000000000001E-003    8.214559904381020E-014
  5.300000000000002E-003    7.988354771857668E-014
  5.400000000000001E-003    6.780807478400866E-014
  5.500000000000001E-003    4.655568163471664E-014
  5.600000000000002E-003    1.788099908015929E-014
  5.700000000000001E-003   -1.543041559789172E-014
  5.800000000000001E-003   -4.977332606777626E-014
  5.900000000000002E-003   -8.104732424884560E-014
  6.000000000000001E-003   -1.050710137466844E-013
  6.100000000000001E-003   -1.180489591786984E-013
  6.200000000000002E-003   -1.170456997480983E-013
  6.300000000000002E-003   -1.004152265282061E-013
  6.400000000000001E-003   -6.813352134453052E-014
  6.500000000000001E-003   -2.198731306338876E-014
  6.600000000000002E-003    3.441718018069749E-014
  6.700000000000001E-003    9.584580307013608E-014
  6.800000000000001E-003    1.558288393508755E-013
  6.900000000000002E-003    2.072330384914967E-013
  7.000000000000001E-003    2.429699472829620E-013
  7.100000000000001E-003    2.567788102891986E-013
  7.200000000000002E-003    2.440061872839201E-013
  7.300000000000002E-003    2.022988286344296E-013
  7.400000000000001E-003    1.321253033196953E-013
  7.500000000000001E-003    3.705299174740310E-014
  7.600000000000002E-003   -7.627507029319313E-014
  7.700000000000001E-003   -1.984914670124603E-013
  7.800000000000001E-003   -3.181808315234648E-013
  7.900000000000001E-003   -4.228418511696183E-013
  8.000000000000002E-003   -5.000630974510187E-013
  8.100000000000001E-003   -5.388092646055452E-013
  8.200000000000001E-003   -5.306946099260724E-013
  8.300000000000002E-003   -4.711095423409549E-013
  8.400000000000001E-003   -3.600683155473637E-013
  8.500000000000002E-003   -2.026650357549003E-013
  8.600000000000002E-003   -9.053996367018155E-015
  8.700000000000001E-003    2.060861058239412E-013
  8.800000000000002E-003    4.245948695287940E-013
  8.900000000000002E-003    6.263163608150066E-013
  9.000000000000001E-003    7.909145378028892E-013
  9.100000000000002E-003    8.998599226549435E-013
  9.200000000000002E-003    9.383969543260738E-013
  9.300000000000001E-003    8.972908996663359E-013
  9.400000000000002E-003    7.741587857628299E-013
  9.500000000000001E-003    5.742155401751593E-013
  9.600000000000001E-003    3.103159886059938E-013
  9.700000000000002E-003    2.236023227794806E-015
  9.800000000000001E-003   -3.247875906861451E-013
  9.900000000000001E-003   -6.421630670682801E-013
  1.000000000000000E-002   -9.205243641531628E-013
  1.010000000000000E-002   -1.132555816076920E-012
  1.020000000000000E-002   -1.255786139651487E-012
  1.030000000000000E-002   -1.275064436129104E-012
  1.040000000000000E-002   -1.184444929475628E-012
  1.050000000000000E-002   -9.882476803728449E-013
  1.060000000000000E-002   -7.011373412639612E-013
  1.070000000000000E-002   -3.471518832866556E-013
  1.080000000000000E-002    4.227838580915655E-014
  1.090000000000000E-002    4.311745644275589E-013
  1.100000000000000E-002    7.824681159786177E-013
  1.110000000000000E-002    1.061746184903330E-012
  1.120000000000000E-002    1.240906294069311E-012
  1.130000000000000E-002    1.301327331813842E-012
  1.140000000000000E-002    1.236194649252114E-012
  1.150000000000000E-002    1.051684384774932E-012
  1.160000000000000E-002    7.668150978967662E-013
  1.170000000000000E-002    4.119104085973469E-013
  1.180000000000000E-002    2.575811211568372E-014
  1.190000000000000E-002   -3.482986187762037E-013
  1.200000000000000E-002   -6.669762254918183E-013
  1.210000000000000E-002   -8.919072704952230E-013
  1.220000000000000E-002   -9.942207078167810E-013
  1.230000000000000E-002   -9.583288002476258E-013
  1.240000000000000E-002   -7.844489815455742E-013
  1.250000000000000E-002   -4.895078145121578E-013
  1.260000000000000E-002   -1.062179613309806E-013
  1.270000000000000E-002    3.196870116994964E-013
  1.280000000000000E-002    7.338776053128076E-013
  1.290000000000000E-002    1.079139790645907E-012
  1.300000000000000E-002    1.301824821894420E-012
  1.310000000000000E-002    1.358383410295660E-012
  1.320000000000000E-002    1.221261552289406E-012
  1.330000000000000E-002    8.834676982866931E-013
  1.340000000000000E-002    3.612053109806686E-013
  1.350000000000000E-002   -3.058569988843748E-013
  1.360000000000000E-002   -1.056892041199530E-012
  1.370000000000000E-002   -1.814737671739129E-012
  1.380000000000000E-002   -2.492912430763059E-012
  1.390000000000000E-002   -3.004231046071706E-012
  1.400000000000000E-002   -3.270220797138362E-012
  1.410000000000000E-002   -3.230393252933788E-012
  1.420000000000000E-002   -2.850374471655234E-012
  1.430000000000000E-002   -2.127947409519463E-012
  1.440000000000000E-002   -1.096213438554401E-012
  1.450000000000000E-002    1.766691729395907E-013
  1.460000000000000E-002    1.591405977689724E-012
  1.470000000000000E-002    3.024994857488069E-012
  1.480000000000000E-002    4.341155614669318E-012
  1.490000000000000E-002    5.402900101667085E-012
  1.500000000000000E-002    6.086105983129818E-012
  1.510000000000000E-002    6.292781338761585E-012
  1.520000000000000E-002    5.962651677925173E-012
  1.530000000000000E-002    5.081790071447312E-012
  1.540000000000000E-002    3.687231277394855E-012
  1.550000000000000E-002    1.866853502379395E-012
  1.560000000000000E-002   -2.457525098098774E-013
  1.570000000000000E-002   -2.481208240065173E-012
  1.580000000000000E-002   -4.648363331093664E-012
  1.590000000000000E-002   -6.551237206492192E-012
  1.600000000000000E-002   -8.007371608811244E-012
  1.610000000000000E-002   -8.865832562320088E-012
  1.620000000000000E-002   -9.023091115104967E-012
  1.630000000000000E-002   -8.435068943258941E-012
  1.640000000000000E-002   -7.123999821962009E-012
  1.650000000000000E-002   -5.179154492879592E-012
  1.660000000000000E-002   -2.751090414433872E-012
  1.670000000000000E-002   -3.969679366197912E-014
  1.680000000000000E-002    2.723046248510235E-012
  1.690000000000000E-002    5.294107907587485E-012
  1.700000000000000E-002    7.442301346488366E-012
  1.710000000000000E-002    8.970853076223099E-012
  1.720000000000000E-002    9.737323326718793E-012
  1.730000000000000E-002    9.668832249196325E-012
  1.740000000000000E-002    8.770840270202017E-012
  1.750000000000000E-002    7.128394722772367E-012
  1.760000000000000E-002    4.899406559242677E-012
  1.770000000000000E-002    2.300377940821289E-012
  1.780000000000000E-002   -4.142524123770961E-013
  1.790000000000000E-002   -2.977237281703714E-012
  1.800000000000000E-002   -5.135704421240913E-012
  1.810000000000000E-002   -6.677668317651499E-012
  1.820000000000000E-002   -7.455059491923125E-012
  1.830000000000000E-002   -7.400767103023508E-012
  1.840000000000000E-002   -6.537658319823730E-012
  1.850000000000000E-002   -4.978314285926338E-012
  1.860000000000000E-002   -2.915162114717158E-012
  1.870000000000000E-002   -6.016204994958928E-013