 -4.000000000000000E-002    0.000000000000000E+000
 -3.990000000000000E-002    0.000000000000000E+000
 -3.980000000000000E-002    0.000000000000000E+000
 -3.970000000000000E-002    0.000000000000000E+000
 -3.960000000000000E-002    0.000000000000000E+000
 -3.950000000000000E-002    0.000000000000000E+000
 -3.940000000000000E-002    0.000000000000000E+000
 -3.930000000000000E-002    0.000000000000000E+000
 -3.920000000000000E-002   -8.670101564922985E-030
 -3.910000000000000E-002   -1.335598574898975E-028
 -3.900000000000000E-002   -1.072356080756929E-027
 -3.890000000000000E-002   -5.952050790133013E-027
 -3.880000000000000E-002   -2.554197412568897E-026
 -3.870000000000000E-002   -8.975026497161444E-026
 -3.860000000000000E-002   -2.664564965569920E-025
 -3.850000000000000E-002   -6.778788390390742E-025
 -3.840000000000000E-002   -1.472794036524217E-024
 -3.830000000000000E-002   -2.639839162434813E-024
 -3.820000000000000E-002   -3.406996922726893E-024
 -3.810000000000000E-002   -7.347673019966770E-025
 -3.800000000000000E-002    1.394087026121044E-023
 -3.790000000000000E-002    6.100656243726643E-023
 -3.780000000000000E-002    1.837434746944802E-022
 -3.770000000000000E-002    4.661251697062022E-022
 -3.760000000000000E-002    1.058823936503743E-021
 -3.750000000000000E-002    2.213155452142316E-021
 -3.740000000000000E-002    4.318595080472818E-021
 -3.730000000000000E-002    7.932067330534161E-021
 -3.720000000000000E-002    1.377532629872221E-020
 -3.710000000000000E-002    2.266002722416928E-020
 -3.700000000000000E-002    3.527935581573976E-020
 -3.690000000000000E-002    5.178286100865794E-020
 -3.680000000000000E-002    7.103537539645559E-020
 -3.670000000000000E-002    8.946023368520102E-020
 -3.660000000000000E-002    9.939904158974675E-020
 -3.650000000000000E-002    8.700267464130232E-020
 -3.640000000000000E-002    2.982238516355195E-020
 -3.630000000000000E-002   -1.054846415893101E-019
 -3.620000000000000E-002   -3.645901686556123E-019
 -3.610000000000000E-002   -8.049039946657999E-019
 -3.600000000000000E-002   -1.491356711348340E-018
 -3.590000000000000E-002   -2.486574481696085E-018
 -3.580000000000000E-002   -3.833316812703766E-018
 -3.570000000000000E-002   -5.527260025363204E-018
 -3.560000000000000E-002   -7.479097717773129E-018
 -3.550000000000000E-002   -9.466585045563767E-018
 -3.540000000000000E-002   -1.107989479834048E-017
 -3.530000000000000E-002   -1.166732825812885E-017
 -3.520000000000000E-002   -1.029302032302262E-017
 -3.510000000000000E-002   -5.723293670641409E-018
 -3.500000000000000E-002    3.537364089235681E-018
 -3.490000000000000E-002    1.913639711499607E-017
 -3.480000000000000E-002    4.266568275885090E-017
 -3.470000000000000E-002    7.533736619400090E-017
 -3.460000000000000E-002    1.175350904745566E-016
 -3.450000000000000E-002    1.682516062012999E-016
 -3.440000000000000E-002    2.244494091775763E-016
 -3.430000000000000E-002    2.804140776476340E-016
 -3.420000000000000E-002    3.272058176127161E-016
 -3.410000000000000E-002    3.523504110256842E-016
 -3.400000000000000E-002    3.399374574247345E-016
 -3.390000000000000E-002    2.713037917820393E-016
 -3.380000000000000E-002    1.264676321074892E-016
 -3.370000000000000E-002   -1.135704283389244E-016
 -3.360000000000000E-002   -4.636308946384893E-016
 -3.350000000000000E-002   -9.303623421375044E-016
 -3.340000000000000E-002   -1.507712918420327E-015
 -3.330000000000000E-002   -2.172319169258019E-015
 -3.320000000000000E-002   -2.879450802592611E-015
 -3.310000000000000E-002   -3.560309041630810E-015
 -3.300000000000000E-002   -4.121581298451354E-015
 -3.290000000000000E-002   -4.448136093782677E-015
 -3.280000000000000E-002   -4.409619548525151E-015
 -3.270000000000000E-002   -3.871384186891745E-015
 -3.260000000000000E-002   -2.709734501620635E-015
 -3.250000000000000E-002   -8.308216306963691E-016
 -3.240000000000000E-002    1.808208696649239E-015
 -3.230000000000000E-002    5.177958571820670E-015
 -3.220000000000000E-002    9.158271533950616E-015
 -3.210000000000000E-002    1.352579186555281E-014
 -3.200000000000000E-002    1.795103378824559E-014
 -3.190000000000000E-002    2.200810632923479E-014
 -3.180000000000000E-002    2.519931327660873E-014
 -3.170000000000000E-002    2.699539394734135E-014
 -3.160000000000000E-002    2.689015936416587E-014
 -3.150000000000000E-002    2.446586413397156E-014
 -3.140000000000000E-002    1.946315914728727E-014
 -3.130000000000000E-002    1.184707858212250E-014
 -3.120000000000000E-002    1.858864745394208E-015
 -3.110000000000000E-002   -9.957317608963968E-015
 -3.100000000000000E-002   -2.276295032428518E-014
 -3.090000000000000E-002   -3.547672358152223E-014
 -3.080000000000000E-002   -4.687260140161451E-014
 -3.070000000000000E-002   -5.572196242336932E-014
 -3.060000000000000E-002   -6.097013497252597E-014
 -3.050000000000000E-002   -6.193018556256469E-014
 -3.040000000000000E-002   -5.846932910560543E-014
 -3.030000000000000E-002   -5.115802837177376E-014
 -3.020000000000000E-002   -4.134898909987221E-014
 -3.010000000000000E-002   -3.115491881874793E-014
 -3.000000000000000E-002   -2.329990261059037E-014
 -2.990000000000000E-002   -2.083108801897794E-014
 -2.980000000000000E-002   -2.669380030991307E-014
 -2.970000000000000E-002   -4.319381157845275E-014
 -2.960000000000000E-002   -7.139305054932756E-014
 -2.950000000000000E-002   -1.105067193351786E-013
 -2.940000000000000E-002   -1.573885265353419E-013
 -2.930000000000000E-002   -2.062009818241906E-013
 -2.920000000000000E-002   -2.483690786071152E-013
 -2.910000000000000E-002   -2.729025762982264E-013
 -2.900000000000000E-002   -2.671454089465078E-013
 -2.890000000000000E-002   -2.179691656008558E-013
 -2.880000000000000E-002   -1.133747840918974E-013
 -2.870000000000000E-002    5.559582415064875E-014
 -2.860000000000000E-002    2.927988839561247E-013
 -2.850000000000000E-002    5.949980056201284E-013
 -2.840000000000000E-002    9.502049329476664E-013
 -2.830000000000000E-002    1.336633429410653E-012
 -2.820000000000000E-002    1.722539399863229E-012
 -2.810000000000000E-002    2.067171427485905E-012
 -2.800000000000000E-002    2.322977392368288E-012
 -2.790000000000000E-002    2.439092630401759E-012
 -2.780000000000000E-002    2.365993442512520E-012
 -2.770000000000000E-002    2.061039187329435E-012
 -2.760000000000000E-002    1.494471734215685E-012
 -2.750000000000000E-002    6.553017623004107E-013
 -2.740000000000000E-002   -4.435827569248761E-013
 -2.730000000000000E-002   -1.761791946692155E-012
 -2.720000000000000E-002   -3.229960643471572E-012
 -2.710000000000000E-002   -4.750974685738172E-012
 -2.700000000000000E-002   -6.204252691842813E-012
 -2.690000000000000E-002   -7.453158964736971E-012
 -2.680000000000000E-002   -8.355303359495386E-012
 -2.670000000000000E-002   -8.775130451999940E-012
 -2.660000000000000E-002   -8.597856084742818E-012
 -2.650000000000000E-002   -7.743538262849725E-012
 -2.640000000000000E-002   -6.179840082323809E-012
 -2.630000000000000E-002   -3.932003924922636E-012
 -2.620000000000000E-002   -1.088605557246816E-012
 -2.610000000000000E-002    2.198079340212298E-012
 -2.600000000000000E-002    5.717875792603946E-012
 -2.590000000000000E-002    9.214914771143709E-012
 -2.580000000000000E-002    1.240583524367303E-011
 -2.570000000000000E-002    1.500291889016112E-011
 -2.560000000000000E-002    1.674043036738776E-011
 -2.550000000000000E-002    1.740191347503568E-011
 -2.540000000000000E-002    1.684579349165724E-011
 -2.530000000000000E-002    1.502652968998747E-011
 -2.520000000000000E-002    1.200867856012541E-011
 -2.510000000000000E-002    7.971638870263164E-012
 -2.500000000000000E-002    3.203588516766585E-012
 -2.490000000000000E-002   -1.915980558042558E-012
 -2.480000000000000E-002   -6.944592359961388E-012
 -2.470000000000000E-002   -1.141431780591235E-011
 -2.460000000000000E-002   -1.487570800109986E-011
 -2.450000000000000E-002   -1.694439441896461E-011
 -2.440000000000000E-002   -1.734596903936884E-011
 -2.430000000000000E-002   -1.595448135105852E-011
 -2.420000000000000E-002   -1.282001373615625E-011
 -2.410000000000000E-002   -8.181463000897172E-012
 -2.400000000000000E-002   -2.461693553382861E-012
 -2.390000000000000E-002    3.756292679378327E-012
 -2.380000000000000E-002    9.771820406368718E-012
 -2.370000000000000E-002    1.482539716318120E-011
 -2.360000000000000E-002    1.816994255851857E-011
 -2.350000000000000E-002    1.914874439686636E-011
 -2.340000000000000E-002    1.727324113824323E-011
 -2.330000000000000E-002    1.229316469813118E-011
 -2.320000000000000E-002    4.251379628984321E-012
 -2.310000000000000E-002   -6.483407873043377E-012
 -2.300000000000000E-002   -1.921164888804209E-011
 -2.290000000000000E-002   -3.292912624461327E-011
 -2.280000000000000E-002   -4.638528614429713E-011
 -2.270000000000000E-002   -5.817181309926424E-011
 -2.260000000000000E-002   -6.683655060953592E-011
 -2.250000000000000E-002   -7.101505593395172E-011
 -2.240000000000000E-002   -6.956959492952168E-011
 -2.230000000000000E-002   -6.172364739837738E-011
 -2.220000000000000E-002   -4.717911304801247E-011
 -2.210000000000000E-002   -2.620345585000677E-011
 -2.200000000000000E-002    3.245068205109952E-013
 -2.190000000000000E-002    3.091918498340993E-011
 -2.180000000000000E-002    6.354857709507862E-011
 -2.170000000000000E-002    9.575137351342490E-011
 -2.160000000000000E-002    1.248069122638746E-010
 -2.150000000000000E-002    1.479485743400367E-010
 -2.140000000000000E-002    1.626064430982282E-010
 -2.130000000000000E-002    1.666604252793916E-010
 -2.120000000000000E-002    1.586819011796102E-010
 -2.110000000000000E-002    1.381402923086875E-010
 -2.100000000000000E-002    1.055511306605009E-010
 -2.090000000000000E-002    6.254498389408571E-011
 -2.080000000000000E-002    1.184100618874327E-011
 -2.070000000000000E-002   -4.288388130562531E-011
 -2.060000000000000E-002   -9.723071407533392E-011
 -2.050000000000000E-002   -1.464096939734470E-010
 -2.040000000000000E-002   -1.856468282438678E-010
 -2.030000000000000E-002   -2.106367333500564E-010
 -2.020000000000000E-002   -2.180034650397864E-010
 -2.010000000000000E-002   -2.057258756509032E-010
 -2.000000000000000E-002   -1.734817332773222E-010
 -1.990000000000000E-002   -1.228669525646625E-010
 -1.980000000000000E-002   -5.745309359558769E-011
 -1.970000000000000E-002    1.734262443240214E-011
 -1.960000000000000E-002    9.458498901852285E-011
 -1.950000000000000E-002    1.663377322356202E-010
 -1.940000000000000E-002    2.243417323536721E-010
 -1.930000000000000E-002    2.608057134863898E-010
 -1.920000000000000E-002    2.692446516239703E-010
 -1.910000000000000E-002    2.452865782704064E-010
 -1.900000000000000E-002    1.873630941927319E-010
 -1.890000000000000E-002    9.719968068762702E-011
 -1.880000000000000E-002   -1.996736648372487E-011
 -1.870000000000000E-002   -1.555016887707265E-010
 -1.860000000000000E-002   -2.978323833569555E-010
 -1.850000000000000E-002   -4.332680750278422E-010
 -1.840000000000000E-002   -5.471169024387979E-010
 -1.830000000000000E-002   -6.250334037428345E-010
 -1.820000000000000E-002   -6.544804353477826E-010
 -1.810000000000000E-002   -6.261712404933879E-010
 -1.800000000000000E-002   -5.353420991625708E-010
 -1.790000000000000E-002   -3.827088808454798E-010
 -1.780000000000000E-002   -1.749767519694677E-010
 -1.770000000000000E-002    7.519456068053280E-011
 -1.760000000000000E-002    3.498223215164471E-010
 -1.750000000000000E-002    6.268239390635027E-010
 -1.740000000000000E-002    8.817659117434048E-010
 -1.730000000000000E-002    1.090010377369518E-009
 -1.720000000000000E-002    1.229079489941112E-009
 -1.710000000000000E-002    1.281016434598908E-009
 -1.700000000000000E-002    1.234501084339008E-009
 -1.690000000000000E-002    1.086484973124885E-009
 -1.680000000000000E-002    8.431342381663812E-010
 -1.670000000000000E-002    5.199273045499139E-010
 -1.660000000000000E-002    1.408245507237193E-010
 -1.650000000000000E-002   -2.634794417131799E-010
 -1.640000000000000E-002   -6.581156761393179E-010
 -1.630000000000000E-002   -1.007213320271596E-009
 -1.620000000000000E-002   -1.277403473498624E-009
 -1.610000000000000E-002   -1.441318560853942E-009
 -1.600000000000000E-002   -1.480721565606482E-009
 -1.590000000000000E-002   -1.388912575455492E-009
 -1.580000000000000E-002   -1.172107103963276E-009
 -1.570000000000000E-002   -8.495675729998919E-010
 -1.560000000000000E-002   -4.523819905870345E-010
 -1.550000000000000E-002   -2.092131369355432E-011
 -1.540000000000000E-002    3.988528175666849E-010
 -1.530000000000000E-002    7.599219876152722E-010
 -1.520000000000000E-002    1.019169827334299E-009
 -1.510000000000000E-002    1.142270701890988E-009
 -1.500000000000000E-002    1.107986515574271E-009
 -1.490000000000000E-002    9.113763553609143E-010
 -1.480000000000000E-002    5.655002463173854E-010
 -1.470000000000000E-002    1.013313410890331E-010
 -1.460000000000000E-002   -4.342424882126543E-010
 -1.450000000000000E-002   -9.822535194192923E-010
 -1.440000000000000E-002   -1.477052285479332E-009
 -1.430000000000000E-002   -1.852814786164381E-009
 -1.420000000000000E-002   -2.050557401036290E-009
 -1.410000000000000E-002   -2.024964118116604E-009
 -1.400000000000000E-002   -1.750307853442256E-009
 -1.390000000000000E-002   -1.224789756573441E-009
 -1.380000000000000E-002   -4.727455633994750E-010
 -1.370000000000000E-002    4.556507211824642E-010
 -1.360000000000000E-002    1.487321571149229E-009
 -1.350000000000000E-002    2.531732019324523E-009
 -1.340000000000000E-002    3.488462622339916E-009
 -1.330000000000000E-002    4.256281705840068E-009
 -1.320000000000000E-002    4.742909472842051E-009
 -1.310000000000000E-002    4.874549823677323E-009
 -1.300000000000000E-002    4.604244437025409E-009
 -1.290000000000000E-002    3.918167457602079E-009
 -1.280000000000000E-002    2.839148076779268E-009
 -1.270000000000000E-002    1.426942688466658E-009
 -1.260000000000000E-002   -2.249241527473361E-010
 -1.250000000000000E-002   -1.995597188819982E-009
 -1.240000000000000E-002   -3.746133972002383E-009
 -1.230000000000000E-002   -5.330788459429613E-009
 -1.220000000000000E-002   -6.609343088940413E-009
 -1.210000000000000E-002   -7.459369292670420E-009
 -1.200000000000000E-002   -7.787260224637873E-009
 -1.190000000000000E-002   -7.536972948152044E-009
 -1.180000000000000E-002   -6.695608275897101E-009
 -1.170000000000000E-002   -5.295243524788542E-009
 -1.160000000000000E-002   -3.410774388605525E-009
 -1.150000000000000E-002   -1.153919040198256E-009
 -1.140000000000000E-002    1.336099083575511E-009
 -1.130000000000000E-002    3.904335111396329E-009
 -1.120000000000000E-002    6.393265402133138E-009
 -1.110000000000000E-002    8.656025806080720E-009
 -1.100000000000000E-002    1.056846532854224E-008
 -1.090000000000000E-002    1.203881798429285E-008
 -1.080000000000000E-002    1.301403677044446E-008
 -1.070000000000000E-002    1.348213074447172E-008
 -1.060000000000000E-002    1.347025555201893E-008
 -1.050000000000000E-002    1.303873133868407E-008
 -1.040000000000000E-002    1.227157486089493E-008
 -1.030000000000000E-002    1.126450862358220E-008
 -1.020000000000000E-002    1.011169403677923E-008
 -1.010000000000000E-002    8.892602420888649E-009
 -1.000000000000000E-002    7.660476181503330E-009
 -9.899999999999999E-003    6.433722493308213E-009
 -9.800000000000000E-003    5.191344840566084E-009
 -9.699999999999999E-003    3.873168500292728E-009
 -9.599999999999999E-003    2.385167629467532E-009
 -9.500000000000000E-003    6.097358473758057E-010
 -9.399999999999999E-003   -1.579738050129681E-009
 -9.299999999999999E-003   -4.301062765648733E-009
 -9.200000000000000E-003   -7.643634268086324E-009
 -9.099999999999999E-003   -1.164864166522047E-008
 -8.999999999999999E-003   -1.629083095845156E-008
 -8.900000000000000E-003   -2.146345461347767E-008
 -8.799999999999999E-003   -2.696782366758317E-008
 -8.699999999999999E-003   -3.250853026723100E-008
 -8.600000000000000E-003   -3.769489053416455E-008
 -8.499999999999999E-003   -4.204868445505492E-008
 -8.399999999999999E-003   -4.501765411990221E-008
 -8.300000000000000E-003   -4.599373691651462E-008
 -8.199999999999999E-003   -4.433454149902259E-008
 -8.100000000000000E-003   -3.938627428796710E-008
 -8.000000000000000E-003   -3.050605231892179E-008
 -7.899999999999999E-003   -1.708166989497863E-008
 -7.800000000000000E-003    1.453099237156370E-009
 -7.699999999999999E-003    2.560902823611455E-008
 -7.599999999999999E-003    5.583902242114261E-008
 -7.499999999999999E-003    9.254299847406739E-008
 -7.399999999999999E-003    1.360799349056563E-007
 -7.299999999999999E-003    1.867863127959341E-007
 -7.199999999999999E-003    2.449993388490085E-007
 -7.100000000000000E-003    3.110832411369217E-007
 -6.999999999999999E-003    3.854563181637785E-007
 -6.899999999999999E-003    4.686163371889972E-007
 -6.800000000000000E-003    5.611620689604794E-007
 -6.699999999999999E-003    6.638090334814669E-007
 -6.599999999999999E-003    7.773978459293116E-007
 -6.499999999999999E-003    9.028944221465845E-007
 -6.399999999999999E-003    1.041382067710508E-006
 -6.299999999999999E-003    1.194045741442257E-006
 -6.199999999999999E-003    1.362150302438452E-006
 -6.100000000000000E-003    1.547014432084103E-006
 -5.999999999999999E-003    1.749983863394956E-006
 -5.899999999999999E-003    1.972405078548035E-006
 -5.800000000000000E-003    2.215602588064484E-006
 -5.699999999999999E-003    2.480864448479897E-006
 -5.599999999999999E-003    2.769435188387336E-006
 -5.499999999999999E-003    3.082518572247391E-006
 -5.399999999999999E-003    3.421290826373461E-006
 -5.299999999999999E-003    3.786922984682690E-006
 -5.199999999999999E-003    4.180612138675497E-006
 -5.099999999999999E-003    4.603617799441466E-006
 -4.999999999999999E-003    5.057300595277325E-006
 -4.899999999999999E-003    5.543160912534628E-006
 -4.799999999999999E-003    6.062874737861779E-006
 -4.699999999999999E-003    6.618318580301586E-006
 -4.599999999999999E-003    7.211589787026177E-006
 -4.499999999999999E-003    7.845011893648381E-006
 -4.399999999999999E-003    8.521130923340222E-006
 -4.299999999999999E-003    9.242698501822044E-006
 -4.199999999999999E-003    1.001264818261891E-005
 -4.099999999999999E-003    1.083406575979733E-005
 -3.999999999999999E-003    1.171015379359093E-005
 -3.899999999999999E-003    1.264420127613485E-005
 -3.799999999999999E-003    1.363955878656263E-005
 -3.699999999999999E-003    1.469961588418715E-005
 -3.599999999999999E-003    1.582780252942299E-005
 -3.499999999999999E-003    1.702759312225059E-005
 -3.399999999999999E-003    1.830253187125759E-005
 -3.299999999999999E-003    1.965626987868515E-005
 -3.199999999999999E-003    2.109260818899159E-005
 -3.099999999999999E-003    2.261555864330214E-005
 -2.999999999999999E-003    2.422939877732426E-005
 -2.899999999999999E-003    2.593873477628136E-005
 -2.799999999999999E-003    2.774854505530186E-005
 -2.699999999999999E-003    2.966422603694298E-005
 -2.599999999999999E-003    3.169162281161744E-005
 -2.499999999999999E-003    3.383703798568936E-005
 -2.399999999999999E-003    3.610723332520325E-005
 -2.299999999999999E-003    3.850940821784607E-005
 -2.199999999999999E-003    4.105117923713157E-005
 -2.099999999999999E-003    4.374054313745956E-005
 -1.999999999999999E-003    4.658583703079431E-005
 -1.899999999999999E-003    4.959571206541393E-005
 -1.799999999999999E-003    5.277910725526860E-005
 -1.699999999999999E-003    5.614523485278442E-005
 -1.599999999999999E-003    5.970359220759607E-005
 -1.499999999999999E-003    6.346399386621845E-005
 -1.399999999999999E-003    6.743658712653535E-005
 -1.299999999999999E-003    7.163195507255066E-005
 -1.199999999999999E-003    7.606114837715781E-005
 -1.099999999999999E-003    8.073579245627964E-005
 -9.999999999999989E-004    8.566817127000031E-005
 -8.999999999999990E-004    9.087128672496959E-005
 -7.999999999999990E-004    9.635895971784758E-005
 -6.999999999999989E-004    1.021458653461118E-004
 -5.999999999999990E-004    1.082475821591827E-004
 -4.999999999999989E-004    1.146806269417701E-004
 -3.999999999999989E-004    1.214624112260767E-004
 -2.999999999999989E-004    1.286112867472632E-004
 -1.999999999999989E-004    1.361464759309216E-004
 -9.999999999999892E-005    1.440880428401469E-004
  1.084202172485504E-018    1.524568696218988E-004
  1.000000000000011E-004    1.612746228943716E-004
  2.000000000000011E-004    1.705637465231313E-004
  3.000000000000011E-004    1.803474591523118E-004
  4.000000000000011E-004    1.906497691851123E-004
  5.000000000000011E-004    2.014955158034889E-004
  6.000000000000011E-004    2.129105112374313E-004
  7.000000000000011E-004    2.249215100835802E-004
  8.000000000000011E-004    2.375564694323108E-004
  9.000000000000012E-004    2.508445389963249E-004
  1.000000000000001E-003    2.648162574825114E-004
  1.100000000000001E-003    2.795036444878104E-004
  1.200000000000001E-003    2.949403183228683E-004
  1.300000000000001E-003    3.111616232651213E-004
  1.400000000000001E-003    3.282046773122047E-004
  1.500000000000001E-003    3.461084033357247E-004
  1.600000000000001E-003    3.649135949942867E-004
  1.700000000000001E-003    3.846629492694791E-004
  1.800000000000001E-003    4.054008977873227E-004
  1.900000000000001E-003    4.271738163062063E-004
  2.000000000000001E-003    4.500298466135525E-004
  2.100000000000001E-003    4.740189335603794E-004
  2.200000000000001E-003    4.991927730849677E-004
  2.300000000000001E-003    5.256048240234937E-004
  2.400000000000001E-003    5.533103341385424E-004
  2.500000000000001E-003    5.823665054114890E-004
  2.600000000000001E-003    6.128323130808924E-004
  2.700000000000001E-003    6.447688497363453E-004
  2.800000000000001E-003    6.782392997072641E-004
  2.900000000000001E-003    7.133092601241694E-004
  3.000000000000001E-003    7.500465969869074E-004
  3.100000000000001E-003    7.885219455517208E-004
  3.200000000000001E-003    8.288085106755941E-004
  3.300000000000001E-003    8.709826679110766E-004
  3.400000000000001E-003    9.151235001441879E-004
  3.500000000000001E-003    9.613133974190172E-004
  3.600000000000001E-003    1.009638059367374E-003
  3.700000000000001E-003    1.060186286831961E-003
  3.800000000000001E-003    1.113050376431439E-003
  3.900000000000001E-003    1.168325932333806E-003
  4.000000000000001E-003    1.226111925115542E-003
  4.100000000000001E-003    1.286510735318384E-003
  4.200000000000001E-003    1.349628111243710E-003
  4.300000000000001E-003    1.415573276882654E-003
  4.400000000000001E-003    1.484458872467659E-003
  4.500000000000001E-003    1.556401055003858E-003
  4.600000000000002E-003    1.631519555798950E-003
  4.700000000000001E-003    1.709937807076409E-003
  4.800000000000001E-003    1.791782949967377E-003
  4.900000000000002E-003    1.877185927523454E-003
  5.000000000000001E-003    1.966281853819802E-003
  5.100000000000001E-003    2.059209982299161E-003
  5.200000000000001E-003    2.156113765541455E-003
  5.300000000000002E-003    2.257141375499724E-003
  5.400000000000001E-003    2.362445383885862E-003
  5.500000000000001E-003    2.472183135375220E-003
  5.600000000000002E-003    2.586516933111726E-003
  5.700000000000001E-003    2.705613861771782E-003
  5.800000000000001E-003    2.829646092247149E-003
  5.900000000000002E-003    2.958790743281226E-003
  6.000000000000001E-003    3.093230139970135E-003
  6.100000000000001E-003    3.233151158312225E-003
  6.200000000000002E-003    3.378746385452261E-003
  6.300000000000002E-003    3.530213249490296E-003
  6.400000000000001E-003    3.687754235657912E-003
  6.500000000000001E-003    3.851577131063575E-003
  6.600000000000002E-003    4.021894647455753E-003
  6.700000000000001E-003    4.198924876241718E-003
  6.800000000000001E-003    4.382891337921081E-003
  6.900000000000002E-003    4.574022604218020E-003
  7.000000000000001E-003    4.772552922428362E-003
  7.100000000000001E-003    4.978722523410057E-003
  7.200000000000002E-003    5.192776671480805E-003
  7.300000000000002E-003    5.414967057770712E-003
  7.400000000000001E-003    5.645550776517061E-003
  7.500000000000001E-003    5.884790907966686E-003
  7.600000000000002E-003    6.132956844904953E-003
  7.700000000000001E-003    6.390323968833765E-003
  7.800000000000001E-003    6.657173399724706E-003
  7.900000000000001E-003    6.933791876262129E-003
  8.000000000000002E-003    7.220472862440762E-003
  8.100000000000001E-003    7.517514354095292E-003
  8.200000000000001E-003    7.825220900653093E-003
  8.300000000000002E-003    8.143903191647794E-003
  8.400000000000001E-003    8.473875961691591E-003
  8.500000000000002E-003    8.815460330633853E-003
  8.600000000000002E-003    9.168982642924327E-003
  8.700000000000001E-003    9.534774394495068E-003
  8.800000000000002E-003    9.913172338562917E-003
  8.900000000000002E-003    1.030451755217725E-002
  9.000000000000001E-003    1.070915781743449E-002
  9.100000000000002E-003    1.112744427459574E-002
  9.200000000000002E-003    1.155973359417627E-002
  9.300000000000001E-003    1.200638799606124E-002
  9.400000000000002E-003    1.246777460439701E-002
  9.500000000000001E-003    1.294426492647698E-002
  9.600000000000001E-003    1.343623436411813E-002
  9.700000000000002E-003    1.394406400909100E-002
  9.800000000000001E-003    1.446813814835810E-002
  9.900000000000001E-003    1.500884543489850E-002
  1.000000000000000E-002    1.556657947426330E-002
  1.010000000000000E-002    1.614173630609275E-002
  1.020000000000000E-002    1.673471353523882E-002
  1.030000000000000E-002    1.734591294797132E-002
  1.040000000000000E-002    1.797573830109501E-002
  1.050000000000000E-002    1.862459700816852E-002
  1.060000000000000E-002    1.929289553604248E-002
  1.070000000000000E-002    1.998104440019256E-002
  1.080000000000000E-002    2.068945336422369E-002
  1.090000000000000E-002    2.141853346479099E-002
  1.100000000000000E-002    2.216869366172470E-002
  1.110000000000000E-002    2.294034664948789E-002
  1.120000000000000E-002    2.373390313905820E-002
  1.130000000000000E-002    2.454977230166483E-002
  1.140000000000000E-002    2.538836209433474E-002
  1.150000000000000E-002    2.625007955316096E-002
  1.160000000000000E-002    2.713532919895466E-002
  1.170000000000000E-002    2.804451019141469E-002
  1.180000000000000E-002    2.897802298731140E-002
  1.190000000000000E-002    2.993626132259063E-002
  1.200000000000000E-002    3.091961682274900E-002
  1.210000000000000E-002    3.192847481069503E-002
  1.220000000000000E-002    3.296321295031240E-002
  1.230000000000000E-002    3.402420491741038E-002
  1.240000000000000E-002    3.511181759937590E-002
  1.250000000000000E-002    3.622640905346775E-002
  1.260000000000000E-002    3.736832876101372E-002
  1.270000000000000E-002    3.853791759603959E-002
  1.280000000000000E-002    3.973550567885616E-002
  1.290000000000000E-002    4.096141316385497E-002
  1.300000000000000E-002    4.221594791337879E-002
  1.310000000000000E-002    4.349940710303008E-002
  1.320000000000000E-002    4.481207433875544E-002
  1.330000000000000E-002    4.615421614787782E-002
  1.340000000000000E-002    4.752609008550462E-002
  1.350000000000000E-002    4.892793264091725E-002
  1.360000000000000E-002    5.035996562499919E-002
  1.370000000000000E-002    5.182239673837124E-002
  1.380000000000000E-002    5.331541165314363E-002
  1.390000000000000E-002    5.483917889952044E-002
  1.400000000000000E-002    5.639384912122551E-002
  1.410000000000000E-002    5.797954981178968E-002
  1.420000000000000E-002    5.959638503094021E-002
  1.430000000000000E-002    6.124443511750161E-002
  1.440000000000000E-002    6.292376318884543E-002
  1.450000000000000E-002    6.463439847576033E-002
  1.460000000000000E-002    6.637635467752367E-002
  1.470000000000000E-002    6.814961131755752E-002
  1.480000000000000E-002    6.995412097870916E-002
  1.490000000000000E-002    7.178980884687278E-002
  1.500000000000000E-002    7.365657002526692E-002
  1.510000000000000E-002    7.555426384535695E-002
  1.520000000000000E-002    7.748272398841113E-002
  1.530000000000000E-002    7.944174497424702E-002
  1.540000000000000E-002    8.143108794641606E-002
  1.550000000000000E-002    8.345048062227452E-002
  1.560000000000000E-002    8.549960950597167E-002
  1.570000000000000E-002    8.757813405204401E-002
  1.580000000000000E-002    8.968566757391955E-002
  1.590000000000000E-002    9.182177997361257E-002
  1.600000000000000E-002    9.398600898341172E-002
  1.610000000000000E-002    9.617784643966118E-002
  1.620000000000000E-002    9.839674481962156E-002
  1.630000000000000E-002    0.100642110868442     
  1.640000000000000E-002    0.102913312329507     
  1.650000000000000E-002    0.105209667750978     
  1.660000000000000E-002    0.107530442764687     
  1.670000000000000E-002    0.109874867485829     
  1.680000000000000E-002    0.112242123755982     
  1.690000000000000E-002    0.114631332453555     
  1.700000000000000E-002    0.117041573375514     
  1.710000000000000E-002    0.119471877100737     
  1.720000000000000E-002    0.121921230557457     
  1.730000000000000E-002    0.124388556332584     
  1.740000000000000E-002    0.126872719681181     
  1.750000000000000E-002    0.129372541573625     
  1.760000000000000E-002    0.131886785968883     
  1.770000000000000E-002    0.134414168336720     
  1.780000000000000E-002    0.136953335666161     
  1.790000000000000E-002    0.139502891474559     
  1.800000000000000E-002    0.142061380004633     
  1.810000000000000E-002    0.144627285049307     
  1.820000000000000E-002    0.147199047342795     
  1.830000000000000E-002    0.149775025139915     
  1.840000000000000E-002    0.152353543678851     
  1.850000000000000E-002    0.154932849223085     
  1.860000000000000E-002    0.157511148518353     
  1.870000000000000E-002    0.160086586700217     