 -4.000000000000000E-002    0.000000000000000E+000
 -3.990000000000000E-002    0.000000000000000E+000
 -3.980000000000000E-002    0.000000000000000E+000
 -3.970000000000000E-002    0.000000000000000E+000
 -3.960000000000000E-002    0.000000000000000E+000
 -3.950000000000000E-002    0.000000000000000E+000
 -3.940000000000000E-002    0.000000000000000E+000
 -3.930000000000000E-002    0.000000000000000E+000
 -3.920000000000000E-002    0.000000000000000E+000
 -3.910000000000000E-002    0.000000000000000E+000
 -3.900000000000000E-002    0.000000000000000E+000
 -3.890000000000000E-002    0.000000000000000E+000
 -3.880000000000000E-002    0.000000000000000E+000
 -3.870000000000000E-002    0.000000000000000E+000
 -3.860000000000000E-002    0.000000000000000E+000
 -3.850000000000000E-002    0.000000000000000E+000
 -3.840000000000000E-002    0.000000000000000E+000
 -3.830000000000000E-002    0.000000000000000E+000
 -3.820000000000000E-002    0.000000000000000E+000
 -3.810000000000000E-002    0.000000000000000E+000
 -3.800000000000000E-002    0.000000000000000E+000
 -3.790000000000000E-002    0.000000000000000E+000
 -3.780000000000000E-002    0.000000000000000E+000
 -3.770000000000000E-002    0.000000000000000E+000
 -3.760000000000000E-002    0.000000000000000E+000
 -3.750000000000000E-002    0.000000000000000E+000
 -3.740000000000000E-002    0.000000000000000E+000
 -3.730000000000000E-002    0.000000000000000E+000
 -3.720000000000000E-002    0.000000000000000E+000
 -3.710000000000000E-002    0.000000000000000E+000
 -3.700000000000000E-002    0.000000000000000E+000
 -3.690000000000000E-002    0.000000000000000E+000
 -3.680000000000000E-002    0.000000000000000E+000
 -3.670000000000000E-002    0.000000000000000E+000
 -3.660000000000000E-002    0.000000000000000E+000
 -3.650000000000000E-002    0.000000000000000E+000
 -3.640000000000000E-002    0.000000000000000E+000
 -3.630000000000000E-002    0.000000000000000E+000
 -3.620000000000000E-002    0.000000000000000E+000
 -3.610000000000000E-002    0.000000000000000E+000
 -3.600000000000000E-002    0.000000000000000E+000
 -3.590000000000000E-002    0.000000000000000E+000
 -3.580000000000000E-002    0.000000000000000E+000
 -3.570000000000000E-002    0.000000000000000E+000
 -3.560000000000000E-002    0.000000000000000E+000
 -3.550000000000000E-002    0.000000000000000E+000
 -3.540000000000000E-002    0.000000000000000E+000
 -3.530000000000000E-002    0.000000000000000E+000
 -3.520000000000000E-002    0.000000000000000E+000
 -3.510000000000000E-002    0.000000000000000E+000
 -3.500000000000000E-002    0.000000000000000E+000
 -3.490000000000000E-002    0.000000000000000E+000
 -3.480000000000000E-002    0.000000000000000E+000
 -3.470000000000000E-002    0.000000000000000E+000
 -3.460000000000000E-002    0.000000000000000E+000
 -3.450000000000000E-002    0.000000000000000E+000
 -3.440000000000000E-002    0.000000000000000E+000
 -3.430000000000000E-002    0.000000000000000E+000
 -3.420000000000000E-002    0.000000000000000E+000
 -3.410000000000000E-002    0.000000000000000E+000
 -3.400000000000000E-002    0.000000000000000E+000
 -3.390000000000000E-002    0.000000000000000E+000
 -3.380000000000000E-002    0.000000000000000E+000
 -3.370000000000000E-002    0.000000000000000E+000
 -3.360000000000000E-002    0.000000000000000E+000
 -3.350000000000000E-002    0.000000000000000E+000
 -3.340000000000000E-002    0.000000000000000E+000
 -3.330000000000000E-002    0.000000000000000E+000
 -3.320000000000000E-002    0.000000000000000E+000
 -3.310000000000000E-002    0.000000000000000E+000
 -3.300000000000000E-002    0.000000000000000E+000
 -3.290000000000000E-002    0.000000000000000E+000
 -3.280000000000000E-002    0.000000000000000E+000
 -3.270000000000000E-002    0.000000000000000E+000
 -3.260000000000000E-002    0.000000000000000E+000
 -3.250000000000000E-002    0.000000000000000E+000
 -3.240000000000000E-002    0.000000000000000E+000
 -3.230000000000000E-002    0.000000000000000E+000
 -3.220000000000000E-002    0.000000000000000E+000
 -3.210000000000000E-002    0.000000000000000E+000
 -3.200000000000000E-002    0.000000000000000E+000
 -3.190000000000000E-002    0.000000000000000E+000
 -3.180000000000000E-002    0.000000000000000E+000
 -3.170000000000000E-002    0.000000000000000E+000
 -3.160000000000000E-002    0.000000000000000E+000
 -3.150000000000000E-002    0.000000000000000E+000
 -3.140000000000000E-002    0.000000000000000E+000
 -3.130000000000000E-002    0.000000000000000E+000
 -3.120000000000000E-002    0.000000000000000E+000
 -3.110000000000000E-002    0.000000000000000E+000
 -3.100000000000000E-002    0.000000000000000E+000
 -3.090000000000000E-002    0.000000000000000E+000
 -3.080000000000000E-002    0.000000000000000E+000
 -3.070000000000000E-002    0.000000000000000E+000
 -3.060000000000000E-002    0.000000000000000E+000
 -3.050000000000000E-002    0.000000000000000E+000
 -3.040000000000000E-002    0.000000000000000E+000
 -3.030000000000000E-002    0.000000000000000E+000
 -3.020000000000000E-002    0.000000000000000E+000
 -3.010000000000000E-002    0.000000000000000E+000
 -3.000000000000000E-002    0.000000000000000E+000
 -2.990000000000000E-002    0.000000000000000E+000
 -2.980000000000000E-002    0.000000000000000E+000
 -2.970000000000000E-002    0.000000000000000E+000
 -2.960000000000000E-002    0.000000000000000E+000
 -2.950000000000000E-002    0.000000000000000E+000
 -2.940000000000000E-002    0.000000000000000E+000
 -2.930000000000000E-002    0.000000000000000E+000
 -2.920000000000000E-002    0.000000000000000E+000
 -2.910000000000000E-002    0.000000000000000E+000
 -2.900000000000000E-002    0.000000000000000E+000
 -2.890000000000000E-002    0.000000000000000E+000
 -2.880000000000000E-002    0.000000000000000E+000
 -2.870000000000000E-002    0.000000000000000E+000
 -2.860000000000000E-002    0.000000000000000E+000
 -2.850000000000000E-002    0.000000000000000E+000
 -2.840000000000000E-002    0.000000000000000E+000
 -2.830000000000000E-002    0.000000000000000E+000
 -2.820000000000000E-002    0.000000000000000E+000
 -2.810000000000000E-002    0.000000000000000E+000
 -2.800000000000000E-002    0.000000000000000E+000
 -2.790000000000000E-002    0.000000000000000E+000
 -2.780000000000000E-002    0.000000000000000E+000
 -2.770000000000000E-002    0.000000000000000E+000
 -2.760000000000000E-002    0.000000000000000E+000
 -2.750000000000000E-002    0.000000000000000E+000
 -2.740000000000000E-002    0.000000000000000E+000
 -2.730000000000000E-002    0.000000000000000E+000
 -2.720000000000000E-002    0.000000000000000E+000
 -2.710000000000000E-002    0.000000000000000E+000
 -2.700000000000000E-002    0.000000000000000E+000
 -2.690000000000000E-002    0.000000000000000E+000
 -2.680000000000000E-002    0.000000000000000E+000
 -2.670000000000000E-002    0.000000000000000E+000
 -2.660000000000000E-002    0.000000000000000E+000
 -2.650000000000000E-002    0.000000000000000E+000
 -2.640000000000000E-002    0.000000000000000E+000
 -2.630000000000000E-002    0.000000000000000E+000
 -2.620000000000000E-002    0.000000000000000E+000
 -2.610000000000000E-002    0.000000000000000E+000
 -2.600000000000000E-002    0.000000000000000E+000
 -2.590000000000000E-002    0.000000000000000E+000
 -2.580000000000000E-002    0.000000000000000E+000
 -2.570000000000000E-002    0.000000000000000E+000
 -2.560000000000000E-002    0.000000000000000E+000
 -2.550000000000000E-002    0.000000000000000E+000
 -2.540000000000000E-002    0.000000000000000E+000
 -2.530000000000000E-002    0.000000000000000E+000
 -2.520000000000000E-002    0.000000000000000E+000
 -2.510000000000000E-002    0.000000000000000E+000
 -2.500000000000000E-002    0.000000000000000E+000
 -2.490000000000000E-002    0.000000000000000E+000
 -2.480000000000000E-002    0.000000000000000E+000
 -2.470000000000000E-002    0.000000000000000E+000
 -2.460000000000000E-002    0.000000000000000E+000
 -2.450000000000000E-002    0.000000000000000E+000
 -2.440000000000000E-002    0.000000000000000E+000
 -2.430000000000000E-002    0.000000000000000E+000
 -2.420000000000000E-002    0.000000000000000E+000
 -2.410000000000000E-002    0.000000000000000E+000
 -2.400000000000000E-002    0.000000000000000E+000
 -2.390000000000000E-002    0.000000000000000E+000
 -2.380000000000000E-002    0.000000000000000E+000
 -2.370000000000000E-002    0.000000000000000E+000
 -2.360000000000000E-002    0.000000000000000E+000
 -2.350000000000000E-002    0.000000000000000E+000
 -2.340000000000000E-002    0.000000000000000E+000
 -2.330000000000000E-002    0.000000000000000E+000
 -2.320000000000000E-002    0.000000000000000E+000
 -2.310000000000000E-002    0.000000000000000E+000
 -2.300000000000000E-002    0.000000000000000E+000
 -2.290000000000000E-002    0.000000000000000E+000
 -2.280000000000000E-002    0.000000000000000E+000
 -2.270000000000000E-002    0.000000000000000E+000
 -2.260000000000000E-002    0.000000000000000E+000
 -2.250000000000000E-002    0.000000000000000E+000
 -2.240000000000000E-002    0.000000000000000E+000
 -2.230000000000000E-002    0.000000000000000E+000
 -2.220000000000000E-002    0.000000000000000E+000
 -2.210000000000000E-002    0.000000000000000E+000
 -2.200000000000000E-002    0.000000000000000E+000
 -2.190000000000000E-002    0.000000000000000E+000
 -2.180000000000000E-002    0.000000000000000E+000
 -2.170000000000000E-002    0.000000000000000E+000
 -2.160000000000000E-002    0.000000000000000E+000
 -2.150000000000000E-002    0.000000000000000E+000
 -2.140000000000000E-002    0.000000000000000E+000
 -2.130000000000000E-002    0.000000000000000E+000
 -2.120000000000000E-002    0.000000000000000E+000
 -2.110000000000000E-002    0.000000000000000E+000
 -2.100000000000000E-002    0.000000000000000E+000
 -2.090000000000000E-002    0.000000000000000E+000
 -2.080000000000000E-002    0.000000000000000E+000
 -2.070000000000000E-002    0.000000000000000E+000
 -2.060000000000000E-002    0.000000000000000E+000
 -2.050000000000000E-002    0.000000000000000E+000
 -2.040000000000000E-002    0.000000000000000E+000
 -2.030000000000000E-002    0.000000000000000E+000
 -2.020000000000000E-002    0.000000000000000E+000
 -2.010000000000000E-002    0.000000000000000E+000
 -2.000000000000000E-002    0.000000000000000E+000
 -1.990000000000000E-002    0.000000000000000E+000
 -1.980000000000000E-002    0.000000000000000E+000
 -1.970000000000000E-002    0.000000000000000E+000
 -1.960000000000000E-002    0.000000000000000E+000
 -1.950000000000000E-002    0.000000000000000E+000
 -1.940000000000000E-002    0.000000000000000E+000
 -1.930000000000000E-002    0.000000000000000E+000
 -1.920000000000000E-002    0.000000000000000E+000
 -1.910000000000000E-002    0.000000000000000E+000
 -1.900000000000000E-002    0.000000000000000E+000
 -1.890000000000000E-002    0.000000000000000E+000
 -1.880000000000000E-002    0.000000000000000E+000
 -1.870000000000000E-002    0.000000000000000E+000
 -1.860000000000000E-002    0.000000000000000E+000
 -1.850000000000000E-002    0.000000000000000E+000
 -1.840000000000000E-002    0.000000000000000E+000
 -1.830000000000000E-002    0.000000000000000E+000
 -1.820000000000000E-002    0.000000000000000E+000
 -1.810000000000000E-002    0.000000000000000E+000
 -1.800000000000000E-002    0.000000000000000E+000
 -1.790000000000000E-002    0.000000000000000E+000
 -1.780000000000000E-002    0.000000000000000E+000
 -1.770000000000000E-002    0.000000000000000E+000
 -1.760000000000000E-002    0.000000000000000E+000
 -1.750000000000000E-002    0.000000000000000E+000
 -1.740000000000000E-002    0.000000000000000E+000
 -1.730000000000000E-002    0.000000000000000E+000
 -1.720000000000000E-002    0.000000000000000E+000
 -1.710000000000000E-002    0.000000000000000E+000
 -1.700000000000000E-002    0.000000000000000E+000
 -1.690000000000000E-002    0.000000000000000E+000
 -1.680000000000000E-002    0.000000000000000E+000
 -1.670000000000000E-002    0.000000000000000E+000
 -1.660000000000000E-002    0.000000000000000E+000
 -1.650000000000000E-002    0.000000000000000E+000
 -1.640000000000000E-002    0.000000000000000E+000
 -1.630000000000000E-002    0.000000000000000E+000
 -1.620000000000000E-002    0.000000000000000E+000
 -1.610000000000000E-002    0.000000000000000E+000
 -1.600000000000000E-002    0.000000000000000E+000
 -1.590000000000000E-002    0.000000000000000E+000
 -1.580000000000000E-002    0.000000000000000E+000
 -1.570000000000000E-002    0.000000000000000E+000
 -1.560000000000000E-002    0.000000000000000E+000
 -1.550000000000000E-002    0.000000000000000E+000
 -1.540000000000000E-002    0.000000000000000E+000
 -1.530000000000000E-002    0.000000000000000E+000
 -1.520000000000000E-002    0.000000000000000E+000
 -1.510000000000000E-002    0.000000000000000E+000
 -1.500000000000000E-002    0.000000000000000E+000
 -1.490000000000000E-002    0.000000000000000E+000
 -1.480000000000000E-002    0.000000000000000E+000
 -1.470000000000000E-002    0.000000000000000E+000
 -1.460000000000000E-002    0.000000000000000E+000
 -1.450000000000000E-002    0.000000000000000E+000
 -1.440000000000000E-002    0.000000000000000E+000
 -1.430000000000000E-002    0.000000000000000E+000
 -1.420000000000000E-002    0.000000000000000E+000
 -1.410000000000000E-002    0.000000000000000E+000
 -1.400000000000000E-002    0.000000000000000E+000
 -1.390000000000000E-002    0.000000000000000E+000
 -1.380000000000000E-002    0.000000000000000E+000
 -1.370000000000000E-002    0.000000000000000E+000
 -1.360000000000000E-002    0.000000000000000E+000
 -1.350000000000000E-002    0.000000000000000E+000
 -1.340000000000000E-002    0.000000000000000E+000
 -1.330000000000000E-002    0.000000000000000E+000
 -1.320000000000000E-002    0.000000000000000E+000
 -1.310000000000000E-002    0.000000000000000E+000
 -1.300000000000000E-002    0.000000000000000E+000
 -1.290000000000000E-002    0.000000000000000E+000
 -1.280000000000000E-002    0.000000000000000E+000
 -1.270000000000000E-002    0.000000000000000E+000
 -1.260000000000000E-002    0.000000000000000E+000
 -1.250000000000000E-002    0.000000000000000E+000
 -1.240000000000000E-002    0.000000000000000E+000
 -1.230000000000000E-002    0.000000000000000E+000
 -1.220000000000000E-002    0.000000000000000E+000
 -1.210000000000000E-002    0.000000000000000E+000
 -1.200000000000000E-002    0.000000000000000E+000
 -1.190000000000000E-002    0.000000000000000E+000
 -1.180000000000000E-002    0.000000000000000E+000
 -1.170000000000000E-002    0.000000000000000E+000
 -1.160000000000000E-002    0.000000000000000E+000
 -1.150000000000000E-002    0.000000000000000E+000
 -1.140000000000000E-002    0.000000000000000E+000
 -1.130000000000000E-002    0.000000000000000E+000
 -1.120000000000000E-002    0.000000000000000E+000
 -1.110000000000000E-002    0.000000000000000E+000
 -1.100000000000000E-002    0.000000000000000E+000
 -1.090000000000000E-002    0.000000000000000E+000
 -1.080000000000000E-002    0.000000000000000E+000
 -1.070000000000000E-002    0.000000000000000E+000
 -1.060000000000000E-002    0.000000000000000E+000
 -1.050000000000000E-002    0.000000000000000E+000
 -1.040000000000000E-002    0.000000000000000E+000
 -1.030000000000000E-002    0.000000000000000E+000
 -1.020000000000000E-002    0.000000000000000E+000
 -1.010000000000000E-002    0.000000000000000E+000
 -1.000000000000000E-002    0.000000000000000E+000
 -9.899999999999999E-003    0.000000000000000E+000
 -9.800000000000000E-003    0.000000000000000E+000
 -9.699999999999999E-003    0.000000000000000E+000
 -9.599999999999999E-003    0.000000000000000E+000
 -9.500000000000000E-003    0.000000000000000E+000
 -9.399999999999999E-003    0.000000000000000E+000
 -9.299999999999999E-003    0.000000000000000E+000
 -9.200000000000000E-003    0.000000000000000E+000
 -9.099999999999999E-003    0.000000000000000E+000
 -8.999999999999999E-003    0.000000000000000E+000
 -8.900000000000000E-003    0.000000000000000E+000
 -8.799999999999999E-003    0.000000000000000E+000
 -8.699999999999999E-003    0.000000000000000E+000
 -8.600000000000000E-003    0.000000000000000E+000
 -8.499999999999999E-003    0.000000000000000E+000
 -8.399999999999999E-003    0.000000000000000E+000
 -8.300000000000000E-003    0.000000000000000E+000
 -8.199999999999999E-003    0.000000000000000E+000
 -8.100000000000000E-003    0.000000000000000E+000
 -8.000000000000000E-003    0.000000000000000E+000
 -7.899999999999999E-003    0.000000000000000E+000
 -7.800000000000000E-003    0.000000000000000E+000
 -7.699999999999999E-003    0.000000000000000E+000
 -7.599999999999999E-003    0.000000000000000E+000
 -7.499999999999999E-003    0.000000000000000E+000
 -7.399999999999999E-003    0.000000000000000E+000
 -7.299999999999999E-003    0.000000000000000E+000
 -7.199999999999999E-003    0.000000000000000E+000
 -7.100000000000000E-003    0.000000000000000E+000
 -6.999999999999999E-003    0.000000000000000E+000
 -6.899999999999999E-003    0.000000000000000E+000
 -6.800000000000000E-003    0.000000000000000E+000
 -6.699999999999999E-003    0.000000000000000E+000
 -6.599999999999999E-003    0.000000000000000E+000
 -6.499999999999999E-003    0.000000000000000E+000
 -6.399999999999999E-003    0.000000000000000E+000
 -6.299999999999999E-003    0.000000000000000E+000
 -6.199999999999999E-003    0.000000000000000E+000
 -6.100000000000000E-003    0.000000000000000E+000
 -5.999999999999999E-003    0.000000000000000E+000
 -5.899999999999999E-003    0.000000000000000E+000
 -5.800000000000000E-003    0.000000000000000E+000
 -5.699999999999999E-003    0.000000000000000E+000
 -5.599999999999999E-003    0.000000000000000E+000
 -5.499999999999999E-003    0.000000000000000E+000
 -5.399999999999999E-003    0.000000000000000E+000
 -5.299999999999999E-003    0.000000000000000E+000
 -5.199999999999999E-003    0.000000000000000E+000
 -5.099999999999999E-003    0.000000000000000E+000
 -4.999999999999999E-003    0.000000000000000E+000
 -4.899999999999999E-003    0.000000000000000E+000
 -4.799999999999999E-003    0.000000000000000E+000
 -4.699999999999999E-003    0.000000000000000E+000
 -4.599999999999999E-003    0.000000000000000E+000
 -4.499999999999999E-003    0.000000000000000E+000
 -4.399999999999999E-003    0.000000000000000E+000
 -4.299999999999999E-003    0.000000000000000E+000
 -4.199999999999999E-003    0.000000000000000E+000
 -4.099999999999999E-003    0.000000000000000E+000
 -3.999999999999999E-003    0.000000000000000E+000
 -3.899999999999999E-003    0.000000000000000E+000
 -3.799999999999999E-003    0.000000000000000E+000
 -3.699999999999999E-003    0.000000000000000E+000
 -3.599999999999999E-003    0.000000000000000E+000
 -3.499999999999999E-003    0.000000000000000E+000
 -3.399999999999999E-003    0.000000000000000E+000
 -3.299999999999999E-003    8.923564079021446E-049
 -3.199999999999999E-003    2.088925222549820E-048
 -3.099999999999999E-003    3.285494037197496E-048
 -2.999999999999999E-003    4.786275258590703E-048
 -2.899999999999999E-003    1.277721354359399E-047
 -2.799999999999999E-003    1.338563835708505E-047
 -2.699999999999999E-003    1.279749435592844E-047
 -2.599999999999999E-003    1.070856913337862E-047
 -2.499999999999999E-003   -1.187352768114097E-048
 -2.399999999999999E-003   -1.574725438364389E-047
 -2.299999999999999E-003   -4.011415267811659E-047
 -2.199999999999999E-003   -6.880573716110197E-047
 -2.099999999999999E-003   -1.029999129468520E-046
 -1.999999999999999E-003   -1.351274690662551E-046
 -1.899999999999999E-003   -1.633500415691689E-046
 -1.799999999999999E-003   -1.726397719290970E-046
 -1.699999999999999E-003   -1.543349132507810E-046
 -1.599999999999999E-003   -9.940886874142130E-047
 -1.499999999999999E-003   -1.862466036548552E-046
 -1.399999999999999E-003   -2.222365155523425E-046
 -1.299999999999999E-003   -2.698332600530204E-046
 -1.199999999999999E-003   -1.235099625521941E-046
 -1.099999999999999E-003    7.458981847580193E-047
 -9.999999999999989E-004    2.522779474795426E-046
 -8.999999999999990E-004    5.907081014019070E-046
 -7.999999999999990E-004    1.202264873164757E-045
 -6.999999999999989E-004    1.847633814973179E-045
 -5.999999999999990E-004    3.781674038330270E-045
 -4.999999999999989E-004    5.641038388879335E-045
 -3.999999999999989E-004    8.611486220607486E-045
 -2.999999999999989E-004    1.129088323393276E-044
 -1.999999999999989E-004    1.331974171346418E-044
 -9.999999999999892E-005    1.316789591027371E-044
  1.084202172485504E-018    1.170402276613356E-044
  1.000000000000011E-004    6.772219258196514E-045
  2.000000000000011E-004   -1.035614054605941E-045
  3.000000000000011E-004   -1.232348161447362E-044
  4.000000000000011E-004   -2.808174171588221E-044
  5.000000000000011E-004   -4.641798853422995E-044
  6.000000000000011E-004   -6.566943018010766E-044
  7.000000000000011E-004   -8.305624230153775E-044
  8.000000000000011E-004   -9.627334553504344E-044
  9.000000000000012E-004   -1.006660367484838E-043
  1.000000000000001E-003   -9.216764472297953E-044
  1.100000000000001E-003   -6.752399689407282E-044
  1.200000000000001E-003   -2.321862068225171E-044
  1.300000000000001E-003    4.315250740294511E-044
  1.400000000000001E-003    1.301005273052719E-043
  1.500000000000001E-003    2.333882980139664E-043
  1.600000000000001E-003    3.466604088565227E-043
  1.700000000000001E-003    4.563690064460804E-043
  1.800000000000001E-003    5.455954168380549E-043
  1.900000000000001E-003    5.941018651801009E-043
  2.000000000000001E-003    5.787397935057981E-043
  2.100000000000001E-003    4.769665365038142E-043
  2.200000000000001E-003    2.678230834189340E-043
  2.300000000000001E-003   -6.042267677653274E-044
  2.400000000000001E-003   -5.087691416528115E-043
  2.500000000000001E-003   -1.062708399655271E-042
  2.600000000000001E-003   -1.686219531085432E-042
  2.700000000000001E-003   -2.320402419405630E-042
  2.800000000000001E-003   -2.880863415257328E-042
  2.900000000000001E-003   -3.262554627115448E-042
  3.000000000000001E-003   -3.345683146545151E-042
  3.100000000000001E-003   -3.004083186304173E-042
  3.200000000000001E-003   -2.124097839327065E-042
  3.300000000000001E-003   -6.198568231061465E-043
  3.400000000000001E-003    1.538185339570254E-042
  3.500000000000001E-003    4.303942334344571E-042
  3.600000000000001E-003    7.528392929404850E-042
  3.700000000000001E-003    1.094745507148529E-041
  3.800000000000001E-003    1.417140595315566E-041
  3.900000000000001E-003    1.669265133066756E-041
  4.000000000000001E-003    1.791162842137838E-041
  4.100000000000001E-003    1.718800210198742E-041
  4.200000000000001E-003    1.390428338511442E-041
  4.300000000000001E-003    7.568706624293190E-042
  4.400000000000001E-003   -2.083453642186132E-042
  4.500000000000001E-003   -1.496446334900744E-041
  4.600000000000002E-003   -3.052530132054119E-041
  4.700000000000001E-003   -4.765873242611364E-041
  4.800000000000001E-003   -6.465642639596498E-041
  4.900000000000002E-003   -7.921787139715457E-041
  5.000000000000001E-003   -8.855546410520694E-041
  5.100000000000001E-003   -8.959248690190382E-041
  5.200000000000001E-003   -7.927124022225536E-041
  5.300000000000002E-003   -5.496778573673257E-041
  5.400000000000001E-003   -1.499428842610955E-041
  5.500000000000001E-003    4.085864541335278E-041
  5.600000000000002E-003    1.107798458562437E-040
  5.700000000000001E-003    1.904886332110517E-040
  5.800000000000001E-003    2.729543540588596E-040
  5.900000000000002E-003    3.483915302658871E-040
  6.000000000000001E-003    4.046134804783883E-040
  6.100000000000001E-003    4.278279785704000E-040
  6.200000000000002E-003    4.039068684013504E-040
  6.300000000000002E-003    3.201288841374093E-040
  6.400000000000001E-003    1.673087348486275E-040
  6.500000000000001E-003   -5.782723351928304E-041
  6.600000000000002E-003   -3.502683686141286E-040
  6.700000000000001E-003   -6.946542251721515E-040
  6.800000000000001E-003   -1.063890238281985E-039
  6.900000000000002E-003   -1.418855853876792E-039
  7.000000000000001E-003   -1.709586460771985E-039
  7.100000000000001E-003   -1.878255714519555E-039
  7.200000000000002E-003   -1.864135323666406E-039
  7.300000000000002E-003   -1.610515172277929E-039
  7.400000000000001E-003   -1.073295824379265E-039
  7.500000000000001E-003   -2.306557771650868E-040
  7.600000000000002E-003    9.071378051332551E-040
  7.700000000000001E-003    2.289013220581946E-039
  7.800000000000001E-003    3.816941731678671E-039
  7.900000000000001E-003    5.343967380471444E-039
  8.000000000000002E-003    6.677936500211799E-039
  8.100000000000001E-003    7.592215030414171E-039
  8.200000000000001E-003    7.844101932202168E-039
  8.300000000000002E-003    7.200903377440809E-039
  8.400000000000001E-003    5.472569064475602E-039
  8.500000000000002E-003    2.548643306795522E-039
  8.600000000000002E-003   -1.563984229203086E-039
  8.700000000000001E-003   -6.707179698911630E-039
  8.800000000000002E-003   -1.254703706212306E-038
  8.900000000000002E-003   -1.856465227763489E-038
  9.000000000000001E-003   -2.406783587540199E-038
  9.100000000000002E-003   -2.822834412190733E-038
  9.200000000000002E-003   -3.014716210939848E-038
  9.300000000000001E-003   -2.894746100146283E-038
  9.400000000000002E-003   -2.389112858536367E-038
  9.500000000000001E-003   -1.451054867172754E-038
  9.600000000000001E-003   -7.429430326359466E-040
  9.700000000000002E-003    1.694927262302371E-038
  9.800000000000001E-003    3.749142567539423E-038
  9.900000000000001E-003    5.916321700299537E-038
  1.000000000000000E-002    7.963793705679937E-038
  1.010000000000000E-002    9.610893968389826E-038
  1.020000000000000E-002    1.055107231615226E-037
  1.030000000000000E-002    1.048314428347750E-037
  1.040000000000000E-002    9.150117528174613E-038
  1.050000000000000E-002    6.382615235322190E-038
  1.060000000000000E-002    2.142531442260131E-038
  1.070000000000000E-002   -3.438606545144908E-038
  1.080000000000000E-002   -1.003282170549958E-037
  1.090000000000000E-002   -1.710680959630000E-037
  1.100000000000000E-002   -2.393662908440374E-037
  1.110000000000000E-002   -2.964999064695832E-037
  1.120000000000000E-002   -3.329754741095286E-037
  1.130000000000000E-002   -3.395116644211347E-037
  1.140000000000000E-002   -3.082313803293224E-037
  1.150000000000000E-002   -2.339607235353615E-037
  1.160000000000000E-002   -1.154934892886460E-037
  1.170000000000000E-002    4.334960252110950E-038
  1.180000000000000E-002    2.330507654630283E-037
  1.190000000000000E-002    4.382901603474472E-037
  1.200000000000000E-002    6.385486458000858E-037
  1.210000000000000E-002    8.094991900699263E-037
  1.220000000000000E-002    9.251816407020566E-037
  1.230000000000000E-002    9.608505671195245E-037
  1.240000000000000E-002    8.962691596444492E-037
  1.250000000000000E-002    7.191133344559127E-037
  1.260000000000000E-002    4.280595726326458E-037
  1.270000000000000E-002    3.508110993405913E-038
  1.280000000000000E-002   -4.335189732674991E-037
  1.290000000000000E-002   -9.377335643534210E-037
  1.300000000000000E-002   -1.426391025676915E-036
  1.310000000000000E-002   -1.841640652658988E-036
  1.320000000000000E-002   -2.125155411624749E-036
  1.330000000000000E-002   -2.225520705681258E-036
  1.340000000000000E-002   -2.105998059734138E-036
  1.350000000000000E-002   -1.751619916208462E-036
  1.360000000000000E-002   -1.174453704061365E-036
  1.370000000000000E-002   -4.158909151218080E-037
  1.380000000000000E-002    4.549649308026051E-037
  1.390000000000000E-002    1.347352256708371E-036
  1.400000000000000E-002    2.159289830290636E-036
  1.410000000000000E-002    2.791634793502552E-036
  1.420000000000000E-002    3.164229694096016E-036
  1.430000000000000E-002    3.231883544417323E-036
  1.440000000000000E-002    2.997410759688335E-036
  1.450000000000000E-002    2.518735903024010E-036
  1.460000000000000E-002    1.907324740964976E-036
  1.470000000000000E-002    1.315936322144671E-036
  1.480000000000000E-002    9.150337101482929E-037
  1.490000000000000E-002    8.589947787992032E-037
  1.500000000000000E-002    1.245363730818685E-036
  1.510000000000000E-002    2.072667236665539E-036
  1.520000000000000E-002    3.204213941067409E-036
  1.530000000000000E-002    4.346613709344659E-036
  1.540000000000000E-002    5.051912102667390E-036
  1.550000000000000E-002    4.751040558680876E-036
  1.560000000000000E-002    2.823286532564788E-036
  1.570000000000000E-002   -1.298172304711973E-036
  1.580000000000000E-002   -7.990723465457349E-036
  1.590000000000000E-002   -1.729009268696988E-035
  1.600000000000000E-002   -2.874189174034571E-035
  1.610000000000000E-002   -4.128375471970276E-035
  1.620000000000000E-002   -5.318873533892048E-035
  1.630000000000000E-002   -6.210090477474984E-035
  1.640000000000000E-002   -6.518941688702753E-035
  1.650000000000000E-002   -5.943707293617533E-035
  1.660000000000000E-002   -4.206314864852536E-035
  1.670000000000000E-002   -1.105905288194511E-035
  1.680000000000000E-002    3.420929525184836E-035
  1.690000000000000E-002    9.240421400408982E-035
  1.700000000000000E-002    1.597179709234932E-034
  1.710000000000000E-002    2.295828376690282E-034
  1.720000000000000E-002    2.927019129482123E-034
  1.730000000000000E-002    3.375008411768236E-034
  1.740000000000000E-002    3.510683255704222E-034
  1.750000000000000E-002    3.206026286939187E-034
  1.760000000000000E-002    2.353110710130225E-034
  1.770000000000000E-002    8.862686008461088E-035
  1.780000000000000E-002   -1.194808259092961E-034
  1.790000000000000E-002   -3.804093051852611E-034
  1.800000000000000E-002   -6.754044406878685E-034
  1.810000000000000E-002   -9.750167262046490E-034
  1.820000000000000E-002   -1.239902857678867E-033
  1.830000000000000E-002   -1.423262802815496E-033
  1.840000000000000E-002   -1.475053923323414E-033
  1.850000000000000E-002   -1.347914684395055E-033
  1.860000000000000E-002   -1.004469103122396E-033
  1.870000000000000E-002   -4.253951784566803E-034