 -4.000000000000000E-002    0.000000000000000E+000
 -3.990000000000000E-002    0.000000000000000E+000
 -3.980000000000000E-002    0.000000000000000E+000
 -3.970000000000000E-002    0.000000000000000E+000
 -3.960000000000000E-002    0.000000000000000E+000
 -3.950000000000000E-002    0.000000000000000E+000
 -3.940000000000000E-002    0.000000000000000E+000
 -3.930000000000000E-002    0.000000000000000E+000
 -3.920000000000000E-002    0.000000000000000E+000
 -3.910000000000000E-002    0.000000000000000E+000
 -3.900000000000000E-002    0.000000000000000E+000
 -3.890000000000000E-002    0.000000000000000E+000
 -3.880000000000000E-002    0.000000000000000E+000
 -3.870000000000000E-002    0.000000000000000E+000
 -3.860000000000000E-002    0.000000000000000E+000
 -3.850000000000000E-002    0.000000000000000E+000
 -3.840000000000000E-002    0.000000000000000E+000
 -3.830000000000000E-002    0.000000000000000E+000
 -3.820000000000000E-002    0.000000000000000E+000
 -3.810000000000000E-002    0.000000000000000E+000
 -3.800000000000000E-002    0.000000000000000E+000
 -3.790000000000000E-002    0.000000000000000E+000
 -3.780000000000000E-002    0.000000000000000E+000
 -3.770000000000000E-002    0.000000000000000E+000
 -3.760000000000000E-002    0.000000000000000E+000
 -3.750000000000000E-002    0.000000000000000E+000
 -3.740000000000000E-002    0.000000000000000E+000
 -3.730000000000000E-002    0.000000000000000E+000
 -3.720000000000000E-002    0.000000000000000E+000
 -3.710000000000000E-002    0.000000000000000E+000
 -3.700000000000000E-002    0.000000000000000E+000
 -3.690000000000000E-002    0.000000000000000E+000
 -3.680000000000000E-002    0.000000000000000E+000
 -3.670000000000000E-002    0.000000000000000E+000
 -3.660000000000000E-002    0.000000000000000E+000
 -3.650000000000000E-002    0.000000000000000E+000
 -3.640000000000000E-002    0.000000000000000E+000
 -3.630000000000000E-002    0.000000000000000E+000
 -3.620000000000000E-002    0.000000000000000E+000
 -3.610000000000000E-002    0.000000000000000E+000
 -3.600000000000000E-002    0.000000000000000E+000
 -3.590000000000000E-002    0.000000000000000E+000
 -3.580000000000000E-002    0.000000000000000E+000
 -3.570000000000000E-002    0.000000000000000E+000
 -3.560000000000000E-002    0.000000000000000E+000
 -3.550000000000000E-002    0.000000000000000E+000
 -3.540000000000000E-002    0.000000000000000E+000
 -3.530000000000000E-002    0.000000000000000E+000
 -3.520000000000000E-002    0.000000000000000E+000
 -3.510000000000000E-002    0.000000000000000E+000
 -3.500000000000000E-002    0.000000000000000E+000
 -3.490000000000000E-002    0.000000000000000E+000
 -3.480000000000000E-002    0.000000000000000E+000
 -3.470000000000000E-002    0.000000000000000E+000
 -3.460000000000000E-002    0.000000000000000E+000
 -3.450000000000000E-002    0.000000000000000E+000
 -3.440000000000000E-002    0.000000000000000E+000
 -3.430000000000000E-002    0.000000000000000E+000
 -3.420000000000000E-002    0.000000000000000E+000
 -3.410000000000000E-002    0.000000000000000E+000
 -3.400000000000000E-002    0.000000000000000E+000
 -3.390000000000000E-002    0.000000000000000E+000
 -3.380000000000000E-002    0.000000000000000E+000
 -3.370000000000000E-002    0.000000000000000E+000
 -3.360000000000000E-002    0.000000000000000E+000
 -3.350000000000000E-002    0.000000000000000E+000
 -3.340000000000000E-002    0.000000000000000E+000
 -3.330000000000000E-002    0.000000000000000E+000
 -3.320000000000000E-002    0.000000000000000E+000
 -3.310000000000000E-002    0.000000000000000E+000
 -3.300000000000000E-002    0.000000000000000E+000
 -3.290000000000000E-002    0.000000000000000E+000
 -3.280000000000000E-002    0.000000000000000E+000
 -3.270000000000000E-002    0.000000000000000E+000
 -3.260000000000000E-002    0.000000000000000E+000
 -3.250000000000000E-002    0.000000000000000E+000
 -3.240000000000000E-002    0.000000000000000E+000
 -3.230000000000000E-002    0.000000000000000E+000
 -3.220000000000000E-002    0.000000000000000E+000
 -3.210000000000000E-002    0.000000000000000E+000
 -3.200000000000000E-002    0.000000000000000E+000
 -3.190000000000000E-002    0.000000000000000E+000
 -3.180000000000000E-002    0.000000000000000E+000
 -3.170000000000000E-002    0.000000000000000E+000
 -3.160000000000000E-002    0.000000000000000E+000
 -3.150000000000000E-002    0.000000000000000E+000
 -3.140000000000000E-002    0.000000000000000E+000
 -3.130000000000000E-002    0.000000000000000E+000
 -3.120000000000000E-002    0.000000000000000E+000
 -3.110000000000000E-002    0.000000000000000E+000
 -3.100000000000000E-002    0.000000000000000E+000
 -3.090000000000000E-002    0.000000000000000E+000
 -3.080000000000000E-002    0.000000000000000E+000
 -3.070000000000000E-002    0.000000000000000E+000
 -3.060000000000000E-002    0.000000000000000E+000
 -3.050000000000000E-002    0.000000000000000E+000
 -3.040000000000000E-002    0.000000000000000E+000
 -3.030000000000000E-002    0.000000000000000E+000
 -3.020000000000000E-002    0.000000000000000E+000
 -3.010000000000000E-002    0.000000000000000E+000
 -3.000000000000000E-002    0.000000000000000E+000
 -2.990000000000000E-002    0.000000000000000E+000
 -2.980000000000000E-002    0.000000000000000E+000
 -2.970000000000000E-002    0.000000000000000E+000
 -2.960000000000000E-002    0.000000000000000E+000
 -2.950000000000000E-002    0.000000000000000E+000
 -2.940000000000000E-002    0.000000000000000E+000
 -2.930000000000000E-002    0.000000000000000E+000
 -2.920000000000000E-002    0.000000000000000E+000
 -2.910000000000000E-002    0.000000000000000E+000
 -2.900000000000000E-002    0.000000000000000E+000
 -2.890000000000000E-002    0.000000000000000E+000
 -2.880000000000000E-002    0.000000000000000E+000
 -2.870000000000000E-002    0.000000000000000E+000
 -2.860000000000000E-002    0.000000000000000E+000
 -2.850000000000000E-002    0.000000000000000E+000
 -2.840000000000000E-002    0.000000000000000E+000
 -2.830000000000000E-002    0.000000000000000E+000
 -2.820000000000000E-002    0.000000000000000E+000
 -2.810000000000000E-002    0.000000000000000E+000
 -2.800000000000000E-002    0.000000000000000E+000
 -2.790000000000000E-002    0.000000000000000E+000
 -2.780000000000000E-002    0.000000000000000E+000
 -2.770000000000000E-002    0.000000000000000E+000
 -2.760000000000000E-002    0.000000000000000E+000
 -2.750000000000000E-002    0.000000000000000E+000
 -2.740000000000000E-002    0.000000000000000E+000
 -2.730000000000000E-002    0.000000000000000E+000
 -2.720000000000000E-002    0.000000000000000E+000
 -2.710000000000000E-002    0.000000000000000E+000
 -2.700000000000000E-002    0.000000000000000E+000
 -2.690000000000000E-002    0.000000000000000E+000
 -2.680000000000000E-002    0.000000000000000E+000
 -2.670000000000000E-002    0.000000000000000E+000
 -2.660000000000000E-002    0.000000000000000E+000
 -2.650000000000000E-002    0.000000000000000E+000
 -2.640000000000000E-002    0.000000000000000E+000
 -2.630000000000000E-002    0.000000000000000E+000
 -2.620000000000000E-002    0.000000000000000E+000
 -2.610000000000000E-002    0.000000000000000E+000
 -2.600000000000000E-002    0.000000000000000E+000
 -2.590000000000000E-002    0.000000000000000E+000
 -2.580000000000000E-002    0.000000000000000E+000
 -2.570000000000000E-002    0.000000000000000E+000
 -2.560000000000000E-002    0.000000000000000E+000
 -2.550000000000000E-002    0.000000000000000E+000
 -2.540000000000000E-002    0.000000000000000E+000
 -2.530000000000000E-002    0.000000000000000E+000
 -2.520000000000000E-002    0.000000000000000E+000
 -2.510000000000000E-002    0.000000000000000E+000
 -2.500000000000000E-002    0.000000000000000E+000
 -2.490000000000000E-002    0.000000000000000E+000
 -2.480000000000000E-002    0.000000000000000E+000
 -2.470000000000000E-002    0.000000000000000E+000
 -2.460000000000000E-002    0.000000000000000E+000
 -2.450000000000000E-002    0.000000000000000E+000
 -2.440000000000000E-002    0.000000000000000E+000
 -2.430000000000000E-002    0.000000000000000E+000
 -2.420000000000000E-002    0.000000000000000E+000
 -2.410000000000000E-002    0.000000000000000E+000
 -2.400000000000000E-002    0.000000000000000E+000
 -2.390000000000000E-002    0.000000000000000E+000
 -2.380000000000000E-002    0.000000000000000E+000
 -2.370000000000000E-002    0.000000000000000E+000
 -2.360000000000000E-002    0.000000000000000E+000
 -2.350000000000000E-002    0.000000000000000E+000
 -2.340000000000000E-002    0.000000000000000E+000
 -2.330000000000000E-002    0.000000000000000E+000
 -2.320000000000000E-002    0.000000000000000E+000
 -2.310000000000000E-002    0.000000000000000E+000
 -2.300000000000000E-002    0.000000000000000E+000
 -2.290000000000000E-002    0.000000000000000E+000
 -2.280000000000000E-002    0.000000000000000E+000
 -2.270000000000000E-002    0.000000000000000E+000
 -2.260000000000000E-002    0.000000000000000E+000
 -2.250000000000000E-002    0.000000000000000E+000
 -2.240000000000000E-002    0.000000000000000E+000
 -2.230000000000000E-002    0.000000000000000E+000
 -2.220000000000000E-002    0.000000000000000E+000
 -2.210000000000000E-002    0.000000000000000E+000
 -2.200000000000000E-002    0.000000000000000E+000
 -2.190000000000000E-002    0.000000000000000E+000
 -2.180000000000000E-002    0.000000000000000E+000
 -2.170000000000000E-002    0.000000000000000E+000
 -2.160000000000000E-002    0.000000000000000E+000
 -2.150000000000000E-002    0.000000000000000E+000
 -2.140000000000000E-002    0.000000000000000E+000
 -2.130000000000000E-002    0.000000000000000E+000
 -2.120000000000000E-002    0.000000000000000E+000
 -2.110000000000000E-002    0.000000000000000E+000
 -2.100000000000000E-002    0.000000000000000E+000
 -2.090000000000000E-002    0.000000000000000E+000
 -2.080000000000000E-002    0.000000000000000E+000
 -2.070000000000000E-002    0.000000000000000E+000
 -2.060000000000000E-002    0.000000000000000E+000
 -2.050000000000000E-002    0.000000000000000E+000
 -2.040000000000000E-002    0.000000000000000E+000
 -2.030000000000000E-002    0.000000000000000E+000
 -2.020000000000000E-002    0.000000000000000E+000
 -2.010000000000000E-002    0.000000000000000E+000
 -2.000000000000000E-002    0.000000000000000E+000
 -1.990000000000000E-002    0.000000000000000E+000
 -1.980000000000000E-002    0.000000000000000E+000
 -1.970000000000000E-002    0.000000000000000E+000
 -1.960000000000000E-002    0.000000000000000E+000
 -1.950000000000000E-002    0.000000000000000E+000
 -1.940000000000000E-002    0.000000000000000E+000
 -1.930000000000000E-002    0.000000000000000E+000
 -1.920000000000000E-002    0.000000000000000E+000
 -1.910000000000000E-002    0.000000000000000E+000
 -1.900000000000000E-002    0.000000000000000E+000
 -1.890000000000000E-002    0.000000000000000E+000
 -1.880000000000000E-002    0.000000000000000E+000
 -1.870000000000000E-002    0.000000000000000E+000
 -1.860000000000000E-002    0.000000000000000E+000
 -1.850000000000000E-002    0.000000000000000E+000
 -1.840000000000000E-002    0.000000000000000E+000
 -1.830000000000000E-002    0.000000000000000E+000
 -1.820000000000000E-002    0.000000000000000E+000
 -1.810000000000000E-002    0.000000000000000E+000
 -1.800000000000000E-002    0.000000000000000E+000
 -1.790000000000000E-002    0.000000000000000E+000
 -1.780000000000000E-002    0.000000000000000E+000
 -1.770000000000000E-002    0.000000000000000E+000
 -1.760000000000000E-002    0.000000000000000E+000
 -1.750000000000000E-002    0.000000000000000E+000
 -1.740000000000000E-002    0.000000000000000E+000
 -1.730000000000000E-002    0.000000000000000E+000
 -1.720000000000000E-002    0.000000000000000E+000
 -1.710000000000000E-002    0.000000000000000E+000
 -1.700000000000000E-002    0.000000000000000E+000
 -1.690000000000000E-002    0.000000000000000E+000
 -1.680000000000000E-002    0.000000000000000E+000
 -1.670000000000000E-002    0.000000000000000E+000
 -1.660000000000000E-002    0.000000000000000E+000
 -1.650000000000000E-002    0.000000000000000E+000
 -1.640000000000000E-002    0.000000000000000E+000
 -1.630000000000000E-002    0.000000000000000E+000
 -1.620000000000000E-002    0.000000000000000E+000
 -1.610000000000000E-002    0.000000000000000E+000
 -1.600000000000000E-002    0.000000000000000E+000
 -1.590000000000000E-002    0.000000000000000E+000
 -1.580000000000000E-002    0.000000000000000E+000
 -1.570000000000000E-002    0.000000000000000E+000
 -1.560000000000000E-002    0.000000000000000E+000
 -1.550000000000000E-002    0.000000000000000E+000
 -1.540000000000000E-002    0.000000000000000E+000
 -1.530000000000000E-002    0.000000000000000E+000
 -1.520000000000000E-002    0.000000000000000E+000
 -1.510000000000000E-002    0.000000000000000E+000
 -1.500000000000000E-002    0.000000000000000E+000
 -1.490000000000000E-002    0.000000000000000E+000
 -1.480000000000000E-002    0.000000000000000E+000
 -1.470000000000000E-002    0.000000000000000E+000
 -1.460000000000000E-002    0.000000000000000E+000
 -1.450000000000000E-002    0.000000000000000E+000
 -1.440000000000000E-002    0.000000000000000E+000
 -1.430000000000000E-002    0.000000000000000E+000
 -1.420000000000000E-002    0.000000000000000E+000
 -1.410000000000000E-002    0.000000000000000E+000
 -1.400000000000000E-002    0.000000000000000E+000
 -1.390000000000000E-002    0.000000000000000E+000
 -1.380000000000000E-002    0.000000000000000E+000
 -1.370000000000000E-002    0.000000000000000E+000
 -1.360000000000000E-002    0.000000000000000E+000
 -1.350000000000000E-002    0.000000000000000E+000
 -1.340000000000000E-002    0.000000000000000E+000
 -1.330000000000000E-002    0.000000000000000E+000
 -1.320000000000000E-002    0.000000000000000E+000
 -1.310000000000000E-002    0.000000000000000E+000
 -1.300000000000000E-002    0.000000000000000E+000
 -1.290000000000000E-002    0.000000000000000E+000
 -1.280000000000000E-002    0.000000000000000E+000
 -1.270000000000000E-002    0.000000000000000E+000
 -1.260000000000000E-002    0.000000000000000E+000
 -1.250000000000000E-002    0.000000000000000E+000
 -1.240000000000000E-002    0.000000000000000E+000
 -1.230000000000000E-002    0.000000000000000E+000
 -1.220000000000000E-002    0.000000000000000E+000
 -1.210000000000000E-002    0.000000000000000E+000
 -1.200000000000000E-002    0.000000000000000E+000
 -1.190000000000000E-002    0.000000000000000E+000
 -1.180000000000000E-002    0.000000000000000E+000
 -1.170000000000000E-002    0.000000000000000E+000
 -1.160000000000000E-002    0.000000000000000E+000
 -1.150000000000000E-002    0.000000000000000E+000
 -1.140000000000000E-002    0.000000000000000E+000
 -1.130000000000000E-002    0.000000000000000E+000
 -1.120000000000000E-002    0.000000000000000E+000
 -1.110000000000000E-002    0.000000000000000E+000
 -1.100000000000000E-002    0.000000000000000E+000
 -1.090000000000000E-002    0.000000000000000E+000
 -1.080000000000000E-002    0.000000000000000E+000
 -1.070000000000000E-002    0.000000000000000E+000
 -1.060000000000000E-002    0.000000000000000E+000
 -1.050000000000000E-002    0.000000000000000E+000
 -1.040000000000000E-002    0.000000000000000E+000
 -1.030000000000000E-002    0.000000000000000E+000
 -1.020000000000000E-002    0.000000000000000E+000
 -1.010000000000000E-002    0.000000000000000E+000
 -1.000000000000000E-002    0.000000000000000E+000
 -9.899999999999999E-003    0.000000000000000E+000
 -9.800000000000000E-003    0.000000000000000E+000
 -9.699999999999999E-003    0.000000000000000E+000
 -9.599999999999999E-003    0.000000000000000E+000
 -9.500000000000000E-003    0.000000000000000E+000
 -9.399999999999999E-003    0.000000000000000E+000
 -9.299999999999999E-003    0.000000000000000E+000
 -9.200000000000000E-003    0.000000000000000E+000
 -9.099999999999999E-003    0.000000000000000E+000
 -8.999999999999999E-003    0.000000000000000E+000
 -8.900000000000000E-003    0.000000000000000E+000
 -8.799999999999999E-003    0.000000000000000E+000
 -8.699999999999999E-003    0.000000000000000E+000
 -8.600000000000000E-003    0.000000000000000E+000
 -8.499999999999999E-003    0.000000000000000E+000
 -8.399999999999999E-003    0.000000000000000E+000
 -8.300000000000000E-003    0.000000000000000E+000
 -8.199999999999999E-003    0.000000000000000E+000
 -8.100000000000000E-003    0.000000000000000E+000
 -8.000000000000000E-003    0.000000000000000E+000
 -7.899999999999999E-003    0.000000000000000E+000
 -7.800000000000000E-003    0.000000000000000E+000
 -7.699999999999999E-003    0.000000000000000E+000
 -7.599999999999999E-003    0.000000000000000E+000
 -7.499999999999999E-003    0.000000000000000E+000
 -7.399999999999999E-003    0.000000000000000E+000
 -7.299999999999999E-003    0.000000000000000E+000
 -7.199999999999999E-003    0.000000000000000E+000
 -7.100000000000000E-003    0.000000000000000E+000
 -6.999999999999999E-003    0.000000000000000E+000
 -6.899999999999999E-003    0.000000000000000E+000
 -6.800000000000000E-003    0.000000000000000E+000
 -6.699999999999999E-003    0.000000000000000E+000
 -6.599999999999999E-003    0.000000000000000E+000
 -6.499999999999999E-003    0.000000000000000E+000
 -6.399999999999999E-003    0.000000000000000E+000
 -6.299999999999999E-003    0.000000000000000E+000
 -6.199999999999999E-003    0.000000000000000E+000
 -6.100000000000000E-003    0.000000000000000E+000
 -5.999999999999999E-003    0.000000000000000E+000
 -5.899999999999999E-003    0.000000000000000E+000
 -5.800000000000000E-003    0.000000000000000E+000
 -5.699999999999999E-003    0.000000000000000E+000
 -5.599999999999999E-003    0.000000000000000E+000
 -5.499999999999999E-003    0.000000000000000E+000
 -5.399999999999999E-003    0.000000000000000E+000
 -5.299999999999999E-003   -1.806419590938445E-048
 -5.199999999999999E-003   -3.612839181876890E-048
 -5.099999999999999E-003   -3.612839181876890E-048
 -4.999999999999999E-003   -3.612839181876890E-048
 -4.899999999999999E-003   -3.612839181876890E-048
 -4.799999999999999E-003   -1.806419590938445E-048
 -4.699999999999999E-003    1.806419590938445E-048
 -4.599999999999999E-003   -7.718929919676712E-048
 -4.499999999999999E-003   -8.584760285274652E-048
 -4.399999999999999E-003   -8.259995910280180E-048
 -4.299999999999999E-003   -7.935231535285709E-048
 -4.199999999999999E-003   -5.740593924675046E-048
 -4.099999999999999E-003   -9.028668731557464E-048
 -3.999999999999999E-003   -1.369638434960141E-047
 -3.899999999999999E-003   -5.550675650147787E-048
 -3.799999999999999E-003    5.654831653088111E-047
 -3.699999999999999E-003    9.697484927742803E-047
 -3.599999999999999E-003    1.421711120468013E-046
 -3.499999999999999E-003    1.902672316033848E-046
 -3.399999999999999E-003    2.315680543068289E-046
 -3.299999999999999E-003    2.371180876248399E-046
 -3.199999999999999E-003    1.935715991498888E-046
 -3.099999999999999E-003    1.067881154674339E-046
 -2.999999999999999E-003   -1.967557224120457E-046
 -2.899999999999999E-003    6.910275726633794E-046
 -2.799999999999999E-003    7.773151020313097E-046
 -2.699999999999999E-003    8.236215434739023E-046
 -2.599999999999999E-003    1.716152653297910E-045
 -2.499999999999999E-003    2.246671781620826E-045
 -2.399999999999999E-003    2.007811773467944E-045
 -2.299999999999999E-003    2.051172085572409E-045
 -2.199999999999999E-003    1.490548119888374E-045
 -2.099999999999999E-003    1.053504802285321E-046
 -1.999999999999999E-003   -2.209834189590318E-045
 -1.899999999999999E-003   -5.004001259768440E-045
 -1.799999999999999E-003   -8.071889885810997E-045
 -1.699999999999999E-003   -1.148611528391080E-044
 -1.599999999999999E-003   -1.486223180819960E-044
 -1.499999999999999E-003   -1.749200941121768E-044
 -1.399999999999999E-003   -1.922436070044370E-044
 -1.299999999999999E-003   -1.750023340044365E-044
 -1.199999999999999E-003   -1.404627817131226E-044
 -1.099999999999999E-003   -7.262604119248952E-045
 -9.999999999999989E-004    3.773617331105476E-045
 -8.999999999999990E-004    1.840517011784753E-044
 -7.999999999999990E-004    3.679994752941976E-044
 -6.999999999999989E-004    5.745311417194951E-044
 -5.999999999999990E-004    7.879402773158758E-044
 -4.999999999999989E-004    9.796057499684793E-044
 -3.999999999999989E-004    1.121991853312407E-043
 -2.999999999999989E-004    1.159587585849285E-043
 -1.999999999999989E-004    1.059894071068023E-043
 -9.999999999999892E-005    7.618887321829580E-044
  1.084202172485504E-018    2.338910080540224E-044
  1.000000000000011E-004   -5.459551874128036E-044
  2.000000000000011E-004   -1.579930210431213E-043
  3.000000000000011E-004   -2.830978169749937E-043
  4.000000000000011E-004   -4.222754228864337E-043
  5.000000000000011E-004   -5.598276304643893E-043
  6.000000000000011E-004   -6.776450659353163E-043
  7.000000000000011E-004   -7.499937272056021E-043
  8.000000000000011E-004   -7.485796810279559E-043
  9.000000000000012E-004   -6.417777837191066E-043
  1.000000000000001E-003   -4.020794276636226E-043
  1.100000000000001E-003   -7.269063055877244E-045
  1.200000000000001E-003    5.507103939616909E-043
  1.300000000000001E-003    1.260381294790436E-042
  1.400000000000001E-003    2.087538865390296E-042
  1.500000000000001E-003    2.964981134328156E-042
  1.600000000000001E-003    3.790656435859723E-042
  1.700000000000001E-003    4.432056728428070E-042
  1.800000000000001E-003    4.728181252481586E-042
  1.900000000000001E-003    4.498668942390178E-042
  2.000000000000001E-003    3.567301632466979E-042
  2.100000000000001E-003    1.783715354978130E-042
  2.200000000000001E-003   -9.436377188109825E-043
  2.300000000000001E-003   -4.615217342866552E-042
  2.400000000000001E-003   -9.101068201921848E-042
  2.500000000000001E-003   -1.411159171491064E-041
  2.600000000000001E-003   -1.917234336009186E-041
  2.700000000000001E-003   -2.361844712736862E-041
  2.800000000000001E-003   -2.661630338583974E-041
  2.900000000000001E-003   -2.721000285654833E-041
  3.000000000000001E-003   -2.440538534492459E-041
  3.100000000000001E-003   -1.729054393357207E-041
  3.200000000000001E-003   -5.191353068767399E-042
  3.300000000000001E-003    1.214685858718048E-041
  3.400000000000001E-003    3.437306880348760E-041
  3.500000000000001E-003    6.034924590426562E-041
  3.600000000000001E-003    8.801514629897711E-041
  3.700000000000001E-003    1.143277200227625E-040
  3.800000000000001E-003    1.353080113278338E-040
  3.900000000000001E-003    1.462352620973994E-040
  4.000000000000001E-003    1.420099302009514E-040
  4.100000000000001E-003    1.177007680812943E-040
  4.200000000000001E-003    6.925920219742723E-041
  4.300000000000001E-003   -5.624310895407333E-042
  4.400000000000001E-003   -1.065874608889531E-040
  4.500000000000001E-003   -2.297079191639967E-040
  4.600000000000002E-003   -3.667592049816593E-040
  4.700000000000001E-003   -5.047919705721537E-040
  4.800000000000001E-003   -6.261928517567743E-040
  4.900000000000002E-003   -7.093882781926429E-040
  5.000000000000001E-003   -7.303131114770948E-040
  5.100000000000001E-003   -6.647181801628380E-040
  5.200000000000001E-003   -4.912890535709271E-040
  5.300000000000002E-003   -1.954461242753245E-040
  5.400000000000001E-003    2.264576244807863E-040
  5.500000000000001E-003    7.629641067524610E-040
  5.600000000000002E-003    1.383915873799808E-039
  5.700000000000001E-003    2.038120503070897E-039
  5.800000000000001E-003    2.652994842076818E-039
  5.900000000000002E-003    3.136888842538366E-039
  6.000000000000001E-003    3.384677638441327E-039
  6.100000000000001E-003    3.286939617676719E-039
  6.200000000000002E-003    2.742702172026385E-039
  6.300000000000002E-003    1.675227375648165E-039
  6.400000000000001E-003    4.975405958905374E-041
  6.500000000000001E-003   -2.108486393785918E-039
  6.600000000000002E-003   -4.698266257187268E-039
  6.700000000000001E-003   -7.531087838969239E-039
  6.800000000000001E-003   -1.032761357434439E-038
  6.900000000000002E-003   -1.272469015933815E-038
  7.000000000000001E-003   -1.429539372484989E-038
  7.100000000000001E-003   -1.458354481396299E-038
  7.200000000000002E-003   -1.315272192949643E-038
  7.300000000000002E-003   -9.647919929950261E-039
  7.400000000000001E-003   -3.865749951597445E-039
  7.500000000000001E-003    4.173266247206525E-039
  7.600000000000002E-003    1.415900056757837E-038
  7.700000000000001E-003    2.544307525098931E-038
  7.800000000000001E-003    3.701871046883989E-038
  7.900000000000001E-003    4.754016930600498E-038
  8.000000000000002E-003    5.539113360801615E-038
  8.100000000000001E-003    5.880774927383979E-038
  8.200000000000001E-003    5.605677064783623E-038
  8.300000000000002E-003    4.566203699644509E-038
  8.400000000000001E-003    2.666463834377878E-038
  8.500000000000002E-003   -1.106854048871037E-039
  8.600000000000002E-003   -3.678759532460411E-038
  8.700000000000001E-003   -7.828693831820703E-038
  8.800000000000002E-003   -1.221992526574576E-037
  8.900000000000002E-003   -1.638549658284182E-037
  9.000000000000001E-003   -1.975447663999336E-037
  9.100000000000002E-003   -2.169372938508425E-037
  9.200000000000002E-003   -2.156910696845931E-037
  9.300000000000001E-003   -1.882370503247469E-037
  9.400000000000002E-003   -1.306800136516253E-037
  9.500000000000001E-003   -4.173693504811638E-038
  9.600000000000001E-003    7.639579747658098E-038
  9.700000000000002E-003    2.173749989039836E-037
  9.800000000000001E-003    3.703808709549578E-037
  9.900000000000001E-003    5.202561889969908E-037
  1.000000000000000E-002    6.482213091284349E-037
  1.010000000000000E-002    7.332257871312891E-037
  1.020000000000000E-002    7.539339293917853E-037
  1.030000000000000E-002    6.912583341422467E-037
  1.040000000000000E-002    5.312655249656392E-037
  1.050000000000000E-002    2.681840369495696E-037
  1.060000000000000E-002   -9.283508443940848E-038
  1.070000000000000E-002   -5.336133691373470E-037
  1.080000000000000E-002   -1.021921617638039E-036
  1.090000000000000E-002   -1.511933171645887E-036
  1.100000000000000E-002   -1.946459603098738E-036
  1.110000000000000E-002   -2.261122300795119E-036
  1.120000000000000E-002   -2.390406424797668E-036
  1.130000000000000E-002   -2.275291944618287E-036
  1.140000000000000E-002   -1.871882933736242E-036
  1.150000000000000E-002   -1.160196605420602E-036
  1.160000000000000E-002   -1.520490540345200E-037
  1.170000000000000E-002    1.103141484970930E-036
  1.180000000000000E-002    2.515845008343473E-036
  1.190000000000000E-002    3.958241844925433E-036
  1.200000000000000E-002    5.271124946097196E-036
  1.210000000000000E-002    6.276133388054565E-036
  1.220000000000000E-002    6.792952819240876E-036
  1.230000000000000E-002    6.660405187463483E-036
  1.240000000000000E-002    5.759610396137896E-036
  1.250000000000000E-002    4.036764803529071E-036
  1.260000000000000E-002    1.522585424325326E-036
  1.270000000000000E-002   -1.654686746823585E-036
  1.280000000000000E-002   -5.265685811284227E-036
  1.290000000000000E-002   -8.988015691817729E-036
  1.300000000000000E-002   -1.242734930453889E-035
  1.310000000000000E-002   -1.515132610619407E-035
  1.320000000000000E-002   -1.673435377567776E-035
  1.330000000000000E-002   -1.680962060245501E-035
  1.340000000000000E-002   -1.512289628087518E-035
  1.350000000000000E-002   -1.158145389820161E-035
  1.360000000000000E-002   -6.290794581857405E-036
  1.370000000000000E-002    4.278611616006982E-037
  1.380000000000000E-002    8.044991152864574E-036
  1.390000000000000E-002    1.585835832606119E-035
  1.400000000000000E-002    2.305685198970981E-035
  1.410000000000000E-002    2.880822295495810E-035
  1.420000000000000E-002    3.236254484368078E-035
  1.430000000000000E-002    3.315894275400438E-035
  1.440000000000000E-002    3.092048367447081E-035
  1.450000000000000E-002    2.572085849810368E-035
  1.460000000000000E-002    1.800771948566561E-035
  1.470000000000000E-002    8.571120032124094E-036
  1.480000000000000E-002   -1.547791508816795E-036
  1.490000000000000E-002   -1.120437583385478E-035
  1.500000000000000E-002   -1.934006757795773E-035
  1.510000000000000E-002   -2.519022628276632E-035
  1.520000000000000E-002   -2.847655225928596E-035
  1.530000000000000E-002   -2.954557928941754E-035
  1.540000000000000E-002   -2.941355040461048E-035
  1.550000000000000E-002   -2.968427562169599E-035
  1.560000000000000E-002   -3.231932776433401E-035
  1.570000000000000E-002   -3.926081957367933E-035
  1.580000000000000E-002   -5.193229011341047E-035
  1.590000000000000E-002   -7.067378158412840E-035
  1.600000000000000E-002   -9.419442676750290E-035
  1.610000000000000E-002   -1.191494605691699E-034
  1.620000000000000E-002   -1.399620983667761E-034
  1.630000000000000E-002   -1.490031919229606E-034
  1.640000000000000E-002   -1.372221945217896E-034
  1.650000000000000E-002   -9.527269814170389E-035
  1.660000000000000E-002   -1.510960099727801E-035
  1.670000000000000E-002    1.080500731873572E-034
  1.680000000000000E-002    2.736044111305319E-034
  1.690000000000000E-002    4.735762596420563E-034
  1.700000000000000E-002    6.911188514745440E-034
  1.710000000000000E-002    8.999210717739116E-034
  1.720000000000000E-002    1.064904221788713E-033
  1.730000000000000E-002    1.144522922606492E-033
  1.740000000000000E-002    1.094833654589938E-033
  1.750000000000000E-002    8.752880666160199E-034
  1.760000000000000E-002    4.559176924588859E-034
  1.770000000000000E-002   -1.747160397092672E-034
  1.780000000000000E-002   -1.001742452696212E-033
  1.790000000000000E-002   -1.977561584398586E-033
  1.800000000000000E-002   -3.018134706662930E-033
  1.810000000000000E-002   -4.003324018527663E-033
  1.820000000000000E-002   -4.782466848776535E-033
  1.830000000000000E-002   -5.185909746663839E-033
  1.840000000000000E-002   -5.042652569998968E-033
  1.850000000000000E-002   -4.203388422249919E-033
  1.860000000000000E-002   -2.567276591558996E-033
  1.870000000000000E-002   -1.098251287608795E-034