 -4.000000000000000E-002    0.000000000000000E+000
 -3.990000000000000E-002    0.000000000000000E+000
 -3.980000000000000E-002    0.000000000000000E+000
 -3.970000000000000E-002    0.000000000000000E+000
 -3.960000000000000E-002    0.000000000000000E+000
 -3.950000000000000E-002    0.000000000000000E+000
 -3.940000000000000E-002    0.000000000000000E+000
 -3.930000000000000E-002    0.000000000000000E+000
 -3.920000000000000E-002    0.000000000000000E+000
 -3.910000000000000E-002    0.000000000000000E+000
 -3.900000000000000E-002    0.000000000000000E+000
 -3.890000000000000E-002    0.000000000000000E+000
 -3.880000000000000E-002    0.000000000000000E+000
 -3.870000000000000E-002    0.000000000000000E+000
 -3.860000000000000E-002    0.000000000000000E+000
 -3.850000000000000E-002    0.000000000000000E+000
 -3.840000000000000E-002    0.000000000000000E+000
 -3.830000000000000E-002    0.000000000000000E+000
 -3.820000000000000E-002    0.000000000000000E+000
 -3.810000000000000E-002    0.000000000000000E+000
 -3.800000000000000E-002    0.000000000000000E+000
 -3.790000000000000E-002    0.000000000000000E+000
 -3.780000000000000E-002    0.000000000000000E+000
 -3.770000000000000E-002    0.000000000000000E+000
 -3.760000000000000E-002    0.000000000000000E+000
 -3.750000000000000E-002    0.000000000000000E+000
 -3.740000000000000E-002    0.000000000000000E+000
 -3.730000000000000E-002    2.579837568353232E-047
 -3.720000000000000E-002    5.341855096467865E-046
 -3.710000000000000E-002    2.626128265463932E-045
 -3.700000000000000E-002    1.109029647996891E-044
 -3.690000000000000E-002    4.243523378316121E-044
 -3.680000000000000E-002    1.483167637139399E-043
 -3.670000000000000E-002    4.842365933179502E-043
 -3.660000000000000E-002    1.482995393773501E-042
 -3.650000000000000E-002    4.277209993207688E-042
 -3.640000000000000E-002    1.165691885471560E-041
 -3.630000000000000E-002    3.011351287353130E-041
 -3.620000000000000E-002    7.388572971864100E-041
 -3.610000000000000E-002    1.724058842595084E-040
 -3.600000000000000E-002    3.827685124217579E-040
 -3.590000000000000E-002    8.081610767926896E-040
 -3.580000000000000E-002    1.619827633136441E-039
 -3.570000000000000E-002    3.070929731016396E-039
 -3.560000000000000E-002    5.470123389807876E-039
 -3.550000000000000E-002    9.042665764002238E-039
 -3.540000000000000E-002    1.353737947165331E-038
 -3.530000000000000E-002    1.732992505483517E-038
 -3.520000000000000E-002    1.562717018168960E-038
 -3.510000000000000E-002   -2.780587130426753E-039
 -3.500000000000000E-002   -6.086625909181687E-038
 -3.490000000000000E-002   -2.013204675600471E-037
 -3.480000000000000E-002   -4.969509462098195E-037
 -3.470000000000000E-002   -1.061675585448022E-036
 -3.460000000000000E-002   -2.056882585117500E-036
 -3.450000000000000E-002   -3.682078582781331E-036
 -3.440000000000000E-002   -6.129742204562994E-036
 -3.430000000000000E-002   -9.472057956219577E-036
 -3.420000000000000E-002   -1.343306092738866E-035
 -3.410000000000000E-002   -1.698769051099929E-035
 -3.400000000000000E-002   -1.772757378956528E-035
 -3.390000000000000E-002   -1.095630481887422E-035
 -3.380000000000000E-002    1.145411722478073E-035
 -3.370000000000000E-002    6.227097522014996E-035
 -3.360000000000000E-002    1.597493628899593E-034
 -3.350000000000000E-002    3.273184444230081E-034
 -3.340000000000000E-002    5.907870199834238E-034
 -3.330000000000000E-002    9.711425310109217E-034
 -3.320000000000000E-002    1.470442208510328E-033
 -3.310000000000000E-002    2.047998924212415E-033
 -3.300000000000000E-002    2.584449177664870E-033
 -3.290000000000000E-002    2.832946527148153E-033
 -3.280000000000000E-002    2.360375407977944E-033
 -3.270000000000000E-002    4.879287411294347E-034
 -3.260000000000000E-002   -3.749738080174221E-033
 -3.250000000000000E-002   -1.159413937036654E-032
 -3.240000000000000E-002   -2.445268416657976E-032
 -3.230000000000000E-002   -4.362361623338511E-032
 -3.220000000000000E-002   -6.977999062689063E-032
 -3.210000000000000E-002   -1.021377941735033E-031
 -3.200000000000000E-002   -1.372583651617584E-031
 -3.190000000000000E-002   -1.674971403657655E-031
 -3.180000000000000E-002   -1.792241260085980E-031
 -3.170000000000000E-002   -1.511169748584970E-031
 -3.160000000000000E-002   -5.306907119782643E-032
 -3.150000000000000E-002    1.534515981809719E-031
 -3.140000000000000E-002    5.124470488167469E-031
 -3.130000000000000E-002    1.066438954071192E-030
 -3.120000000000000E-002    1.844038479342515E-030
 -3.110000000000000E-002    2.840784635457901E-030
 -3.100000000000000E-002    3.992739380690218E-030
 -3.090000000000000E-002    5.143760462050753E-030
 -3.080000000000000E-002    6.009666839396598E-030
 -3.070000000000000E-002    6.145704253809219E-030
 -3.060000000000000E-002    4.927708298380540E-030
 -3.050000000000000E-002    1.561703177449486E-030
 -3.040000000000000E-002   -4.859377546732010E-030
 -3.030000000000000E-002   -1.523088140792069E-029
 -3.020000000000000E-002   -3.022356996028236E-029
 -3.010000000000000E-002   -4.996905196644542E-029
 -3.000000000000000E-002   -7.364359571808969E-029
 -2.990000000000000E-002   -9.897323415956469E-029
 -2.980000000000000E-002   -1.217159835383432E-028
 -2.970000000000000E-002   -1.352187085985596E-028
 -2.960000000000000E-002   -1.301936539622500E-028
 -2.950000000000000E-002   -9.490542221704730E-029
 -2.940000000000000E-002   -1.599298251132694E-029
 -2.930000000000000E-002    1.198422169338491E-028
 -2.920000000000000E-002    3.230890526269443E-028
 -2.910000000000000E-002    5.975288945581116E-028
 -2.900000000000000E-002    9.352769951565248E-028
 -2.890000000000000E-002    1.311122533393336E-027
 -2.880000000000000E-002    1.676880815049711E-027
 -2.870000000000000E-002    1.956883099728765E-027
 -2.860000000000000E-002    2.046155044980391E-027
 -2.850000000000000E-002    1.813184524808242E-027
 -2.840000000000000E-002    1.109354722972859E-027
 -2.830000000000000E-002   -2.130202663060694E-028
 -2.820000000000000E-002   -2.272711328686410E-027
 -2.810000000000000E-002   -5.121464440650949E-027
 -2.800000000000000E-002   -8.697414932329183E-027
 -2.790000000000000E-002   -1.277415165164636E-026
 -2.780000000000000E-002   -1.691254541227907E-026
 -2.770000000000000E-002   -2.042564462021872E-026
 -2.760000000000000E-002   -2.236984104492017E-026
 -2.750000000000000E-002   -2.157741001171996E-026
 -2.740000000000000E-002   -1.674562782436057E-026
 -2.730000000000000E-002   -6.594951028178819E-027
 -2.720000000000000E-002    9.897480391803970E-027
 -2.710000000000000E-002    3.319324338822880E-026
 -2.700000000000000E-002    6.283586559971635E-026
 -2.690000000000000E-002    9.707918172800316E-026
 -2.680000000000000E-002    1.325584172270403E-025
 -2.670000000000000E-002    1.640812823777879E-025
 -2.660000000000000E-002    1.846314132466074E-025
 -2.650000000000000E-002    1.856822263426557E-025
 -2.640000000000000E-002    1.579104743692450E-025
 -2.630000000000000E-002    9.237055105495049E-026
 -2.620000000000000E-002   -1.786109182450457E-026
 -2.610000000000000E-002   -1.756379380852556E-025
 -2.600000000000000E-002   -3.774564182375915E-025
 -2.590000000000000E-002   -6.112068777234493E-025
 -2.580000000000000E-002   -8.543533987660549E-025
 -2.570000000000000E-002   -1.073029678183041E-024
 -2.560000000000000E-002   -1.222592773402030E-024
 -2.550000000000000E-002   -1.250163374204102E-024
 -2.540000000000000E-002   -1.099573796021635E-024
 -2.530000000000000E-002   -7.189221920968468E-025
 -2.520000000000000E-002   -7.058432328259779E-026
 -2.510000000000000E-002    8.569291372649542E-025
 -2.500000000000000E-002    2.036433583463209E-024
 -2.490000000000000E-002    3.390594557814724E-024
 -2.480000000000000E-002    4.783783835638679E-024
 -2.470000000000000E-002    6.019905066805917E-024
 -2.460000000000000E-002    6.848896971135051E-024
 -2.450000000000000E-002    6.984298469740520E-024
 -2.440000000000000E-002    6.133404971647314E-024
 -2.430000000000000E-002    4.040134609995564E-024
 -2.420000000000000E-002    5.387371540028255E-025
 -2.410000000000000E-002   -4.385949788960317E-024
 -2.400000000000000E-002   -1.053865678872429E-023
 -2.390000000000000E-002   -1.746375647037664E-023
 -2.380000000000000E-002   -2.441675982113191E-023
 -2.370000000000000E-002   -3.036963148826198E-023
 -2.360000000000000E-002   -3.406162104259881E-023
 -2.350000000000000E-002   -3.410449306091187E-023
 -2.340000000000000E-002   -2.914580214350134E-023
 -2.330000000000000E-002   -1.808621037470393E-023
 -2.320000000000000E-002   -3.370645378565891E-025
 -2.310000000000000E-002    2.390665977452382E-023
 -2.300000000000000E-002    5.341412013075426E-023
 -2.290000000000000E-002    8.573268063036231E-023
 -2.280000000000000E-002    1.171196724388847E-022
 -2.270000000000000E-002    1.426433588620273E-022
 -2.260000000000000E-002    1.564965325418252E-022
 -2.250000000000000E-002    1.525492200372072E-022
 -2.240000000000000E-002    1.251397628502180E-022
 -2.230000000000000E-002    7.006780465094491E-023
 -2.220000000000000E-002   -1.429000654479976E-023
 -2.210000000000000E-002   -1.258653514557533E-022
 -2.200000000000000E-002   -2.579493529791321E-022
 -2.190000000000000E-002   -3.986040984951010E-022
 -2.180000000000000E-002   -5.306395114337598E-022
 -2.170000000000000E-002   -6.323444457412661E-022
 -2.160000000000000E-002   -6.791109908628795E-022
 -2.150000000000000E-002   -6.460050895472714E-022
 -2.140000000000000E-002   -5.112159827527602E-022
 -2.130000000000000E-002   -2.601674290371072E-022
 -2.120000000000000E-002    1.100903529600032E-022
 -2.110000000000000E-002    5.867484795738251E-022
 -2.100000000000000E-002    1.138038163345540E-021
 -2.090000000000000E-002    1.711705625042041E-021
 -2.080000000000000E-002    2.235896087773404E-021
 -2.070000000000000E-002    2.623060760809373E-021
 -2.060000000000000E-002    2.777255060839721E-021
 -2.050000000000000E-002    2.604827850213818E-021
 -2.040000000000000E-002    2.028021464293461E-021
 -2.030000000000000E-002    1.000450024283698E-021
 -2.020000000000000E-002   -4.771425642518489E-022
 -2.010000000000000E-002   -2.342953299561769E-021
 -2.000000000000000E-002   -4.464478153533527E-021
 -1.990000000000000E-002   -6.635734958424422E-021
 -1.980000000000000E-002   -8.583703207820701E-021
 -1.970000000000000E-002   -9.985738149061559E-021
 -1.960000000000000E-002   -1.049867445576018E-020
 -1.950000000000000E-002   -9.798955595927799E-021
 -1.940000000000000E-002   -7.631390540205299E-021
 -1.930000000000000E-002   -3.862319181304758E-021
 -1.920000000000000E-002    1.468803060288568E-021
 -1.910000000000000E-002    8.106812102791525E-021
 -1.900000000000000E-002    1.555541841593619E-020
 -1.890000000000000E-002    2.307703875893325E-020
 -1.880000000000000E-002    2.972465434510555E-020
 -1.870000000000000E-002    3.440998020037870E-020
 -1.860000000000000E-002    3.600843792220789E-020
 -1.850000000000000E-002    3.349660188845650E-020
 -1.840000000000000E-002    2.611230495581748E-020
 -1.830000000000000E-002    1.352201811237579E-020
 -1.820000000000000E-002   -4.024827329206572E-021
 -1.810000000000000E-002   -2.557833542078481E-020
 -1.800000000000000E-002   -4.943234127874245E-020
 -1.790000000000000E-002   -7.315329136594785E-020
 -1.780000000000000E-002   -9.371125397461212E-020
 -1.770000000000000E-002   -1.077213630560790E-019
 -1.760000000000000E-002   -1.117914632161834E-019
 -1.750000000000000E-002   -1.029565648157104E-019
 -1.740000000000000E-002   -7.916470461870339E-020
 -1.730000000000000E-002   -3.976324496860584E-020
 -1.720000000000000E-002    1.407752568714381E-020
 -1.710000000000000E-002    7.907378080746978E-020
 -1.700000000000000E-002    1.497400112404164E-019
 -1.690000000000000E-002    2.185630214302615E-019
 -1.680000000000000E-002    2.764776643215477E-019
 -1.670000000000000E-002    3.136536961409755E-019
 -1.660000000000000E-002    3.205652997405236E-019
 -1.650000000000000E-002    2.892712844321907E-019
 -1.640000000000000E-002    2.147902312286354E-019
 -1.630000000000000E-002    9.641595117524375E-020
 -1.620000000000000E-002   -6.120870461168025E-020
 -1.610000000000000E-002   -2.474521291740750E-019
 -1.600000000000000E-002   -4.456680309122237E-019
 -1.590000000000000E-002   -6.339247412033043E-019
 -1.580000000000000E-002   -7.865661697813978E-019
 -1.570000000000000E-002   -8.765910953234313E-019
 -1.560000000000000E-002   -8.787310629366437E-019
 -1.550000000000000E-002   -7.729905976446907E-019
 -1.540000000000000E-002   -5.483053002341157E-019
 -1.530000000000000E-002   -2.058820262143352E-019
 -1.520000000000000E-002    2.382668978187525E-019
 -1.510000000000000E-002    7.520865749919743E-019
 -1.500000000000000E-002    1.287971591364671E-018
 -1.490000000000000E-002    1.785292988568760E-018
 -1.480000000000000E-002    2.175074745804476E-018
 -1.470000000000000E-002    2.386689209040199E-018
 -1.460000000000000E-002    2.356161261071642E-018
 -1.450000000000000E-002    2.035386763167717E-018
 -1.440000000000000E-002    1.401312150387504E-018
 -1.430000000000000E-002    4.639379946935269E-019
 -1.420000000000000E-002   -7.280822834963857E-019
 -1.410000000000000E-002   -2.085417948730928E-018
 -1.400000000000000E-002   -3.480579453937727E-018
 -1.390000000000000E-002   -4.755576207675886E-018
 -1.380000000000000E-002   -5.734798469140009E-018
 -1.370000000000000E-002   -6.242579248613568E-018
 -1.360000000000000E-002   -6.124218933363450E-018
 -1.350000000000000E-002   -5.268588039432488E-018
 -1.340000000000000E-002   -3.629878885401554E-018
 -1.330000000000000E-002   -1.245709793250263E-018
 -1.320000000000000E-002    1.751296789892269E-018
 -1.310000000000000E-002    5.131089687441797E-018
 -1.300000000000000E-002    8.574928510097755E-018
 -1.290000000000000E-002    1.169632070105838E-017
 -1.280000000000000E-002    1.407390480000959E-017
 -1.270000000000000E-002    1.529454103562434E-017
 -1.260000000000000E-002    1.500333111319382E-017
 -1.250000000000000E-002    1.295585748242449E-017
 -1.240000000000000E-002    9.066822806524829E-018
 -1.230000000000000E-002    3.448667656599547E-018
 -1.220000000000000E-002   -3.566206166905729E-018
 -1.210000000000000E-002   -1.142512800823032E-017
 -1.200000000000000E-002   -1.938065448319083E-017
 -1.190000000000000E-002   -2.654334925920632E-017
 -1.180000000000000E-002   -3.196035122658802E-017
 -1.170000000000000E-002   -3.471490498558484E-017
 -1.160000000000000E-002   -3.403873308516597E-017
 -1.150000000000000E-002   -2.942622194263158E-017
 -1.140000000000000E-002   -2.073733966447505E-017
 -1.130000000000000E-002   -8.275320291413710E-018
 -1.120000000000000E-002    7.174166788378892E-018
 -1.110000000000000E-002    2.435335351667573E-017
 -1.100000000000000E-002    4.159912366575609E-017
 -1.090000000000000E-002    5.696770479939681E-017
 -1.080000000000000E-002    6.841215849021812E-017
 -1.070000000000000E-002    7.400063122140848E-017
 -1.060000000000000E-002    7.215659305554394E-017
 -1.050000000000000E-002    6.189672041403200E-017
 -1.040000000000000E-002    4.303851477335467E-017
 -1.030000000000000E-002    1.634887354082122E-017
 -1.020000000000000E-002   -1.639283687671790E-017
 -1.010000000000000E-002   -5.243790288369138E-017
 -1.000000000000000E-002   -8.822912401875240E-017
 -9.899999999999999E-003   -1.196792213788695E-016
 -9.800000000000000E-003   -1.425529589723208E-016
 -9.699999999999999E-003   -1.529252291987730E-016
 -9.599999999999999E-003   -1.476740853505455E-016
 -9.500000000000000E-003   -1.249581443975089E-016
 -9.399999999999999E-003   -8.462121559363552E-017
 -9.299999999999999E-003   -2.846752436507619E-017
 -9.200000000000000E-003    3.964320576481500E-017
 -9.099999999999999E-003    1.139182689199560E-016
 -8.999999999999999E-003    1.869904831376202E-016
 -8.900000000000000E-003    2.505068795884491E-016
 -8.799999999999999E-003    2.959150248825446E-016
 -8.699999999999999E-003    3.153874631394676E-016
 -8.600000000000000E-003    3.028004377594522E-016
 -8.499999999999999E-003    2.546655457948557E-016
 -8.399999999999999E-003    1.709036195305306E-016
 -8.300000000000000E-003    5.535211249712425E-017
 -8.199999999999999E-003   -8.408774808313348E-017
 -8.100000000000000E-003   -2.357311660602694E-016
 -8.000000000000000E-003   -3.848456122047393E-016
 -7.899999999999999E-003   -5.148251558851184E-016
 -7.800000000000000E-003   -6.087338469067956E-016
 -7.699999999999999E-003   -6.510999451840108E-016
 -7.599999999999999E-003   -6.297991446678647E-016
 -7.499999999999999E-003   -5.378325449521923E-016
 -7.399999999999999E-003   -3.747930314640659E-016
 -7.299999999999999E-003   -1.478185054233444E-016
 -7.199999999999999E-003    1.281389191191772E-016
 -7.100000000000000E-003    4.308467400961592E-016
 -6.999999999999999E-003    7.321760722081636E-016
 -6.899999999999999E-003    1.000298469316023E-015
 -6.800000000000000E-003    1.202563450085666E-015
 -6.699999999999999E-003    1.308837470846677E-015
 -6.599999999999999E-003    1.295006624758986E-015
 -6.499999999999999E-003    1.146291150578179E-015
 -6.399999999999999E-003    8.599965687741101E-016
 -6.299999999999999E-003    4.473404995760964E-016
 -6.199999999999999E-003   -6.595243043909288E-017
 -6.100000000000000E-003   -6.405007497851488E-016
 -5.999999999999999E-003   -1.225647866783640E-015
 -5.899999999999999E-003   -1.763311478338018E-015
 -5.800000000000000E-003   -2.193072107153806E-015
 -5.699999999999999E-003   -2.458118151184245E-015
 -5.599999999999999E-003   -2.511528342920886E-015
 -5.499999999999999E-003   -2.322275744874149E-015
 -5.399999999999999E-003   -1.880297203227049E-015
 -5.299999999999999E-003   -1.199991739472106E-015
 -5.199999999999999E-003   -3.216043689367874E-016
 -5.099999999999999E-003    6.898941733143683E-016
 -4.999999999999999E-003    1.748601249839771E-015
 -4.899999999999999E-003    2.754063373310009E-015
 -4.799999999999999E-003    3.599882186478074E-015
 -4.699999999999999E-003    4.183905067414762E-015
 -4.599999999999999E-003    4.419133046806376E-015
 -4.499999999999999E-003    4.244300718828548E-015
 -4.399999999999999E-003    3.632996685942950E-015
 -4.299999999999999E-003    2.600229777813022E-015
 -4.199999999999999E-003    1.205468284226714E-015
 -4.099999999999999E-003   -4.485501316681940E-016
 -3.999999999999999E-003   -2.221594109378724E-015
 -3.899999999999999E-003   -3.946217674904038E-015
 -3.799999999999999E-003   -5.441990754233003E-015
 -3.699999999999999E-003   -6.532660077772869E-015
 -3.599999999999999E-003   -7.064797764616845E-015
 -3.499999999999999E-003   -6.926190746062412E-015
 -3.399999999999999E-003   -6.062038218553090E-015
 -3.299999999999999E-003   -4.487031419616455E-015
 -3.199999999999999E-003   -2.291606994283188E-015
 -3.099999999999999E-003    3.589514703425404E-016
 -2.999999999999999E-003    3.233293678711637E-015
 -2.899999999999999E-003    6.050661905369318E-015
 -2.799999999999999E-003    8.504644001417982E-015
 -2.699999999999999E-003    1.029236472998999E-014
 -2.599999999999999E-003    1.114675477674655E-014
 -2.499999999999999E-003    1.086890260805564E-014
 -2.399999999999999E-003    9.357143429094633E-015
 -2.299999999999999E-003    6.629486905939458E-015
 -2.199999999999999E-003    2.836234258116141E-015
 -2.099999999999999E-003   -1.739707755044227E-015
 -1.999999999999999E-003   -6.696342234103230E-015
 -1.899999999999999E-003   -1.154023041508335E-014
 -1.799999999999999E-003   -1.572715138375193E-014
 -1.699999999999999E-003   -1.871313390238010E-014
 -1.599999999999999E-003   -2.001188264071645E-014
 -1.499999999999999E-003   -1.925342927781603E-014
 -1.399999999999999E-003   -1.623806612114027E-014
 -1.299999999999999E-003   -1.097939580867931E-014
 -1.199999999999999E-003   -3.730654209942524E-015
 -1.099999999999999E-003    5.010530753574563E-015
 -9.999999999999989E-004    1.452214254357812E-014
 -8.999999999999990E-004    2.390362107035380E-014
 -7.999999999999990E-004    3.214606947651775E-014
 -6.999999999999989E-004    3.822264632962161E-014
 -5.999999999999990E-004    4.119238969484048E-014
 -4.999999999999989E-004    4.030843117797705E-014
 -3.999999999999989E-004    3.512002348120203E-014
 -2.999999999999989E-004    2.555712078450264E-014
 -1.999999999999989E-004    1.198661193335486E-014
 -9.999999999999892E-005   -4.769066137443103E-015
  1.084202172485504E-018   -2.345753792885599E-014
  1.000000000000011E-004   -4.246912081167447E-014
  2.000000000000011E-004   -5.995482835622175E-014
  3.000000000000011E-004   -7.398315842079075E-014
  4.000000000000011E-004   -8.272432369713324E-014
  5.000000000000011E-004   -8.464640537200766E-014
  6.000000000000011E-004   -7.870474784867353E-014
  7.000000000000011E-004   -6.450449016702403E-014
  8.000000000000011E-004   -4.241641659470886E-014
  9.000000000000012E-004   -1.362890481767951E-014
  1.000000000000001E-003    1.987672425304853E-014
  1.100000000000001E-003    5.543368913136446E-014
  1.200000000000001E-003    8.987842624975133E-014
  1.300000000000001E-003    1.198102457465408E-013
  1.400000000000001E-003    1.419033208362516E-013
  1.500000000000001E-003    1.532447089869255E-013
  1.600000000000001E-003    1.516666891520055E-013
  1.700000000000001E-003    1.360386654495782E-013
  1.800000000000001E-003    1.064843019151474E-013
  1.900000000000001E-003    6.449385142563007E-014
  2.000000000000001E-003    1.290905247961761E-014
  2.100000000000001E-003   -4.423082097261442E-014
  2.200000000000001E-003   -1.019800967386985E-013
  2.300000000000001E-003   -1.548985023926358E-013
  2.400000000000001E-003   -1.975532155020325E-013
  2.500000000000001E-003   -2.250673802590515E-013
  2.600000000000001E-003   -2.336629191877218E-013
  2.700000000000001E-003   -2.211398981172865E-013
  2.800000000000001E-003   -1.872362448482943E-013
  2.900000000000001E-003   -1.338183765746149E-013
  3.000000000000001E-003   -6.486682091138615E-014
  3.100000000000001E-003    1.376138502370881E-014
  3.200000000000001E-003    9.478906682696890E-014
  3.300000000000001E-003    1.701657605047271E-013
  3.400000000000001E-003    2.318539627141976E-013
  3.500000000000001E-003    2.726830162060590E-013
  3.600000000000001E-003    2.871855326052242E-013
  3.700000000000001E-003    2.723235512424767E-013
  3.800000000000001E-003    2.280162093466694E-013
  3.900000000000001E-003    1.573925443525580E-013
  4.000000000000001E-003    6.671629979824417E-014
  4.100000000000001E-003   -3.503978200254784E-014
  4.200000000000001E-003   -1.369573363654750E-013
  4.300000000000001E-003   -2.272202141813358E-013
  4.400000000000001E-003   -2.943598412329034E-013
  4.500000000000001E-003   -3.285788671504834E-013
  4.600000000000002E-003   -3.230150004438814E-013
  4.700000000000001E-003   -2.747988101609474E-013
  4.800000000000001E-003   -1.857681960707133E-013
  4.900000000000002E-003   -6.272747037316244E-014
  5.000000000000001E-003    8.282407702717133E-014
  5.100000000000001E-003    2.355157573290836E-013
  5.200000000000001E-003    3.774461739272654E-013
  5.300000000000002E-003    4.899440364786160E-013
  5.400000000000001E-003    5.555980751443569E-013
  5.500000000000001E-003    5.603584669674339E-013
  5.600000000000002E-003    4.954870053900055E-013
  5.700000000000001E-003    3.591255971980913E-013
  5.800000000000001E-003    1.572737540282730E-013
  5.900000000000002E-003   -9.599210505486710E-014
  6.000000000000001E-003   -3.791576942780984E-013
  6.100000000000001E-003   -6.647854508978120E-013
  6.200000000000002E-003   -9.218283382718560E-013
  6.300000000000002E-003   -1.118573807646609E-012
  6.400000000000001E-003   -1.225963535899193E-012
  6.500000000000001E-003   -1.220971995726619E-012
  6.600000000000002E-003   -1.089687010840248E-012
  6.700000000000001E-003   -8.297405595894250E-013
  6.800000000000001E-003   -4.517664221666641E-013
  6.900000000000002E-003    2.035814726080032E-014
  7.000000000000001E-003    5.506247029029098E-013
  7.100000000000001E-003    1.093369117363301E-012
  7.200000000000002E-003    1.596973568895380E-012
  7.300000000000002E-003    2.008519861543266E-012
  7.400000000000001E-003    2.278992490415595E-012
  7.500000000000001E-003    2.368543151136335E-012
  7.600000000000002E-003    2.251275722003389E-012
  7.700000000000001E-003    1.919021713955801E-012
  7.800000000000001E-003    1.383634549284143E-012
  7.900000000000001E-003    6.774514351855550E-013
  8.000000000000002E-003   -1.482688777071427E-013
  8.100000000000001E-003   -1.026925932968951E-012
  8.200000000000001E-003   -1.881959913576306E-012
  8.300000000000002E-003   -2.633618991556688E-012
  8.400000000000001E-003   -3.206521913740222E-012
  8.500000000000002E-003   -3.537297810284789E-012
  8.600000000000002E-003   -3.581531649613962E-012
  8.700000000000001E-003   -3.319261287577184E-012
  8.800000000000002E-003   -2.758371187745017E-012
  8.900000000000002E-003   -1.935401427454626E-012
  9.000000000000001E-003   -9.135311396377908E-013
  9.100000000000002E-003    2.222300974285512E-013
  9.200000000000002E-003    1.372316964631873E-012
  9.300000000000001E-003    2.431742097751129E-012
  9.400000000000002E-003    3.300258836941761E-012
  9.500000000000001E-003    3.892557483636418E-012
  9.600000000000001E-003    4.147440804293756E-012
  9.700000000000002E-003    4.034976983126474E-012
  9.800000000000001E-003    3.560766759395320E-012
  9.900000000000001E-003    2.766729643682442E-012
  1.000000000000000E-002    1.728144697560474E-012
  1.010000000000000E-002    5.470587137887694E-013
  1.020000000000000E-002   -6.574315021948646E-013
  1.030000000000000E-002   -1.761150059294917E-012
  1.040000000000000E-002   -2.647912643090016E-012
  1.050000000000000E-002   -3.222350338829884E-012
  1.060000000000000E-002   -3.421100555957105E-012
  1.070000000000000E-002   -3.221064000157486E-012
  1.080000000000000E-002   -2.643674213606630E-012
  1.090000000000000E-002   -1.754498644833416E-012
  1.100000000000000E-002   -6.579392234977769E-013
  1.110000000000000E-002    5.126619942588085E-013
  1.120000000000000E-002    1.608706834042938E-012
  1.130000000000000E-002    2.482548401410522E-012
  1.140000000000000E-002    3.004582752893386E-012
  1.150000000000000E-002    3.079426137039048E-012
  1.160000000000000E-002    2.659319927616156E-012
  1.170000000000000E-002    1.753128325080169E-012
  1.180000000000000E-002    4.296314070782937E-013
  1.190000000000000E-002   -1.185624930650133E-012
  1.200000000000000E-002   -2.920034124668494E-012
  1.210000000000000E-002   -4.569583290337185E-012
  1.220000000000000E-002   -5.919185346621305E-012
  1.230000000000000E-002   -6.765821501522266E-012
  1.240000000000000E-002   -6.942194785294700E-012
  1.250000000000000E-002   -6.338405098450115E-012
  1.260000000000000E-002   -4.919167155059516E-012
  1.270000000000000E-002   -2.734416586187438E-012
  1.280000000000000E-002    7.830646633235051E-014
  1.290000000000000E-002    3.300538630351598E-012
  1.300000000000000E-002    6.648608265441498E-012
  1.310000000000000E-002    9.797393503246521E-012
  1.320000000000000E-002    1.241022479819377E-011
  1.330000000000000E-002    1.417228485046173E-011
  1.340000000000000E-002    1.482429232883248E-011
  1.350000000000000E-002    1.419307446857581E-011
  1.360000000000000E-002    1.221564653635791E-011
  1.370000000000000E-002    8.953965699705670E-012
  1.380000000000000E-002    4.598199339907787E-012
  1.390000000000000E-002   -5.425164921331533E-013
  1.400000000000000E-002   -6.061746785057535E-012
  1.410000000000000E-002   -1.148843163418397E-011
  1.420000000000000E-002   -1.632799041200644E-011
  1.430000000000000E-002   -2.010826150981249E-011
  1.440000000000000E-002   -2.242601415868240E-011
  1.450000000000000E-002   -2.298944709542783E-011
  1.460000000000000E-002   -2.165223631806226E-011
  1.470000000000000E-002   -1.843533369614864E-011
  1.480000000000000E-002   -1.353369063174601E-011
  1.490000000000000E-002   -7.306466792368043E-012
  1.500000000000000E-002   -2.508502659900686E-013
  1.510000000000000E-002    7.038753963431534E-012
  1.520000000000000E-002    1.392286132431464E-011
  1.530000000000000E-002    1.977577385524340E-011
  1.540000000000000E-002    2.404568906096833E-011
  1.550000000000000E-002    2.631020302152964E-011
  1.560000000000000E-002    2.632149339997358E-011
  1.570000000000000E-002    2.403634560456665E-011
  1.580000000000000E-002    1.962730041042479E-011
  1.590000000000000E-002    1.347315292891929E-011
  1.600000000000000E-002    6.128790291736134E-012
  1.610000000000000E-002   -1.723405090060210E-012
  1.620000000000000E-002   -9.336501580234629E-012
  1.630000000000000E-002   -1.597061481353426E-011
  1.640000000000000E-002   -2.096630038686208E-011
  1.650000000000000E-002   -2.381248256053888E-011
  1.660000000000000E-002   -2.420185517545596E-011
  1.670000000000000E-002   -2.206771485303871E-011
  1.680000000000000E-002   -1.759776869840543E-011
  1.690000000000000E-002   -1.122270864565891E-011
  1.700000000000000E-002   -3.579654574090333E-012
  1.710000000000000E-002    4.546661193218018E-012
  1.720000000000000E-002    1.229986178863296E-011
  1.730000000000000E-002    1.883791295042306E-011
  1.740000000000000E-002    2.342066383613197E-011
  1.750000000000000E-002    2.548997859891290E-011
  1.760000000000000E-002    2.473390515162473E-011
  1.770000000000000E-002    2.112757504981248E-011
  1.780000000000000E-002    1.494569538267674E-011
  1.790000000000000E-002    6.744140952460666E-012
  1.800000000000000E-002   -2.688659279377215E-012
  1.810000000000000E-002   -1.240670614376152E-011
  1.820000000000000E-002   -2.140100484937866E-011
  1.830000000000000E-002   -2.870456429972874E-011
  1.840000000000000E-002   -3.349721639934049E-011
  1.850000000000000E-002   -3.519898244955175E-011
  1.860000000000000E-002   -3.354175779533278E-011
  1.870000000000000E-002   -2.861027441780074E-011