 -4.000000000000000E-002    0.000000000000000E+000
 -3.990000000000000E-002    0.000000000000000E+000
 -3.980000000000000E-002    0.000000000000000E+000
 -3.970000000000000E-002    0.000000000000000E+000
 -3.960000000000000E-002    0.000000000000000E+000
 -3.950000000000000E-002    0.000000000000000E+000
 -3.940000000000000E-002    0.000000000000000E+000
 -3.930000000000000E-002    0.000000000000000E+000
 -3.920000000000000E-002    0.000000000000000E+000
 -3.910000000000000E-002    0.000000000000000E+000
 -3.900000000000000E-002    0.000000000000000E+000
 -3.890000000000000E-002    0.000000000000000E+000
 -3.880000000000000E-002    0.000000000000000E+000
 -3.870000000000000E-002    0.000000000000000E+000
 -3.860000000000000E-002    0.000000000000000E+000
 -3.850000000000000E-002    0.000000000000000E+000
 -3.840000000000000E-002    0.000000000000000E+000
 -3.830000000000000E-002    0.000000000000000E+000
 -3.820000000000000E-002    0.000000000000000E+000
 -3.810000000000000E-002    0.000000000000000E+000
 -3.800000000000000E-002    0.000000000000000E+000
 -3.790000000000000E-002    0.000000000000000E+000
 -3.780000000000000E-002    0.000000000000000E+000
 -3.770000000000000E-002    0.000000000000000E+000
 -3.760000000000000E-002    0.000000000000000E+000
 -3.750000000000000E-002    0.000000000000000E+000
 -3.740000000000000E-002    0.000000000000000E+000
 -3.730000000000000E-002    0.000000000000000E+000
 -3.720000000000000E-002    0.000000000000000E+000
 -3.710000000000000E-002    0.000000000000000E+000
 -3.700000000000000E-002    0.000000000000000E+000
 -3.690000000000000E-002    0.000000000000000E+000
 -3.680000000000000E-002    0.000000000000000E+000
 -3.670000000000000E-002    0.000000000000000E+000
 -3.660000000000000E-002    0.000000000000000E+000
 -3.650000000000000E-002    0.000000000000000E+000
 -3.640000000000000E-002    0.000000000000000E+000
 -3.630000000000000E-002    0.000000000000000E+000
 -3.620000000000000E-002    0.000000000000000E+000
 -3.610000000000000E-002    0.000000000000000E+000
 -3.600000000000000E-002    0.000000000000000E+000
 -3.590000000000000E-002    0.000000000000000E+000
 -3.580000000000000E-002    0.000000000000000E+000
 -3.570000000000000E-002    0.000000000000000E+000
 -3.560000000000000E-002    0.000000000000000E+000
 -3.550000000000000E-002    0.000000000000000E+000
 -3.540000000000000E-002    0.000000000000000E+000
 -3.530000000000000E-002    0.000000000000000E+000
 -3.520000000000000E-002    0.000000000000000E+000
 -3.510000000000000E-002    0.000000000000000E+000
 -3.500000000000000E-002    0.000000000000000E+000
 -3.490000000000000E-002    0.000000000000000E+000
 -3.480000000000000E-002    0.000000000000000E+000
 -3.470000000000000E-002    0.000000000000000E+000
 -3.460000000000000E-002    0.000000000000000E+000
 -3.450000000000000E-002    0.000000000000000E+000
 -3.440000000000000E-002    0.000000000000000E+000
 -3.430000000000000E-002    0.000000000000000E+000
 -3.420000000000000E-002    0.000000000000000E+000
 -3.410000000000000E-002    0.000000000000000E+000
 -3.400000000000000E-002    0.000000000000000E+000
 -3.390000000000000E-002    0.000000000000000E+000
 -3.380000000000000E-002    0.000000000000000E+000
 -3.370000000000000E-002    0.000000000000000E+000
 -3.360000000000000E-002    0.000000000000000E+000
 -3.350000000000000E-002    0.000000000000000E+000
 -3.340000000000000E-002    0.000000000000000E+000
 -3.330000000000000E-002    0.000000000000000E+000
 -3.320000000000000E-002    0.000000000000000E+000
 -3.310000000000000E-002    0.000000000000000E+000
 -3.300000000000000E-002    0.000000000000000E+000
 -3.290000000000000E-002    0.000000000000000E+000
 -3.280000000000000E-002    0.000000000000000E+000
 -3.270000000000000E-002    0.000000000000000E+000
 -3.260000000000000E-002    0.000000000000000E+000
 -3.250000000000000E-002    0.000000000000000E+000
 -3.240000000000000E-002    0.000000000000000E+000
 -3.230000000000000E-002    0.000000000000000E+000
 -3.220000000000000E-002    0.000000000000000E+000
 -3.210000000000000E-002    0.000000000000000E+000
 -3.200000000000000E-002    0.000000000000000E+000
 -3.190000000000000E-002    0.000000000000000E+000
 -3.180000000000000E-002    0.000000000000000E+000
 -3.170000000000000E-002    1.487168567245545E-047
 -3.160000000000000E-002    1.281346871231105E-047
 -3.150000000000000E-002    3.627142033122688E-048
 -3.140000000000000E-002    2.264836368479885E-047
 -3.130000000000000E-002    7.915653263479739E-047
 -3.120000000000000E-002    1.873753092719262E-046
 -3.110000000000000E-002    5.020102796180614E-046
 -3.100000000000000E-002    8.610909020063961E-046
 -3.090000000000000E-002    1.403657777333089E-045
 -3.080000000000000E-002    1.606710587878157E-045
 -3.070000000000000E-002    1.364010057051011E-045
 -3.060000000000000E-002    6.035212979750281E-046
 -3.050000000000000E-002   -5.676728387942300E-046
 -3.040000000000000E-002   -4.110098712111889E-045
 -3.030000000000000E-002   -9.743949720058506E-045
 -3.020000000000000E-002   -1.884417272200612E-044
 -3.010000000000000E-002   -3.183985539001402E-044
 -3.000000000000000E-002   -5.029967938088072E-044
 -2.990000000000000E-002   -7.470894664334321E-044
 -2.980000000000000E-002   -1.018601931848200E-043
 -2.970000000000000E-002   -1.284344479894303E-043
 -2.960000000000000E-002   -1.436944701762474E-043
 -2.950000000000000E-002   -1.316020908835079E-043
 -2.940000000000000E-002   -6.634050229825656E-044
 -2.930000000000000E-002    8.715025804065677E-044
 -2.920000000000000E-002    3.771288813365653E-043
 -2.910000000000000E-002    8.591722072665643E-043
 -2.900000000000000E-002    1.589380634095757E-042
 -2.890000000000000E-002    2.609929291033532E-042
 -2.880000000000000E-002    3.921583479481135E-042
 -2.870000000000000E-002    5.448507053616319E-042
 -2.860000000000000E-002    6.983392023272767E-042
 -2.850000000000000E-002    8.123428708957440E-042
 -2.840000000000000E-002    8.196692316754279E-042
 -2.830000000000000E-002    6.196268235226010E-042
 -2.820000000000000E-002    7.377543697525558E-043
 -2.810000000000000E-002   -9.921513138057839E-042
 -2.800000000000000E-002   -2.775718465113791E-041
 -2.790000000000000E-002   -5.469062243427328E-041
 -2.780000000000000E-002   -9.206929779417780E-041
 -2.770000000000000E-002   -1.398624016209366E-040
 -2.760000000000000E-002   -1.955174634082537E-040
 -2.750000000000000E-002   -2.524872798873941E-040
 -2.740000000000000E-002   -2.985149828633607E-040
 -2.730000000000000E-002   -3.138755944086437E-040
 -2.720000000000000E-002   -2.699580369917274E-040
 -2.710000000000000E-002   -1.287757453842209E-040
 -2.700000000000000E-002    1.557873589136404E-040
 -2.690000000000000E-002    6.339307900098484E-040
 -2.680000000000000E-002    1.351923995630419E-039
 -2.670000000000000E-002    2.338917649464393E-039
 -2.660000000000000E-002    3.587694708103341E-039
 -2.650000000000000E-002    5.029118809893661E-039
 -2.640000000000000E-002    6.501267640062452E-039
 -2.630000000000000E-002    7.716089245053971E-039
 -2.620000000000000E-002    8.228960073272980E-039
 -2.610000000000000E-002    7.419675706924822E-039
 -2.600000000000000E-002    4.496932852755063E-039
 -2.590000000000000E-002   -1.458381195078609E-039
 -2.580000000000000E-002   -1.139314205782170E-038
 -2.570000000000000E-002   -2.610740879790387E-038
 -2.560000000000000E-002   -4.599047736077121E-038
 -2.550000000000000E-002   -7.066161478872774E-038
 -2.540000000000000E-002   -9.852518264957641E-038
 -2.530000000000000E-002   -1.262734815638363E-037
 -2.520000000000000E-002   -1.484038144680321E-037
 -2.510000000000000E-002   -1.568554016908820E-037
 -2.500000000000000E-002   -1.409182036576374E-037
 -2.490000000000000E-002   -8.760589329543455E-038
 -2.480000000000000E-002    1.728172329203193E-038
 -2.470000000000000E-002    1.871795715952359E-037
 -2.460000000000000E-002    4.316685485770161E-037
 -2.450000000000000E-002    7.521854985987008E-037
 -2.440000000000000E-002    1.136617093356351E-036
 -2.430000000000000E-002    1.553140522352062E-036
 -2.420000000000000E-002    1.944032366643761E-036
 -2.410000000000000E-002    2.220627262649788E-036
 -2.400000000000000E-002    2.261098748365701E-036
 -2.390000000000000E-002    1.913201161519592E-036
 -2.380000000000000E-002    1.004441982443301E-036
 -2.370000000000000E-002   -6.377625775785037E-037
 -2.360000000000000E-002   -3.153876671020890E-036
 -2.350000000000000E-002   -6.606793259503719E-036
 -2.340000000000000E-002   -1.092399521766738E-035
 -2.330000000000000E-002   -1.583087138307862E-035
 -2.320000000000000E-002   -2.078247453050779E-035
 -2.310000000000000E-002   -2.490566086576677E-035
 -2.300000000000000E-002   -2.696834691435350E-035
 -2.290000000000000E-002   -2.539728364149882E-035
 -2.280000000000000E-002   -1.836897674452155E-035
 -2.270000000000000E-002   -3.998710007801638E-036
 -2.260000000000000E-002    1.935109440867790E-035
 -2.250000000000000E-002    5.263217830976083E-035
 -2.240000000000000E-002    9.554824419596208E-035
 -2.230000000000000E-002    1.459022235893058E-034
 -2.220000000000000E-002    1.989207299605804E-034
 -2.210000000000000E-002    2.466660597919364E-034
 -2.200000000000000E-002    2.776894014630578E-034
 -2.190000000000000E-002    2.771206982066471E-034
 -2.180000000000000E-002    2.274182683473806E-034
 -2.170000000000000E-002    1.100050042205238E-034
 -2.160000000000000E-002   -9.202036464234600E-035
 -2.150000000000000E-002   -3.899962700500719E-034
 -2.140000000000000E-002   -7.846870658262220E-034
 -2.130000000000000E-002   -1.260433151506772E-033
 -2.120000000000000E-002   -1.779032745204540E-033
 -2.110000000000000E-002   -2.274290922300812E-033
 -2.100000000000000E-002   -2.648514650203009E-033
 -2.090000000000000E-002   -2.772600450297507E-033
 -2.080000000000000E-002   -2.491545987355536E-033
 -2.070000000000000E-002   -1.637246799801188E-033
 -2.060000000000000E-002   -5.014573635861881E-035
 -2.050000000000000E-002    2.389422540118723E-033
 -2.040000000000000E-002    5.720596081190856E-033
 -2.030000000000000E-002    9.854184272703291E-033
 -2.020000000000000E-002    1.452216941999996E-032
 -2.010000000000000E-002    1.923155267680515E-032
 -2.000000000000000E-002    2.323241078107233E-032
 -1.990000000000000E-002    2.551244338142095E-032
 -1.980000000000000E-002    2.483188446463342E-032
 -1.970000000000000E-002    1.981259285229774E-032
 -1.960000000000000E-002    9.093049419672647E-033
 -1.950000000000000E-002   -8.444475495457511E-033
 -1.940000000000000E-002   -3.337687283568428E-032
 -1.930000000000000E-002   -6.538833147697114E-032
 -1.920000000000000E-002   -1.028941598064556E-031
 -1.910000000000000E-002   -1.426894871891762E-031
 -1.900000000000000E-002   -1.796903323035522E-031
 -1.890000000000000E-002   -2.068503892048431E-031
 -1.880000000000000E-002   -2.153484319893153E-031
 -1.870000000000000E-002   -1.951380188931089E-031
 -1.860000000000000E-002   -1.359392000686726E-031
 -1.850000000000000E-002   -2.871409559953263E-032
 -1.840000000000000E-002    1.323878797416169E-031
 -1.830000000000000E-002    3.477074651240187E-031
 -1.820000000000000E-002    6.095714483817154E-031
 -1.810000000000000E-002    8.999122657578433E-031
 -1.800000000000000E-002    1.188431019809613E-030
 -1.790000000000000E-002    1.431820678766670E-030
 -1.780000000000000E-002    1.574622329091782E-030
 -1.770000000000000E-002    1.552280090219715E-030
 -1.760000000000000E-002    1.296856860505166E-030
 -1.750000000000000E-002    7.456694557448539E-031
 -1.740000000000000E-002   -1.472390195590147E-031
 -1.730000000000000E-002   -1.397354097066365E-030
 -1.720000000000000E-002   -2.974777384117218E-030
 -1.710000000000000E-002   -4.789914903485711E-030
 -1.700000000000000E-002   -6.682145390555235E-030
 -1.690000000000000E-002   -8.414350219364768E-030
 -1.680000000000000E-002   -9.676490233238071E-030
 -1.670000000000000E-002   -1.010129680926880E-029
 -1.660000000000000E-002   -9.294569109674793E-030
 -1.650000000000000E-002   -6.881357105070827E-030
 -1.640000000000000E-002   -2.567469334436540E-030
 -1.630000000000000E-002    3.786761272322725E-030
 -1.620000000000000E-002    1.208655202912020E-029
 -1.610000000000000E-002    2.192589343754676E-029
 -1.600000000000000E-002    3.252635849146191E-029
 -1.590000000000000E-002    4.270638098033393E-029
 -1.580000000000000E-002    5.089699160022943E-029
 -1.570000000000000E-002    5.521923147954704E-029
 -1.560000000000000E-002    5.363510551284742E-029
 -1.550000000000000E-002    4.417760929172684E-029
 -1.540000000000000E-002    2.525574653297876E-029
 -1.530000000000000E-002   -3.981924707252423E-030
 -1.520000000000000E-002   -4.325618828524892E-029
 -1.510000000000000E-002   -9.078504993300592E-029
 -1.500000000000000E-002   -1.429911171853885E-028
 -1.490000000000000E-002   -1.943591945694860E-028
 -1.480000000000000E-002   -2.375191240375577E-028
 -1.470000000000000E-002   -2.636221320224780E-028
 -1.460000000000000E-002   -2.630619182880676E-028
 -1.450000000000000E-002   -2.265592444791570E-028
 -1.440000000000000E-002   -1.465834463178225E-028
 -1.430000000000000E-002   -1.902616712249388E-029
 -1.420000000000000E-002    1.550235782363038E-028
 -1.410000000000000E-002    3.676210189991295E-028
 -1.400000000000000E-002    6.027015281627255E-028
 -1.390000000000000E-002    8.355260346430546E-028
 -1.380000000000000E-002    1.033161666400290E-027
 -1.370000000000000E-002    1.156286290488332E-027
 -1.360000000000000E-002    1.162509733874053E-027
 -1.350000000000000E-002    1.011265590369248E-027
 -1.340000000000000E-002    6.701094417158669E-028
 -1.330000000000000E-002    1.220105677602817E-028
 -1.320000000000000E-002   -6.270536261395627E-028
 -1.310000000000000E-002   -1.541175082641693E-027
 -1.300000000000000E-002   -2.549457937224303E-027
 -1.290000000000000E-002   -3.544169797765677E-027
 -1.280000000000000E-002   -4.383416555457392E-027
 -1.270000000000000E-002   -4.899471226335768E-027
 -1.260000000000000E-002   -4.913459329816219E-027
 -1.250000000000000E-002   -4.256439266023709E-027
 -1.240000000000000E-002   -2.796028303622753E-027
 -1.230000000000000E-002   -4.666880482461639E-028
 -1.220000000000000E-002    2.699349732277903E-027
 -1.210000000000000E-002    6.544594344739027E-027
 -1.200000000000000E-002    1.076715815157163E-026
 -1.190000000000000E-002    1.491528034810132E-026
 -1.180000000000000E-002    1.840062936020882E-026
 -1.170000000000000E-002    2.053457663490663E-026
 -1.160000000000000E-002    2.058966838320844E-026
 -1.150000000000000E-002    1.788588497462591E-026
 -1.140000000000000E-002    1.189771555397667E-026
 -1.130000000000000E-002    2.373935543317249E-027
 -1.120000000000000E-002   -1.054222490621357E-026
 -1.110000000000000E-002   -2.620867761384770E-026
 -1.100000000000000E-002   -4.341486359780675E-026
 -1.090000000000000E-002   -6.036685165001719E-026
 -1.080000000000000E-002   -7.474612273699230E-026
 -1.070000000000000E-002   -8.385622239804242E-026
 -1.060000000000000E-002   -8.486430521073489E-026
 -1.050000000000000E-002   -7.513403793386341E-026
 -1.040000000000000E-002   -5.263229975374521E-026
 -1.030000000000000E-002   -1.637790427187897E-026
 -1.020000000000000E-002    3.311491134056230E-026
 -1.010000000000000E-002    9.345870253380577E-026
 -1.000000000000000E-002    1.601496949607765E-025
 -9.899999999999999E-003    2.265308238630785E-025
 -9.800000000000000E-003    2.840256655249954E-025
 -9.699999999999999E-003    3.226899573067627E-025
 -9.599999999999999E-003    3.321003997078217E-025
 -9.500000000000000E-003    3.025599149401493E-025
 -9.399999999999999E-003    2.265513570804331E-025
 -9.299999999999999E-003    1.003209028011623E-025
 -9.200000000000000E-003   -7.457930082368674E-026
 -9.099999999999999E-003   -2.900008593434711E-025
 -8.999999999999999E-003   -5.303990616850454E-025
 -8.900000000000000E-003   -7.727609771148055E-025
 -8.799999999999999E-003   -9.874725885158150E-025
 -8.699999999999999E-003   -1.140267030879726E-024
 -8.600000000000000E-003   -1.195299179703366E-024
 -8.499999999999999E-003   -1.119250800229169E-024
 -8.399999999999999E-003   -8.862182571742225E-025
 -8.300000000000000E-003   -4.829612418223968E-025
 -8.199999999999999E-003    8.606399842721883E-026
 -8.100000000000000E-003    7.945898529829632E-025
 -8.000000000000000E-003    1.592112874358410E-024
 -7.899999999999999E-003    2.403907796350504E-024
 -7.800000000000000E-003    3.134117388239800E-024
 -7.699999999999999E-003    3.672322430590814E-024
 -7.599999999999999E-003    3.903647237858166E-024
 -7.499999999999999E-003    3.722021291191446E-024
 -7.399999999999999E-003    3.045709181064446E-024
 -7.299999999999999E-003    1.833715249057342E-024
 -7.199999999999999E-003    1.011771553894651E-025
 -7.100000000000000E-003   -2.068454281786844E-024
 -6.999999999999999E-003   -4.516820540459832E-024
 -6.899999999999999E-003   -7.011873669405124E-024
 -6.800000000000000E-003   -9.258731283434814E-024
 -6.699999999999999E-003   -1.092113493339466E-023
 -6.599999999999999E-003   -1.165347520247542E-023
 -6.499999999999999E-003   -1.114185556361178E-023
 -6.399999999999999E-003   -9.151244226473014E-024
 -6.299999999999999E-003   -5.574192937706177E-024
 -6.199999999999999E-003   -4.752969721527229E-025
 -6.100000000000000E-003    5.875275005353566E-024
 -5.999999999999999E-003    1.298612294960560E-023
 -5.899999999999999E-003    2.015314530353113E-023
 -5.800000000000000E-003    2.649705594303529E-023
 -5.699999999999999E-003    3.103210117073350E-023
 -5.599999999999999E-003    3.276481452655784E-023
 -5.499999999999999E-003    3.081741932493175E-023
 -5.399999999999999E-003    2.456623204835862E-023
 -5.299999999999999E-003    1.378103277741349E-023
 -5.199999999999999E-003   -1.252036709503388E-024
 -5.099999999999999E-003   -1.964348680107928E-023
 -4.999999999999999E-003   -3.986902303061285E-023
 -4.899999999999999E-003   -5.981084403633518E-023
 -4.799999999999999E-003   -7.688350983874073E-023
 -4.699999999999999E-003   -8.824889410480153E-023
 -4.599999999999999E-003   -9.111365063199581E-023
 -4.499999999999999E-003   -8.309153778920547E-023
 -4.399999999999999E-003   -6.260004054722651E-023
 -4.299999999999999E-003   -2.924957342145658E-023
 -4.199999999999999E-003    1.582540194576397E-023
 -4.099999999999999E-003    6.974840147754756E-023
 -3.999999999999999E-003    1.278497680132829E-022
 -3.899999999999999E-003    1.838273664613484E-022
 -3.799999999999999E-003    2.301485280834064E-022
 -3.699999999999999E-003    2.586983543523339E-022
 -3.599999999999999E-003    2.616515781883190E-022
 -3.499999999999999E-003    2.325096797698272E-022
 -3.399999999999999E-003    1.672145076150105E-022
 -3.299999999999999E-003    6.521675602769551E-023
 -3.199999999999999E-003   -6.964188829877113E-023
 -3.099999999999999E-003   -2.285839648622366E-022
 -2.999999999999999E-003   -3.978321784837236E-022
 -2.899999999999999E-003   -5.591411816457438E-022
 -2.799999999999999E-003   -6.909955042057254E-022
 -2.699999999999999E-003   -7.704743477287692E-022
 -2.599999999999999E-003   -7.757060836185362E-022
 -2.499999999999999E-003   -6.887444226169693E-022
 -2.399999999999999E-003   -4.986107054689809E-022
 -2.299999999999999E-003   -2.041725897729137E-022
 -2.199999999999999E-003    1.835254324967700E-022
 -2.099999999999999E-003    6.398778676307837E-022
 -1.999999999999999E-003    1.126649882062174E-021
 -1.899999999999999E-003    1.593519205592668E-021
 -1.799999999999999E-003    1.981384245880489E-021
 -1.699999999999999E-003    2.227423329403178E-021
 -1.599999999999999E-003    2.271674016032342E-021
 -1.499999999999999E-003    2.064667251490089E-021
 -1.399999999999999E-003    1.575442208728189E-021
 -1.299999999999999E-003    7.990661431304939E-022
 -1.199999999999999E-003   -2.373249860643606E-022
 -1.099999999999999E-003   -1.470980330602056E-021
 -9.999999999999989E-004   -2.803407798710578E-021
 -8.999999999999990E-004   -4.104380448573250E-021
 -7.999999999999990E-004   -5.220432215792215E-021
 -6.999999999999989E-004   -5.987769661480990E-021
 -5.999999999999990E-004   -6.248949011551512E-021
 -4.999999999999989E-004   -5.872147770970497E-021
 -3.999999999999989E-004   -4.771294091079642E-021
 -2.999999999999989E-004   -2.924882169725925E-021
 -1.999999999999989E-004   -3.910445401274899E-022
 -9.999999999999892E-005    2.683587287121678E-021
  1.084202172485504E-018    6.063451640305427E-021
  1.000000000000011E-004    9.433713477914311E-021
  2.000000000000011E-004    1.242081307986552E-020
  3.000000000000011E-004    1.462358023796053E-020
  4.000000000000011E-004    1.565333312562031E-020
  5.000000000000011E-004    1.518000994158239E-020
  6.000000000000011E-004    1.298014891337624E-020
  7.000000000000011E-004    8.981554152250409E-021
  8.000000000000011E-004    3.298916058317355E-021
  9.000000000000012E-004   -3.745353453888610E-021
  1.000000000000001E-003   -1.162015160513074E-020
  1.100000000000001E-003   -1.960822786065217E-020
  1.200000000000001E-003   -2.685390367509564E-020
  1.300000000000001E-003   -3.243499688097355E-020
  1.400000000000001E-003   -3.545492028384853E-020
  1.500000000000001E-003   -3.514809631690801E-020
  1.600000000000001E-003   -3.098877931215197E-020
  1.700000000000001E-003   -2.279157594736828E-020
  1.800000000000001E-003   -1.079053884870457E-020
  1.900000000000001E-003    4.315836347878512E-021
  2.000000000000001E-003    2.136483768175887E-020
  2.100000000000001E-003    3.878274292571922E-020
  2.200000000000001E-003    5.469390937726735E-020
  2.300000000000001E-003    6.708293542173599E-020
  2.400000000000001E-003    7.400016121015941E-020
  2.500000000000001E-003    7.379432322076019E-020
  2.600000000000001E-003    6.535026578253443E-020
  2.700000000000001E-003    4.830512667178301E-020
  2.800000000000001E-003    2.321454099691371E-020
  2.900000000000001E-003   -8.358729718980886E-021
  3.000000000000001E-003   -4.385700871353150E-020
  3.100000000000001E-003   -7.985636892381202E-020
  3.200000000000001E-003   -1.123163848715114E-019
  3.300000000000001E-003   -1.369425491049077E-019
  3.400000000000001E-003   -1.496385506464767E-019
  3.500000000000001E-003   -1.470110953946694E-019
  3.600000000000001E-003   -1.268780593806412E-019
  3.700000000000001E-003   -8.872191188959476E-020
  3.800000000000001E-003   -3.402683420085939E-020
  3.900000000000001E-003    3.355855777895900E-020
  4.000000000000001E-003    1.082808718357640E-019
  4.100000000000001E-003    1.825944691161617E-019
  4.200000000000001E-003    2.477323789119097E-019
  4.300000000000001E-003    2.945141375417890E-019
  4.400000000000001E-003    3.143362749642370E-019
  4.500000000000001E-003    3.002626998174680E-019
  4.600000000000002E-003    2.481065105664463E-019
  4.700000000000001E-003    1.573775976284875E-019
  4.800000000000001E-003    3.196578627114075E-020
  4.900000000000002E-003   -1.195630682477676E-019
  5.000000000000001E-003   -2.841555243052833E-019
  5.100000000000001E-003   -4.450024251179322E-019
  5.200000000000001E-003   -5.828219111415837E-019
  5.300000000000002E-003   -6.776369105094747E-019
  5.400000000000001E-003   -7.109291266611194E-019
  5.500000000000001E-003   -6.679876359896635E-019
  5.600000000000002E-003   -5.402177631764022E-019
  5.700000000000001E-003   -3.271448233552235E-019
  5.800000000000001E-003   -3.783697299266808E-020
  5.900000000000002E-003    3.085066757182191E-019
  6.000000000000001E-003    6.830038772629938E-019
  6.100000000000001E-003    1.048692362379084E-018
  6.200000000000002E-003    1.363293770920936E-018
  6.300000000000002E-003    1.583018275603244E-018
  6.400000000000001E-003    1.667156704545967E-018
  6.500000000000001E-003    1.583074062992781E-018
  6.600000000000002E-003    1.311119925105050E-018
  6.700000000000001E-003    8.488995283705641E-019
  6.800000000000001E-003    2.143364963788315E-019
  6.900000000000002E-003   -5.529983511133975E-019
  7.000000000000001E-003   -1.392708215277959E-018
  7.100000000000001E-003   -2.226785424800056E-018
  7.200000000000002E-003   -2.965238391332733E-018
  7.300000000000002E-003   -3.513891684213090E-018
  7.400000000000001E-003   -3.783842863915848E-018
  7.500000000000001E-003   -3.701802704050179E-018
  7.600000000000002E-003   -3.220339278180558E-018
  7.700000000000001E-003   -2.326899800585531E-018
  7.800000000000001E-003   -1.050463735470905E-018
  7.900000000000001E-003    5.352464511896610E-019
  8.000000000000002E-003    2.312846013662040E-018
  8.100000000000001E-003    4.127172758789650E-018
  8.200000000000001E-003    5.796054176337598E-018
  8.300000000000002E-003    7.125507758168139E-018
  8.400000000000001E-003    7.928399135919109E-018
  8.500000000000002E-003    8.045060229576260E-018
  8.600000000000002E-003    7.363963497380803E-018
  8.700000000000001E-003    5.840255612917313E-018
  8.800000000000002E-003    3.509887493265860E-018
  8.900000000000002E-003    4.972208807647588E-019
  9.000000000000001E-003   -2.985592040331223E-018
  9.100000000000002E-003   -6.648536092086049E-018
  9.200000000000002E-003   -1.014321105832888E-017
  9.300000000000001E-003   -1.309107492030791E-017
  9.400000000000002E-003   -1.511871371462202E-017
  9.500000000000001E-003   -1.589732158447349E-017
  9.600000000000001E-003   -1.518282646438729E-017
  9.700000000000002E-003   -1.285250729998263E-017
  9.800000000000001E-003   -8.933777211050700E-018
  9.900000000000001E-003   -3.621058523603708E-018
  1.000000000000000E-002    2.722592931224729E-018
  1.010000000000000E-002    9.581306918169640E-018
  1.020000000000000E-002    1.632025379964796E-017
  1.030000000000000E-002    2.223636164527846E-017
  1.040000000000000E-002    2.662270667116942E-017
  1.050000000000000E-002    2.884160220315707E-017
  1.060000000000000E-002    2.839979363095548E-017
  1.070000000000000E-002    2.501809387627772E-017
  1.080000000000000E-002    1.868744972710891E-017
  1.090000000000000E-002    9.703760423068472E-018
  1.100000000000000E-002   -1.324911617305982E-018
  1.110000000000000E-002   -1.350300390453108E-017
  1.120000000000000E-002   -2.570546668857950E-017
  1.130000000000000E-002   -3.666717348559956E-017
  1.140000000000000E-002   -4.509831618595123E-017
  1.150000000000000E-002   -4.981683287453384E-017
  1.160000000000000E-002   -4.988602799824064E-017
  1.170000000000000E-002   -4.474353992406619E-017
  1.180000000000000E-002   -3.430688088483585E-017
  1.190000000000000E-002   -1.904145094395694E-017
  1.200000000000000E-002    2.083259227605115E-020
  1.210000000000000E-002    2.132054430161035E-017
  1.220000000000000E-002    4.287036054374301E-017
  1.230000000000000E-002    6.241247590077677E-017
  1.240000000000000E-002    7.762429882085965E-017
  1.250000000000000E-002    8.635665913767146E-017
  1.260000000000000E-002    8.688345282890058E-017
  1.270000000000000E-002    7.813763647601575E-017
  1.280000000000000E-002    5.990683322750397E-017
  1.290000000000000E-002    3.296282902497705E-017
  1.300000000000000E-002   -8.971632997637947E-019
  1.310000000000000E-002   -3.891280340351743E-017
  1.320000000000000E-002   -7.753295955384186E-017
  1.330000000000000E-002   -1.126935908635128E-016
  1.340000000000000E-002   -1.401850352494764E-016
  1.350000000000000E-002   -1.560808620679595E-016
  1.360000000000000E-002   -1.571908862089345E-016
  1.370000000000000E-002   -1.414931123337150E-016
  1.380000000000000E-002   -1.084965417903793E-016
  1.390000000000000E-002   -5.948754012382711E-017
  1.400000000000000E-002    2.380713414332191E-018
  1.410000000000000E-002    7.218486620422014E-017
  1.420000000000000E-002    1.435274512109036E-016
  1.430000000000000E-002    2.090257592451723E-016
  1.440000000000000E-002    2.609666350742165E-016
  1.450000000000000E-002    2.920783377361386E-016
  1.460000000000000E-002    2.963532539938231E-016
  1.470000000000000E-002    2.698411431200862E-016
  1.480000000000000E-002    2.113255536473686E-016
  1.490000000000000E-002    1.227979797313061E-016
  1.500000000000000E-002    9.654586111118716E-018
  1.510000000000000E-002   -1.194394734184076E-016
  1.520000000000000E-002   -2.530455482437586E-016
  1.530000000000000E-002   -3.777988107664406E-016
  1.540000000000000E-002   -4.795633056501351E-016
  1.550000000000000E-002   -5.448102737653286E-016
  1.560000000000000E-002   -5.621044767961025E-016
  1.570000000000000E-002   -5.235561889177125E-016
  1.580000000000000E-002   -4.260820563212613E-016
  1.590000000000000E-002   -2.723210519682123E-016
  1.600000000000000E-002   -7.106702982359924E-017
  1.610000000000000E-002    1.628857253332433E-016
  1.620000000000000E-002    4.095394762986702E-016
  1.630000000000000E-002    6.451267811169421E-016
  1.640000000000000E-002    8.441100789786038E-016
  1.650000000000000E-002    9.816062793099475E-016
  1.660000000000000E-002    1.036034896816810E-015
  1.670000000000000E-002    9.917440437822061E-016
  1.680000000000000E-002    8.413355441619237E-016
  1.690000000000000E-002    5.874147180460188E-016
  1.700000000000000E-002    2.435137830549101E-016
  1.710000000000000E-002   -1.660044629567786E-016
  1.720000000000000E-002   -6.071734014556308E-016
  1.730000000000000E-002   -1.038784924281171E-015
  1.740000000000000E-002   -1.415775622311364E-015
  1.750000000000000E-002   -1.693407940403534E-015
  1.760000000000000E-002   -1.831902050480890E-015
  1.770000000000000E-002   -1.801097799063946E-015
  1.780000000000000E-002   -1.584659739199974E-015
  1.790000000000000E-002   -1.183345261294845E-015
  1.800000000000000E-002   -6.168852420806461E-016
  1.810000000000000E-002    7.587422126182258E-017
  1.820000000000000E-002    8.387832513687711E-016
  1.830000000000000E-002    1.602185329190816E-015
  1.840000000000000E-002    2.288537930480411E-015
  1.850000000000000E-002    2.819476562291184E-015
  1.860000000000000E-002    3.123758907628912E-015
  1.870000000000000E-002    3.145363319457246E-015