 -4.000000000000000E-002    0.000000000000000E+000
 -3.990000000000000E-002    0.000000000000000E+000
 -3.980000000000000E-002    0.000000000000000E+000
 -3.970000000000000E-002    0.000000000000000E+000
 -3.960000000000000E-002    0.000000000000000E+000
 -3.950000000000000E-002    0.000000000000000E+000
 -3.940000000000000E-002    0.000000000000000E+000
 -3.930000000000000E-002    0.000000000000000E+000
 -3.920000000000000E-002    0.000000000000000E+000
 -3.910000000000000E-002    0.000000000000000E+000
 -3.900000000000000E-002    0.000000000000000E+000
 -3.890000000000000E-002    1.536489238930821E-038
 -3.880000000000000E-002    3.271575238647154E-037
 -3.870000000000000E-002    3.609249212727671E-036
 -3.860000000000000E-002    2.745675999741766E-035
 -3.850000000000000E-002    1.617546125301605E-034
 -3.840000000000000E-002    7.858842249556029E-034
 -3.830000000000000E-002    3.274925957446931E-033
 -3.820000000000000E-002    1.202149654576924E-032
 -3.810000000000000E-002    3.962120243753915E-032
 -3.800000000000000E-002    1.189279935009434E-031
 -3.790000000000000E-002    3.286495461451267E-031
 -3.780000000000000E-002    8.431390003984711E-031
 -3.770000000000000E-002    2.020989910691605E-030
 -3.760000000000000E-002    4.547834139706507E-030
 -3.750000000000000E-002    9.639341185667386E-030
 -3.740000000000000E-002    1.927773382897498E-029
 -3.730000000000000E-002    3.637592319950888E-029
 -3.720000000000000E-002    6.460238435564587E-029
 -3.710000000000000E-002    1.073033343488878E-028
 -3.700000000000000E-002    1.644629665503268E-028
 -3.690000000000000E-002    2.258692940774156E-028
 -3.680000000000000E-002    2.575464734303010E-028
 -3.670000000000000E-002    1.770890932676553E-028
 -3.660000000000000E-002   -1.880695671480791E-028
 -3.650000000000000E-002   -1.166723035840412E-027
 -3.640000000000000E-002   -3.341672542194715E-027
 -3.630000000000000E-002   -7.683918831209674E-027
 -3.620000000000000E-002   -1.571985921936055E-026
 -3.610000000000000E-002   -2.971122416538509E-026
 -3.600000000000000E-002   -5.279732354262481E-026
 -3.590000000000000E-002   -8.900110057371507E-026
 -3.580000000000000E-002   -1.429308268449381E-025
 -3.570000000000000E-002   -2.189192690226304E-025
 -3.560000000000000E-002   -3.192372783401505E-025
 -3.550000000000000E-002   -4.409166259649773E-025
 -3.540000000000000E-002   -5.706587307038953E-025
 -3.530000000000000E-002   -6.773450709534306E-025
 -3.520000000000000E-002   -7.018682669834258E-025
 -3.510000000000000E-002   -5.445103664723819E-025
 -3.500000000000000E-002   -5.097162235666719E-026
 -3.490000000000000E-002    1.000492931127601E-024
 -3.480000000000000E-002    2.906407006715322E-024
 -3.470000000000000E-002    6.033143348707571E-024
 -3.460000000000000E-002    1.079024549310076E-023
 -3.450000000000000E-002    1.757001404842765E-023
 -3.440000000000000E-002    2.663991715781434E-023
 -3.430000000000000E-002    3.797467580871986E-023
 -3.420000000000000E-002    5.101855453861495E-023
 -3.410000000000000E-002    6.437714893989702E-023
 -3.400000000000000E-002    7.545277700349263E-023
 -3.390000000000000E-002    8.005978049852782E-023
 -3.380000000000000E-002    7.208564035711035E-023
 -3.370000000000000E-002    4.329941158399743E-023
 -3.360000000000000E-002   -1.655274050553915E-023
 -3.350000000000000E-002   -1.191927935171054E-022
 -3.340000000000000E-002   -2.766038183463499E-022
 -3.330000000000000E-002   -4.989839384730864E-022
 -3.320000000000000E-002   -7.917229748564364E-022
 -3.310000000000000E-002   -1.151359398491116E-021
 -3.300000000000000E-002   -1.560648904368511E-021
 -3.290000000000000E-002   -1.983112728458600E-021
 -3.280000000000000E-002   -2.357731663523670E-021
 -3.270000000000000E-002   -2.594810067934432E-021
 -3.260000000000000E-002   -2.574374222209991E-021
 -3.250000000000000E-002   -2.148767418549725E-021
 -3.240000000000000E-002   -1.151224548509961E-021
 -3.230000000000000E-002    5.878760708358043E-022
 -3.220000000000000E-002    3.215839803443668E-021
 -3.210000000000000E-002    6.823305867933429E-021
 -3.200000000000000E-002    1.140176734641422E-020
 -3.190000000000000E-002    1.679598859732712E-020
 -3.180000000000000E-002    2.265670029813330E-020
 -3.170000000000000E-002    2.840142928438457E-020
 -3.160000000000000E-002    3.319359035049995E-020
 -3.150000000000000E-002    3.595176395477051E-020
 -3.140000000000000E-002    3.540146260930958E-020
 -3.130000000000000E-002    3.018016578935382E-020
 -3.120000000000000E-002    1.900251036481518E-020
 -3.110000000000000E-002    8.855432288303353E-022
 -3.100000000000000E-002   -2.457604581769473E-020
 -3.090000000000000E-002   -5.690799010451147E-020
 -3.080000000000000E-002   -9.446499723408987E-020
 -3.070000000000000E-002   -1.342019996265196E-019
 -3.060000000000000E-002   -1.715733075358943E-019
 -3.050000000000000E-002   -2.006305946768758E-019
 -3.040000000000000E-002   -2.143898434789038E-019
 -3.030000000000000E-002   -2.055225684168498E-019
 -3.020000000000000E-002   -1.673964449567507E-019
 -3.010000000000000E-002   -9.544510825335691E-020
 -3.000000000000000E-002    1.121588371649751E-020
 -2.990000000000000E-002    1.480908378932488E-019
 -2.980000000000000E-002    3.037582284899012E-019
 -2.970000000000000E-002    4.588014799652542E-019
 -2.960000000000000E-002    5.855901887586615E-019
 -2.950000000000000E-002    6.493123438188335E-019
 -2.940000000000000E-002    6.106234259229022E-019
 -2.930000000000000E-002    4.301765126228999E-019
 -2.920000000000000E-002    7.511360192223590E-020
 -2.910000000000000E-002   -4.726696365589507E-019
 -2.900000000000000E-002   -1.207039403351673E-018
 -2.890000000000000E-002   -2.087845283626518E-018
 -2.880000000000000E-002   -3.032242067178978E-018
 -2.870000000000000E-002   -3.908836980928245E-018
 -2.860000000000000E-002   -4.536691104250660E-018
 -2.850000000000000E-002   -4.691251344127673E-018
 -2.840000000000000E-002   -4.119100672362642E-018
 -2.830000000000000E-002   -2.562840471613290E-018
 -2.820000000000000E-002    2.035061922153404E-019
 -2.810000000000000E-002    4.329533286766354E-018
 -2.800000000000000E-002    9.836637541511046E-018
 -2.790000000000000E-002    1.656384578888600E-017
 -2.780000000000000E-002    2.411791422008400E-017
 -2.770000000000000E-002    3.183589367743116E-017
 -2.760000000000000E-002    3.876968168243270E-017
 -2.750000000000000E-002    4.370234914852986E-017
 -2.740000000000000E-002    4.520507906449747E-017
 -2.730000000000000E-002    4.174133881727663E-017
 -2.720000000000000E-002    3.182070532891515E-017
 -2.710000000000000E-002    1.419925883548429E-017
 -2.700000000000000E-002   -1.188347767876002E-017
 -2.690000000000000E-002   -4.644925516788183E-017
 -2.680000000000000E-002   -8.853310806509615E-017
 -2.670000000000000E-002   -1.359759044232598E-016
 -2.660000000000000E-002   -1.852951788821290E-016
 -2.650000000000000E-002   -2.316736776991775E-016
 -2.640000000000000E-002   -2.691022495354162E-016
 -2.630000000000000E-002   -2.907049025004537E-016
 -2.620000000000000E-002   -2.892600474135261E-016
 -2.610000000000000E-002   -2.579110893295650E-016
 -2.600000000000000E-002   -1.910358692978046E-016
 -2.590000000000000E-002   -8.521527622024071E-017
 -2.580000000000000E-002    5.978418679178630E-017
 -2.570000000000000E-002    2.401266139585790E-016
 -2.560000000000000E-002    4.472486827277480E-016
 -2.550000000000000E-002    6.675625809265525E-016
 -2.540000000000000E-002    8.826455335244260E-016
 -2.530000000000000E-002    1.070013932502004E-015
 -2.520000000000000E-002    1.204537946063406E-015
 -2.510000000000000E-002    1.260487966955026E-015
 -2.500000000000000E-002    1.214129013389528E-015
 -2.490000000000000E-002    1.046692832560744E-015
 -2.480000000000000E-002    7.474780191131080E-016
 -2.470000000000000E-002    3.167519564195802E-016
 -2.460000000000000E-002   -2.319204522648913E-016
 -2.450000000000000E-002   -8.703114753460817E-016
 -2.440000000000000E-002   -1.555493484243151E-015
 -2.430000000000000E-002   -2.231416323380142E-015
 -2.420000000000000E-002   -2.832257252111013E-015
 -2.410000000000000E-002   -3.287531856096301E-015
 -2.400000000000000E-002   -3.528731841090876E-015
 -2.390000000000000E-002   -3.497041792113551E-015
 -2.380000000000000E-002   -3.151464478890942E-015
 -2.370000000000000E-002   -2.476481871721042E-015
 -2.360000000000000E-002   -1.488292564117401E-015
 -2.350000000000000E-002   -2.386061307536826E-016
 -2.340000000000000E-002    1.184905965736318E-015
 -2.330000000000000E-002    2.662205671628025E-015
 -2.320000000000000E-002    4.048874332137884E-015
 -2.310000000000000E-002    5.188366080754263E-015
 -2.300000000000000E-002    5.927917570133070E-015
 -2.290000000000000E-002    6.136868591153791E-015
 -2.280000000000000E-002    5.725693346684641E-015
 -2.270000000000000E-002    4.663596438108538E-015
 -2.260000000000000E-002    2.992291359572553E-015
 -2.250000000000000E-002    8.335935843281742E-016
 -2.240000000000000E-002   -1.611242966601301E-015
 -2.230000000000000E-002   -4.071908440813968E-015
 -2.220000000000000E-002   -6.229702576939677E-015
 -2.210000000000000E-002   -7.747943968474769E-015
 -2.200000000000000E-002   -8.310231251041609E-015
 -2.190000000000000E-002   -7.663456067853287E-015
 -2.180000000000000E-002   -5.661264005968113E-015
 -2.170000000000000E-002   -2.302786056793634E-015
 -2.160000000000000E-002    2.238882411135119E-015
 -2.150000000000000E-002    7.603805864950885E-015
 -2.140000000000000E-002    1.325240261253893E-014
 -2.130000000000000E-002    1.849560846624746E-014
 -2.120000000000000E-002    2.254872670237893E-014
 -2.110000000000000E-002    2.460695728489008E-014
 -2.100000000000000E-002    2.393773784820477E-014
 -2.090000000000000E-002    1.998216877833729E-014
 -2.080000000000000E-002    1.245531060229394E-014
 -2.070000000000000E-002    1.433386794049303E-015
 -2.060000000000000E-002   -1.258440198750987E-014
 -2.050000000000000E-002   -2.865131947802150E-014
 -2.040000000000000E-002   -4.539520347048480E-014
 -2.030000000000000E-002   -6.109295837475855E-014
 -2.020000000000000E-002   -7.379818951426961E-014
 -2.010000000000000E-002   -8.151681254398141E-014
 -2.000000000000000E-002   -8.241914848238254E-014
 -1.990000000000000E-002   -7.507090928911574E-014
 -1.980000000000000E-002   -5.866050462970603E-014
 -1.970000000000000E-002   -3.319705042651298E-014
 -1.960000000000000E-002    3.479019020350021E-016
 -1.950000000000000E-002    3.997969014545569E-014
 -1.940000000000000E-002    8.272052089692616E-014
 -1.930000000000000E-002    1.247620141529062E-013
 -1.920000000000000E-002    1.617315247998938E-013
 -1.910000000000000E-002    1.890614273837387E-013
 -1.900000000000000E-002    2.024370289395808E-013
 -1.890000000000000E-002    1.982880667641654E-013
 -1.880000000000000E-002    1.742767841176651E-013
 -1.870000000000000E-002    1.297306848029970E-013
 -1.860000000000000E-002    6.596608824092095E-014
 -1.850000000000000E-002   -1.354823182361351E-014
 -1.840000000000000E-002   -1.032273520260811E-013
 -1.830000000000000E-002   -1.956312028897474E-013
 -1.820000000000000E-002   -2.819549271548293E-013
 -1.810000000000000E-002   -3.527294258018022E-013
 -1.800000000000000E-002   -3.986884658984600E-013
 -1.790000000000000E-002   -4.117351694476386E-013
 -1.780000000000000E-002   -3.859216471025005E-013
 -1.770000000000000E-002   -3.183432576401916E-013
 -1.760000000000000E-002   -2.098436099449354E-013
 -1.750000000000000E-002   -6.543434409332712E-014
 -1.740000000000000E-002    1.056499803975302E-013
 -1.730000000000000E-002    2.903143725119113E-013
 -1.720000000000000E-002    4.723989913260190E-013
 -1.710000000000000E-002    6.338809203224590E-013
 -1.700000000000000E-002    7.564121123153023E-013
 -1.690000000000000E-002    8.230789548234670E-013
 -1.680000000000000E-002    8.202342949924220E-013
 -1.670000000000000E-002    7.392274179817894E-013
 -1.660000000000000E-002    5.778464652109373E-013
 -1.650000000000000E-002    3.412966930196679E-013
 -1.640000000000000E-002    4.256380177115573E-014
 -1.630000000000000E-002   -2.979450158067072E-013
 -1.620000000000000E-002   -6.535270231560939E-013
 -1.610000000000000E-002   -9.930526930271044E-013
 -1.600000000000000E-002   -1.283474877429768E-012
 -1.590000000000000E-002   -1.492799722947995E-012
 -1.580000000000000E-002   -1.593277451427550E-012
 -1.570000000000000E-002   -1.564521146806348E-012
 -1.560000000000000E-002   -1.396236994037786E-012
 -1.550000000000000E-002   -1.090254037664662E-012
 -1.540000000000000E-002   -6.615790039583053E-013
 -1.530000000000000E-002   -1.382650751830532E-013
 -1.520000000000000E-002    4.400161277001914E-013
 -1.510000000000000E-002    1.024698211890615E-012
 -1.500000000000000E-002    1.562204557337426E-012
 -1.490000000000000E-002    1.998732039133694E-012
 -1.480000000000000E-002    2.285552855036780E-012
 -1.470000000000000E-002    2.384357949201540E-012
 -1.460000000000000E-002    2.272114103516985E-012
 -1.450000000000000E-002    1.944891046446028E-012
 -1.440000000000000E-002    1.420163035817381E-012
 -1.430000000000000E-002    7.371836181257280E-013
 -1.420000000000000E-002   -4.482185628207825E-014
 -1.410000000000000E-002   -8.507032581732651E-013
 -1.400000000000000E-002   -1.595522664024643E-012
 -1.390000000000000E-002   -2.192390456300396E-012
 -1.380000000000000E-002   -2.561410948824570E-012
 -1.370000000000000E-002   -2.638944707617511E-012
 -1.360000000000000E-002   -2.386288287661172E-012
 -1.350000000000000E-002   -1.796811713211704E-012
 -1.340000000000000E-002   -9.006356015262378E-013
 -1.330000000000000E-002    2.339285060843424E-013
 -1.320000000000000E-002    1.502734094082914E-012
 -1.310000000000000E-002    2.772176463951165E-012
 -1.300000000000000E-002    3.889458654840452E-012
 -1.290000000000000E-002    4.696189418221706E-012
 -1.280000000000000E-002    5.044364485452142E-012
 -1.270000000000000E-002    4.813410724240131E-012
 -1.260000000000000E-002    3.926706432990065E-012
 -1.250000000000000E-002    2.365828340809802E-012
 -1.240000000000000E-002    1.808127501166811E-013
 -1.230000000000000E-002   -2.505148559966980E-012
 -1.220000000000000E-002   -5.497751797207278E-012
 -1.210000000000000E-002   -8.541047696643002E-012
 -1.200000000000000E-002   -1.133434245421001E-011
 -1.190000000000000E-002   -1.355580300659705E-011
 -1.180000000000000E-002   -1.489129807630872E-011
 -1.170000000000000E-002   -1.506625494795028E-011
 -1.160000000000000E-002   -1.387779169826296E-011
 -1.150000000000000E-002   -1.122396449842311E-011
 -1.140000000000000E-002   -7.126905460791383E-012
 -1.130000000000000E-002   -1.746823887546927E-012
 -1.120000000000000E-002    4.615613142814004E-012
 -1.110000000000000E-002    1.153015122228145E-011
 -1.100000000000000E-002    1.846157340942369E-011
 -1.090000000000000E-002    2.480728814510421E-011
 -1.080000000000000E-002    2.994567471552698E-011
 -1.070000000000000E-002    3.329173004834649E-011
 -1.060000000000000E-002    3.435538264520470E-011
 -1.050000000000000E-002    3.279704316915084E-011
 -1.040000000000000E-002    2.847472501992167E-011
 -1.030000000000000E-002    2.147721165432959E-011
 -1.020000000000000E-002    1.213854761807920E-011
 -1.010000000000000E-002    1.030541192423450E-012
 -1.000000000000000E-002   -1.106819841194954E-011
 -9.899999999999999E-003   -2.322598595155303E-011
 -9.800000000000000E-003   -3.443146334768770E-011
 -9.699999999999999E-003   -4.368129233429133E-011
 -9.599999999999999E-003   -5.007476760432725E-011
 -9.500000000000000E-003   -5.290660146602144E-011
 -9.399999999999999E-003   -5.174842035719310E-011
 -9.299999999999999E-003   -4.650967611014692E-011
 -9.200000000000000E-003   -3.747013743790930E-011
 -9.099999999999999E-003   -2.527803863057110E-011
 -8.999999999999999E-003   -1.091112553616999E-011
 -8.900000000000000E-003    4.398660251316681E-012
 -8.799999999999999E-003    1.927218160172773E-011
 -8.699999999999999E-003    3.231342181991155E-011
 -8.600000000000000E-003    4.225157048645675E-011
 -8.499999999999999E-003    4.808088721966104E-011
 -8.399999999999999E-003    4.918347875914034E-011
 -8.300000000000000E-003    4.542042248793571E-011
 -8.199999999999999E-003    3.717872510102533E-011
 -8.100000000000000E-003    2.536523290089556E-011
 -8.000000000000000E-003    1.134341658322403E-011
 -7.899999999999999E-003   -3.185306398737426E-012
 -7.800000000000000E-003   -1.634793778237506E-011
 -7.699999999999999E-003   -2.630016329362648E-011
 -7.599999999999999E-003   -3.144194196365690E-011
 -7.499999999999999E-003   -3.062626752913021E-011
 -7.399999999999999E-003   -2.333767057888546E-011
 -7.299999999999999E-003   -9.817847012751830E-012
 -7.199999999999999E-003    8.880419453249557E-012
 -7.100000000000000E-003    3.092421844182270E-011
 -6.999999999999999E-003    5.382150964051746E-011
 -6.899999999999999E-003    7.462819583740602E-011
 -6.800000000000000E-003    9.022767936258089E-011
 -6.699999999999999E-003    9.766017676494579E-011
 -6.599999999999999E-003    9.447152540510069E-011
 -6.499999999999999E-003    7.904626070277641E-011
 -6.399999999999999E-003    5.088797085845673E-011
 -6.299999999999999E-003    1.081167315344598E-011
 -6.199999999999999E-003   -3.898059945614335E-011
 -6.100000000000000E-003   -9.496090662293485E-011
 -5.999999999999999E-003   -1.524803374513385E-010
 -5.899999999999999E-003   -2.061106841199671E-010
 -5.800000000000000E-003   -2.501010786622621E-010
 -5.699999999999999E-003   -2.789137979015384E-010
 -5.599999999999999E-003   -2.877922692899170E-010
 -5.499999999999999E-003   -2.733066447548402E-010
 -5.399999999999999E-003   -2.338205676477122E-010
 -5.299999999999999E-003   -1.698249423562719E-010
 -5.199999999999999E-003   -8.409459044326598E-011
 -5.099999999999999E-003    1.836261785160170E-011
 -4.999999999999999E-003    1.305760208480896E-010
 -4.899999999999999E-003    2.440922030923267E-010
 -4.799999999999999E-003    3.496338816987725E-010
 -4.699999999999999E-003    4.378861991976530E-010
 -4.599999999999999E-003    5.003428637804524E-010
 -4.499999999999999E-003    5.301336336305703E-010
 -4.399999999999999E-003    5.227510974519167E-010
 -4.299999999999999E-003    4.766001540747556E-010
 -4.199999999999999E-003    3.933050393491776E-010
 -4.099999999999999E-003    2.777299055871940E-010
 -3.999999999999999E-003    1.376944937233730E-010
 -3.899999999999999E-003   -1.660459561273355E-011
 -3.799999999999999E-003   -1.734256890515665E-010
 -3.699999999999999E-003   -3.204986492616077E-010
 -3.599999999999999E-003   -4.461353865773635E-010
 -3.499999999999999E-003   -5.403291561257656E-010
 -3.399999999999999E-003   -5.957332321189655E-010
 -3.299999999999999E-003   -6.084157159344353E-010
 -3.199999999999999E-003   -5.783050601570011E-010
 -3.099999999999999E-003   -5.092677125787046E-010
 -2.999999999999999E-003   -4.087944503048718E-010
 -2.899999999999999E-003   -2.873099456894038E-010
 -2.799999999999999E-003   -1.571601311049307E-010
 -2.699999999999999E-003   -3.136751461357636E-011
 -2.599999999999999E-003    7.772675003380463E-011
 -2.499999999999999E-003    1.597980535075575E-010
 -2.399999999999999E-003    2.077098979085786E-010
 -2.299999999999999E-003    2.183911270621279E-010
 -2.199999999999999E-003    1.933127362875237E-010
 -2.099999999999999E-003    1.384926633913237E-010
 -1.999999999999999E-003    6.400478471508612E-011
 -1.899999999999999E-003   -1.698263887133961E-011
 -1.799999999999999E-003   -8.956247453647401E-011
 -1.699999999999999E-003   -1.387170730348809E-010
 -1.599999999999999E-003   -1.510616571214269E-010
 -1.499999999999999E-003   -1.165261547336398E-010
 -1.399999999999999E-003   -2.979341249642482E-011
 -1.299999999999999E-003    1.086721978675431E-010
 -1.199999999999999E-003    2.921386190400291E-010
 -1.099999999999999E-003    5.077482645575162E-010
 -9.999999999999989E-004    7.373125513163476E-010
 -8.999999999999990E-004    9.587186913046176E-010
 -7.999999999999990E-004    1.147843229006192E-009
 -6.999999999999989E-004    1.280808825295114E-009
 -5.999999999999990E-004    1.336377180848438E-009
 -4.999999999999989E-004    1.298244499449640E-009
 -3.999999999999989E-004    1.157004498567833E-009
 -2.999999999999989E-004    9.115627778813409E-010
 -1.999999999999989E-004    5.698310527987664E-010
 -9.999999999999892E-005    1.485920170782546E-010
  1.084202172485504E-018   -3.274957714415662E-010
  1.000000000000011E-004   -8.277008578403501E-010
  2.000000000000011E-004   -1.317692665238912E-009
  3.000000000000011E-004   -1.762475001295398E-009
  4.000000000000011E-004   -2.129513303314626E-009
  5.000000000000011E-004   -2.391752470701976E-009
  6.000000000000011E-004   -2.530224477742380E-009
  7.000000000000011E-004   -2.535961791820243E-009
  8.000000000000011E-004   -2.410996301822375E-009
  9.000000000000012E-004   -2.168297682157201E-009
  1.000000000000001E-003   -1.830605103499415E-009
  1.100000000000001E-003   -1.428215657687592E-009
  1.200000000000001E-003   -9.958989898741843E-010
  1.300000000000001E-003   -5.692052755169444E-010
  1.400000000000001E-003   -1.805085610330989E-010
  1.500000000000001E-003    1.448272261603032E-010
  1.600000000000001E-003    3.917622783509382E-010
  1.700000000000001E-003    5.580025010976753E-010
  1.800000000000001E-003    6.552275089412342E-010
  1.900000000000001E-003    7.089176661378093E-010
  2.000000000000001E-003    7.566987024190889E-010
  2.100000000000001E-003    8.452594798554041E-010
  2.200000000000001E-003    1.026038830657723E-009
  2.300000000000001E-003    1.350006837045323E-009
  2.400000000000001E-003    1.861966848451392E-009
  2.500000000000001E-003    2.594880253122539E-009
  2.600000000000001E-003    3.564737235692447E-009
  2.700000000000001E-003    4.766473897754122E-009
  2.800000000000001E-003    6.171378868505911E-009
  2.900000000000001E-003    7.726302650057112E-009
  3.000000000000001E-003    9.354858863075206E-009
  3.100000000000001E-003    1.096062051598877E-008
  3.200000000000001E-003    1.243214910969683E-008
  3.300000000000001E-003    1.364953894034505E-008
  3.400000000000001E-003    1.449199369416508E-008
  3.500000000000001E-003    1.484588408968681E-008
  3.600000000000001E-003    1.461265782139643E-008
  3.700000000000001E-003    1.371599050346454E-008
  3.800000000000001E-003    1.210763591049998E-008
  3.900000000000001E-003    9.771537809695036E-009
  4.000000000000001E-003    6.725926558135430E-009
  4.100000000000001E-003    3.023322386140781E-009
  4.200000000000001E-003   -1.251440591519991E-009
  4.300000000000001E-003   -5.984860910517323E-009
  4.400000000000001E-003   -1.103960103337934E-008
  4.500000000000001E-003   -1.625991788281047E-008
  4.600000000000002E-003   -2.147700141893962E-008
  4.700000000000001E-003   -2.651357523826556E-008
  4.800000000000001E-003   -3.118714643856145E-008
  4.900000000000002E-003   -3.531144892695067E-008
  5.000000000000001E-003   -3.869576925567198E-008
  5.100000000000001E-003   -4.114213587651272E-008
  5.200000000000001E-003   -4.244049215876067E-008
  5.300000000000002E-003   -4.236230701836634E-008
  5.400000000000001E-003   -4.065317040288556E-008
  5.500000000000001E-003   -3.702515814790315E-008
  5.600000000000002E-003   -3.114976000543484E-008
  5.700000000000001E-003   -2.265216759335780E-008
  5.800000000000001E-003   -1.110767612661774E-008
  5.900000000000002E-003    3.959304254492155E-009
  6.000000000000001E-003    2.307326310735490E-008
  6.100000000000001E-003    4.680262502533282E-008
  6.200000000000002E-003    7.575208751246960E-008
  6.300000000000002E-003    1.105528111056880E-007
  6.400000000000001E-003    1.518512273104720E-007
  6.500000000000001E-003    2.002975691449950E-007
  6.600000000000002E-003    2.565351256382238E-007
  6.700000000000001E-003    3.211913856822656E-007
  6.800000000000001E-003    3.948719802307126E-007
  6.900000000000002E-003    4.781583116346936E-007
  7.000000000000001E-003    5.716092963115241E-007
  7.100000000000001E-003    6.757673771270730E-007
  7.200000000000002E-003    7.911684480654070E-007
  7.300000000000002E-003    9.183553175058531E-007
  7.400000000000001E-003    1.057893547156249E-006
  7.500000000000001E-003    1.210388543647789E-006
  7.600000000000002E-003    1.376502667417204E-006
  7.700000000000001E-003    1.556970846602788E-006
  7.800000000000001E-003    1.752612977517475E-006
  7.900000000000001E-003    1.964343642282281E-006
  8.000000000000002E-003    2.193176403048068E-006
  8.100000000000001E-003    2.440223828382242E-006
  8.200000000000001E-003    2.706692973938596E-006
  8.300000000000002E-003    2.993877312120980E-006
  8.400000000000001E-003    3.303144509141314E-006
  8.500000000000002E-003    3.635924786033750E-006
  8.600000000000002E-003    3.993697606438742E-006
  8.700000000000001E-003    4.377980849373109E-006
  8.800000000000002E-003    4.790323752855526E-006
  8.900000000000002E-003    5.232302337139037E-006
  9.000000000000001E-003    5.705522691415107E-006
  9.100000000000002E-003    6.211627430159806E-006
  9.200000000000002E-003    6.752311458569586E-006
  9.300000000000001E-003    7.329337203031270E-006
  9.400000000000002E-003    7.944559213400725E-006
  9.500000000000001E-003    8.599947843709631E-006
  9.600000000000001E-003    9.297613145318549E-006
  9.700000000000002E-003    1.003983085421220E-005
  9.800000000000001E-003    1.082906296350604E-005
  9.900000000000001E-003    1.166796986685728E-005
  1.000000000000000E-002    1.255942667530396E-005
  1.010000000000000E-002    1.350652453046930E-005
  1.020000000000000E-002    1.451257083503254E-005
  1.030000000000000E-002    1.558108173879988E-005
  1.040000000000000E-002    1.671577370168270E-005
  1.050000000000000E-002    1.792054650832026E-005
  1.060000000000000E-002    1.919947784708082E-005
  1.070000000000000E-002    2.055680514215183E-005
  1.080000000000000E-002    2.199692404912681E-005
  1.090000000000000E-002    2.352438396479502E-005
  1.100000000000000E-002    2.514389336472069E-005
  1.110000000000000E-002    2.686033605617565E-005
  1.120000000000000E-002    2.867878977339990E-005
  1.130000000000000E-002    3.060455538554591E-005
  1.140000000000000E-002    3.264318834095544E-005
  1.150000000000000E-002    3.480053430070827E-005
  1.160000000000000E-002    3.708277886058896E-005
  1.170000000000000E-002    3.949646904418120E-005
  1.180000000000000E-002    4.204856389958145E-005
  1.190000000000000E-002    4.474644930134916E-005
  1.200000000000000E-002    4.759798010208162E-005
  1.210000000000000E-002    5.061148114161536E-005
  1.220000000000000E-002    5.379575545117031E-005
  1.230000000000000E-002    5.716010159551724E-005
  1.240000000000000E-002    6.071429716644865E-005
  1.250000000000000E-002    6.446858759558601E-005
  1.260000000000000E-002    6.843369452996890E-005
  1.270000000000000E-002    7.262079092645563E-005
  1.280000000000000E-002    7.704152290835283E-005
  1.290000000000000E-002    8.170798510349682E-005
  1.300000000000000E-002    8.663275348715657E-005
  1.310000000000000E-002    9.182890086423720E-005
  1.320000000000000E-002    9.731003656194747E-005
  1.330000000000000E-002    1.030903357355432E-004
  1.340000000000000E-002    1.091846074850287E-004
  1.350000000000000E-002    1.156083309532790E-004
  1.360000000000000E-002    1.223777367320205E-004
  1.370000000000000E-002    1.295098541998468E-004
  1.380000000000000E-002    1.370225834555086E-004
  1.390000000000000E-002    1.449347345731672E-004
  1.400000000000000E-002    1.532660876136118E-004
  1.410000000000000E-002    1.620374217766572E-004
  1.420000000000000E-002    1.712705708080865E-004
  1.430000000000000E-002    1.809884065199416E-004
  1.440000000000000E-002    1.912148917940074E-004
  1.450000000000000E-002    2.019750804233901E-004
  1.460000000000000E-002    2.132950855114077E-004
  1.470000000000000E-002    2.252021377825582E-004
  1.480000000000000E-002    2.377245452729100E-004
  1.490000000000000E-002    2.508917645894767E-004
  1.500000000000000E-002    2.647343452248403E-004
  1.510000000000000E-002    2.792840597423687E-004
  1.520000000000000E-002    2.945738261206514E-004
  1.530000000000000E-002    3.106378903615643E-004
  1.540000000000000E-002    3.275118009572469E-004
  1.550000000000000E-002    3.452325193554675E-004
  1.560000000000000E-002    3.638385399879912E-004
  1.570000000000000E-002    3.833698669382167E-004
  1.580000000000000E-002    4.038682221264101E-004
  1.590000000000000E-002    4.253770726206381E-004
  1.600000000000000E-002    4.479416768041191E-004
  1.610000000000000E-002    4.716092011050973E-004
  1.620000000000000E-002    4.964287689135728E-004
  1.630000000000000E-002    5.224515011370914E-004
  1.640000000000000E-002    5.497305766706378E-004
  1.650000000000000E-002    5.783212307561538E-004
  1.660000000000000E-002    6.082808437161116E-004
  1.670000000000000E-002    6.396689603602409E-004
  1.680000000000000E-002    6.725472701177484E-004
  1.690000000000000E-002    7.069796402941026E-004
  1.700000000000000E-002    7.430322353145008E-004
  1.710000000000000E-002    7.807735711808269E-004
  1.720000000000000E-002    8.202744331426792E-004
  1.730000000000000E-002    8.616081863275458E-004
  1.740000000000000E-002    9.048506574857967E-004
  1.750000000000000E-002    9.500803521971930E-004
  1.760000000000000E-002    9.973785125791616E-004
  1.770000000000000E-002    1.046829359279942E-003
  1.780000000000000E-002    1.098519951154286E-003
  1.790000000000000E-002    1.152540433409620E-003
  1.800000000000000E-002    1.208984240144893E-003
  1.810000000000000E-002    1.267948089691438E-003
  1.820000000000000E-002    1.329531970146977E-003
  1.830000000000000E-002    1.393839322233725E-003
  1.840000000000000E-002    1.460977053580551E-003
  1.850000000000000E-002    1.531055526487911E-003
  1.860000000000000E-002    1.604188857743200E-003
  1.870000000000000E-002    1.680494717840643E-003