 -4.000000000000000E-002    0.000000000000000E+000
 -3.990000000000000E-002    0.000000000000000E+000
 -3.980000000000000E-002    0.000000000000000E+000
 -3.970000000000000E-002    0.000000000000000E+000
 -3.960000000000000E-002    0.000000000000000E+000
 -3.950000000000000E-002    3.293433317018997E-022
 -3.940000000000000E-002    3.404981929402527E-021
 -3.930000000000000E-002    1.889859726873202E-020
 -3.920000000000000E-002    7.435890946996126E-020
 -3.910000000000000E-002    2.310912963695423E-019
 -3.900000000000000E-002    5.987641025758682E-019
 -3.890000000000000E-002    1.330451855225379E-018
 -3.880000000000000E-002    2.562747837169677E-018
 -3.870000000000000E-002    4.246026152243003E-018
 -3.860000000000000E-002    5.794465906970712E-018
 -3.850000000000000E-002    5.485022265437478E-018
 -3.840000000000000E-002   -4.368145678775251E-019
 -3.830000000000000E-002   -1.891401917740553E-017
 -3.820000000000000E-002   -6.133979718742441E-017
 -3.810000000000000E-002   -1.445808546812787E-016
 -3.800000000000000E-002   -2.911937575112157E-016
 -3.790000000000000E-002   -5.280340922350783E-016
 -3.780000000000000E-002   -8.822797407922269E-016
 -3.770000000000000E-002   -1.373853923019529E-015
 -3.760000000000000E-002   -2.003416323955714E-015
 -3.750000000000000E-002   -2.735612160513053E-015
 -3.740000000000000E-002   -3.478141515351588E-015
 -3.730000000000000E-002   -4.058497664937359E-015
 -3.720000000000000E-002   -4.201820836867010E-015
 -3.710000000000000E-002   -3.514966537211545E-015
 -3.700000000000000E-002   -1.483560170563291E-015
 -3.690000000000000E-002    2.510215961466737E-015
 -3.680000000000000E-002    9.141245384740771E-015
 -3.670000000000000E-002    1.905990392722001E-014
 -3.660000000000000E-002    3.277167970618966E-014
 -3.650000000000000E-002    5.047924050106885E-014
 -3.640000000000000E-002    7.189483335320210E-014
 -3.630000000000000E-002    9.603891953376313E-014
 -3.620000000000000E-002    1.210492443581255E-013
 -3.610000000000000E-002    1.440326014252078E-013
 -3.600000000000000E-002    1.609971524334906E-013
 -3.590000000000000E-002    1.669049967974018E-013
 -3.580000000000000E-002    1.558822361857616E-013
 -3.570000000000000E-002    1.216133371620244E-013
 -3.560000000000000E-002    5.793199861368493E-014
 -3.550000000000000E-002   -4.040358402353891E-014
 -3.540000000000000E-002   -1.767892041777151E-013
 -3.530000000000000E-002   -3.517769811822122E-013
 -3.520000000000000E-002   -5.620997391157157E-013
 -3.510000000000000E-002   -7.998411876691913E-013
 -3.500000000000000E-002   -1.051890571185410E-012
 -3.490000000000000E-002   -1.299821564914627E-012
 -3.480000000000000E-002   -1.520318598631762E-012
 -3.470000000000000E-002   -1.686239713081234E-012
 -3.460000000000000E-002   -1.768349736082929E-012
 -3.450000000000000E-002   -1.737684267670096E-012
 -3.440000000000000E-002   -1.568424970934121E-012
 -3.430000000000000E-002   -1.241081160016808E-012
 -3.420000000000000E-002   -7.456879357265690E-013
 -3.410000000000000E-002   -8.467345408561645E-014
 -3.400000000000000E-002    7.249867332032940E-013
 -3.390000000000000E-002    1.650710733665577E-012
 -3.380000000000000E-002    2.644672874838922E-012
 -3.370000000000000E-002    3.645818593272256E-012
 -3.360000000000000E-002    4.583618045089645E-012
 -3.350000000000000E-002    5.383475763496083E-012
 -3.340000000000000E-002    5.973478438304856E-012
 -3.330000000000000E-002    6.291991670067992E-012
 -3.320000000000000E-002    6.295394025850796E-012
 -3.310000000000000E-002    5.965111812432466E-012
 -3.300000000000000E-002    5.313029788073480E-012
 -3.290000000000000E-002    4.384369102492927E-012
 -3.280000000000000E-002    3.257233392959493E-012
 -3.270000000000000E-002    2.038262209442276E-012
 -3.260000000000000E-002    8.541443350056588E-013
 -3.250000000000000E-002   -1.608199009557441E-013
 -3.240000000000000E-002   -8.804727267750423E-013
 -3.230000000000000E-002   -1.204708611224015E-012
 -3.220000000000000E-002   -1.077967162100973E-012
 -3.210000000000000E-002   -5.063374882703725E-013
 -3.200000000000000E-002    4.289024110991579E-013
 -3.190000000000000E-002    1.563525936573283E-012
 -3.180000000000000E-002    2.650401531501235E-012
 -3.170000000000000E-002    3.368910997418829E-012
 -3.160000000000000E-002    3.344661301185820E-012
 -3.150000000000000E-002    2.179468347434590E-012
 -3.140000000000000E-002   -5.094351188350648E-013
 -3.130000000000000E-002   -5.043121945904370E-012
 -3.120000000000000E-002   -1.163098374186598E-011
 -3.110000000000000E-002   -2.032126616753672E-011
 -3.100000000000000E-002   -3.095714122068306E-011
 -3.090000000000000E-002   -4.314367430431328E-011
 -3.080000000000000E-002   -5.623091256740797E-011
 -3.070000000000000E-002   -6.931766352578001E-011
 -3.060000000000000E-002   -8.127938177023285E-011
 -3.050000000000000E-002   -9.082175786383004E-011
 -3.040000000000000E-002   -9.655959184555904E-011
 -3.030000000000000E-002   -9.711786157058891E-011
 -3.020000000000000E-002   -9.124961921469728E-011
 -3.010000000000000E-002   -7.796260140099132E-011
 -3.000000000000000E-002   -5.664464876808847E-011
 -2.990000000000000E-002   -2.717657598588141E-011
 -2.980000000000000E-002    9.979465991662200E-012
 -2.970000000000000E-002    5.372736751065979E-011
 -2.960000000000000E-002    1.023300153194738E-010
 -2.950000000000000E-002    1.534542771953229E-010
 -2.940000000000000E-002    2.042713397049263E-010
 -2.930000000000000E-002    2.516104104726110E-010
 -2.920000000000000E-002    2.921589135084165E-010
 -2.910000000000000E-002    3.226973094709884E-010
 -2.900000000000000E-002    3.403519201585913E-010
 -2.890000000000000E-002    3.428455767669110E-010
 -2.880000000000000E-002    3.287235246086108E-010
 -2.870000000000000E-002    2.975324933771595E-010
 -2.860000000000000E-002    2.499316692894320E-010
 -2.850000000000000E-002    1.877194402614543E-010
 -2.840000000000000E-002    1.137650303701565E-010
 -2.830000000000000E-002    3.184256585714884E-011
 -2.820000000000000E-002   -5.362662004292327E-011
 -2.810000000000000E-002   -1.379074208136765E-010
 -2.800000000000000E-002   -2.163366829354909E-010
 -2.790000000000000E-002   -2.847292725434602E-010
 -2.780000000000000E-002   -3.397683221342423E-010
 -2.770000000000000E-002   -3.793409365557612E-010
 -2.760000000000000E-002   -4.027827710786358E-010
 -2.750000000000000E-002   -4.109994846954603E-010
 -2.740000000000000E-002   -4.064421755859071E-010
 -2.730000000000000E-002   -3.929263483868590E-010
 -2.720000000000000E-002   -3.752961907800017E-010
 -2.710000000000000E-002   -3.589538632034027E-010
 -2.700000000000000E-002   -3.492856599321555E-010
 -2.690000000000000E-002   -3.510314771685709E-010
 -2.680000000000000E-002   -3.676536703848468E-010
 -2.670000000000000E-002   -4.007663214660313E-010
 -2.660000000000000E-002   -4.496868591279059E-010
 -2.650000000000000E-002   -5.111664896186736E-010
 -2.640000000000000E-002   -5.793431491769082E-010
 -2.630000000000000E-002   -6.459461741969552E-010
 -2.620000000000000E-002   -7.007599704780859E-010
 -2.610000000000000E-002   -7.323308430638013E-010
 -2.600000000000000E-002   -7.288774626879033E-010
 -2.590000000000000E-002   -6.793434936982278E-010
 -2.580000000000000E-002   -5.745110983501200E-010
 -2.570000000000000E-002   -4.080821458363461E-010
 -2.560000000000000E-002   -1.776270399468594E-010
 -2.550000000000000E-002    1.146957608422150E-010
 -2.540000000000000E-002    4.617348243495347E-010
 -2.530000000000000E-002    8.513214123089224E-010
 -2.520000000000000E-002    1.266663015920626E-009
 -2.510000000000000E-002    1.687159097231126E-009
 -2.500000000000000E-002    2.089606255574944E-009
 -2.490000000000000E-002    2.449723161565428E-009
 -2.480000000000000E-002    2.743889148348053E-009
 -2.470000000000000E-002    2.950966825732740E-009
 -2.460000000000000E-002    3.054053134904281E-009
 -2.450000000000000E-002    3.042002539616116E-009
 -2.440000000000000E-002    2.910569000243574E-009
 -2.430000000000000E-002    2.663035125795065E-009
 -2.420000000000000E-002    2.310232734970406E-009
 -2.410000000000000E-002    1.869904659050326E-009
 -2.400000000000000E-002    1.365416403845894E-009
 -2.390000000000000E-002    8.238853770429155E-010
 -2.380000000000000E-002    2.738620196389155E-010
 -2.370000000000000E-002   -2.572564639246511E-010
 -2.360000000000000E-002   -7.458430264009982E-010
 -2.350000000000000E-002   -1.174434719596523E-009
 -2.340000000000000E-002   -1.533642331745928E-009
 -2.330000000000000E-002   -1.823330654611569E-009
 -2.320000000000000E-002   -2.052878570955628E-009
 -2.310000000000000E-002   -2.240391980860066E-009
 -2.300000000000000E-002   -2.410837204248014E-009
 -2.290000000000000E-002   -2.593167333325668E-009
 -2.280000000000000E-002   -2.816626336648357E-009
 -2.270000000000000E-002   -3.106518391760981E-009
 -2.260000000000000E-002   -3.479820918662138E-009
 -2.250000000000000E-002   -3.941082153218477E-009
 -2.240000000000000E-002   -4.479066382331292E-009
 -2.230000000000000E-002   -5.064596313722607E-009
 -2.220000000000000E-002   -5.649967118453898E-009
 -2.210000000000000E-002   -6.170205779317586E-009
 -2.200000000000000E-002   -6.546286227279969E-009
 -2.190000000000000E-002   -6.690238183626974E-009
 -2.180000000000000E-002   -6.511888079892806E-009
 -2.170000000000000E-002   -5.926782699944459E-009
 -2.160000000000000E-002   -4.864676723163172E-009
 -2.150000000000000E-002   -3.277852522145300E-009
 -2.140000000000000E-002   -1.148468289757332E-009
 -2.130000000000000E-002    1.505843113670255E-009
 -2.120000000000000E-002    4.628817664540533E-009
 -2.110000000000000E-002    8.125361958027575E-009
 -2.100000000000000E-002    1.186459314661999E-008
 -2.090000000000000E-002    1.568610671759831E-008
 -2.080000000000000E-002    1.940915153264481E-008
 -2.070000000000000E-002    2.284408212611769E-008
 -2.060000000000000E-002    2.580520247710817E-008
 -2.050000000000000E-002    2.812390897653424E-008
 -2.040000000000000E-002    2.966094323203634E-008
 -2.030000000000000E-002    3.031659795430471E-008
 -2.020000000000000E-002    3.003784345497675E-008
 -2.010000000000000E-002    2.882161039884463E-008
 -2.000000000000000E-002    2.671381419572279E-008
 -1.990000000000000E-002    2.380414681322079E-008
 -1.980000000000000E-002    2.021710925313263E-008
 -1.970000000000000E-002    1.610019029502741E-008
 -1.960000000000000E-002    1.161047894564165E-008
 -1.950000000000000E-002    6.901250828323365E-009
 -1.940000000000000E-002    2.110168860956224E-009
 -1.930000000000000E-002   -2.649318574798806E-009
 -1.920000000000000E-002   -7.291989773758225E-009
 -1.910000000000000E-002   -1.175942847683661E-008
 -1.900000000000000E-002   -1.601261567598155E-008
 -1.890000000000000E-002   -2.001886475680689E-008
 -1.880000000000000E-002   -2.373383941232073E-008
 -1.870000000000000E-002   -2.708019790027712E-008
 -1.860000000000000E-002   -2.992470036531494E-008
 -1.850000000000000E-002   -3.205596048690307E-008
 -1.840000000000000E-002   -3.316529719215626E-008
 -1.830000000000000E-002   -3.283279633308763E-008
 -1.820000000000000E-002   -3.052027717819028E-008
 -1.810000000000000E-002   -2.557243261315717E-008
 -1.800000000000000E-002   -1.722665120210150E-008
 -1.790000000000000E-002   -4.630871526416210E-009
 -1.780000000000000E-002    1.313163398387224E-008
 -1.770000000000000E-002    3.701281752604118E-008
 -1.760000000000000E-002    6.796800840222175E-008
 -1.750000000000000E-002    1.069255251472812E-007
 -1.740000000000000E-002    1.547598516821033E-007
 -1.730000000000000E-002    2.122720827659755E-007
 -1.720000000000000E-002    2.801795924097356E-007
 -1.710000000000000E-002    3.591164393696497E-007
 -1.700000000000000E-002    4.496454887766294E-007
 -1.690000000000000E-002    5.522808795480113E-007
 -1.680000000000000E-002    6.675200594805535E-007
 -1.670000000000000E-002    7.958821172950431E-007
 -1.660000000000000E-002    9.379499020871333E-007
 -1.650000000000000E-002    1.094411184404766E-006
 -1.640000000000000E-002    1.266095939940903E-006
 -1.630000000000000E-002    1.454005337715442E-006
 -1.620000000000000E-002    1.659331048993848E-006
 -1.610000000000000E-002    1.883461030177262E-006
 -1.600000000000000E-002    2.127973281374348E-006
 -1.590000000000000E-002    2.394616010622621E-006
 -1.580000000000000E-002    2.685278258975635E-006
 -1.570000000000000E-002    3.001951588994151E-006
 -1.560000000000000E-002    3.346688231186336E-006
 -1.550000000000000E-002    3.721560047615356E-006
 -1.540000000000000E-002    4.128620769019739E-006
 -1.530000000000000E-002    4.569877419436958E-006
 -1.520000000000000E-002    5.047273090200449E-006
 -1.510000000000000E-002    5.562683711962271E-006
 -1.500000000000000E-002    6.117929677111916E-006
 -1.490000000000000E-002    6.714800414366290E-006
 -1.480000000000000E-002    7.355092328416340E-006
 -1.470000000000000E-002    8.040657468470328E-006
 -1.460000000000000E-002    8.773454394825378E-006
 -1.450000000000000E-002    9.555602708050715E-006
 -1.440000000000000E-002    1.038943280499468E-005
 -1.430000000000000E-002    1.127752982932686E-005
 -1.420000000000000E-002    1.222276317530152E-005
 -1.410000000000000E-002    1.322830717996929E-005
 -1.400000000000000E-002    1.429764267471363E-005
 -1.390000000000000E-002    1.543454577113775E-005
 -1.380000000000000E-002    1.664306516685096E-005
 -1.370000000000000E-002    1.792748968221956E-005
 -1.360000000000000E-002    1.929230670211913E-005
 -1.350000000000000E-002    2.074216653948650E-005
 -1.340000000000000E-002    2.228183904691922E-005
 -1.330000000000000E-002    2.391619147495030E-005
 -1.320000000000000E-002    2.565016902482759E-005
 -1.310000000000000E-002    2.748879383157291E-005
 -1.300000000000000E-002    2.943718226979308E-005
 -1.290000000000000E-002    3.150057820321293E-005
 -1.280000000000000E-002    3.368440244365066E-005
 -1.270000000000000E-002    3.599431803487476E-005
 -1.260000000000000E-002    3.843629644460556E-005
 -1.250000000000000E-002    4.101671351780236E-005
 -1.240000000000000E-002    4.374240192744307E-005
 -1.230000000000000E-002    4.662075614754578E-005
 -1.220000000000000E-002    4.965976761840637E-005
 -1.210000000000000E-002    5.286809065962097E-005
 -1.200000000000000E-002    5.625506589894338E-005
 -1.190000000000000E-002    5.983074077569403E-005
 -1.180000000000000E-002    6.360585798426080E-005
 -1.170000000000000E-002    6.759182576715000E-005
 -1.160000000000000E-002    7.180069391146356E-005
 -1.150000000000000E-002    7.624509214166557E-005
 -1.140000000000000E-002    8.093818146885541E-005
 -1.130000000000000E-002    8.589360858940904E-005
 -1.120000000000000E-002    9.112546878031560E-005
 -1.110000000000000E-002    9.664827060335265E-005
 -1.100000000000000E-002    1.024769443157003E-004
 -1.090000000000000E-002    1.086268456790578E-004
 -1.080000000000000E-002    1.151138042212731E-004
 -1.070000000000000E-002    1.219541938595690E-004
 -1.060000000000000E-002    1.291650227744436E-004
 -1.050000000000000E-002    1.367640429154821E-004
 -1.040000000000000E-002    1.447698523162484E-004
 -1.030000000000000E-002    1.532020639566367E-004
 -1.020000000000000E-002    1.620813933888232E-004
 -1.010000000000000E-002    1.714297697005602E-004
 -1.000000000000000E-002    1.812704578987721E-004
 -9.899999999999999E-003    1.916281204184507E-004
 -9.800000000000000E-003    2.025288465389554E-004
 -9.699999999999999E-003    2.140002165442466E-004
 -9.599999999999999E-003    2.260712482997285E-004
 -9.500000000000000E-003    2.387723905158243E-004
 -9.399999999999999E-003    2.521354675908874E-004
 -9.299999999999999E-003    2.661936480217549E-004
 -9.200000000000000E-003    2.809813690998148E-004
 -9.099999999999999E-003    2.965342664461199E-004
 -8.999999999999999E-003    3.128892058549786E-004
 -8.900000000000000E-003    3.300842121686259E-004
 -8.799999999999999E-003    3.481585793371949E-004
 -8.699999999999999E-003    3.671528511454872E-004
 -8.600000000000000E-003    3.871088914666913E-004
 -8.499999999999999E-003    4.080701231746040E-004
 -8.399999999999999E-003    4.300815386916760E-004
 -8.300000000000000E-003    4.531899615739810E-004
 -8.199999999999999E-003    4.774441195036226E-004
 -8.100000000000000E-003    5.028948499486760E-004
 -8.000000000000000E-003    5.295952767111000E-004
 -7.899999999999999E-003    5.576009571469622E-004
 -7.800000000000000E-003    5.869698033930906E-004
 -7.699999999999999E-003    6.177624692167691E-004
 -7.599999999999999E-003    6.500421278294726E-004
 -7.499999999999999E-003    6.838746819944847E-004
 -7.399999999999999E-003    7.193285876563428E-004
 -7.299999999999999E-003    7.564750788868308E-004
 -7.199999999999999E-003    7.953880242926013E-004
 -7.100000000000000E-003    8.361439111500492E-004
 -6.999999999999999E-003    8.788218968213234E-004
 -6.899999999999999E-003    9.235038798757599E-004
 -6.800000000000000E-003    9.702744887307174E-004
 -6.699999999999999E-003    1.019221123852867E-003
 -6.599999999999999E-003    1.070434149708728E-003
 -6.499999999999999E-003    1.124007122609054E-003
 -6.399999999999999E-003    1.180036660255497E-003
 -6.299999999999999E-003    1.238622697294520E-003
 -6.199999999999999E-003    1.299868719142829E-003
 -6.100000000000000E-003    1.363881872902004E-003
 -5.999999999999999E-003    1.430772964941997E-003
 -5.899999999999999E-003    1.500656765732154E-003
 -5.800000000000000E-003    1.573651856427152E-003
 -5.699999999999999E-003    1.649880936116441E-003
 -5.599999999999999E-003    1.729470525797910E-003
 -5.499999999999999E-003    1.812551403088426E-003
 -5.399999999999999E-003    1.899258389833120E-003
 -5.299999999999999E-003    1.989730207559441E-003
 -5.199999999999999E-003    2.084110029220484E-003
 -5.099999999999999E-003    2.182544676146204E-003
 -4.999999999999999E-003    2.285185682048906E-003
 -4.899999999999999E-003    2.392188821685990E-003
 -4.799999999999999E-003    2.503713858235483E-003
 -4.699999999999999E-003    2.619925490691755E-003
 -4.599999999999999E-003    2.740993118358779E-003
 -4.499999999999999E-003    2.867090731062753E-003
 -4.399999999999999E-003    2.998397585410422E-003
 -4.299999999999999E-003    3.135097755102599E-003
 -4.199999999999999E-003    3.277380988074952E-003
 -4.099999999999999E-003    3.425442361774936E-003
 -3.999999999999999E-003    3.579482535801574E-003
 -3.899999999999999E-003    3.739707673705578E-003
 -3.799999999999999E-003    3.906329831552881E-003
 -3.699999999999999E-003    4.079566815217130E-003
 -3.599999999999999E-003    4.259641705356733E-003
 -3.499999999999999E-003    4.446783631118888E-003
 -3.399999999999999E-003    4.641227190295415E-003
 -3.299999999999999E-003    4.843212554032496E-003
 -3.199999999999999E-003    5.052984993214686E-003
 -3.099999999999999E-003    5.270795762956864E-003
 -2.999999999999999E-003    5.496900852218636E-003
 -2.899999999999999E-003    5.731562363627117E-003
 -2.799999999999999E-003    5.975047453375808E-003
 -2.699999999999999E-003    6.227627958905736E-003
 -2.599999999999999E-003    6.489581993271276E-003
 -2.499999999999999E-003    6.761192840015760E-003
 -2.399999999999999E-003    7.042748736606248E-003
 -2.299999999999999E-003    7.334543639384304E-003
 -2.199999999999999E-003    7.636877479569563E-003
 -2.099999999999999E-003    7.950055380055764E-003
 -1.999999999999999E-003    8.274388691198115E-003
 -1.899999999999999E-003    8.610192974359891E-003
 -1.799999999999999E-003    8.957790947577041E-003
 -1.699999999999999E-003    9.317509761676342E-003
 -1.599999999999999E-003    9.689681851102144E-003
 -1.499999999999999E-003    1.007464602053622E-002
 -1.399999999999999E-003    1.047274452677135E-002
 -1.299999999999999E-003    1.088432660632045E-002
 -1.199999999999999E-003    1.130974544202632E-002
 -1.099999999999999E-003    1.174935825691516E-002
 -9.999999999999989E-004    1.220352674454217E-002
 -8.999999999999990E-004    1.267261704460917E-002
 -7.999999999999990E-004    1.315699948253693E-002
 -6.999999999999989E-004    1.365704639612086E-002
 -5.999999999999990E-004    1.417313557807081E-002
 -4.999999999999989E-004    1.470564616711283E-002
 -3.999999999999989E-004    1.525496172940530E-002
 -2.999999999999989E-004    1.582146696670277E-002
 -1.999999999999989E-004    1.640554849957011E-002
 -9.999999999999892E-005    1.700759755700410E-002
  1.084202172485504E-018    1.762800518901590E-002
  1.000000000000011E-004    1.826716380862247E-002
  2.000000000000011E-004    1.892546721881459E-002
  3.000000000000011E-004    1.960330904494892E-002
  4.000000000000011E-004    2.030108452613181E-002
  5.000000000000011E-004    2.101918766635297E-002
  6.000000000000011E-004    2.175801115914938E-002
  7.000000000000011E-004    2.251795084608617E-002
  8.000000000000011E-004    2.329939681883072E-002
  9.000000000000012E-004    2.410273855781362E-002
  1.000000000000001E-003    2.492836287035980E-002
  1.100000000000001E-003    2.577665355670192E-002
  1.200000000000001E-003    2.664799188896606E-002
  1.300000000000001E-003    2.754275395373331E-002
  1.400000000000001E-003    2.846131159595149E-002
  1.500000000000001E-003    2.940403038155815E-002
  1.600000000000001E-003    3.037127179239653E-002
  1.700000000000001E-003    3.136338931345077E-002
  1.800000000000001E-003    3.238072835730924E-002
  1.900000000000001E-003    3.342363012944611E-002
  2.000000000000001E-003    3.449242085327091E-002
  2.100000000000001E-003    3.558742273510581E-002
  2.200000000000001E-003    3.670894422776676E-002
  2.300000000000001E-003    3.785728691140663E-002
  2.400000000000001E-003    3.903273375635560E-002
  2.500000000000001E-003    4.023555834707565E-002
  2.600000000000001E-003    4.146602342281449E-002
  2.700000000000001E-003    4.272437037298633E-002
  2.800000000000001E-003    4.401082659023081E-002
  2.900000000000001E-003    4.532560630122050E-002
  3.000000000000001E-003    4.666890133439553E-002
  3.100000000000001E-003    4.804088666246915E-002
  3.200000000000001E-003    4.944172122077580E-002
  3.300000000000001E-003    5.087153608508954E-002
  3.400000000000001E-003    5.233044610088809E-002
  3.500000000000001E-003    5.381854111493783E-002
  3.600000000000001E-003    5.533589065509596E-002
  3.700000000000001E-003    5.688254063668580E-002
  3.800000000000001E-003    5.845850347641654E-002
  3.900000000000001E-003    6.006377390617014E-002
  4.000000000000001E-003    6.169831401594195E-002
  4.100000000000001E-003    6.336206233068506E-002
  4.200000000000001E-003    6.505492410811918E-002
  4.300000000000001E-003    6.677677359472374E-002
  4.400000000000001E-003    6.852745077023116E-002
  4.500000000000001E-003    7.030676578150831E-002
  4.600000000000002E-003    7.211449184814693E-002
  4.700000000000001E-003    7.395036493141637E-002
  4.800000000000001E-003    7.581409008462764E-002
  4.900000000000002E-003    7.770533476134786E-002
  5.000000000000001E-003    7.962371551237636E-002
  5.100000000000001E-003    8.156882488752862E-002
  5.200000000000001E-003    8.354019926233730E-002
  5.300000000000002E-003    8.553733687895761E-002
  5.400000000000001E-003    8.755970040201942E-002
  5.500000000000001E-003    8.960669250141719E-002
  5.600000000000002E-003    9.167767668087838E-002
  5.700000000000001E-003    9.377196806803721E-002
  5.800000000000001E-003    9.588884134110850E-002
  5.900000000000002E-003    9.802751643648139E-002
  6.000000000000001E-003    0.100187155946644     
  6.100000000000001E-003    0.102366877343025     
  6.200000000000002E-003    0.104565748563775     
  6.300000000000002E-003    0.106782777617049     
  6.400000000000001E-003    0.109016923228404     
  6.500000000000001E-003    0.111267087634367     
  6.600000000000002E-003    0.113532107915258     
  6.700000000000001E-003    0.115810780425146     
  6.800000000000001E-003    0.118101836009877     
  6.900000000000002E-003    0.120403940829596     
  7.000000000000001E-003    0.122715713999993     
  7.100000000000001E-003    0.125035703479253     
  7.200000000000002E-003    0.127362397181564     
  7.300000000000002E-003    0.129694232229110     
  7.400000000000001E-003    0.132029566454393     
  7.500000000000001E-003    0.134366712811572     
  7.600000000000002E-003    0.136703915103447     
  7.700000000000001E-003    0.139039354002642     
  7.800000000000001E-003    0.141371146925128     
  7.900000000000001E-003    0.143697348005255     
  8.000000000000002E-003    0.146015932849099     
  8.100000000000001E-003    0.148324834039606     
  8.200000000000001E-003    0.150621910054566     
  8.300000000000002E-003    0.152904961038136     
  8.400000000000001E-003    0.155171710244609     
  8.500000000000002E-003    0.157419830363547     
  8.600000000000002E-003    0.159646925457405     
  8.700000000000001E-003    0.161850538129255     
  8.800000000000002E-003    0.164028131362723     
  8.900000000000002E-003    0.166177136717772     
  9.000000000000001E-003    0.168294911289985     
  9.100000000000002E-003    0.170378729474371     
  9.200000000000002E-003    0.172425843035730     
  9.300000000000001E-003    0.174433428556197     
  9.400000000000002E-003    0.176398589542218     
  9.500000000000001E-003    0.178318377992075     
  9.600000000000001E-003    0.180189812538648     
  9.700000000000002E-003    0.182009827515310     
  9.800000000000001E-003    0.183775326257947     
  9.900000000000001E-003    0.185483160707549     
  1.000000000000000E-002    0.187130108181684     
  1.010000000000000E-002    0.188712915985457     
  1.020000000000000E-002    0.190228289723275     
  1.030000000000000E-002    0.191672885275826     
  1.040000000000000E-002    0.193043307279126     
  1.050000000000000E-002    0.194336136263035     
  1.060000000000000E-002    0.195547899074306     
  1.070000000000000E-002    0.196675084208495     
  1.080000000000000E-002    0.197714160367460     
  1.090000000000000E-002    0.198661553907002     
  1.100000000000000E-002    0.199513675391455     
  1.110000000000000E-002    0.200266889219711     
  1.120000000000000E-002    0.200917543459189     
  1.130000000000000E-002    0.201461992691762     
  1.140000000000000E-002    0.201896538600207     
  1.150000000000000E-002    0.202217476092247     
  1.160000000000000E-002    0.202421116055144     
  1.170000000000000E-002    0.202503733216725     
  1.180000000000000E-002    0.202461623061103     
  1.190000000000000E-002    0.202291049730227     
  1.200000000000000E-002    0.201988317710265     
  1.210000000000000E-002    0.201549714091883     
  1.220000000000000E-002    0.200971547775044     
  1.230000000000000E-002    0.200250155263755     
  1.240000000000000E-002    0.199381872567254     
  1.250000000000000E-002    0.198363058186359     
  1.260000000000000E-002    0.197190112293152     
  1.270000000000000E-002    0.195859455867000     
  1.280000000000000E-002    0.194367549799491     
  1.290000000000000E-002    0.192710906198132     
  1.300000000000000E-002    0.190886062233865     
  1.310000000000000E-002    0.188889621115842     
  1.320000000000000E-002    0.186718230894890     
  1.330000000000000E-002    0.184368615124434     
  1.340000000000000E-002    0.181837534107488     
  1.350000000000000E-002    0.179121840558055     
  1.360000000000000E-002    0.176218436398893     
  1.370000000000000E-002    0.173124326184369     
  1.380000000000000E-002    0.169836587016483     
  1.390000000000000E-002    0.166352376623052     
  1.400000000000000E-002    0.162668953951789     
  1.410000000000000E-002    0.158783675871886     
  1.420000000000000E-002    0.154693984260133     
  1.430000000000000E-002    0.150397452450580     
  1.440000000000000E-002    0.145891742390991     
  1.450000000000000E-002    0.141174635659355     
  1.460000000000000E-002    0.136244052741183     
  1.470000000000000E-002    0.131098012173591     
  1.480000000000000E-002    0.125734673900463     
  1.490000000000000E-002    0.120152334199326     
  1.500000000000000E-002    0.114349411964769     
  1.510000000000000E-002    0.108324495474491     
  1.520000000000000E-002    0.102076299501261     
  1.530000000000000E-002    9.560370079812437E-002
  1.540000000000000E-002    8.890573589692578E-002
  1.550000000000000E-002    8.198158719304371E-002
  1.560000000000000E-002    7.483061655198447E-002
  1.570000000000000E-002    6.745235062855315E-002
  1.580000000000000E-002    5.984649059525599E-002
  1.590000000000000E-002    5.201290665926372E-002
  1.600000000000000E-002    4.395165270804366E-002
  1.610000000000000E-002    3.566296297511180E-002
  1.620000000000000E-002    2.714725883709695E-002
  1.630000000000000E-002    1.840515068500106E-002
  1.640000000000000E-002    9.437441398420137E-003
  1.650000000000000E-002    2.451193020812597E-004
  1.660000000000000E-002   -9.170620931599649E-003
  1.670000000000000E-002   -1.880839049777481E-002
  1.680000000000000E-002   -2.866659567247188E-002
  1.690000000000000E-002   -3.874344213500901E-002
  1.700000000000000E-002   -4.903692946736553E-002
  1.710000000000000E-002   -5.954484771365476E-002
  1.720000000000000E-002   -7.026477749146359E-002
  1.730000000000000E-002   -8.119409084390024E-002
  1.740000000000000E-002   -9.232993969635254E-002
  1.750000000000000E-002   -0.103669278825498     
  1.760000000000000E-002   -0.115208837265621     
  1.770000000000000E-002   -0.126945129072561     
  1.780000000000000E-002   -0.138874460429700     
  1.790000000000000E-002   -0.150992917000309     
  1.800000000000000E-002   -0.163296388902697     
  1.810000000000000E-002   -0.175780527999813     
  1.820000000000000E-002   -0.188440802294230     
  1.830000000000000E-002   -0.201272447696568     
  1.840000000000000E-002   -0.214270495916379     
  1.850000000000000E-002   -0.227429764412417     
  1.860000000000000E-002   -0.240744872987672     
  1.870000000000000E-002   -0.254210247299279     