 -4.000000000000000E-002    0.000000000000000E+000
 -3.990000000000000E-002    0.000000000000000E+000
 -3.980000000000000E-002    0.000000000000000E+000
 -3.970000000000000E-002    0.000000000000000E+000
 -3.960000000000000E-002    0.000000000000000E+000
 -3.950000000000000E-002    0.000000000000000E+000
 -3.940000000000000E-002    0.000000000000000E+000
 -3.930000000000000E-002    0.000000000000000E+000
 -3.920000000000000E-002    0.000000000000000E+000
 -3.910000000000000E-002    0.000000000000000E+000
 -3.900000000000000E-002    0.000000000000000E+000
 -3.890000000000000E-002    0.000000000000000E+000
 -3.880000000000000E-002    0.000000000000000E+000
 -3.870000000000000E-002    0.000000000000000E+000
 -3.860000000000000E-002    0.000000000000000E+000
 -3.850000000000000E-002    0.000000000000000E+000
 -3.840000000000000E-002    0.000000000000000E+000
 -3.830000000000000E-002    0.000000000000000E+000
 -3.820000000000000E-002    0.000000000000000E+000
 -3.810000000000000E-002    0.000000000000000E+000
 -3.800000000000000E-002    0.000000000000000E+000
 -3.790000000000000E-002    0.000000000000000E+000
 -3.780000000000000E-002   -2.162423914228253E-046
 -3.770000000000000E-002   -1.508428029781922E-045
 -3.760000000000000E-002   -8.419663088222960E-045
 -3.750000000000000E-002   -3.934211413365990E-044
 -3.740000000000000E-002   -1.642087582684614E-043
 -3.730000000000000E-002   -6.274149937509313E-043
 -3.720000000000000E-002   -2.202572756717639E-042
 -3.710000000000000E-002   -7.156281748543198E-042
 -3.700000000000000E-002   -2.163990103232289E-041
 -3.690000000000000E-002   -6.111047951017246E-041
 -3.680000000000000E-002   -1.615152842877166E-040
 -3.670000000000000E-002   -3.998299303118072E-040
 -3.660000000000000E-002   -9.259724563677601E-040
 -3.650000000000000E-002   -1.998423137804299E-039
 -3.640000000000000E-002   -3.985142251393841E-039
 -3.630000000000000E-002   -7.214546665645492E-039
 -3.620000000000000E-002   -1.139487636852772E-038
 -3.610000000000000E-002   -1.399931063033574E-038
 -3.600000000000000E-002   -6.458805434662459E-039
 -3.590000000000000E-002    3.384672468503624E-038
 -3.580000000000000E-002    1.589169839315880E-037
 -3.570000000000000E-002    4.769598356547245E-037
 -3.560000000000000E-002    1.195065825062930E-036
 -3.550000000000000E-002    2.679539209537036E-036
 -3.540000000000000E-002    5.527194490964668E-036
 -3.530000000000000E-002    1.062130945157129E-035
 -3.520000000000000E-002    1.910812653243045E-035
 -3.510000000000000E-002    3.216584734140185E-035
 -3.500000000000000E-002    5.034208949569172E-035
 -3.490000000000000E-002    7.211012482538712E-035
 -3.480000000000000E-002    9.115983593915585E-035
 -3.470000000000000E-002    9.185140531158600E-035
 -3.460000000000000E-002    4.232668632913048E-035
 -3.450000000000000E-002   -1.148234781509663E-034
 -3.440000000000000E-002   -4.734332432884110E-034
 -3.430000000000000E-002   -1.173333210745978E-033
 -3.420000000000000E-002   -2.402548494748873E-033
 -3.410000000000000E-002   -4.381312290917611E-033
 -3.400000000000000E-002   -7.310944567520302E-033
 -3.390000000000000E-002   -1.126393217294205E-032
 -3.380000000000000E-002   -1.598621379169580E-032
 -3.370000000000000E-002   -2.058234693332440E-032
 -3.360000000000000E-002   -2.306459961562579E-032
 -3.350000000000000E-002   -1.977580984375963E-032
 -3.340000000000000E-002   -4.752443283350530E-033
 -3.330000000000000E-002    3.081231324157421E-032
 -3.320000000000000E-002    9.870996915880542E-032
 -3.310000000000000E-002    2.129927002876391E-031
 -3.300000000000000E-002    3.877203247780431E-031
 -3.290000000000000E-002    6.323457432275319E-031
 -3.280000000000000E-002    9.438401575622965E-031
 -3.270000000000000E-002    1.294811086098794E-030
 -3.260000000000000E-002    1.617387161511385E-030
 -3.250000000000000E-002    1.783710934247959E-030
 -3.240000000000000E-002    1.585652001476872E-030
 -3.230000000000000E-002    7.189273462207655E-031
 -3.220000000000000E-002   -1.219868725086415E-030
 -3.210000000000000E-002   -4.711078165309612E-030
 -3.200000000000000E-002   -1.024890807847984E-029
 -3.190000000000000E-002   -1.821969405612314E-029
 -3.180000000000000E-002   -2.870478418743208E-029
 -3.170000000000000E-002   -4.119766454342571E-029
 -3.160000000000000E-002   -5.423899555925095E-029
 -3.150000000000000E-002   -6.499712775457065E-029
 -3.140000000000000E-002   -6.885681266175084E-029
 -3.130000000000000E-002   -5.912446222522328E-029
 -3.120000000000000E-002   -2.701099683128780E-029
 -3.110000000000000E-002    3.789518690156859E-029
 -3.100000000000000E-002    1.464153348801706E-028
 -3.090000000000000E-002    3.075736603833587E-028
 -3.080000000000000E-002    5.251957918604422E-028
 -3.070000000000000E-002    7.932469951034620E-028
 -3.060000000000000E-002    1.090087006188373E-027
 -3.050000000000000E-002    1.372182919363508E-027
 -3.040000000000000E-002    1.568302131270563E-027
 -3.030000000000000E-002    1.575775314745644E-027
 -3.020000000000000E-002    1.260999405684867E-027
 -3.010000000000000E-002    4.668257657712249E-028
 -3.000000000000000E-002   -9.703219507859671E-028
 -2.990000000000000E-002   -3.191034259300263E-027
 -2.980000000000000E-002   -6.269640014814163E-027
 -2.970000000000000E-002   -1.015741599015176E-026
 -2.960000000000000E-002   -1.461561987456425E-026
 -2.950000000000000E-002   -1.914571487253716E-026
 -2.940000000000000E-002   -2.292904336484968E-026
 -2.930000000000000E-002   -2.479337990561638E-026
 -2.920000000000000E-002   -2.322839801258801E-026
 -2.910000000000000E-002   -1.647491132020610E-026
 -2.900000000000000E-002   -2.712171261296186E-027
 -2.890000000000000E-002    1.963806268920458E-026
 -2.880000000000000E-002    5.148422575712774E-026
 -2.870000000000000E-002    9.252789387500908E-026
 -2.860000000000000E-002    1.406584176342862E-025
 -2.850000000000000E-002    1.913550769928382E-025
 -2.840000000000000E-002    2.372106870515035E-025
 -2.830000000000000E-002    2.677263568478494E-025
 -2.820000000000000E-002    2.695533484661511E-025
 -2.810000000000000E-002    2.273646195277791E-025
 -2.800000000000000E-002    1.255147702085785E-025
 -2.790000000000000E-002   -4.941671725924313E-026
 -2.780000000000000E-002   -3.052162733808741E-025
 -2.770000000000000E-002   -6.399412795904302E-025
 -2.760000000000000E-002   -1.037526040755710E-024
 -2.750000000000000E-002   -1.463710620608070E-024
 -2.740000000000000E-002   -1.863147038461130E-024
 -2.730000000000000E-002   -2.158727138303886E-024
 -2.720000000000000E-002   -2.254267521413965E-024
 -2.710000000000000E-002   -2.041621774345484E-024
 -2.700000000000000E-002   -1.413010103484421E-024
 -2.690000000000000E-002   -2.788166062398273E-025
 -2.680000000000000E-002    1.409716570002366E-024
 -2.670000000000000E-002    3.634544613806964E-024
 -2.660000000000000E-002    6.284529263214422E-024
 -2.650000000000000E-002    9.133006366117410E-024
 -2.640000000000000E-002    1.182455475232577E-023
 -2.630000000000000E-002    1.387701946909004E-023
 -2.620000000000000E-002    1.470483872256263E-023
 -2.610000000000000E-002    1.366870311431482E-023
 -2.600000000000000E-002    1.015431842917655E-023
 -2.590000000000000E-002    3.679367800707357E-024
 -2.580000000000000E-002   -5.977143590752860E-024
 -2.570000000000000E-002   -1.863499140792686E-023
 -2.560000000000000E-002   -3.358047569929389E-023
 -2.550000000000000E-002   -4.946592062449234E-023
 -2.540000000000000E-002   -6.426937332039305E-023
 -2.530000000000000E-002   -7.534424540635831E-023
 -2.520000000000000E-002   -7.958575799620004E-023
 -2.510000000000000E-002   -7.373263695588835E-023
 -2.500000000000000E-002   -5.480805926263326E-023
 -2.490000000000000E-002   -2.068332645043909E-023
 -2.480000000000000E-002    2.927783129747703E-023
 -2.470000000000000E-002    9.356457237475050E-023
 -2.460000000000000E-002    1.679516704915466E-022
 -2.450000000000000E-002    2.451395013891354E-022
 -2.440000000000000E-002    3.147320738825283E-022
 -2.430000000000000E-002    3.636790136483252E-022
 -2.420000000000000E-002    3.772800358814510E-022
 -2.410000000000000E-002    3.407992193568003E-022
 -2.400000000000000E-002    2.416590515936728E-022
 -2.390000000000000E-002    7.208512801626624E-023
 -2.380000000000000E-002   -1.680417614161159E-022
 -2.370000000000000E-002   -4.684842650887004E-022
 -2.360000000000000E-002   -8.065569882754677E-022
 -2.350000000000000E-002   -1.146167186198319E-021
 -2.340000000000000E-002   -1.438517378328915E-021
 -2.330000000000000E-002   -1.624926601082467E-021
 -2.320000000000000E-002   -1.642063829365438E-021
 -2.310000000000000E-002   -1.429623502805532E-021
 -2.300000000000000E-002   -9.401199371108970E-022
 -2.290000000000000E-002   -1.500575069759976E-022
 -2.280000000000000E-002    9.287117190265451E-022
 -2.270000000000000E-002    2.239041619282012E-021
 -2.260000000000000E-002    3.671862594949635E-021
 -2.250000000000000E-002    5.064895983946836E-021
 -2.240000000000000E-002    6.208599011722374E-021
 -2.230000000000000E-002    6.860772820249748E-021
 -2.220000000000000E-002    6.770455641035062E-021
 -2.210000000000000E-002    5.710573702681799E-021
 -2.200000000000000E-002    3.517404986853191E-021
 -2.190000000000000E-002    1.333334856624384E-022
 -2.180000000000000E-002   -4.352160813450712E-021
 -2.170000000000000E-002   -9.669608215689709E-021
 -2.160000000000000E-002   -1.535182055184795E-020
 -2.150000000000000E-002   -2.073835603868596E-020
 -2.140000000000000E-002   -2.500813286974318E-020
 -2.130000000000000E-002   -2.724394890880660E-020
 -2.120000000000000E-002   -2.652925876163224E-020
 -2.110000000000000E-002   -2.207316949117996E-020
 -2.100000000000000E-002   -1.335451353423561E-020
 -2.090000000000000E-002   -2.706143594755208E-022
 -2.080000000000000E-002    1.672834630733114E-020
 -2.070000000000000E-002    3.654182278783598E-020
 -2.060000000000000E-002    5.738186224276053E-020
 -2.050000000000000E-002    7.681838271045215E-020
 -2.040000000000000E-002    9.192329752606439E-020
 -2.030000000000000E-002    9.952099710633710E-020
 -2.020000000000000E-002    9.654028835556515E-020
 -2.010000000000000E-002    8.044773205501629E-020
 -2.000000000000000E-002    4.972598062851704E-020
 -1.990000000000000E-002    4.344956888379571E-021
 -1.980000000000000E-002   -5.383888175341083E-020
 -1.970000000000000E-002   -1.208272883497620E-019
 -1.960000000000000E-002   -1.904402914170047E-019
 -1.950000000000000E-002   -2.545523513246503E-019
 -1.940000000000000E-002   -3.036439854681501E-019
 -1.930000000000000E-002   -3.276762537503319E-019
 -1.920000000000000E-002   -3.172541070594541E-019
 -1.910000000000000E-002   -2.649981322079941E-019
 -1.900000000000000E-002   -1.669962490406193E-019
 -1.890000000000000E-002   -2.416502962938742E-020
 -1.880000000000000E-002    1.566796034781695E-019
 -1.870000000000000E-002    3.622527613095333E-019
 -1.860000000000000E-002    5.729277806314097E-019
 -1.850000000000000E-002    7.637108799344540E-019
 -1.840000000000000E-002    9.061394480294637E-019
 -1.830000000000000E-002    9.710767232297515E-019
 -1.820000000000000E-002    9.322528629946072E-019
 -1.810000000000000E-002    7.702696338954766E-019
 -1.800000000000000E-002    4.766601860907384E-019
 -1.790000000000000E-002    5.749403912250511E-020
 -1.780000000000000E-002   -4.640408842233424E-019
 -1.770000000000000E-002   -1.046644334676561E-018
 -1.760000000000000E-002   -1.631985699508877E-018
 -1.750000000000000E-002   -2.148192975972386E-018
 -1.740000000000000E-002   -2.515842931207168E-018
 -1.730000000000000E-002   -2.656247094882599E-018
 -1.720000000000000E-002   -2.501488424956879E-018
 -1.710000000000000E-002   -2.005319819887744E-018
 -1.700000000000000E-002   -1.153730662129645E-018
 -1.690000000000000E-002    2.622850278678996E-020
 -1.680000000000000E-002    1.460855963156732E-018
 -1.670000000000000E-002    3.028846467456007E-018
 -1.660000000000000E-002    4.566088764985493E-018
 -1.650000000000000E-002    5.876836176314527E-018
 -1.640000000000000E-002    6.751199022581689E-018
 -1.630000000000000E-002    6.988098963537100E-018
 -1.620000000000000E-002    6.421958783166080E-018
 -1.610000000000000E-002    4.950580041866365E-018
 -1.600000000000000E-002    2.560984391317626E-018
 -1.590000000000000E-002   -6.504120235241808E-019
 -1.580000000000000E-002   -4.466944024702530E-018
 -1.570000000000000E-002   -8.553399879049069E-018
 -1.560000000000000E-002   -1.247260082881647E-017
 -1.550000000000000E-002   -1.571780276795394E-017
 -1.540000000000000E-002   -1.776007928259116E-017
 -1.530000000000000E-002   -1.810785631718315E-017
 -1.520000000000000E-002   -1.637369356848282E-017
 -1.510000000000000E-002   -1.234158037447193E-017
 -1.500000000000000E-002   -6.026647361549498E-018
 -1.490000000000000E-002    2.281412804762982E-018
 -1.480000000000000E-002    1.199960678918775E-017
 -1.470000000000000E-002    2.226452760235547E-017
 -1.460000000000000E-002    3.198128190494229E-017
 -1.450000000000000E-002    3.990931185504084E-017
 -1.440000000000000E-002    4.478164761509306E-017
 -1.430000000000000E-002    4.544945184696202E-017
 -1.420000000000000E-002    4.103921237729204E-017
 -1.410000000000000E-002    3.110607308497386E-017
 -1.400000000000000E-002    1.576435841584511E-017
 -1.390000000000000E-002   -4.224350672922779E-018
 -1.380000000000000E-002   -2.742356603411779E-017
 -1.370000000000000E-002   -5.176864606482047E-017
 -1.360000000000000E-002   -7.469541333169498E-017
 -1.350000000000000E-002   -9.334974409930612E-017
 -1.340000000000000E-002   -1.048673452798611E-016
 -1.330000000000000E-002   -1.067029153827155E-016
 -1.320000000000000E-002   -9.697832930537880E-017
 -1.310000000000000E-002   -7.481233351145887E-017
 -1.300000000000000E-002   -4.059002863408658E-017
 -1.290000000000000E-002    3.869384098821844E-018
 -1.280000000000000E-002    5.528290870144029E-017
 -1.270000000000000E-002    1.090382333989566E-016
 -1.260000000000000E-002    1.595034824481542E-016
 -1.250000000000000E-002    2.005045614555919E-016
 -1.240000000000000E-002    2.259417425873218E-016
 -1.230000000000000E-002    2.304961013296078E-016
 -1.220000000000000E-002    2.103586456244512E-016
 -1.210000000000000E-002    1.639013833555227E-016
 -1.200000000000000E-002    9.220386461300138E-017
 -1.190000000000000E-002   -6.476340367486168E-019
 -1.180000000000000E-002   -1.075579303287389E-016
 -1.170000000000000E-002   -2.187632656949087E-016
 -1.160000000000000E-002   -3.225274386293979E-016
 -1.150000000000000E-002   -4.061678874332552E-016
 -1.140000000000000E-002   -4.573438639871983E-016
 -1.130000000000000E-002   -4.654993521958349E-016
 -1.120000000000000E-002   -4.233186674396946E-016
 -1.110000000000000E-002   -3.280319451134779E-016
 -1.100000000000000E-002   -1.823993104845307E-016
 -1.090000000000000E-002    4.783940476550633E-018
 -1.080000000000000E-002    2.187882087703757E-016
 -1.070000000000000E-002    4.397328588407848E-016
 -1.060000000000000E-002    6.440605115633271E-016
 -1.050000000000000E-002    8.066362149118877E-016
 -1.040000000000000E-002    9.033233654289209E-016
 -1.030000000000000E-002    9.138153805253306E-016
 -1.020000000000000E-002    8.244414512176208E-016
 -1.010000000000000E-002    6.306302929671296E-016
 -1.000000000000000E-002    3.387086821409237E-016
 -9.899999999999999E-003   -3.325649859408753E-017
 -9.800000000000000E-003   -4.557979389758107E-016
 -9.699999999999999E-003   -8.896927429504281E-016
 -9.599999999999999E-003   -1.288909558933577E-015
 -9.500000000000000E-003   -1.604706506184865E-015
 -9.399999999999999E-003   -1.790587961974985E-015
 -9.299999999999999E-003   -1.807687676343265E-015
 -9.200000000000000E-003   -1.630048985487755E-015
 -9.099999999999999E-003   -1.249210357803182E-015
 -8.999999999999999E-003   -6.775077008891458E-016
 -8.900000000000000E-003    5.043422000681173E-017
 -8.799999999999999E-003    8.784171134570979E-016
 -8.699999999999999E-003    1.731800416201825E-015
 -8.600000000000000E-003    2.523020759398407E-015
 -8.499999999999999E-003    3.159212765682462E-015
 -8.399999999999999E-003    3.551383860794726E-015
 -8.300000000000000E-003    3.624359933851663E-015
 -8.199999999999999E-003    3.326537592333581E-015
 -8.100000000000000E-003    2.638389843130829E-015
 -8.000000000000000E-003    1.578665104435330E-015
 -7.899999999999999E-003    2.073463383496997E-016
 -7.800000000000000E-003   -1.375342498205715E-015
 -7.699999999999999E-003   -3.034256106841034E-015
 -7.599999999999999E-003   -4.608941685206053E-015
 -7.499999999999999E-003   -5.927062757006076E-015
 -7.399999999999999E-003   -6.820690332351468E-015
 -7.299999999999999E-003   -7.144111469348726E-015
 -7.199999999999999E-003   -6.791491993438399E-015
 -7.100000000000000E-003   -5.712555411243160E-015
 -6.999999999999999E-003   -3.924427159020932E-015
 -6.899999999999999E-003   -1.517983276957812E-015
 -6.800000000000000E-003    1.342583209589484E-015
 -6.699999999999999E-003    4.427714446394307E-015
 -6.599999999999999E-003    7.458008871890877E-015
 -6.499999999999999E-003    1.012659250114651E-014
 -6.399999999999999E-003    1.212683148849050E-014
 -6.299999999999999E-003    1.318319621175698E-014
 -6.199999999999999E-003    1.308247639212966E-014
 -6.100000000000000E-003    1.170223981619821E-014
 -5.999999999999999E-003    9.033335622642303E-015
 -5.899999999999999E-003    5.193507707693595E-015
 -5.800000000000000E-003    4.297496807307865E-016
 -5.699999999999999E-003   -4.892095343965168E-015
 -5.599999999999999E-003   -1.031083683293787E-014
 -5.499999999999999E-003   -1.530564656905189E-014
 -5.399999999999999E-003   -1.934170657091203E-014
 -5.299999999999999E-003   -2.192229254941445E-014
 -5.199999999999999E-003   -2.264275684198574E-014
 -5.099999999999999E-003   -2.124114792153898E-014
 -4.999999999999999E-003   -1.763999129769456E-014
 -4.899999999999999E-003   -1.197400981048494E-014
 -4.799999999999999E-003   -4.599410532542610E-015
 -4.699999999999999E-003    3.918272081068907E-015
 -4.599999999999999E-003    1.283893554224389E-014
 -4.499999999999999E-003    2.130430843879224E-014
 -4.399999999999999E-003    2.841266500324321E-014
 -4.299999999999999E-003    3.330634347617056E-014
 -4.199999999999999E-003    3.526455267505163E-014
 -4.099999999999999E-003    3.379261658166376E-014
 -3.999999999999999E-003    2.869806883284718E-014
 -3.899999999999999E-003    2.014423690781410E-014
 -3.799999999999999E-003    8.673231237700461E-015
 -3.699999999999999E-003   -4.807700074443484E-015
 -3.599999999999999E-003   -1.907927382926370E-014
 -3.499999999999999E-003   -3.270200723253767E-014
 -3.399999999999999E-003   -4.414184926915185E-014
 -3.299999999999999E-003   -5.192061997779467E-014
 -3.199999999999999E-003   -5.477866448867742E-014
 -3.099999999999999E-003   -5.183418344238840E-014
 -2.999999999999999E-003   -4.272229779210332E-014
 -2.899999999999999E-003   -2.769679909684639E-014
 -2.799999999999999E-003   -7.679322006690545E-015
 -2.699999999999999E-003    1.575564284252854E-014
 -2.599999999999999E-003    4.046641766126325E-014
 -2.499999999999999E-003    6.390025109803425E-014
 -2.399999999999999E-003    8.331239873341710E-014
 -2.299999999999999E-003    9.603307824396797E-014
 -2.199999999999999E-003    9.976031189858404E-014
 -2.099999999999999E-003    9.285128316272998E-014
 -1.999999999999999E-003    7.458130430186993E-014
 -1.899999999999999E-003    4.533933495413691E-014
 -1.799999999999999E-003    6.731413943537930E-015
 -1.699999999999999E-003   -3.843035834399074E-014
 -1.599999999999999E-003   -8.626651998400786E-014
 -1.499999999999999E-003   -1.320981952564811E-013
 -1.399999999999999E-003   -1.708323217994552E-013
 -1.299999999999999E-003   -1.974385527241750E-013
 -1.199999999999999E-003   -2.074794969799301E-013
 -1.099999999999999E-003   -1.976452860945181E-013
 -9.999999999999989E-004   -1.662374826565297E-013
 -8.999999999999990E-004   -1.135457652586125E-013
 -7.999999999999990E-004   -4.206498373388966E-014
 -6.999999999999989E-004    4.348904897052074E-014
 -5.999999999999990E-004    1.363905801923899E-013
 -4.999999999999989E-004    2.283469885191232E-013
 -3.999999999999989E-004    3.101547317783020E-013
 -2.999999999999989E-004    3.725251565611616E-013
 -1.999999999999989E-004    4.070141247882419E-013
 -9.999999999999892E-005    4.069706494898093E-013
  1.084202172485504E-018    3.684086613152264E-013
  1.000000000000011E-004    2.907031563347864E-013
  2.000000000000011E-004    1.770191284847056E-013
  3.000000000000011E-004    3.439972533941402E-014
  4.000000000000011E-004   -1.265319308273454E-013
  5.000000000000011E-004   -2.922674795890782E-013
  6.000000000000011E-004   -4.474742781641003E-013
  7.000000000000011E-004   -5.763506185898158E-013
  8.000000000000011E-004   -6.641644037918677E-013
  9.000000000000012E-004   -6.988340919934523E-013
  1.000000000000001E-003   -6.723916405782710E-013
  1.100000000000001E-003   -5.821637769140893E-013
  1.200000000000001E-003   -4.315202367511417E-013
  1.300000000000001E-003   -2.300698321154413E-013
  1.400000000000001E-003    6.769219612992885E-015
  1.500000000000001E-003    2.588382950425914E-013
  1.600000000000001E-003    5.028942628666654E-013
  1.700000000000001E-003    7.147310715417459E-013
  1.800000000000001E-003    8.715862972406690E-013
  1.900000000000001E-003    9.546037168390566E-013
  2.000000000000001E-003    9.510944431979075E-013
  2.100000000000001E-003    8.563387823749318E-013
  2.200000000000001E-003    6.746952978643553E-013
  2.300000000000001E-003    4.198371513063536E-013
  2.400000000000001E-003    1.140134553010726E-013
  2.500000000000001E-003   -2.136700132618551E-013
  2.600000000000001E-003   -5.298504788202460E-013
  2.700000000000001E-003   -8.001842919833843E-013
  2.800000000000001E-003   -9.930010695382425E-013
  2.900000000000001E-003   -1.082972236262333E-012
  3.000000000000001E-003   -1.054392102534956E-012
  3.100000000000001E-003   -9.036801074292449E-013
  3.200000000000001E-003   -6.407580796480703E-013
  3.300000000000001E-003   -2.890536334404866E-013
  3.400000000000001E-003    1.159960552109197E-013
  3.500000000000001E-003    5.299077128316802E-013
  3.600000000000001E-003    9.033885893601068E-013
  3.700000000000001E-003    1.187494102650468E-012
  3.800000000000001E-003    1.339218755237817E-012
  3.900000000000001E-003    1.326941845507076E-012
  4.000000000000001E-003    1.135112658784489E-012
  4.100000000000001E-003    7.675867447511957E-013
  4.200000000000001E-003    2.491173286609600E-013
  4.300000000000001E-003   -3.753343975018037E-013
  4.400000000000001E-003   -1.043599238552115E-012
  4.500000000000001E-003   -1.681499759372037E-012
  4.600000000000002E-003   -2.209886296020612E-012
  4.700000000000001E-003   -2.552913056647504E-012
  4.800000000000001E-003   -2.646769612629764E-012
  4.900000000000002E-003   -2.447962882804307E-012
  5.000000000000001E-003   -1.940206079054487E-012
  5.100000000000001E-003   -1.139047053911426E-012
  5.200000000000001E-003   -9.352303469039375E-014
  5.300000000000002E-003    1.115606644531634E-012
  5.400000000000001E-003    2.381175823748023E-012
  5.500000000000001E-003    3.578229320347208E-012
  5.600000000000002E-003    4.575326941515771E-012
  5.700000000000001E-003    5.247578948491546E-012
  5.800000000000001E-003    5.490189592622019E-012
  5.900000000000002E-003    5.231137598154023E-012
  6.000000000000001E-003    4.441593064977523E-012
  6.100000000000001E-003    3.142794883343445E-012
  6.200000000000002E-003    1.408386004348157E-012
  6.300000000000002E-003   -6.384056895810291E-013
  6.400000000000001E-003   -2.832857698776166E-012
  6.500000000000001E-003   -4.981696677774140E-012
  6.600000000000002E-003   -6.879935350433589E-012
  6.700000000000001E-003   -8.330172704514858E-012
  6.800000000000001E-003   -9.162566264583324E-012
  6.900000000000002E-003   -9.253489186572550E-012
  7.000000000000001E-003   -8.540871404741075E-012
  7.100000000000001E-003   -7.034450921174170E-012
  7.200000000000002E-003   -4.819542150567446E-012
  7.300000000000002E-003   -2.053520367865557E-012
  7.400000000000001E-003    1.045085961601873E-012
  7.500000000000001E-003    4.214249705344377E-012
  7.600000000000002E-003    7.171461425823150E-012
  7.700000000000001E-003    9.640096478215653E-012
  7.800000000000001E-003    1.137662861412543E-011
  7.900000000000001E-003    1.219599917708122E-011
  8.000000000000002E-003    1.199242496228782E-011
  8.100000000000001E-003    1.075329901413725E-011
  8.200000000000001E-003    8.564389602142129E-012
  8.300000000000002E-003    5.605350506163930E-012
  8.400000000000001E-003    2.135523372932208E-012
  8.500000000000002E-003   -1.529000949367120E-012
  8.600000000000002E-003   -5.045117636334511E-012
  8.700000000000001E-003   -8.076488965516702E-012
  8.800000000000002E-003   -1.032804309477056E-011
  8.900000000000002E-003   -1.157764470156560E-011
  9.000000000000001E-003   -1.170146382215549E-011
  9.100000000000002E-003   -1.069007505334113E-011
  9.200000000000002E-003   -8.653159739408321E-012
  9.300000000000001E-003   -5.811745997828595E-012
  9.400000000000002E-003   -2.478214501134718E-012
  9.500000000000001E-003    9.743920986470438E-013
  9.600000000000001E-003    4.151018138123087E-012
  9.700000000000002E-003    6.677427210031163E-012
  9.800000000000001E-003    8.242835652664994E-012
  9.900000000000001E-003    8.637732690347093E-012
  1.000000000000000E-002    7.782497465945036E-012
  1.010000000000000E-002    5.743227631264952E-012
  1.020000000000000E-002    2.732301445254483E-012
  1.030000000000000E-002   -9.072606764956470E-013
  1.040000000000000E-002   -4.732923332615773E-012
  1.050000000000000E-002   -8.246804939300838E-012
  1.060000000000000E-002   -1.094890496724068E-011
  1.070000000000000E-002   -1.239423624193091E-011
  1.080000000000000E-002   -1.224785602696976E-011
  1.090000000000000E-002   -1.033178794855328E-011
  1.100000000000000E-002   -6.658185930220548E-012
  1.110000000000000E-002   -1.444249922517296E-012
  1.120000000000000E-002    4.893946710888410E-012
  1.130000000000000E-002    1.176957051282306E-011
  1.140000000000000E-002    1.847361875459760E-011
  1.150000000000000E-002    2.424031984633973E-011
  1.160000000000000E-002    2.832367505126292E-011
  1.170000000000000E-002    3.007792983533685E-011
  1.180000000000000E-002    2.903392192597907E-011
  1.190000000000000E-002    2.496310567203396E-011
  1.200000000000000E-002    1.792182101709183E-011
  1.210000000000000E-002    8.269945748090060E-012
  1.220000000000000E-002   -3.339742914066037E-012
  1.230000000000000E-002   -1.600243064657047E-011
  1.240000000000000E-002   -2.863020817970088E-011
  1.250000000000000E-002   -4.004405729479391E-011
  1.260000000000000E-002   -4.908121995588022E-011
  1.270000000000000E-002   -5.470826601012566E-011
  1.280000000000000E-002   -5.612905834975270E-011
  1.290000000000000E-002   -5.287666270706981E-011
  1.300000000000000E-002   -4.487930812374306E-011
  1.310000000000000E-002   -3.249236259916465E-011
  1.320000000000000E-002   -1.649141316580041E-011
  1.330000000000000E-002    1.975108555320485E-012
  1.340000000000000E-002    2.147125200842842E-011
  1.350000000000000E-002    4.039055568511124E-011
  1.360000000000000E-002    5.709500038809364E-011
  1.370000000000000E-002    7.006364315739130E-011
  1.380000000000000E-002    7.803695371419696E-011
  1.390000000000000E-002    8.014284344613385E-011
  1.400000000000000E-002    7.599141516047943E-011
  1.410000000000000E-002    6.572799531913578E-011
  1.420000000000000E-002    5.003767318023613E-011
  1.430000000000000E-002    3.009888754374938E-011
  1.440000000000000E-002    7.488813854944841E-012
  1.450000000000000E-002   -1.595213124562580E-011
  1.460000000000000E-002   -3.828487465542772E-011
  1.470000000000000E-002   -5.765019907619441E-011
  1.480000000000000E-002   -7.244421077908865E-011
  1.490000000000000E-002   -8.147316667681673E-011
  1.500000000000000E-002   -8.407191355962517E-011
  1.510000000000000E-002   -8.017260500104490E-011
  1.520000000000000E-002   -7.031555627993020E-011
  1.530000000000000E-002   -5.559919254515928E-011
  1.540000000000000E-002   -3.757221951442167E-011
  1.550000000000000E-002   -1.807731995435696E-011
  1.560000000000000E-002    9.391918762036888E-013
  1.570000000000000E-002    1.763308499607178E-011
  1.580000000000000E-002    3.046239872096141E-011
  1.590000000000000E-002    3.836074450621371E-011
  1.600000000000000E-002    4.086430121400976E-011
  1.610000000000000E-002    3.817719310535969E-011
  1.620000000000000E-002    3.116528553389746E-011
  1.630000000000000E-002    2.127601175821490E-011
  1.640000000000000E-002    1.038893694324387E-011
  1.650000000000000E-002    6.097132632105146E-013
  1.660000000000000E-002   -5.973578864067287E-012
  1.670000000000000E-002   -7.547513202610207E-012
  1.680000000000000E-002   -2.817096912538552E-012
  1.690000000000000E-002    8.790806593992680E-012
  1.700000000000000E-002    2.698868058259018E-011
  1.710000000000000E-002    5.057317605240501E-011
  1.720000000000000E-002    7.746520582989368E-011
  1.730000000000000E-002    1.048474779329560E-010
  1.740000000000000E-002    1.293920365460866E-010
  1.750000000000000E-002    1.475606796003874E-010
  1.760000000000000E-002    1.559525629561552E-010
  1.770000000000000E-002    1.516671023001874E-010
  1.780000000000000E-002    1.326470129483470E-010
  1.790000000000000E-002    9.796583789206526E-011
  1.800000000000000E-002    4.802839387320849E-011
  1.810000000000000E-002   -1.534095077959305E-011
  1.820000000000000E-002   -8.893732654846160E-011
  1.830000000000000E-002   -1.683452986143164E-010
  1.840000000000000E-002   -2.482304819335849E-010
  1.850000000000000E-002   -3.227312605056925E-010
  1.860000000000000E-002   -3.859185939918990E-010
  1.870000000000000E-002   -4.322834372348713E-010