 -4.000000000000000E-002    0.000000000000000E+000
 -3.990000000000000E-002    0.000000000000000E+000
 -3.980000000000000E-002    0.000000000000000E+000
 -3.970000000000000E-002    0.000000000000000E+000
 -3.960000000000000E-002    0.000000000000000E+000
 -3.950000000000000E-002    0.000000000000000E+000
 -3.940000000000000E-002    0.000000000000000E+000
 -3.930000000000000E-002    0.000000000000000E+000
 -3.920000000000000E-002    0.000000000000000E+000
 -3.910000000000000E-002    0.000000000000000E+000
 -3.900000000000000E-002    0.000000000000000E+000
 -3.890000000000000E-002    0.000000000000000E+000
 -3.880000000000000E-002    0.000000000000000E+000
 -3.870000000000000E-002    0.000000000000000E+000
 -3.860000000000000E-002    0.000000000000000E+000
 -3.850000000000000E-002    0.000000000000000E+000
 -3.840000000000000E-002    0.000000000000000E+000
 -3.830000000000000E-002    0.000000000000000E+000
 -3.820000000000000E-002    0.000000000000000E+000
 -3.810000000000000E-002    0.000000000000000E+000
 -3.800000000000000E-002    0.000000000000000E+000
 -3.790000000000000E-002    0.000000000000000E+000
 -3.780000000000000E-002    0.000000000000000E+000
 -3.770000000000000E-002    0.000000000000000E+000
 -3.760000000000000E-002    0.000000000000000E+000
 -3.750000000000000E-002    0.000000000000000E+000
 -3.740000000000000E-002    0.000000000000000E+000
 -3.730000000000000E-002    0.000000000000000E+000
 -3.720000000000000E-002    0.000000000000000E+000
 -3.710000000000000E-002    0.000000000000000E+000
 -3.700000000000000E-002    0.000000000000000E+000
 -3.690000000000000E-002    0.000000000000000E+000
 -3.680000000000000E-002    0.000000000000000E+000
 -3.670000000000000E-002    0.000000000000000E+000
 -3.660000000000000E-002    0.000000000000000E+000
 -3.650000000000000E-002    0.000000000000000E+000
 -3.640000000000000E-002    0.000000000000000E+000
 -3.630000000000000E-002    0.000000000000000E+000
 -3.620000000000000E-002    0.000000000000000E+000
 -3.610000000000000E-002    0.000000000000000E+000
 -3.600000000000000E-002    0.000000000000000E+000
 -3.590000000000000E-002    0.000000000000000E+000
 -3.580000000000000E-002    0.000000000000000E+000
 -3.570000000000000E-002    0.000000000000000E+000
 -3.560000000000000E-002    0.000000000000000E+000
 -3.550000000000000E-002    0.000000000000000E+000
 -3.540000000000000E-002    0.000000000000000E+000
 -3.530000000000000E-002    0.000000000000000E+000
 -3.520000000000000E-002    0.000000000000000E+000
 -3.510000000000000E-002    0.000000000000000E+000
 -3.500000000000000E-002    0.000000000000000E+000
 -3.490000000000000E-002    0.000000000000000E+000
 -3.480000000000000E-002    0.000000000000000E+000
 -3.470000000000000E-002    0.000000000000000E+000
 -3.460000000000000E-002    0.000000000000000E+000
 -3.450000000000000E-002    0.000000000000000E+000
 -3.440000000000000E-002    0.000000000000000E+000
 -3.430000000000000E-002    0.000000000000000E+000
 -3.420000000000000E-002    0.000000000000000E+000
 -3.410000000000000E-002    0.000000000000000E+000
 -3.400000000000000E-002    0.000000000000000E+000
 -3.390000000000000E-002    0.000000000000000E+000
 -3.380000000000000E-002    0.000000000000000E+000
 -3.370000000000000E-002    0.000000000000000E+000
 -3.360000000000000E-002    0.000000000000000E+000
 -3.350000000000000E-002    0.000000000000000E+000
 -3.340000000000000E-002    0.000000000000000E+000
 -3.330000000000000E-002    0.000000000000000E+000
 -3.320000000000000E-002    0.000000000000000E+000
 -3.310000000000000E-002    0.000000000000000E+000
 -3.300000000000000E-002    0.000000000000000E+000
 -3.290000000000000E-002    0.000000000000000E+000
 -3.280000000000000E-002    0.000000000000000E+000
 -3.270000000000000E-002    0.000000000000000E+000
 -3.260000000000000E-002    0.000000000000000E+000
 -3.250000000000000E-002    0.000000000000000E+000
 -3.240000000000000E-002    0.000000000000000E+000
 -3.230000000000000E-002    0.000000000000000E+000
 -3.220000000000000E-002    0.000000000000000E+000
 -3.210000000000000E-002    0.000000000000000E+000
 -3.200000000000000E-002    0.000000000000000E+000
 -3.190000000000000E-002    0.000000000000000E+000
 -3.180000000000000E-002    0.000000000000000E+000
 -3.170000000000000E-002    0.000000000000000E+000
 -3.160000000000000E-002    0.000000000000000E+000
 -3.150000000000000E-002    0.000000000000000E+000
 -3.140000000000000E-002    0.000000000000000E+000
 -3.130000000000000E-002    0.000000000000000E+000
 -3.120000000000000E-002    0.000000000000000E+000
 -3.110000000000000E-002    0.000000000000000E+000
 -3.100000000000000E-002    0.000000000000000E+000
 -3.090000000000000E-002    0.000000000000000E+000
 -3.080000000000000E-002    0.000000000000000E+000
 -3.070000000000000E-002    0.000000000000000E+000
 -3.060000000000000E-002    0.000000000000000E+000
 -3.050000000000000E-002    0.000000000000000E+000
 -3.040000000000000E-002    0.000000000000000E+000
 -3.030000000000000E-002    0.000000000000000E+000
 -3.020000000000000E-002    0.000000000000000E+000
 -3.010000000000000E-002    0.000000000000000E+000
 -3.000000000000000E-002    0.000000000000000E+000
 -2.990000000000000E-002    0.000000000000000E+000
 -2.980000000000000E-002    0.000000000000000E+000
 -2.970000000000000E-002    0.000000000000000E+000
 -2.960000000000000E-002    0.000000000000000E+000
 -2.950000000000000E-002    0.000000000000000E+000
 -2.940000000000000E-002    0.000000000000000E+000
 -2.930000000000000E-002    0.000000000000000E+000
 -2.920000000000000E-002    0.000000000000000E+000
 -2.910000000000000E-002    0.000000000000000E+000
 -2.900000000000000E-002    0.000000000000000E+000
 -2.890000000000000E-002    0.000000000000000E+000
 -2.880000000000000E-002    0.000000000000000E+000
 -2.870000000000000E-002    0.000000000000000E+000
 -2.860000000000000E-002    0.000000000000000E+000
 -2.850000000000000E-002    0.000000000000000E+000
 -2.840000000000000E-002    0.000000000000000E+000
 -2.830000000000000E-002    0.000000000000000E+000
 -2.820000000000000E-002    0.000000000000000E+000
 -2.810000000000000E-002    0.000000000000000E+000
 -2.800000000000000E-002    0.000000000000000E+000
 -2.790000000000000E-002    0.000000000000000E+000
 -2.780000000000000E-002    0.000000000000000E+000
 -2.770000000000000E-002    0.000000000000000E+000
 -2.760000000000000E-002    0.000000000000000E+000
 -2.750000000000000E-002    0.000000000000000E+000
 -2.740000000000000E-002    0.000000000000000E+000
 -2.730000000000000E-002    0.000000000000000E+000
 -2.720000000000000E-002    0.000000000000000E+000
 -2.710000000000000E-002    0.000000000000000E+000
 -2.700000000000000E-002    0.000000000000000E+000
 -2.690000000000000E-002    0.000000000000000E+000
 -2.680000000000000E-002    0.000000000000000E+000
 -2.670000000000000E-002    0.000000000000000E+000
 -2.660000000000000E-002    0.000000000000000E+000
 -2.650000000000000E-002    0.000000000000000E+000
 -2.640000000000000E-002    0.000000000000000E+000
 -2.630000000000000E-002    0.000000000000000E+000
 -2.620000000000000E-002    0.000000000000000E+000
 -2.610000000000000E-002    0.000000000000000E+000
 -2.600000000000000E-002    0.000000000000000E+000
 -2.590000000000000E-002    0.000000000000000E+000
 -2.580000000000000E-002    0.000000000000000E+000
 -2.570000000000000E-002    0.000000000000000E+000
 -2.560000000000000E-002    0.000000000000000E+000
 -2.550000000000000E-002    0.000000000000000E+000
 -2.540000000000000E-002    0.000000000000000E+000
 -2.530000000000000E-002    0.000000000000000E+000
 -2.520000000000000E-002    0.000000000000000E+000
 -2.510000000000000E-002    0.000000000000000E+000
 -2.500000000000000E-002    0.000000000000000E+000
 -2.490000000000000E-002    0.000000000000000E+000
 -2.480000000000000E-002    0.000000000000000E+000
 -2.470000000000000E-002    0.000000000000000E+000
 -2.460000000000000E-002    0.000000000000000E+000
 -2.450000000000000E-002    0.000000000000000E+000
 -2.440000000000000E-002    0.000000000000000E+000
 -2.430000000000000E-002    0.000000000000000E+000
 -2.420000000000000E-002    0.000000000000000E+000
 -2.410000000000000E-002    0.000000000000000E+000
 -2.400000000000000E-002    0.000000000000000E+000
 -2.390000000000000E-002    0.000000000000000E+000
 -2.380000000000000E-002    0.000000000000000E+000
 -2.370000000000000E-002    0.000000000000000E+000
 -2.360000000000000E-002    0.000000000000000E+000
 -2.350000000000000E-002    0.000000000000000E+000
 -2.340000000000000E-002    0.000000000000000E+000
 -2.330000000000000E-002    0.000000000000000E+000
 -2.320000000000000E-002    0.000000000000000E+000
 -2.310000000000000E-002    0.000000000000000E+000
 -2.300000000000000E-002    0.000000000000000E+000
 -2.290000000000000E-002    0.000000000000000E+000
 -2.280000000000000E-002    0.000000000000000E+000
 -2.270000000000000E-002    0.000000000000000E+000
 -2.260000000000000E-002    0.000000000000000E+000
 -2.250000000000000E-002    0.000000000000000E+000
 -2.240000000000000E-002    0.000000000000000E+000
 -2.230000000000000E-002    0.000000000000000E+000
 -2.220000000000000E-002    0.000000000000000E+000
 -2.210000000000000E-002    0.000000000000000E+000
 -2.200000000000000E-002    0.000000000000000E+000
 -2.190000000000000E-002    0.000000000000000E+000
 -2.180000000000000E-002    0.000000000000000E+000
 -2.170000000000000E-002    0.000000000000000E+000
 -2.160000000000000E-002    0.000000000000000E+000
 -2.150000000000000E-002    0.000000000000000E+000
 -2.140000000000000E-002    0.000000000000000E+000
 -2.130000000000000E-002    0.000000000000000E+000
 -2.120000000000000E-002   -1.178255251416829E-047
 -2.110000000000000E-002   -9.626034127370027E-047
 -2.100000000000000E-002   -1.807381300332323E-046
 -2.090000000000000E-002   -2.652159187927642E-046
 -2.080000000000000E-002   -3.496937075522962E-046
 -2.070000000000000E-002   -4.223889437976600E-046
 -2.060000000000000E-002   -4.745146391761984E-046
 -2.050000000000000E-002   -3.785629562228097E-046
 -2.040000000000000E-002   -1.648482518622456E-046
 -2.030000000000000E-002    3.199772061458361E-046
 -2.020000000000000E-002    1.280989694112223E-045
 -2.010000000000000E-002    2.471709487142415E-045
 -2.000000000000000E-002    3.623435026574717E-045
 -1.990000000000000E-002    4.954736553327814E-045
 -1.980000000000000E-002    6.238714056753556E-045
 -1.970000000000000E-002    7.000479850003447E-045
 -1.960000000000000E-002    7.194388281053521E-045
 -1.950000000000000E-002    7.267735277090297E-045
 -1.940000000000000E-002    5.790292079536173E-045
 -1.930000000000000E-002    3.062476875008329E-045
 -1.920000000000000E-002   -3.127009644606757E-045
 -1.910000000000000E-002   -1.265814908844248E-044
 -1.900000000000000E-002   -2.519599745468535E-044
 -1.890000000000000E-002   -4.139431343201140E-044
 -1.880000000000000E-002   -5.978190329972484E-044
 -1.870000000000000E-002   -7.769038191143937E-044
 -1.860000000000000E-002   -9.325277737104779E-044
 -1.850000000000000E-002   -1.007497538944673E-043
 -1.840000000000000E-002   -9.467731484790153E-044
 -1.830000000000000E-002   -6.804386407710678E-044
 -1.820000000000000E-002   -1.281714127337715E-044
 -1.810000000000000E-002    7.692311389902780E-044
 -1.800000000000000E-002    2.052117727519910E-043
 -1.790000000000000E-002    3.706244528436561E-043
 -1.780000000000000E-002    5.654519358337293E-043
 -1.770000000000000E-002    7.702535995837064E-043
 -1.760000000000000E-002    9.541625371374888E-043
 -1.750000000000000E-002    1.074403883546867E-042
 -1.740000000000000E-002    1.073362470080791E-042
 -1.730000000000000E-002    8.843473329484782E-043
 -1.720000000000000E-002    4.374956939881668E-043
 -1.710000000000000E-002   -3.286654870929811E-043
 -1.700000000000000E-002   -1.453714342955908E-042
 -1.690000000000000E-002   -2.935347751409002E-042
 -1.680000000000000E-002   -4.706437795714215E-042
 -1.670000000000000E-002   -6.616982363809493E-042
 -1.660000000000000E-002   -8.412344505487965E-042
 -1.650000000000000E-002   -9.725037080744965E-042
 -1.640000000000000E-002   -1.007913577241701E-041
 -1.630000000000000E-002   -8.920465981834008E-042
 -1.620000000000000E-002   -5.669515253875046E-042
 -1.610000000000000E-002    1.953309430809604E-043
 -1.600000000000000E-002    9.009270799088554E-042
 -1.590000000000000E-002    2.078111380999639E-041
 -1.580000000000000E-002    3.502035210429914E-041
 -1.570000000000000E-002    5.058004774384510E-041
 -1.560000000000000E-002    6.551797748507933E-041
 -1.550000000000000E-002    7.704580928894030E-041
 -1.540000000000000E-002    8.157721395848581E-041
 -1.530000000000000E-002    7.494980803575641E-041
 -1.520000000000000E-002    5.284635370956264E-041
 -1.510000000000000E-002    1.144305400241510E-041
 -1.500000000000000E-002   -5.171199921418620E-041
 -1.490000000000000E-002   -1.366370578674356E-040
 -1.480000000000000E-002   -2.397578544197817E-040
 -1.470000000000000E-002   -3.528064021779452E-040
 -1.460000000000000E-002   -4.619931734938273E-040
 -1.450000000000000E-002   -5.477066994671723E-040
 -1.440000000000000E-002   -5.850528522442757E-040
 -1.430000000000000E-002   -5.455228371887657E-040
 -1.420000000000000E-002   -4.000283203511226E-040
 -1.410000000000000E-002   -1.234258145629572E-040
 -1.400000000000000E-002    2.995423673920417E-040
 -1.390000000000000E-002    8.672377714525009E-040
 -1.380000000000000E-002    1.553728894012376E-039
 -1.370000000000000E-002    2.302052201192624E-039
 -1.360000000000000E-002    3.019555031716237E-039
 -1.350000000000000E-002    3.577009344933849E-039
 -1.340000000000000E-002    3.813326579805366E-039
 -1.330000000000000E-002    3.547587732063324E-039
 -1.320000000000000E-002    2.599631803484913E-039
 -1.310000000000000E-002    8.196117635687876E-040
 -1.300000000000000E-002   -1.874401414847359E-039
 -1.290000000000000E-002   -5.453389715305257E-039
 -1.280000000000000E-002   -9.733590558156852E-039
 -1.270000000000000E-002   -1.433873247763688E-038
 -1.260000000000000E-002   -1.867704900135681E-038
 -1.250000000000000E-002   -2.194316810509730E-038
 -1.240000000000000E-002   -2.315523647240878E-038
 -1.230000000000000E-002   -2.123634321788840E-038
 -1.220000000000000E-002   -1.514600145859729E-038
 -1.210000000000000E-002   -4.061742166930346E-039
 -1.200000000000000E-002    1.239715250053604E-038
 -1.190000000000000E-002    3.392189381724365E-038
 -1.180000000000000E-002    5.927196372985746E-038
 -1.170000000000000E-002    8.607943924308044E-038
 -1.160000000000000E-002    1.107504919127234E-037
 -1.150000000000000E-002    1.285200126709479E-037
 -1.140000000000000E-002    1.337141939673332E-037
 -1.130000000000000E-002    1.202651908133292E-037
 -1.120000000000000E-002    8.250015505381862E-038
 -1.110000000000000E-002    1.619256761729648E-038
 -1.100000000000000E-002   -8.018256646710652E-038
 -1.090000000000000E-002   -2.041037896145756E-037
 -1.080000000000000E-002   -3.477429646662424E-037
 -1.070000000000000E-002   -4.970210672020651E-037
 -1.060000000000000E-002   -6.312538493194550E-037
 -1.050000000000000E-002   -7.236796867719079E-037
 -1.040000000000000E-002   -7.431387109863073E-037
 -1.030000000000000E-002   -6.571023046944137E-037
 -1.020000000000000E-002   -4.361181683955250E-037
 -1.010000000000000E-002   -5.954564829678234E-038
 -1.000000000000000E-002    4.777940509907178E-037
 -9.899999999999999E-003    1.158715236094353E-036
 -9.800000000000000E-003    1.937470362471362E-036
 -9.699999999999999E-003    2.735478530178699E-036
 -9.599999999999999E-003    3.440377231877487E-036
 -9.500000000000000E-003    3.909821273495785E-036
 -9.399999999999999E-003    3.981277963255549E-036
 -9.299999999999999E-003    3.488628557539802E-036
 -9.200000000000000E-003    2.285667020978122E-036
 -9.099999999999999E-003    2.755730340377941E-037
 -8.999999999999999E-003   -2.555805589637504E-036
 -8.900000000000000E-003   -6.106417542031555E-036
 -8.799999999999999E-003   -1.012913365105471E-035
 -8.699999999999999E-003   -1.421358371785320E-035
 -8.600000000000000E-003   -1.778538042300824E-035
 -8.499999999999999E-003   -2.012929885939899E-035
 -8.399999999999999E-003   -2.044179816307601E-035
 -8.300000000000000E-003   -1.791591309543089E-035
 -8.199999999999999E-003   -1.185783675645226E-035
 -8.100000000000000E-003   -1.829595806882565E-036
 -8.000000000000000E-003    1.219365222104394E-035
 -7.899999999999999E-003    2.966942620919250E-035
 -7.800000000000000E-003    4.936048083260690E-035
 -7.699999999999999E-003    6.926227080835790E-035
 -7.599999999999999E-003    8.661540161805893E-035
 -7.499999999999999E-003    9.803144497656816E-035
 -7.399999999999999E-003    9.975400154244930E-035
 -7.299999999999999E-003    8.806484543162715E-035
 -7.199999999999999E-003    5.982750086493635E-035
 -7.100000000000000E-003    1.313804638070377E-035
 -6.999999999999999E-003   -5.197310786203670E-035
 -6.899999999999999E-003   -1.328711462587561E-034
 -6.800000000000000E-003   -2.237853619085300E-034
 -6.699999999999999E-003   -3.155394290963346E-034
 -6.599999999999999E-003   -3.956712412386188E-034
 -6.499999999999999E-003   -4.490576657967413E-034
 -6.399999999999999E-003   -4.591264172119751E-034
 -6.299999999999999E-003   -4.096815877267580E-034
 -6.199999999999999E-003   -2.872904561881128E-034
 -6.100000000000000E-003   -8.408264099242634E-035
 -5.999999999999999E-003    1.992950828801456E-034
 -5.899999999999999E-003    5.509325989350706E-034
 -5.800000000000000E-003    9.455719953071741E-034
 -5.699999999999999E-003    1.343694981586574E-033
 -5.599999999999999E-003    1.692292379028352E-033
 -5.499999999999999E-003    1.927755252977301E-033
 -5.399999999999999E-003    1.981173229319799E-033
 -5.299999999999999E-003    1.786079185504618E-033
 -5.199999999999999E-003    1.288349048697253E-033
 -5.099999999999999E-003    4.575737302532303E-034
 -4.999999999999999E-003   -7.012044486007121E-034
 -4.899999999999999E-003   -2.136901942282070E-033
 -4.799999999999999E-003   -3.744772886146142E-033
 -4.699999999999999E-003   -5.363747691840739E-033
 -4.599999999999999E-003   -6.780654573473647E-033
 -4.499999999999999E-003   -7.742888232825883E-033
 -4.399999999999999E-003   -7.980413021724707E-033
 -4.299999999999999E-003   -7.236968555241412E-033
 -4.199999999999999E-003   -5.309027727899904E-033
 -4.099999999999999E-003   -2.089548701477064E-033
 -3.999999999999999E-003    2.388010468425335E-033
 -3.899999999999999E-003    7.911378367254499E-033
 -3.799999999999999E-003    1.406381761472711E-032
 -3.699999999999999E-003    2.021851212902777E-032
 -3.599999999999999E-003    2.555979091246492E-032
 -3.499999999999999E-003    2.913639419531652E-032
 -3.399999999999999E-003    2.994911684330261E-032
 -3.299999999999999E-003    2.707114340806708E-032
 -3.199999999999999E-003    1.979441747831213E-032
 -3.099999999999999E-003    7.789819051093489E-033
 -2.999999999999999E-003   -8.736610180093483E-033
 -2.899999999999999E-003   -2.891387357551193E-032
 -2.799999999999999E-003   -5.112811952561623E-032
 -2.699999999999999E-003   -7.302258759908289E-032
 -2.599999999999999E-003   -9.159817992204290E-032
 -2.499999999999999E-003   -1.034305583833252E-031
 -2.399999999999999E-003   -1.050081476417206E-031
 -2.299999999999999E-003   -9.318032599551642E-032
 -2.199999999999999E-003   -6.568687299350732E-032
 -2.099999999999999E-003   -2.172021566726829E-032
 -1.999999999999999E-003    3.754667991471931E-032
 -1.899999999999999E-003    1.085483518811036E-031
 -1.799999999999999E-003    1.851206400076054E-031
 -1.699999999999999E-003    2.585875335591764E-031
 -1.599999999999999E-003    3.182136996124019E-031
 -1.499999999999999E-003    3.520665971956585E-031
 -1.399999999999999E-003    3.482884843006644E-031
 -1.299999999999999E-003    2.967233986941618E-031
 -1.199999999999999E-003    1.907794529498284E-031
 -1.099999999999999E-003    2.934134140127625E-032
 -9.999999999999989E-004   -1.815126682528310E-031
 -8.999999999999990E-004   -4.272777947439768E-031
 -7.999999999999990E-004   -6.845799530713122E-031
 -6.999999999999989E-004   -9.218079643567119E-031
 -5.999999999999990E-004   -1.101042776281499E-030
 -4.999999999999989E-004   -1.181391033213166E-030
 -3.999999999999989E-004   -1.123673421578883E-030
 -2.999999999999989E-004   -8.962186272411197E-031
 -1.999999999999989E-004   -4.812950643737471E-031
 -9.999999999999892E-005    1.185034896683239E-031
  1.084202172485504E-018    8.747955066847381E-031
  1.000000000000011E-004    1.729865589854763E-030
  2.000000000000011E-004    2.596054001261568E-030
  3.000000000000011E-004    3.358996840929815E-030
  4.000000000000011E-004    3.885367203949680E-030
  5.000000000000011E-004    4.035355837946143E-030
  6.000000000000011E-004    3.679560282668543E-030
  7.000000000000011E-004    2.719270694160132E-030
  8.000000000000011E-004    1.108412438908131E-030
  9.000000000000012E-004   -1.125304462747829E-030
  1.000000000000001E-003   -3.863049613640418E-030
  1.100000000000001E-003   -6.884715437837131E-030
  1.200000000000001E-003   -9.869272778783677E-030
  1.300000000000001E-003   -1.240852865876390E-029
  1.400000000000001E-003   -1.403619670860194E-029
  1.500000000000001E-003   -1.427273340701546E-029
  1.600000000000001E-003   -1.268442481033074E-029
  1.700000000000001E-003   -8.952961881318852E-030
  1.800000000000001E-003   -2.949362114701111E-030
  1.900000000000001E-003    5.196201965115588E-030
  2.000000000000001E-003    1.503875398385508E-029
  2.100000000000001E-003    2.578818350504951E-029
  2.200000000000001E-003    3.631494802692974E-029
  2.300000000000001E-003    4.520089129097442E-029
  2.400000000000001E-003    5.084090468205365E-029
  2.500000000000001E-003    5.159608981021391E-029
  2.600000000000001E-003    4.599281288403525E-029
  2.700000000000001E-003    3.295464512273035E-029
  2.800000000000001E-003    1.204659279687090E-029
  2.900000000000001E-003   -1.629597825016346E-029
  3.000000000000001E-003   -5.058661101729549E-029
  3.100000000000001E-003   -8.819059914251473E-029
  3.200000000000001E-003   -1.253455744993131E-028
  3.300000000000001E-003   -1.573280242683791E-028
  3.400000000000001E-003   -1.787831007945861E-028
  3.500000000000001E-003   -1.842189491201032E-028
  3.600000000000001E-003   -1.686470089663356E-028
  3.700000000000001E-003   -1.283264300216964E-028
  3.800000000000001E-003   -6.154758167301057E-029
  3.900000000000001E-003    3.063163014186206E-029
  4.000000000000001E-003    1.437992493542356E-028
  4.100000000000001E-003    2.698620080609940E-028
  4.200000000000001E-003    3.970822695351476E-028
  4.300000000000001E-003    5.105664479332960E-028
  4.400000000000001E-003    5.932571586622386E-028
  4.500000000000001E-003    6.274345284703836E-028
  4.600000000000002E-003    5.966701061643819E-028
  4.700000000000001E-003    4.881088406479413E-028
  4.800000000000001E-003    2.948845598982961E-028
  4.900000000000002E-003    1.841121971217373E-029
  5.000000000000001E-003   -3.297547206258816E-028
  5.100000000000001E-003   -7.268076920194631E-028
  5.200000000000001E-003   -1.138653711516756E-027
  5.300000000000002E-003   -1.521198463044667E-027
  5.400000000000001E-003   -1.823123507644622E-027
  5.500000000000001E-003   -1.990171814900486E-027
  5.600000000000002E-003   -1.970788804467610E-027
  5.700000000000001E-003   -1.722767753389356E-027
  5.800000000000001E-003   -1.220347079411951E-027
  5.900000000000002E-003   -4.610285303847752E-028
  6.000000000000001E-003    5.287511135636438E-028
  6.100000000000001E-003    1.690024128942091E-027
  6.200000000000002E-003    2.930664498244947E-027
  6.300000000000002E-003    4.128471993823548E-027
  6.400000000000001E-003    5.138443412386405E-027
  6.500000000000001E-003    5.804315402000951E-027
  6.600000000000002E-003    5.973982120973752E-027
  6.700000000000001E-003    5.517846695022125E-027
  6.800000000000001E-003    4.348612685392999E-027
  6.900000000000002E-003    2.440533707511503E-027
  7.000000000000001E-003   -1.542449307723967E-028
  7.100000000000001E-003   -3.294767207358062E-027
  7.200000000000002E-003   -6.748219615469640E-027
  7.300000000000002E-003   -1.019678295293926E-026
  7.400000000000001E-003   -1.325571019097971E-026
  7.500000000000001E-003   -1.550291216701179E-026
  7.600000000000002E-003   -1.651905312708851E-026
  7.700000000000001E-003   -1.593573457821569E-026
  7.800000000000001E-003   -1.348786394167988E-026
  7.900000000000001E-003   -9.065036091247622E-027
  8.000000000000002E-003   -2.755795025643332E-027
  8.100000000000001E-003    5.121844826000733E-027
  8.200000000000001E-003    1.400991575714577E-026
  8.300000000000002E-003    2.312537853477811E-026
  8.400000000000001E-003    3.150378886211244E-026
  8.500000000000002E-003    3.807251373198012E-026
  8.600000000000002E-003    4.175097899176980E-026
  8.700000000000001E-003    4.157176462718688E-026
  8.800000000000002E-003    3.681268158837055E-026
  8.900000000000002E-003    2.712672715094633E-026
  9.000000000000001E-003    1.265444993104592E-026
  9.100000000000002E-003   -5.897804841103305E-027
  9.200000000000002E-003   -2.722949323309047E-026
  9.300000000000001E-003   -4.948044201340050E-026
  9.400000000000002E-003   -7.033657001213506E-026
  9.500000000000001E-003   -8.720834774889275E-026
  9.600000000000001E-003   -9.747530779211932E-026
  9.700000000000002E-003   -9.878084257340851E-026
  9.800000000000001E-003   -8.935264751186050E-026
  9.900000000000001E-003   -6.831610723920911E-026
  1.000000000000000E-002   -3.596295299585941E-026
  1.010000000000000E-002    6.065288953764056E-027
  1.020000000000000E-002    5.471643761275080E-026
  1.030000000000000E-002    1.056202172013774E-025
  1.040000000000000E-002    1.533524570402724E-025
  1.050000000000000E-002    1.918724620102433E-025
  1.060000000000000E-002    2.151148675796060E-025
  1.070000000000000E-002    2.176954627683873E-025
  1.080000000000000E-002    1.956689827061561E-025
  1.090000000000000E-002    1.472589846290811E-025
  1.100000000000000E-002    7.346790170322140E-026
  1.110000000000000E-002   -2.152811350657339E-026
  1.120000000000000E-002   -1.302871349092651E-025
  1.130000000000000E-002   -2.423810694100528E-025
  1.140000000000000E-002   -3.450837844295803E-025
  1.150000000000000E-002   -4.244634705044393E-025
  1.160000000000000E-002   -4.668253311508060E-025
  1.170000000000000E-002   -4.603986251179074E-025
  1.180000000000000E-002   -3.971118946548370E-025
  1.190000000000000E-002   -2.742608148747870E-025
  1.200000000000000E-002   -9.584680913137801E-026
  1.210000000000000E-002    1.266375245612636E-025
  1.220000000000000E-002    3.741769049089876E-025
  1.230000000000000E-002    6.211044417525581E-025
  1.240000000000000E-002    8.369442905954867E-025
  1.250000000000000E-002    9.891917290913524E-025
  1.260000000000000E-002    1.046875102510649E-024
  1.270000000000000E-002    9.846226434113785E-025
  1.280000000000000E-002    7.868398488901129E-025
  1.290000000000000E-002    4.515153252379567E-025
  1.300000000000000E-002   -6.877117649630255E-027
  1.310000000000000E-002   -5.559056000001414E-025
  1.320000000000000E-002   -1.145595399883781E-024
  1.330000000000000E-002   -1.711047813769807E-024
  1.340000000000000E-002   -2.177381851734029E-024
  1.350000000000000E-002   -2.466855264456048E-024
  1.360000000000000E-002   -2.507737373957885E-024
  1.370000000000000E-002   -2.244208284093029E-024
  1.380000000000000E-002   -1.646299104976741E-024
  1.390000000000000E-002   -7.186851248467459E-025
  1.400000000000000E-002    4.929435287659816E-025
  1.410000000000000E-002    1.899176158175312E-024
  1.420000000000000E-002    3.368881355702099E-024
  1.430000000000000E-002    4.736597356125790E-024
  1.440000000000000E-002    5.815492670155398E-024
  1.450000000000000E-002    6.415440565040936E-024
  1.460000000000000E-002    6.365069691568095E-024
  1.470000000000000E-002    5.535939715676728E-024
  1.480000000000000E-002    3.866406491556187E-024
  1.490000000000000E-002    1.382283972681315E-024
  1.500000000000000E-002   -1.788764069583200E-024
  1.510000000000000E-002   -5.412008822349816E-024
  1.520000000000000E-002   -9.152029830678519E-024
  1.530000000000000E-002   -1.259216817103510E-023
  1.540000000000000E-002   -1.526731458491189E-023
  1.550000000000000E-002   -1.670877210875185E-023
  1.560000000000000E-002   -1.649827681096150E-023
  1.570000000000000E-002   -1.432664325925720E-023
  1.580000000000000E-002   -1.005108352711866E-023
  1.590000000000000E-002   -3.744280611167728E-024
  1.600000000000000E-002    4.272025617692418E-024
  1.610000000000000E-002    1.341583429598126E-023
  1.620000000000000E-002    2.286154556468775E-023
  1.630000000000000E-002    3.158790053791335E-023
  1.640000000000000E-002    3.845753972717523E-023
  1.650000000000000E-002    4.232500760508581E-023
  1.660000000000000E-002    4.216609545417604E-023
  1.670000000000000E-002    3.721776160293482E-023
  1.680000000000000E-002    2.711447547476831E-023
  1.690000000000000E-002    1.200483149357791E-023
  1.700000000000000E-002   -7.368594977238391E-024
  1.710000000000000E-002   -2.964201265646681E-023
  1.720000000000000E-002   -5.286858650293078E-023
  1.730000000000000E-002   -7.462967674739482E-023
  1.740000000000000E-002   -9.221987184352164E-023
  1.750000000000000E-002   -1.028983391142434E-022
  1.760000000000000E-002   -1.041900162050660E-022
  1.770000000000000E-002   -9.421169238915036E-023
  1.780000000000000E-002   -7.199069959064247E-023
  1.790000000000000E-002   -3.773886364483691E-023
  1.800000000000000E-002    6.956946195893910E-024
  1.810000000000000E-002    5.906405440146886E-023
  1.820000000000000E-002    1.141822413944381E-022
  1.830000000000000E-002    1.667885100739887E-022
  1.840000000000000E-002    2.106504399915593E-022
  1.850000000000000E-002    2.393913994060409E-022
  1.860000000000000E-002    2.471711365939595E-022
  1.870000000000000E-002    2.294259489460006E-022