 -4.000000000000000E-002    0.000000000000000E+000
 -3.990000000000000E-002    0.000000000000000E+000
 -3.980000000000000E-002    0.000000000000000E+000
 -3.970000000000000E-002    0.000000000000000E+000
 -3.960000000000000E-002    0.000000000000000E+000
 -3.950000000000000E-002    0.000000000000000E+000
 -3.940000000000000E-002    0.000000000000000E+000
 -3.930000000000000E-002    0.000000000000000E+000
 -3.920000000000000E-002    0.000000000000000E+000
 -3.910000000000000E-002    0.000000000000000E+000
 -3.900000000000000E-002    0.000000000000000E+000
 -3.890000000000000E-002    0.000000000000000E+000
 -3.880000000000000E-002    0.000000000000000E+000
 -3.870000000000000E-002    0.000000000000000E+000
 -3.860000000000000E-002    0.000000000000000E+000
 -3.850000000000000E-002    0.000000000000000E+000
 -3.840000000000000E-002    0.000000000000000E+000
 -3.830000000000000E-002    0.000000000000000E+000
 -3.820000000000000E-002    0.000000000000000E+000
 -3.810000000000000E-002    0.000000000000000E+000
 -3.800000000000000E-002    0.000000000000000E+000
 -3.790000000000000E-002    0.000000000000000E+000
 -3.780000000000000E-002    0.000000000000000E+000
 -3.770000000000000E-002    0.000000000000000E+000
 -3.760000000000000E-002    0.000000000000000E+000
 -3.750000000000000E-002    0.000000000000000E+000
 -3.740000000000000E-002    0.000000000000000E+000
 -3.730000000000000E-002    0.000000000000000E+000
 -3.720000000000000E-002    0.000000000000000E+000
 -3.710000000000000E-002    0.000000000000000E+000
 -3.700000000000000E-002    0.000000000000000E+000
 -3.690000000000000E-002    0.000000000000000E+000
 -3.680000000000000E-002    0.000000000000000E+000
 -3.670000000000000E-002    0.000000000000000E+000
 -3.660000000000000E-002    0.000000000000000E+000
 -3.650000000000000E-002    0.000000000000000E+000
 -3.640000000000000E-002    0.000000000000000E+000
 -3.630000000000000E-002    0.000000000000000E+000
 -3.620000000000000E-002    0.000000000000000E+000
 -3.610000000000000E-002    0.000000000000000E+000
 -3.600000000000000E-002    0.000000000000000E+000
 -3.590000000000000E-002    0.000000000000000E+000
 -3.580000000000000E-002    0.000000000000000E+000
 -3.570000000000000E-002    0.000000000000000E+000
 -3.560000000000000E-002    0.000000000000000E+000
 -3.550000000000000E-002    0.000000000000000E+000
 -3.540000000000000E-002    0.000000000000000E+000
 -3.530000000000000E-002    0.000000000000000E+000
 -3.520000000000000E-002    0.000000000000000E+000
 -3.510000000000000E-002    0.000000000000000E+000
 -3.500000000000000E-002    0.000000000000000E+000
 -3.490000000000000E-002    0.000000000000000E+000
 -3.480000000000000E-002    0.000000000000000E+000
 -3.470000000000000E-002    0.000000000000000E+000
 -3.460000000000000E-002    0.000000000000000E+000
 -3.450000000000000E-002    0.000000000000000E+000
 -3.440000000000000E-002    0.000000000000000E+000
 -3.430000000000000E-002    0.000000000000000E+000
 -3.420000000000000E-002    0.000000000000000E+000
 -3.410000000000000E-002    0.000000000000000E+000
 -3.400000000000000E-002    0.000000000000000E+000
 -3.390000000000000E-002    0.000000000000000E+000
 -3.380000000000000E-002    0.000000000000000E+000
 -3.370000000000000E-002    0.000000000000000E+000
 -3.360000000000000E-002    0.000000000000000E+000
 -3.350000000000000E-002    0.000000000000000E+000
 -3.340000000000000E-002    0.000000000000000E+000
 -3.330000000000000E-002    0.000000000000000E+000
 -3.320000000000000E-002    0.000000000000000E+000
 -3.310000000000000E-002    0.000000000000000E+000
 -3.300000000000000E-002    0.000000000000000E+000
 -3.290000000000000E-002    0.000000000000000E+000
 -3.280000000000000E-002    0.000000000000000E+000
 -3.270000000000000E-002    0.000000000000000E+000
 -3.260000000000000E-002    0.000000000000000E+000
 -3.250000000000000E-002    0.000000000000000E+000
 -3.240000000000000E-002    0.000000000000000E+000
 -3.230000000000000E-002    0.000000000000000E+000
 -3.220000000000000E-002    0.000000000000000E+000
 -3.210000000000000E-002    0.000000000000000E+000
 -3.200000000000000E-002    0.000000000000000E+000
 -3.190000000000000E-002    0.000000000000000E+000
 -3.180000000000000E-002    0.000000000000000E+000
 -3.170000000000000E-002    0.000000000000000E+000
 -3.160000000000000E-002    0.000000000000000E+000
 -3.150000000000000E-002    0.000000000000000E+000
 -3.140000000000000E-002    0.000000000000000E+000
 -3.130000000000000E-002    0.000000000000000E+000
 -3.120000000000000E-002    0.000000000000000E+000
 -3.110000000000000E-002    0.000000000000000E+000
 -3.100000000000000E-002    0.000000000000000E+000
 -3.090000000000000E-002   -4.953544471243522E-048
 -3.080000000000000E-002   -9.907088942487045E-048
 -3.070000000000000E-002   -9.907088942487045E-048
 -3.060000000000000E-002   -9.907088942487045E-048
 -3.050000000000000E-002    1.688708314495861E-048
 -3.040000000000000E-002    6.090770326538807E-047
 -3.030000000000000E-002    1.967545992493393E-046
 -3.020000000000000E-002    4.208251935233323E-046
 -3.010000000000000E-002    8.345133262924844E-046
 -3.000000000000000E-002    1.405771351470379E-045
 -2.990000000000000E-002    2.176774114311243E-045
 -2.980000000000000E-002    3.027966767751484E-045
 -2.970000000000000E-002    3.709542990726836E-045
 -2.960000000000000E-002    3.510837643769643E-045
 -2.950000000000000E-002    1.327439478959402E-045
 -2.940000000000000E-002   -3.619228772142540E-045
 -2.930000000000000E-002   -1.291690504552056E-044
 -2.920000000000000E-002   -2.824509838558203E-044
 -2.910000000000000E-002   -5.259459976259092E-044
 -2.900000000000000E-002   -8.632662831748122E-044
 -2.890000000000000E-002   -1.289895694030717E-043
 -2.880000000000000E-002   -1.761117127616382E-043
 -2.870000000000000E-002   -2.185677452731895E-043
 -2.860000000000000E-002   -2.363364019431105E-043
 -2.850000000000000E-002   -1.998118400412382E-043
 -2.840000000000000E-002   -6.304572206887291E-044
 -2.830000000000000E-002    2.340719786119757E-043
 -2.820000000000000E-002    7.666484890876932E-043
 -2.810000000000000E-002    1.610276917649857E-042
 -2.800000000000000E-002    2.825097358784524E-042
 -2.790000000000000E-002    4.422264075908094E-042
 -2.780000000000000E-002    6.312874643905215E-042
 -2.770000000000000E-002    8.242234475796304E-042
 -2.760000000000000E-002    9.703948922688737E-042
 -2.750000000000000E-002    9.857010568634632E-042
 -2.740000000000000E-002    7.448964242426085E-042
 -2.730000000000000E-002    7.942283367899672E-043
 -2.720000000000000E-002   -1.216277134092210E-041
 -2.710000000000000E-002   -3.361893001542500E-041
 -2.700000000000000E-002   -6.545732335912264E-041
 -2.690000000000000E-002   -1.084960524200695E-040
 -2.680000000000000E-002   -1.613686619880550E-040
 -2.670000000000000E-002   -2.190512582743716E-040
 -2.660000000000000E-002   -2.710989737218884E-040
 -2.650000000000000E-002   -2.998199623701870E-040
 -2.640000000000000E-002   -2.787789449333535E-040
 -2.630000000000000E-002   -1.722703349577765E-040
 -2.620000000000000E-002    6.336931712120748E-041
 -2.610000000000000E-002    4.755004836781956E-040
 -2.600000000000000E-002    1.106742884100820E-039
 -2.590000000000000E-002    1.981235601091526E-039
 -2.580000000000000E-002    3.084849500929584E-039
 -2.570000000000000E-002    4.339531999145963E-039
 -2.560000000000000E-002    5.573429571071541E-039
 -2.550000000000000E-002    6.490611077478794E-039
 -2.540000000000000E-002    6.647047747314051E-039
 -2.530000000000000E-002    5.442754818298692E-039
 -2.520000000000000E-002    2.143317707863502E-039
 -2.510000000000000E-002   -4.053424917292665E-039
 -2.500000000000000E-002   -1.388896934394361E-038
 -2.490000000000000E-002   -2.783983273219885E-038
 -2.480000000000000E-002   -4.583024567782872E-038
 -2.470000000000000E-002   -6.686818257692889E-038
 -2.460000000000000E-002   -8.863186185928253E-038
 -2.450000000000000E-002   -1.070624677553904E-037
 -2.440000000000000E-002   -1.160538323335420E-037
 -2.430000000000000E-002   -1.073680555728505E-037
 -2.420000000000000E-002   -7.094103649695917E-038
 -2.410000000000000E-002    4.235548803182545E-039
 -2.400000000000000E-002    1.284719137720488E-037
 -2.390000000000000E-002    3.088359319406761E-037
 -2.380000000000000E-002    5.456638193457355E-037
 -2.370000000000000E-002    8.282493455667037E-037
 -2.360000000000000E-002    1.130078450559333E-036
 -2.350000000000000E-002    1.404289983788935E-036
 -2.340000000000000E-002    1.580407969441522E-036
 -2.330000000000000E-002    1.563758627608728E-036
 -2.320000000000000E-002    1.239287454726694E-036
 -2.310000000000000E-002    4.816262192611179E-037
 -2.300000000000000E-002   -8.268943729356512E-037
 -2.290000000000000E-002   -2.769167793660424E-036
 -2.280000000000000E-002   -5.357180517788778E-036
 -2.270000000000000E-002   -8.488597766593064E-036
 -2.260000000000000E-002   -1.190024656434722E-035
 -2.250000000000000E-002   -1.512561514673109E-035
 -2.240000000000000E-002   -1.746668589004650E-035
 -2.230000000000000E-002   -1.799338330526565E-035
 -2.220000000000000E-002   -1.558597150053873E-035
 -2.210000000000000E-002   -9.035987762903187E-036
 -2.200000000000000E-002    2.781289728080775E-036
 -2.190000000000000E-002    2.065622974867927E-035
 -2.180000000000000E-002    4.472052635178968E-035
 -2.170000000000000E-002    7.406960283888028E-035
 -2.160000000000000E-002    1.063727898946611E-034
 -2.150000000000000E-002    1.375359495009724E-034
 -2.140000000000000E-002    1.615051683355733E-034
 -2.130000000000000E-002    1.703200350822818E-034
 -2.120000000000000E-002    1.545349990863466E-034
 -2.110000000000000E-002    1.041209983227936E-034
 -2.100000000000000E-002    9.929269043064254E-036
 -2.090000000000000E-002   -1.342606325975845E-034
 -2.080000000000000E-002   -3.291804286197843E-034
 -2.070000000000000E-002   -5.671992584143711E-034
 -2.060000000000000E-002   -8.294887190049372E-034
 -2.050000000000000E-002   -1.083744867385142E-033
 -2.040000000000000E-002   -1.283137725521944E-033
 -2.030000000000000E-002   -1.367266828939805E-033
 -2.020000000000000E-002   -1.265921926393350E-033
 -2.010000000000000E-002   -9.063376528557287E-034
 -2.000000000000000E-002   -2.243475000392844E-034
 -1.990000000000000E-002    8.206462586026760E-034
 -1.980000000000000E-002    2.227670047650450E-033
 -1.970000000000000E-002    3.934819570152791E-033
 -1.960000000000000E-002    5.801226746952079E-033
 -1.950000000000000E-002    7.594046971690324E-033
 -1.940000000000000E-002    8.984987251353251E-033
 -1.930000000000000E-002    9.561323266628047E-033
 -1.920000000000000E-002    8.856122402006155E-033
 -1.910000000000000E-002    6.401238907503775E-033
 -1.900000000000000E-002    1.804384872787183E-033
 -1.890000000000000E-002   -5.151922393204770E-033
 -1.880000000000000E-002   -1.439640546578349E-032
 -1.870000000000000E-002   -2.545248944721948E-032
 -1.860000000000000E-002   -3.733750215466922E-032
 -1.850000000000000E-002   -4.850127872490623E-032
 -1.840000000000000E-002   -5.683153697049792E-032
 -1.830000000000000E-002   -5.975406838111239E-032
 -1.820000000000000E-002   -5.445206717730123E-032
 -1.810000000000000E-002   -3.821955768420331E-032
 -1.800000000000000E-002   -8.948020648007843E-033
 -1.790000000000000E-002    3.427707080524213E-032
 -1.780000000000000E-002    9.052100577684138E-032
 -1.770000000000000E-002    1.563682465756040E-031
 -1.760000000000000E-002    2.254274150049815E-031
 -1.750000000000000E-002    2.881102233942975E-031
 -1.740000000000000E-002    3.318340309425865E-031
 -1.730000000000000E-002    3.417901231076461E-031
 -1.720000000000000E-002    3.023863045522605E-031
 -1.710000000000000E-002    1.994072504709481E-031
 -1.700000000000000E-002    2.283770089766534E-032
 -1.690000000000000E-002   -2.298354930163973E-031
 -1.680000000000000E-002   -5.501776825126553E-031
 -1.670000000000000E-002   -9.157094205511303E-031
 -1.660000000000000E-002   -1.287790968015257E-030
 -1.650000000000000E-002   -1.611215387326103E-030
 -1.640000000000000E-002   -1.816251779157371E-030
 -1.630000000000000E-002   -1.823782792086860E-030
 -1.620000000000000E-002   -1.553940964519106E-030
 -1.610000000000000E-002   -9.382526530118810E-031
 -1.600000000000000E-002    6.525178818434465E-032
 -1.590000000000000E-002    1.455179391950450E-030
 -1.580000000000000E-002    3.170128159429375E-030
 -1.570000000000000E-002    5.074929611814316E-030
 -1.560000000000000E-002    6.953024496828018E-030
 -1.550000000000000E-002    8.508490196539948E-030
 -1.540000000000000E-002    9.381059993011865E-030
 -1.530000000000000E-002    9.176718227233044E-030
 -1.520000000000000E-002    7.515001411746742E-030
 -1.510000000000000E-002    4.091979063041921E-030
 -1.500000000000000E-002   -1.244907465498241E-030
 -1.490000000000000E-002   -8.417209709821642E-030
 -1.480000000000000E-002   -1.704142371076123E-029
 -1.470000000000000E-002   -2.637385178752787E-029
 -1.460000000000000E-002   -3.528966672791457E-029
 -1.450000000000000E-002   -4.231177377604494E-029
 -1.440000000000000E-002   -4.570314871248965E-029
 -1.430000000000000E-002   -4.363158272748770E-029
 -1.420000000000000E-002   -3.440802581264381E-029
 -1.410000000000000E-002   -1.678900373571536E-029
 -1.400000000000000E-002    9.679406421507436E-030
 -1.390000000000000E-002    4.431276783294538E-029
 -1.380000000000000E-002    8.498494632817550E-029
 -1.370000000000000E-002    1.279313322457532E-028
 -1.360000000000000E-002    1.677250188756213E-028
 -1.350000000000000E-002    1.974895444045238E-028
 -1.340000000000000E-002    2.093986103636244E-028
 -1.330000000000000E-002    1.954877941939025E-028
 -1.320000000000000E-002    1.487657613920928E-028
 -1.310000000000000E-002    6.456397321803048E-029
 -1.300000000000000E-002   -5.799189535724809E-029
 -1.290000000000000E-002   -2.145629085350948E-028
 -1.280000000000000E-002   -3.944548020619463E-028
 -1.270000000000000E-002   -5.800119726757025E-028
 -1.260000000000000E-002   -7.468145079522282E-028
 -1.250000000000000E-002   -8.649161103601365E-028
 -1.240000000000000E-002   -9.012881081106255E-028
 -1.230000000000000E-002   -8.235128942291243E-028
 -1.220000000000000E-002   -6.046044929232601E-028
 -1.210000000000000E-002   -2.286297502596132E-028
 -1.200000000000000E-002    3.034163179528012E-028
 -1.190000000000000E-002    9.682411182768303E-028
 -1.180000000000000E-002    1.716321030374622E-027
 -1.170000000000000E-002    2.470425601372902E-027
 -1.160000000000000E-002    3.127593565749678E-027
 -1.150000000000000E-002    3.565375030380415E-027
 -1.140000000000000E-002    3.652803276552800E-027
 -1.130000000000000E-002    3.266030611626767E-027
 -1.120000000000000E-002    2.307879294719181E-027
 -1.110000000000000E-002    7.297706172265895E-028
 -1.100000000000000E-002   -1.446317451937396E-027
 -1.090000000000000E-002   -4.108942134442477E-027
 -1.080000000000000E-002   -7.044928227222456E-027
 -1.070000000000000E-002   -9.937494706340721E-027
 -1.060000000000000E-002   -1.237820934142302E-026
 -1.050000000000000E-002   -1.389530365844720E-026
 -1.040000000000000E-002   -1.399935074665560E-026
 -1.030000000000000E-002   -1.224518730940697E-026
 -1.020000000000000E-002   -8.306348886289271E-027
 -1.010000000000000E-002   -2.055444604613061E-027
 -1.000000000000000E-002    6.358888444117566E-027
 -9.899999999999999E-003    1.645008101916053E-026
 -9.800000000000000E-003    2.735975876705606E-026
 -9.699999999999999E-003    3.786477360872093E-026
 -9.599999999999999E-003    4.643613034776821E-026
 -9.500000000000000E-003    5.135680668084622E-026
 -9.399999999999999E-003    5.089939722731153E-026
 -9.299999999999999E-003    4.355651459950705E-026
 -9.200000000000000E-003    2.830766399713687E-026
 -9.099999999999999E-003    4.896608576552266E-027
 -8.999999999999999E-003   -2.591550501239988E-026
 -8.900000000000000E-003   -6.216256128609759E-026
 -8.799999999999999E-003   -1.005953481573891E-025
 -8.699999999999999E-003   -1.367542445848880E-025
 -8.600000000000000E-003   -1.652250525029146E-025
 -8.499999999999999E-003   -1.800944990421028E-025
 -8.399999999999999E-003   -1.755992633210968E-025
 -8.300000000000000E-003   -1.469346115490226E-025
 -8.199999999999999E-003   -9.115777440531958E-026
 -8.100000000000000E-003   -8.090637406129656E-027
 -8.000000000000000E-003    9.889955789267551E-026
 -7.899999999999999E-003    2.223791836872141E-025
 -7.800000000000000E-003    3.507269527861743E-025
 -7.699999999999999E-003    4.685361547610762E-025
 -7.599999999999999E-003    5.576274728126745E-025
 -7.499999999999999E-003    5.987002827527613E-025
 -7.399999999999999E-003    5.735728670929514E-025
 -7.299999999999999E-003    4.678695388117522E-025
 -7.199999999999999E-003    2.739159937849552E-025
 -7.100000000000000E-003   -6.486460234032428E-027
 -6.999999999999999E-003   -3.598073090011109E-025
 -6.899999999999999E-003   -7.594879975043155E-025
 -6.800000000000000E-003   -1.166018052946452E-024
 -6.699999999999999E-003   -1.528732294473045E-024
 -6.599999999999999E-003   -1.789536751731355E-024
 -6.499999999999999E-003   -1.888567809071472E-024
 -6.399999999999999E-003   -1.771535771156899E-024
 -6.299999999999999E-003   -1.398216703757524E-024
 -6.199999999999999E-003   -7.512695289114701E-025
 -6.100000000000000E-003    1.556961734945913E-025
 -5.999999999999999E-003    1.272049255486707E-024
 -5.899999999999999E-003    2.507360352005627E-024
 -5.800000000000000E-003    3.733109681024739E-024
 -5.699999999999999E-003    4.789777656171670E-024
 -5.599999999999999E-003    5.499735849480239E-024
 -5.499999999999999E-003    5.685696882797690E-024
 -5.399999999999999E-003    5.193696029875811E-024
 -5.299999999999999E-003    3.918735973249543E-024
 -5.199999999999999E-003    1.830411907124268E-024
 -5.099999999999999E-003   -1.004812108492151E-024
 -4.999999999999999E-003   -4.408383591849465E-024
 -4.899999999999999E-003   -8.085192779632798E-024
 -4.799999999999999E-003   -1.163304150363289E-023
 -4.699999999999999E-003   -1.456820283748073E-023
 -4.599999999999999E-003   -1.636765422791298E-023
 -4.499999999999999E-003   -1.652655368090261E-023
 -4.399999999999999E-003   -1.462721218457412E-023
 -4.299999999999999E-003   -1.041343534033430E-023
 -4.199999999999999E-003   -3.861975088125415E-024
 -4.099999999999999E-003    4.758773385703921E-024
 -3.999999999999999E-003    1.485335833699903E-023
 -3.899999999999999E-003    2.549718036722859E-023
 -3.799999999999999E-003    3.547582269333401E-023
 -3.699999999999999E-003    4.337050310944507E-023
 -3.599999999999999E-003    4.768954859221174E-023
 -3.499999999999999E-003    4.703987382011457E-023
 -3.399999999999999E-003    4.032600107274519E-023
 -3.299999999999999E-003    2.695773008130457E-023
 -3.199999999999999E-003    7.042162140570020E-024
 -3.099999999999999E-003   -1.846778378874981E-023
 -2.999999999999999E-003   -4.769707848346459E-023
 -2.899999999999999E-003   -7.787060958083972E-023
 -2.799999999999999E-003   -1.054530929759972E-022
 -2.699999999999999E-003   -1.264160451466349E-022
 -2.599999999999999E-003   -1.366269048334363E-022
 -2.499999999999999E-003   -1.323391849829497E-022
 -2.399999999999999E-003   -1.107449145180150E-022
 -2.299999999999999E-003   -7.053439786291015E-023
 -2.199999999999999E-003   -1.239518371606982E-023
 -2.099999999999999E-003    6.062525460625708E-023
 -1.999999999999999E-003    1.429681379168003E-022
 -1.899999999999999E-003    2.266884565509271E-022
 -1.799999999999999E-003    3.019014048783653E-022
 -1.699999999999999E-003    3.575650082710370E-022
 -1.599999999999999E-003    3.825752437118698E-022
 -1.499999999999999E-003    3.671063951540054E-022
 -1.399999999999999E-003    3.040844882039954E-022
 -1.299999999999999E-003    1.906417099783266E-022
 -1.199999999999999E-003    2.936962663344100E-023
 -1.099999999999999E-003   -1.708245910229270E-022
 -9.999999999999989E-004   -3.944471198186494E-022
 -8.999999999999990E-004   -6.198872869643320E-022
 -7.999999999999990E-004   -8.207260549276071E-022
 -6.999999999999989E-004   -9.678983638534633E-022
 -5.999999999999990E-004   -1.032623782958180E-021
 -4.999999999999989E-004   -9.899089735873337E-022
 -3.999999999999989E-004   -8.223153000101410E-022
 -2.999999999999989E-004   -5.235910563030124E-022
 -1.999999999999989E-004   -1.017031783649637E-022
 -9.999999999999892E-005    4.192183938461614E-022
  1.084202172485504E-018    9.984751326306931E-022
  1.000000000000011E-004    1.580290073132641E-021
  2.000000000000011E-004    2.097391086567935E-021
  3.000000000000011E-004    2.476673347986880E-021
  4.000000000000011E-004    2.646672019640391E-021
  5.000000000000011E-004    2.546307526130193E-021
  6.000000000000011E-004    2.134107358836114E-021
  7.000000000000011E-004    1.396896574218260E-021
  8.000000000000011E-004    3.568199236380610E-022
  9.000000000000012E-004   -9.244613138122767E-022
  1.000000000000001E-003   -2.345437282604759E-021
  1.100000000000001E-003   -3.769057278543244E-021
  1.200000000000001E-003   -5.032044324309331E-021
  1.300000000000001E-003   -5.959057536282249E-021
  1.400000000000001E-003   -6.380930190405346E-021
  1.500000000000001E-003   -6.155587353481080E-021
  1.600000000000001E-003   -5.189663128298648E-021
  1.700000000000001E-003   -3.458388146664373E-021
  1.800000000000001E-003   -1.021079085614535E-021
  1.900000000000001E-003    1.970413570734095E-021
  2.000000000000001E-003    5.272582579797964E-021
  2.100000000000001E-003    8.562062621502158E-021
  2.200000000000001E-003    1.145894189274406E-020
  2.300000000000001E-003    1.356091314981189E-020
  2.400000000000001E-003    1.448619159218110E-020
  2.500000000000001E-003    1.392170899962781E-020
  2.600000000000001E-003    1.167184313400277E-020
  2.700000000000001E-003    7.702036354008786E-021
  2.800000000000001E-003    2.171247603485983E-021
  2.900000000000001E-003   -4.552561030805762E-021
  3.000000000000001E-003   -1.189873084844136E-020
  3.100000000000001E-003   -1.912509972750830E-020
  3.200000000000001E-003   -2.537478763709743E-020
  3.300000000000001E-003   -2.975637041352526E-020
  3.400000000000001E-003   -3.144209659513062E-020
  3.500000000000001E-003   -2.977573615456183E-020
  3.600000000000001E-003   -2.437905468575571E-020
  3.700000000000001E-003   -1.524413515428316E-020
  3.800000000000001E-003   -2.798260878930831E-021
  3.900000000000001E-003    1.207103157771869E-020
  4.000000000000001E-003    2.804053815008521E-020
  4.100000000000001E-003    4.343128614322381E-020
  4.200000000000001E-003    5.634388390981422E-020
  4.300000000000001E-003    6.484295556005891E-020
  4.400000000000001E-003    6.717747702073804E-020
  4.500000000000001E-003    6.201730352293158E-020
  4.600000000000002E-003    4.868101376194612E-020
  4.700000000000001E-003    2.732687539784544E-020
  4.800000000000001E-003   -9.216282755807553E-022
  4.900000000000002E-003   -3.394152148331475E-020
  5.000000000000001E-003   -6.868679321342565E-020
  5.100000000000001E-003   -1.013854500526763E-019
  5.200000000000001E-003   -1.278546110289872E-019
  5.300000000000002E-003   -1.439169236044296E-019
  5.400000000000001E-003   -1.458870430630561E-019
  5.500000000000001E-003   -1.310834513494393E-019
  5.600000000000002E-003   -9.831064194394757E-020
  5.700000000000001E-003   -4.825085989001342E-020
  5.800000000000001E-003    1.629500753412124E-020
  5.900000000000002E-003    9.037029111857155E-020
  6.000000000000001E-003    1.670674075879921E-019
  6.100000000000001E-003    2.379912908004870E-019
  6.200000000000002E-003    2.939710704098461E-019
  6.300000000000002E-003    3.259793535276276E-019
  6.400000000000001E-003    3.261881475019887E-019
  6.500000000000001E-003    2.890631683828703E-019
  6.600000000000002E-003    2.123781607418464E-019
  6.700000000000001E-003    9.802055258320836E-020
  6.800000000000001E-003   -4.753697017234882E-020
  6.900000000000002E-003   -2.132066043203863E-019
  7.000000000000001E-003   -3.837721512811831E-019
  7.100000000000001E-003   -5.409203841746418E-019
  7.200000000000002E-003   -6.647881560476257E-019
  7.300000000000002E-003   -7.359337513876662E-019
  7.400000000000001E-003   -7.375780217252778E-019
  7.500000000000001E-003   -6.579072591525118E-019
  7.600000000000002E-003   -4.921896485888917E-019
  7.700000000000001E-003   -2.444391954784493E-019
  7.800000000000001E-003    7.162876488058983E-020
  7.900000000000001E-003    4.325675687553582E-019
  8.000000000000002E-003    8.062417889298934E-019
  8.100000000000001E-003    1.153991879223405E-018
  8.200000000000001E-003    1.433854595586782E-018
  8.300000000000002E-003    1.604643977147105E-018
  8.400000000000001E-003    1.630574362436459E-018
  8.500000000000002E-003    1.485997723411838E-018
  8.600000000000002E-003    1.159751969789374E-018
  8.700000000000001E-003    6.585845926127666E-019
  8.800000000000002E-003    9.137442619708648E-021
  8.900000000000002E-003   -7.419379115386655E-019
  9.000000000000001E-003   -1.530023564926806E-018
  9.100000000000002E-003   -2.276831873588922E-018
  9.200000000000002E-003   -2.896817439421887E-018
  9.300000000000001E-003   -3.305314280642925E-018
  9.400000000000002E-003   -3.427763625683500E-018
  9.500000000000001E-003   -3.209188037060108E-018
  9.600000000000001E-003   -2.622918891266362E-018
  9.700000000000002E-003   -1.677526616918260E-018
  9.800000000000001E-003   -4.209461847890335E-019
  9.900000000000001E-003    1.059043744001441E-018
  1.000000000000000E-002    2.638553715091763E-018
  1.010000000000000E-002    4.165716174499698E-018
  1.020000000000000E-002    5.472954451644339E-018
  1.030000000000000E-002    6.392642182978686E-018
  1.040000000000000E-002    6.774933582665498E-018
  1.050000000000000E-002    6.506148873996229E-018
  1.060000000000000E-002    5.525811887094340E-018
  1.070000000000000E-002    3.840327630814059E-018
  1.080000000000000E-002    1.531371966268387E-018
  1.090000000000000E-002   -1.242619709583827E-018
  1.100000000000000E-002   -4.252957651060519E-018
  1.110000000000000E-002   -7.215572686099476E-018
  1.120000000000000E-002   -9.813786573566079E-018
  1.130000000000000E-002   -1.172759200124558E-017
  1.140000000000000E-002   -1.266717217565229E-017
  1.150000000000000E-002   -1.240763447240000E-017
  1.160000000000000E-002   -1.082139813099725E-017
  1.170000000000000E-002   -7.904461573967105E-018
  1.180000000000000E-002   -3.792938392257764E-018
  1.190000000000000E-002    1.233184098584632E-018
  1.200000000000000E-002    6.761133004354281E-018
  1.210000000000000E-002    1.227203606517687E-017
  1.220000000000000E-002    1.718237809992867E-017
  1.230000000000000E-002    2.089770995406386E-017
  1.240000000000000E-002    2.287445849089703E-017
  1.250000000000000E-002    2.268427774228983E-017
  1.260000000000000E-002    2.007438053685388E-017
  1.270000000000000E-002    1.501690327923672E-017
  1.280000000000000E-002    7.740598247931225E-018
  1.290000000000000E-002   -1.260786356304331E-018
  1.300000000000000E-002   -1.124732969023602E-017
  1.310000000000000E-002   -2.128043731188498E-017
  1.320000000000000E-002   -3.029760524254679E-017
  1.330000000000000E-002   -3.720995104752636E-017
  1.340000000000000E-002   -4.101499167622663E-017
  1.350000000000000E-002   -4.091457331303891E-017
  1.360000000000000E-002   -3.642601624426899E-017
  1.370000000000000E-002   -2.747373785628844E-017
  1.380000000000000E-002   -1.444908497013188E-017
  1.390000000000000E-002    1.772038817353479E-018
  1.400000000000000E-002    1.986101486724578E-017
  1.410000000000000E-002    3.812069425712009E-017
  1.420000000000000E-002    5.461959166639047E-017
  1.430000000000000E-002    6.736813219225831E-017
  1.440000000000000E-002    7.452346654286052E-017
  1.450000000000000E-002    7.460467199585346E-017
  1.460000000000000E-002    6.669671186534184E-017
  1.470000000000000E-002    5.061999522208358E-017
  1.480000000000000E-002    2.704313908390849E-017
  1.490000000000000E-002   -2.480266199195977E-018
  1.500000000000000E-002   -3.556440043453863E-017
  1.510000000000000E-002   -6.913916155798735E-017
  1.520000000000000E-002   -9.968961408922611E-017
  1.530000000000000E-002   -1.235730360278612E-016
  1.540000000000000E-002   -1.373896435786594E-016
  1.550000000000000E-002   -1.383744376277352E-016
  1.560000000000000E-002   -1.247711645338662E-016
  1.570000000000000E-002   -9.614654527603205E-017
  1.580000000000000E-002   -5.360392572305695E-017
  1.590000000000000E-002    1.389798429951543E-019
  1.600000000000000E-002    6.083343328815396E-017
  1.610000000000000E-002    1.229555160801653E-016
  1.620000000000000E-002    1.801289844142186E-016
  1.630000000000000E-002    2.256912101711857E-016
  1.640000000000000E-002    2.533602822969582E-016
  1.650000000000000E-002    2.579453738986012E-016
  1.660000000000000E-002    2.360307085010796E-016
  1.670000000000000E-002    1.865576452577205E-016
  1.680000000000000E-002    1.112307903596824E-016
  1.690000000000000E-002    1.468359275008791E-017
  1.700000000000000E-002   -9.564386832274273E-017
  1.710000000000000E-002   -2.099375219363356E-016
  1.720000000000000E-002   -3.167449768038865E-016
  1.730000000000000E-002   -4.039742397273309E-016
  1.740000000000000E-002   -4.600823841246230E-016
  1.750000000000000E-002   -4.753526996547210E-016
  1.760000000000000E-002   -4.431366494406554E-016
  1.770000000000000E-002   -3.609259191298875E-016
  1.780000000000000E-002   -2.311211889500461E-016
  1.790000000000000E-002   -6.138005069131005E-017
  1.800000000000000E-002    1.355435337235646E-016
  1.810000000000000E-002    3.425127898310628E-016
  1.820000000000000E-002    5.392666977404871E-016
  1.830000000000000E-002    7.041571477300334E-016
  1.840000000000000E-002    8.162400382844244E-016
  1.850000000000000E-002    8.575436898861634E-016
  1.860000000000000E-002    8.152978876459270E-016
  1.870000000000000E-002    6.838853717545996E-016