 -4.000000000000000E-002    0.000000000000000E+000
 -3.990000000000000E-002    0.000000000000000E+000
 -3.980000000000000E-002    0.000000000000000E+000
 -3.970000000000000E-002    0.000000000000000E+000
 -3.960000000000000E-002    0.000000000000000E+000
 -3.950000000000000E-002    1.069644303792971E-019
 -3.940000000000000E-002    1.069574085181938E-018
 -3.930000000000000E-002    5.713266770407088E-018
 -3.920000000000000E-002    2.153120988666082E-017
 -3.910000000000000E-002    6.379065667330195E-017
 -3.900000000000000E-002    1.568236078837013E-016
 -3.890000000000000E-002    3.289650801682997E-016
 -3.880000000000000E-002    5.946652799116659E-016
 -3.870000000000000E-002    9.168662526207181E-016
 -3.860000000000000E-002    1.145214937707444E-015
 -3.850000000000000E-002    9.322295289800080E-016
 -3.840000000000000E-002   -3.595449387808425E-016
 -3.830000000000000E-002   -3.732120605477403E-015
 -3.820000000000000E-002   -1.056628916661722E-014
 -3.810000000000000E-002   -2.252232343670975E-014
 -3.800000000000000E-002   -4.127208536914318E-014
 -3.790000000000000E-002   -6.802012695108129E-014
 -3.780000000000000E-002   -1.028024752736341E-013
 -3.770000000000000E-002   -1.436021425485026E-013
 -3.760000000000000E-002   -1.853863924184090E-013
 -3.750000000000000E-002   -2.192434143734847E-013
 -3.740000000000000E-002   -2.318612052187847E-013
 -3.730000000000000E-002   -2.056314395111587E-013
 -3.720000000000000E-002   -1.196576022432592E-013
 -3.710000000000000E-002    4.811702979758137E-014
 -3.700000000000000E-002    3.175774516972248E-013
 -3.690000000000000E-002    7.020148084259443E-013
 -3.680000000000000E-002    1.202975422587741E-012
 -3.670000000000000E-002    1.805007897573367E-012
 -3.660000000000000E-002    2.471174372105188E-012
 -3.650000000000000E-002    3.140354071747941E-012
 -3.640000000000000E-002    3.727393602928002E-012
 -3.630000000000000E-002    4.127013286966081E-012
 -3.620000000000000E-002    4.222030273843224E-012
 -3.610000000000000E-002    3.895915765487595E-012
 -3.600000000000000E-002    3.049011144989760E-012
 -3.590000000000000E-002    1.616948529875491E-012
 -3.580000000000000E-002   -4.109131407904924E-013
 -3.570000000000000E-002   -2.975797657142871E-012
 -3.560000000000000E-002   -5.939610039837106E-012
 -3.550000000000000E-002   -9.083716873570902E-012
 -3.540000000000000E-002   -1.211868275025615E-011
 -3.530000000000000E-002   -1.470610605438217E-011
 -3.520000000000000E-002   -1.649213825973866E-011
 -3.510000000000000E-002   -1.715045416050470E-011
 -3.500000000000000E-002   -1.643053256997562E-011
 -3.490000000000000E-002   -1.420547957415809E-011
 -3.480000000000000E-002   -1.051248114336369E-011
 -3.470000000000000E-002   -5.578660010228431E-012
 -3.460000000000000E-002    1.742071819766907E-013
 -3.450000000000000E-002    6.150875328406116E-012
 -3.440000000000000E-002    1.163168345676934E-011
 -3.430000000000000E-002    1.584785195052522E-011
 -3.420000000000000E-002    1.807737607630169E-011
 -3.410000000000000E-002    1.775201770630563E-011
 -3.400000000000000E-002    1.456266499840165E-011
 -3.390000000000000E-002    8.548446093052586E-012
 -3.380000000000000E-002    1.548048636679214E-013
 -3.370000000000000E-002   -9.752393977899502E-012
 -3.360000000000000E-002   -1.992568664811335E-011
 -3.350000000000000E-002   -2.883093147198692E-011
 -3.340000000000000E-002   -3.479443989180447E-011
 -3.330000000000000E-002   -3.619091676441967E-011
 -3.320000000000000E-002   -3.165377868026601E-011
 -3.310000000000000E-002   -2.028403672500816E-011
 -3.300000000000000E-002   -1.830993836826475E-012
 -3.290000000000000E-002    2.318163719843720E-011
 -3.280000000000000E-002    5.340674393326362E-011
 -3.270000000000000E-002    8.671705198687135E-011
 -3.260000000000000E-002    1.203456188725489E-010
 -3.250000000000000E-002    1.511165906422060E-010
 -3.240000000000000E-002    1.757470270775812E-010
 -3.230000000000000E-002    1.911897102961950E-010
 -3.220000000000000E-002    1.949787173735347E-010
 -3.210000000000000E-002    1.855361330950011E-010
 -3.200000000000000E-002    1.623993596296195E-010
 -3.190000000000000E-002    1.263355312805639E-010
 -3.180000000000000E-002    7.932126501462377E-011
 -3.170000000000000E-002    2.438142382073072E-011
 -3.160000000000000E-002   -3.470202757137452E-011
 -3.150000000000000E-002   -9.378308807936942E-011
 -3.140000000000000E-002   -1.488041003117390E-010
 -3.130000000000000E-002   -1.962552569960943E-010
 -3.120000000000000E-002   -2.335852306489777E-010
 -3.110000000000000E-002   -2.595114350658996E-010
 -3.100000000000000E-002   -2.741873591547345E-010
 -3.090000000000000E-002   -2.792024698699014E-010
 -3.080000000000000E-002   -2.774084087162605E-010
 -3.070000000000000E-002   -2.725876433547931E-010
 -3.060000000000000E-002   -2.689993552615696E-010
 -3.050000000000000E-002   -2.708524046346596E-010
 -3.040000000000000E-002   -2.817641805941178E-010
 -3.030000000000000E-002   -3.042642952833844E-010
 -3.020000000000000E-002   -3.393953667698840E-010
 -3.010000000000000E-002   -3.864499400657014E-010
 -3.000000000000000E-002   -4.428640653702982E-010
 -2.990000000000000E-002   -5.042695692908614E-010
 -2.980000000000000E-002   -5.646881018399793E-010
 -2.970000000000000E-002   -6.168380547933430E-010
 -2.960000000000000E-002   -6.525181047302799E-010
 -2.950000000000000E-002   -6.630328534995590E-010
 -2.940000000000000E-002   -6.396336523345203E-010
 -2.930000000000000E-002   -5.739595882061341E-010
 -2.920000000000000E-002   -4.584812910879042E-010
 -2.910000000000000E-002   -2.869589222777742E-010
 -2.900000000000000E-002   -5.493551909423460E-011
 -2.890000000000000E-002    2.397165494688439E-010
 -2.880000000000000E-002    5.961908448009154E-010
 -2.870000000000000E-002    1.010101996808038E-009
 -2.860000000000000E-002    1.472846771132246E-009
 -2.850000000000000E-002    1.971052779207523E-009
 -2.840000000000000E-002    2.486222491038708E-009
 -2.830000000000000E-002    2.994699790523011E-009
 -2.820000000000000E-002    3.468085872006603E-009
 -2.810000000000000E-002    3.874208479619060E-009
 -2.800000000000000E-002    4.178703768458011E-009
 -2.790000000000000E-002    4.347200083795087E-009
 -2.780000000000000E-002    4.348008914237131E-009
 -2.770000000000000E-002    4.155133292839696E-009
 -2.760000000000000E-002    3.751323652137600E-009
 -2.750000000000000E-002    3.130840300494121E-009
 -2.740000000000000E-002    2.301552895403511E-009
 -2.730000000000000E-002    1.286021619298005E-009
 -2.720000000000000E-002    1.212683975004792E-010
 -2.710000000000000E-002   -1.142937213088470E-009
 -2.700000000000000E-002   -2.447294446567657E-009
 -2.690000000000000E-002   -3.727518622736369E-009
 -2.680000000000000E-002   -4.919863069786145E-009
 -2.670000000000000E-002   -5.967069458131558E-009
 -2.660000000000000E-002   -6.824094912890035E-009
 -2.650000000000000E-002   -7.462889839154005E-009
 -2.640000000000000E-002   -7.875534051742987E-009
 -2.630000000000000E-002   -8.075163069937377E-009
 -2.620000000000000E-002   -8.094336359293290E-009
 -2.610000000000000E-002   -7.980776526978496E-009
 -2.600000000000000E-002   -7.790745464980192E-009
 -2.590000000000000E-002   -7.580662720158653E-009
 -2.580000000000000E-002   -7.397869596852437E-009
 -2.570000000000000E-002   -7.271651774340159E-009
 -2.560000000000000E-002   -7.205744923850411E-009
 -2.550000000000000E-002   -7.173481050468864E-009
 -2.540000000000000E-002   -7.116540938679822E-009
 -2.530000000000000E-002   -6.947916328464264E-009
 -2.520000000000000E-002   -6.559224949648447E-009
 -2.510000000000000E-002   -5.831978064202446E-009
 -2.500000000000000E-002   -4.651865480480092E-009
 -2.490000000000000E-002   -2.924635792703921E-009
 -2.480000000000000E-002   -5.918038670655130E-010
 -2.470000000000000E-002    2.355745583433879E-009
 -2.460000000000000E-002    5.868130364850951E-009
 -2.450000000000000E-002    9.832392697105903E-009
 -2.440000000000000E-002    1.407502611243009E-008
 -2.430000000000000E-002    1.837146308823968E-008
 -2.420000000000000E-002    2.246209542591435E-008
 -2.410000000000000E-002    2.607357390250040E-008
 -2.400000000000000E-002    2.894342005614166E-008
 -2.390000000000000E-002    3.084543286597337E-008
 -2.380000000000000E-002    3.161311387809994E-008
 -2.370000000000000E-002    3.115833362633575E-008
 -2.360000000000000E-002    2.948286812519403E-008
 -2.350000000000000E-002    2.668108966070928E-008
 -2.340000000000000E-002    2.293301140759621E-008
 -2.330000000000000E-002    1.848799948153347E-008
 -2.320000000000000E-002    1.364052071745537E-008
 -2.310000000000000E-002    8.700331757126878E-009
 -2.300000000000000E-002    3.960255778327903E-009
 -2.290000000000000E-002   -3.348562706717549E-010
 -2.280000000000000E-002   -4.014354990429723E-009
 -2.270000000000000E-002   -7.000007541187503E-009
 -2.260000000000000E-002   -9.313789313576883E-009
 -2.250000000000000E-002   -1.107395712033131E-008
 -2.240000000000000E-002   -1.247946648422255E-008
 -2.230000000000000E-002   -1.378413669960893E-008
 -2.220000000000000E-002   -1.526326332513446E-008
 -2.210000000000000E-002   -1.717635855678271E-008
 -2.200000000000000E-002   -1.973026488044226E-008
 -2.190000000000000E-002   -2.304704478458707E-008
 -2.180000000000000E-002   -2.714057326137517E-008
 -2.170000000000000E-002   -3.190491504462627E-008
 -2.160000000000000E-002   -3.711624228087377E-008
 -2.150000000000000E-002   -4.244854230931396E-008
 -2.140000000000000E-002   -4.750170925388937E-008
 -2.130000000000000E-002   -5.183917743633041E-008
 -2.120000000000000E-002   -5.503101370696872E-008
 -2.110000000000000E-002   -5.669766191362122E-008
 -2.100000000000000E-002   -5.654932598037556E-008
 -2.090000000000000E-002   -5.441635381241812E-008
 -2.080000000000000E-002   -5.026693471132193E-008
 -2.070000000000000E-002   -4.420973632168865E-008
 -2.060000000000000E-002   -3.648083820540050E-008
 -2.050000000000000E-002   -2.741601119386268E-008
 -2.040000000000000E-002   -1.741105976350076E-008
 -2.030000000000000E-002   -6.874326157775773E-009
 -2.020000000000000E-002    3.823745845920713E-009
 -2.010000000000000E-002    1.439866032770420E-008
 -2.000000000000000E-002    2.469256323291163E-008
 -1.990000000000000E-002    3.470340116060474E-008
 -1.980000000000000E-002    4.459968569991267E-008
 -1.970000000000000E-002    5.471962982292970E-008
 -1.960000000000000E-002    6.555504245781300E-008
 -1.950000000000000E-002    7.772218996136261E-008
 -1.940000000000000E-002    9.192298477845679E-008
 -1.930000000000000E-002    1.089009638407802E-007
 -1.920000000000000E-002    1.293969164763036E-007
 -1.910000000000000E-002    1.541087627215251E-007
 -1.900000000000000E-002    1.836599197623895E-007
 -1.890000000000000E-002    2.185791297213705E-007
 -1.880000000000000E-002    2.592932719522218E-007
 -1.870000000000000E-002    3.061337548262496E-007
 -1.860000000000000E-002    3.593550672041060E-007
 -1.850000000000000E-002    4.191633172835252E-007
 -1.840000000000000E-002    4.857512983318089E-007
 -1.830000000000000E-002    5.593370252053279E-007
 -1.820000000000000E-002    6.402014705614332E-007
 -1.810000000000000E-002    7.287223995638490E-007
 -1.800000000000000E-002    8.254016387561670E-007
 -1.790000000000000E-002    9.308840984654379E-007
 -1.780000000000000E-002    1.045966724966151E-006
 -1.770000000000000E-002    1.171598581573517E-006
 -1.760000000000000E-002    1.308870985415058E-006
 -1.750000000000000E-002    1.459001460525768E-006
 -1.740000000000000E-002    1.623309638087953E-006
 -1.730000000000000E-002    1.803190021229261E-006
 -1.720000000000000E-002    2.000081835017887E-006
 -1.710000000000000E-002    2.215437372157751E-006
 -1.700000000000000E-002    2.450692523029603E-006
 -1.690000000000000E-002    2.707237743384083E-006
 -1.680000000000000E-002    2.986395434097329E-006
 -1.670000000000000E-002    3.289401116373442E-006
 -1.660000000000000E-002    3.617392640804187E-006
 -1.650000000000000E-002    3.971408273777009E-006
 -1.640000000000000E-002    4.352394921926885E-006
 -1.630000000000000E-002    4.761228209966617E-006
 -1.620000000000000E-002    5.198740833858478E-006
 -1.610000000000000E-002    5.665764937153078E-006
 -1.600000000000000E-002    6.163184238937316E-006
 -1.590000000000000E-002    6.691986781218185E-006
 -1.580000000000000E-002    7.253326988851851E-006
 -1.570000000000000E-002    7.848578673037749E-006
 -1.560000000000000E-002    8.479386216048231E-006
 -1.550000000000000E-002    9.147699499338682E-006
 -1.540000000000000E-002    9.855791036900918E-006
 -1.530000000000000E-002    1.060625435430371E-005
 -1.520000000000000E-002    1.140198061237985E-005
 -1.510000000000000E-002    1.224610927381842E-005
 -1.500000000000000E-002    1.314197016502139E-005
 -1.490000000000000E-002    1.409300347224614E-005
 -1.480000000000000E-002    1.510268343723271E-005
 -1.470000000000000E-002    1.617444189468459E-005
 -1.460000000000000E-002    1.731161132789357E-005
 -1.450000000000000E-002    1.851738505441461E-005
 -1.440000000000000E-002    1.979481109818233E-005
 -1.430000000000000E-002    2.114681822536420E-005
 -1.420000000000000E-002    2.257628081454824E-005
 -1.410000000000000E-002    2.408610688492704E-005
 -1.400000000000000E-002    2.567935945387592E-005
 -1.390000000000000E-002    2.735938552641883E-005
 -1.380000000000000E-002    2.912995677617205E-005
 -1.370000000000000E-002    3.099538087122033E-005
 -1.360000000000000E-002    3.296061561504310E-005
 -1.350000000000000E-002    3.503131902747360E-005
 -1.340000000000000E-002    3.721387849672189E-005
 -1.330000000000000E-002    3.951538435897182E-005
 -1.320000000000000E-002    4.194356495033160E-005
 -1.310000000000000E-002    4.450667929503335E-005
 -1.300000000000000E-002    4.721339168520873E-005
 -1.290000000000000E-002    5.007263619755519E-005
 -1.280000000000000E-002    5.309347543924141E-005
 -1.270000000000000E-002    5.628499678285423E-005
 -1.260000000000000E-002    5.965621999019013E-005
 -1.250000000000000E-002    6.321608581955590E-005
 -1.240000000000000E-002    6.697345903492534E-005
 -1.230000000000000E-002    7.093721660034595E-005
 -1.220000000000000E-002    7.511635436330034E-005
 -1.210000000000000E-002    7.952013789493040E-005
 -1.200000000000000E-002    8.415827812541284E-005
 -1.190000000000000E-002    8.904110500008376E-005
 -1.180000000000000E-002    9.417973664638600E-005
 -1.170000000000000E-002    9.958618564907911E-005
 -1.160000000000000E-002    1.052734883495779E-004
 -1.150000000000000E-002    1.112557267398974E-004
 -1.140000000000000E-002    1.175480111851757E-004
 -1.130000000000000E-002    1.241664675071145E-004
 -1.120000000000000E-002    1.311281131647506E-004
 -1.110000000000000E-002    1.384507877313915E-004
 -1.100000000000000E-002    1.461530479367033E-004
 -1.090000000000000E-002    1.542540511735348E-004
 -1.080000000000000E-002    1.627735185785435E-004
 -1.070000000000000E-002    1.717316886677182E-004
 -1.060000000000000E-002    1.811493583920906E-004
 -1.050000000000000E-002    1.910478956710105E-004
 -1.040000000000000E-002    2.014494250892133E-004
 -1.030000000000000E-002    2.123768881066047E-004
 -1.020000000000000E-002    2.238542291346949E-004
 -1.010000000000000E-002    2.359065248070888E-004
 -1.000000000000000E-002    2.485601877306444E-004
 -9.899999999999999E-003    2.618429512590198E-004
 -9.800000000000000E-003    2.757840977589005E-004
 -9.699999999999999E-003    2.904143916003318E-004
 -9.599999999999999E-003    3.057661278050991E-004
 -9.500000000000000E-003    3.218730752402441E-004
 -9.399999999999999E-003    3.387704335051334E-004
 -9.299999999999999E-003    3.564947354552761E-004
 -9.200000000000000E-003    3.750838103562487E-004
 -9.099999999999999E-003    3.945766606147675E-004
 -8.999999999999999E-003    4.150134722921872E-004
 -8.900000000000000E-003    4.364356072136727E-004
 -8.799999999999999E-003    4.588856452141357E-004
 -8.699999999999999E-003    4.824073499327390E-004
 -8.600000000000000E-003    5.070459114314928E-004
 -8.499999999999999E-003    5.328479247651627E-004
 -8.399999999999999E-003    5.598615190542714E-004
 -8.300000000000000E-003    5.881366222225306E-004
 -8.199999999999999E-003    6.177248808548009E-004
 -8.100000000000000E-003    6.486797924700630E-004
 -8.000000000000000E-003    6.810568781833747E-004
 -7.899999999999999E-003    7.149136575608666E-004
 -7.800000000000000E-003    7.503096674084354E-004
 -7.699999999999999E-003    7.873064582667552E-004
 -7.599999999999999E-003    8.259676303778256E-004
 -7.499999999999999E-003    8.663589194745186E-004
 -7.399999999999999E-003    9.085481661724763E-004
 -7.299999999999999E-003    9.526051214996338E-004
 -7.199999999999999E-003    9.986018169138402E-004
 -7.100000000000000E-003    1.046612481953147E-003
 -6.999999999999999E-003    1.096713551390479E-003
 -6.899999999999999E-003    1.148983914825701E-003
 -6.800000000000000E-003    1.203504762075565E-003
 -6.699999999999999E-003    1.260359784088690E-003
 -6.599999999999999E-003    1.319635335574631E-003
 -6.499999999999999E-003    1.381420327988689E-003
 -6.399999999999999E-003    1.445806289616129E-003
 -6.299999999999999E-003    1.512887539872747E-003
 -6.199999999999999E-003    1.582761107327322E-003
 -6.100000000000000E-003    1.655526946380637E-003
 -5.999999999999999E-003    1.731287735366704E-003
 -5.899999999999999E-003    1.810149085308354E-003
 -5.800000000000000E-003    1.892219571002663E-003
 -5.699999999999999E-003    1.977610896626320E-003
 -5.599999999999999E-003    2.066437775197322E-003
 -5.499999999999999E-003    2.158818471427002E-003
 -5.399999999999999E-003    2.254874199843313E-003
 -5.299999999999999E-003    2.354729775782210E-003
 -5.199999999999999E-003    2.458513539496238E-003
 -5.099999999999999E-003    2.566357179229271E-003
 -4.999999999999999E-003    2.678395792406526E-003
 -4.899999999999999E-003    2.794768267384304E-003
 -4.799999999999999E-003    2.915616697799379E-003
 -4.699999999999999E-003    3.041086445932315E-003
 -4.599999999999999E-003    3.171326441235046E-003
 -4.499999999999999E-003    3.306488244319753E-003
 -4.399999999999999E-003    3.446727101548358E-003
 -4.299999999999999E-003    3.592201429724284E-003
 -4.199999999999999E-003    3.743071909976437E-003
 -4.099999999999999E-003    3.899503467134511E-003
 -3.999999999999999E-003    4.061663585828566E-003
 -3.899999999999999E-003    4.229723068714767E-003
 -3.799999999999999E-003    4.403856685827454E-003
 -3.699999999999999E-003    4.584242153423832E-003
 -3.599999999999999E-003    4.771061673201831E-003
 -3.499999999999999E-003    4.964500945734252E-003
 -3.399999999999999E-003    5.164749274030613E-003
 -3.299999999999999E-003    5.371999817606971E-003
 -3.199999999999999E-003    5.586450158323078E-003
 -3.099999999999999E-003    5.808300604137355E-003
 -2.999999999999999E-003    6.037755657449999E-003
 -2.899999999999999E-003    6.275022986259896E-003
 -2.799999999999999E-003    6.520312794167009E-003
 -2.699999999999999E-003    6.773838841365575E-003
 -2.599999999999999E-003    7.035816679542563E-003
 -2.499999999999999E-003    7.306465797008447E-003
 -2.399999999999999E-003    7.586007105508481E-003
 -2.299999999999999E-003    7.874664330698252E-003
 -2.199999999999999E-003    8.172663933132176E-003
 -2.099999999999999E-003    8.480234796902643E-003
 -1.999999999999999E-003    8.797608299165925E-003
 -1.899999999999999E-003    9.125017354034336E-003
 -1.799999999999999E-003    9.462698468873107E-003
 -1.699999999999999E-003    9.810891029049904E-003
 -1.599999999999999E-003    1.016983515781231E-002
 -1.499999999999999E-003    1.053977265920868E-002
 -1.399999999999999E-003    1.092094908467362E-002
 -1.299999999999999E-003    1.131360939276594E-002
 -1.199999999999999E-003    1.171800040027620E-002
 -1.099999999999999E-003    1.213436941950944E-002
 -9.999999999999989E-004    1.256296356319174E-002
 -8.999999999999990E-004    1.300403063868577E-002
 -7.999999999999990E-004    1.345781794501908E-002
 -6.999999999999989E-004    1.392457230850775E-002
 -5.999999999999990E-004    1.440453861150854E-002
 -4.999999999999989E-004    1.489796361208422E-002
 -3.999999999999989E-004    1.540509141872322E-002
 -2.999999999999989E-004    1.592616658378624E-002
 -1.999999999999989E-004    1.646143154919589E-002
 -9.999999999999892E-005    1.701112761057904E-002
  1.084202172485504E-018    1.757549487579595E-002
  1.000000000000011E-004    1.815477267494481E-002
  2.000000000000011E-004    1.874919530979821E-002
  3.000000000000011E-004    1.935899618045144E-002
  4.000000000000011E-004    1.998440458647780E-002
  5.000000000000011E-004    2.062564588097199E-002
  6.000000000000011E-004    2.128294242981475E-002
  7.000000000000011E-004    2.195650887378056E-002
  8.000000000000011E-004    2.264655482470002E-002
  9.000000000000012E-004    2.335328465941772E-002
  1.000000000000001E-003    2.407689730742295E-002
  1.100000000000001E-003    2.481758395486741E-002
  1.200000000000001E-003    2.557552873196618E-002
  1.300000000000001E-003    2.635091343303414E-002
  1.400000000000001E-003    2.714390644660597E-002
  1.500000000000001E-003    2.795467287976393E-002
  1.600000000000001E-003    2.878336746963204E-002
  1.700000000000001E-003    2.963014147223376E-002
  1.800000000000001E-003    3.049513492136900E-002
  1.900000000000001E-003    3.137848125951349E-002
  2.000000000000001E-003    3.228030175544365E-002
  2.100000000000001E-003    3.320071177896184E-002
  2.200000000000001E-003    3.413981210795639E-002
  2.300000000000001E-003    3.509769345937623E-002
  2.400000000000001E-003    3.607443738333896E-002
  2.500000000000001E-003    3.707010633109101E-002
  2.600000000000001E-003    3.808475277330227E-002
  2.700000000000001E-003    3.911841483337589E-002
  2.800000000000001E-003    4.017111605464845E-002
  2.900000000000001E-003    4.124286760089715E-002
  3.000000000000001E-003    4.233366518535669E-002
  3.100000000000001E-003    4.344348843943159E-002
  3.200000000000001E-003    4.457230252268980E-002
  3.300000000000001E-003    4.572005869812860E-002
  3.400000000000001E-003    4.688669054290890E-002
  3.500000000000001E-003    4.807211405986133E-002
  3.600000000000001E-003    4.927623205182204E-002
  3.700000000000001E-003    5.049892587651990E-002
  3.800000000000001E-003    5.174006212002823E-002
  3.900000000000001E-003    5.299948762711892E-002
  4.000000000000001E-003    5.427702807888395E-002
  4.100000000000001E-003    5.557248602699872E-002
  4.200000000000001E-003    5.688565237318930E-002
  4.300000000000001E-003    5.821628060360434E-002
  4.400000000000001E-003    5.956411777985809E-002
  4.500000000000001E-003    6.092887722632364E-002
  4.600000000000002E-003    6.231025572370517E-002
  4.700000000000001E-003    6.370792529777099E-002
  4.800000000000001E-003    6.512154177978918E-002
  4.900000000000002E-003    6.655072388296000E-002
  5.000000000000001E-003    6.799508662413337E-002
  5.100000000000001E-003    6.945420703328917E-002
  5.200000000000001E-003    7.092764950961396E-002
  5.300000000000002E-003    7.241494486949697E-002
  5.400000000000001E-003    7.391560801585201E-002
  5.500000000000001E-003    7.542912722484534E-002
  5.600000000000002E-003    7.695496828662322E-002
  5.700000000000001E-003    7.849256698584918E-002
  5.800000000000001E-003    8.004133747368943E-002
  5.900000000000002E-003    8.160066207360299E-002
  6.000000000000001E-003    8.316990524617569E-002
  6.100000000000001E-003    8.474840124490964E-002
  6.200000000000002E-003    8.633545952644260E-002
  6.300000000000002E-003    8.793035286188919E-002
  6.400000000000001E-003    8.953234516760770E-002
  6.500000000000001E-003    9.114066300937307E-002
  6.600000000000002E-003    9.275451260177996E-002
  6.700000000000001E-003    9.437307046437203E-002
  6.800000000000001E-003    9.599550107041488E-002
  6.900000000000002E-003    9.762093237548089E-002
  7.000000000000001E-003    9.924848040963370E-002
  7.100000000000001E-003    0.100877223036556     
  7.200000000000002E-003    0.102506227593033     
  7.300000000000002E-003    0.104134532131731     
  7.400000000000001E-003    0.105761158572970     
  7.500000000000001E-003    0.107385088729744     
  7.600000000000002E-003    0.109005291715701     
  7.700000000000001E-003    0.110620714877138     
  7.800000000000001E-003    0.112230275988639     
  7.900000000000001E-003    0.113832875715167     
  8.000000000000002E-003    0.115427400383120     
  8.100000000000001E-003    0.117012702668908     
  8.200000000000001E-003    0.118587629478756     
  8.300000000000002E-003    0.120151007844296     
  8.400000000000001E-003    0.121701634728534     
  8.500000000000002E-003    0.123238323945160     
  8.600000000000002E-003    0.124759842981420     
  8.700000000000001E-003    0.126264964180433     
  8.800000000000002E-003    0.127752443570194     
  8.900000000000002E-003    0.129221034609501     
  9.000000000000001E-003    0.130669464132102     
  9.100000000000002E-003    0.132096462575465     
  9.200000000000002E-003    0.133500741948319     
  9.300000000000001E-003    0.134881016542891     
  9.400000000000002E-003    0.136235987488645     
  9.500000000000001E-003    0.137564349386746     
  9.600000000000001E-003    0.138864793154702     
  9.700000000000002E-003    0.140136011528646     
  9.800000000000001E-003    0.141376690998343     
  9.900000000000001E-003    0.142585533423288     
  1.000000000000000E-002    0.143761225264965     
  1.010000000000000E-002    0.144902467340050     
  1.020000000000000E-002    0.146007983654616     
  1.030000000000000E-002    0.147076478588080     
  1.040000000000000E-002    0.148106683006069     
  1.050000000000000E-002    0.149097338653828     
  1.060000000000000E-002    0.150047188553434     
  1.070000000000000E-002    0.150955017564342     
  1.080000000000000E-002    0.151819601795763     
  1.090000000000000E-002    0.152639747635950     
  1.100000000000000E-002    0.153414281238928     
  1.110000000000000E-002    0.154142030610081     
  1.120000000000000E-002    0.154821857765065     
  1.130000000000000E-002    0.155452657263747     
  1.140000000000000E-002    0.156033326219513     
  1.150000000000000E-002    0.156562808200490     
  1.160000000000000E-002    0.157040068011631     
  1.170000000000000E-002    0.157464098962292     
  1.180000000000000E-002    0.157833933517729     
  1.190000000000000E-002    0.158148643419000     
  1.200000000000000E-002    0.158407323123186     
  1.210000000000000E-002    0.158609125484022     
  1.220000000000000E-002    0.158753243014170     
  1.230000000000000E-002    0.158838895565036     
  1.240000000000000E-002    0.158865357775517     
  1.250000000000000E-002    0.158831936222539     
  1.260000000000000E-002    0.158737992244072     
  1.270000000000000E-002    0.158582935826247     
  1.280000000000000E-002    0.158366217950397     
  1.290000000000000E-002    0.158087337294677     
  1.300000000000000E-002    0.157745842027754     
  1.310000000000000E-002    0.157341329993558     
  1.320000000000000E-002    0.156873454973219     
  1.330000000000000E-002    0.156341917519944     
  1.340000000000000E-002    0.155746474791848     
  1.350000000000000E-002    0.155086945218232     
  1.360000000000000E-002    0.154363197142178     
  1.370000000000000E-002    0.153575168099844     
  1.380000000000000E-002    0.152722846123011     
  1.390000000000000E-002    0.151806277600751     
  1.400000000000000E-002    0.150825577036281     
  1.410000000000000E-002    0.149780917544837     
  1.420000000000000E-002    0.148672534524348     
  1.430000000000000E-002    0.147500703055199     
  1.440000000000000E-002    0.146265781631266     
  1.450000000000000E-002    0.144968173411315     
  1.460000000000000E-002    0.143608342179048     
  1.470000000000000E-002    0.142186804686942     
  1.480000000000000E-002    0.140704140918890     
  1.490000000000000E-002    0.139160978262103     
  1.500000000000000E-002    0.137558007065692     
  1.510000000000000E-002    0.135895965711767     
  1.520000000000000E-002    0.134175661090568     
  1.530000000000000E-002    0.132397934000171     
  1.540000000000000E-002    0.130563693075226     
  1.550000000000000E-002    0.128673898442071     
  1.560000000000000E-002    0.126729551221278     
  1.570000000000000E-002    0.124731714025037     
  1.580000000000000E-002    0.122681481098675     
  1.590000000000000E-002    0.120580003179116     
  1.600000000000000E-002    0.118428461834847     
  1.610000000000000E-002    0.116228088292194     
  1.620000000000000E-002    0.113980138079102     
  1.630000000000000E-002    0.111685907477967     
  1.640000000000000E-002    0.109346718998091     
  1.650000000000000E-002    0.106963933621346     
  1.660000000000000E-002    0.104538918599931     
  1.670000000000000E-002    0.102073071840416     
  1.680000000000000E-002    9.956780658400810E-002
  1.690000000000000E-002    9.702456087209360E-002
  1.700000000000000E-002    9.444477724421407E-002
  1.710000000000000E-002    9.182989803200718E-002
  1.720000000000000E-002    8.918138342033920E-002
  1.730000000000000E-002    8.650069442446293E-002
  1.740000000000000E-002    8.378928342321208E-002
  1.750000000000000E-002    8.104859421409040E-002
  1.760000000000000E-002    7.828006770204415E-002
  1.770000000000000E-002    7.548512020775343E-002
  1.780000000000000E-002    7.266515094018661E-002
  1.790000000000000E-002    6.982153792655042E-002
  1.800000000000000E-002    6.695562269279262E-002
  1.810000000000000E-002    6.406871131570244E-002
  1.820000000000000E-002    6.116207417991795E-002
  1.830000000000000E-002    5.823693754681379E-002
  1.840000000000000E-002    5.529447338947176E-002
  1.850000000000000E-002    5.233580242201465E-002
  1.860000000000000E-002    4.936197936420624E-002
  1.870000000000000E-002    4.637400251741109E-002