 -4.000000000000000E-002    0.000000000000000E+000
 -3.990000000000000E-002    0.000000000000000E+000
 -3.980000000000000E-002    0.000000000000000E+000
 -3.970000000000000E-002    0.000000000000000E+000
 -3.960000000000000E-002    0.000000000000000E+000
 -3.950000000000000E-002    0.000000000000000E+000
 -3.940000000000000E-002    0.000000000000000E+000
 -3.930000000000000E-002    0.000000000000000E+000
 -3.920000000000000E-002    0.000000000000000E+000
 -3.910000000000000E-002    0.000000000000000E+000
 -3.900000000000000E-002    0.000000000000000E+000
 -3.890000000000000E-002    0.000000000000000E+000
 -3.880000000000000E-002    0.000000000000000E+000
 -3.870000000000000E-002    0.000000000000000E+000
 -3.860000000000000E-002    0.000000000000000E+000
 -3.850000000000000E-002    0.000000000000000E+000
 -3.840000000000000E-002    0.000000000000000E+000
 -3.830000000000000E-002    0.000000000000000E+000
 -3.820000000000000E-002    0.000000000000000E+000
 -3.810000000000000E-002    0.000000000000000E+000
 -3.800000000000000E-002    0.000000000000000E+000
 -3.790000000000000E-002    0.000000000000000E+000
 -3.780000000000000E-002    0.000000000000000E+000
 -3.770000000000000E-002    0.000000000000000E+000
 -3.760000000000000E-002    0.000000000000000E+000
 -3.750000000000000E-002    0.000000000000000E+000
 -3.740000000000000E-002    0.000000000000000E+000
 -3.730000000000000E-002    0.000000000000000E+000
 -3.720000000000000E-002    0.000000000000000E+000
 -3.710000000000000E-002    0.000000000000000E+000
 -3.700000000000000E-002    0.000000000000000E+000
 -3.690000000000000E-002    0.000000000000000E+000
 -3.680000000000000E-002    0.000000000000000E+000
 -3.670000000000000E-002    0.000000000000000E+000
 -3.660000000000000E-002    0.000000000000000E+000
 -3.650000000000000E-002    0.000000000000000E+000
 -3.640000000000000E-002    0.000000000000000E+000
 -3.630000000000000E-002    0.000000000000000E+000
 -3.620000000000000E-002    0.000000000000000E+000
 -3.610000000000000E-002    0.000000000000000E+000
 -3.600000000000000E-002    0.000000000000000E+000
 -3.590000000000000E-002    0.000000000000000E+000
 -3.580000000000000E-002    0.000000000000000E+000
 -3.570000000000000E-002    0.000000000000000E+000
 -3.560000000000000E-002    0.000000000000000E+000
 -3.550000000000000E-002    0.000000000000000E+000
 -3.540000000000000E-002    0.000000000000000E+000
 -3.530000000000000E-002    0.000000000000000E+000
 -3.520000000000000E-002    0.000000000000000E+000
 -3.510000000000000E-002    0.000000000000000E+000
 -3.500000000000000E-002    0.000000000000000E+000
 -3.490000000000000E-002    0.000000000000000E+000
 -3.480000000000000E-002    0.000000000000000E+000
 -3.470000000000000E-002    0.000000000000000E+000
 -3.460000000000000E-002    0.000000000000000E+000
 -3.450000000000000E-002    0.000000000000000E+000
 -3.440000000000000E-002    0.000000000000000E+000
 -3.430000000000000E-002    0.000000000000000E+000
 -3.420000000000000E-002    0.000000000000000E+000
 -3.410000000000000E-002    0.000000000000000E+000
 -3.400000000000000E-002    0.000000000000000E+000
 -3.390000000000000E-002    0.000000000000000E+000
 -3.380000000000000E-002    0.000000000000000E+000
 -3.370000000000000E-002    0.000000000000000E+000
 -3.360000000000000E-002    0.000000000000000E+000
 -3.350000000000000E-002    0.000000000000000E+000
 -3.340000000000000E-002    0.000000000000000E+000
 -3.330000000000000E-002    0.000000000000000E+000
 -3.320000000000000E-002    0.000000000000000E+000
 -3.310000000000000E-002    0.000000000000000E+000
 -3.300000000000000E-002    0.000000000000000E+000
 -3.290000000000000E-002    0.000000000000000E+000
 -3.280000000000000E-002    0.000000000000000E+000
 -3.270000000000000E-002    0.000000000000000E+000
 -3.260000000000000E-002    0.000000000000000E+000
 -3.250000000000000E-002    0.000000000000000E+000
 -3.240000000000000E-002    0.000000000000000E+000
 -3.230000000000000E-002    0.000000000000000E+000
 -3.220000000000000E-002    0.000000000000000E+000
 -3.210000000000000E-002    0.000000000000000E+000
 -3.200000000000000E-002    0.000000000000000E+000
 -3.190000000000000E-002    0.000000000000000E+000
 -3.180000000000000E-002    0.000000000000000E+000
 -3.170000000000000E-002    0.000000000000000E+000
 -3.160000000000000E-002    0.000000000000000E+000
 -3.150000000000000E-002    0.000000000000000E+000
 -3.140000000000000E-002    0.000000000000000E+000
 -3.130000000000000E-002    0.000000000000000E+000
 -3.120000000000000E-002    0.000000000000000E+000
 -3.110000000000000E-002    0.000000000000000E+000
 -3.100000000000000E-002    0.000000000000000E+000
 -3.090000000000000E-002    0.000000000000000E+000
 -3.080000000000000E-002    0.000000000000000E+000
 -3.070000000000000E-002    0.000000000000000E+000
 -3.060000000000000E-002    0.000000000000000E+000
 -3.050000000000000E-002    0.000000000000000E+000
 -3.040000000000000E-002    0.000000000000000E+000
 -3.030000000000000E-002    0.000000000000000E+000
 -3.020000000000000E-002    0.000000000000000E+000
 -3.010000000000000E-002    0.000000000000000E+000
 -3.000000000000000E-002    0.000000000000000E+000
 -2.990000000000000E-002    0.000000000000000E+000
 -2.980000000000000E-002    0.000000000000000E+000
 -2.970000000000000E-002    0.000000000000000E+000
 -2.960000000000000E-002    0.000000000000000E+000
 -2.950000000000000E-002    0.000000000000000E+000
 -2.940000000000000E-002    0.000000000000000E+000
 -2.930000000000000E-002    0.000000000000000E+000
 -2.920000000000000E-002    0.000000000000000E+000
 -2.910000000000000E-002    0.000000000000000E+000
 -2.900000000000000E-002    0.000000000000000E+000
 -2.890000000000000E-002    0.000000000000000E+000
 -2.880000000000000E-002    0.000000000000000E+000
 -2.870000000000000E-002    0.000000000000000E+000
 -2.860000000000000E-002    0.000000000000000E+000
 -2.850000000000000E-002    0.000000000000000E+000
 -2.840000000000000E-002    0.000000000000000E+000
 -2.830000000000000E-002    0.000000000000000E+000
 -2.820000000000000E-002    0.000000000000000E+000
 -2.810000000000000E-002    0.000000000000000E+000
 -2.800000000000000E-002    0.000000000000000E+000
 -2.790000000000000E-002    0.000000000000000E+000
 -2.780000000000000E-002    0.000000000000000E+000
 -2.770000000000000E-002    0.000000000000000E+000
 -2.760000000000000E-002    0.000000000000000E+000
 -2.750000000000000E-002    0.000000000000000E+000
 -2.740000000000000E-002    0.000000000000000E+000
 -2.730000000000000E-002    0.000000000000000E+000
 -2.720000000000000E-002   -5.423003749163521E-048
 -2.710000000000000E-002   -1.084600749832704E-047
 -2.700000000000000E-002   -1.084600749832704E-047
 -2.690000000000000E-002   -1.084600749832704E-047
 -2.680000000000000E-002   -5.423003749163521E-048
 -2.670000000000000E-002   -2.298229976535194E-047
 -2.660000000000000E-002   -1.288682711137870E-047
 -2.650000000000000E-002   -1.081364429842207E-047
 -2.640000000000000E-002    2.810205591839542E-047
 -2.630000000000000E-002    4.760970887152521E-047
 -2.620000000000000E-002    7.005932279411394E-047
 -2.610000000000000E-002    7.237316931158085E-047
 -2.600000000000000E-002    1.459462128785140E-046
 -2.590000000000000E-002    1.461927178079109E-046
 -2.580000000000000E-002    1.200261104700529E-046
 -2.570000000000000E-002   -6.161868154800582E-048
 -2.560000000000000E-002   -2.140900473125417E-046
 -2.550000000000000E-002   -2.777684289000763E-046
 -2.540000000000000E-002   -5.140397047259532E-046
 -2.530000000000000E-002   -1.659893301601330E-045
 -2.520000000000000E-002   -2.539595382093907E-045
 -2.510000000000000E-002   -3.241628473415086E-045
 -2.500000000000000E-002   -4.594993617212622E-045
 -2.490000000000000E-002   -5.976900984292089E-045
 -2.480000000000000E-002   -7.369835181338129E-045
 -2.470000000000000E-002   -8.354478533437337E-045
 -2.460000000000000E-002   -8.137287382593614E-045
 -2.450000000000000E-002   -5.814878667318543E-045
 -2.440000000000000E-002    4.701128724278491E-046
 -2.430000000000000E-002    1.017615890138768E-044
 -2.420000000000000E-002    2.657199850422065E-044
 -2.410000000000000E-002    4.987271043166677E-044
 -2.400000000000000E-002    7.914986629929971E-044
 -2.390000000000000E-002    1.156052423128673E-043
 -2.380000000000000E-002    1.540802109365824E-043
 -2.370000000000000E-002    1.891390290700386E-043
 -2.360000000000000E-002    2.113275859575301E-043
 -2.350000000000000E-002    2.050195403010478E-043
 -2.340000000000000E-002    1.511991758257345E-043
 -2.330000000000000E-002    2.906922080912422E-044
 -2.320000000000000E-002   -1.854352789373610E-043
 -2.310000000000000E-002   -5.118384781178640E-043
 -2.300000000000000E-002   -9.615979102931309E-043
 -2.290000000000000E-002   -1.526782200374275E-042
 -2.280000000000000E-002   -2.173547806570505E-042
 -2.270000000000000E-002   -2.825637742925564E-042
 -2.260000000000000E-002   -3.355916574497704E-042
 -2.250000000000000E-002   -3.576927216830672E-042
 -2.240000000000000E-002   -3.239531992874515E-042
 -2.230000000000000E-002   -2.043258091102307E-042
 -2.220000000000000E-002    3.405155082687628E-043
 -2.210000000000000E-002    4.215120251938843E-042
 -2.200000000000000E-002    9.785991076982181E-042
 -2.190000000000000E-002    1.705579584601064E-041
 -2.180000000000000E-002    2.569509919302277E-041
 -2.170000000000000E-002    3.489520062841712E-041
 -2.160000000000000E-002    4.322645025171288E-041
 -2.150000000000000E-002    4.852695180033876E-041
 -2.140000000000000E-002    4.786971214407594E-041
 -2.130000000000000E-002    3.765625573898584E-041
 -2.120000000000000E-002    1.390038518459553E-041
 -2.110000000000000E-002   -2.723776239627198E-041
 -2.100000000000000E-002   -8.862151874044797E-041
 -2.090000000000000E-002   -1.709840144893403E-040
 -2.080000000000000E-002   -2.714971096476092E-040
 -2.070000000000000E-002   -3.821517306014171E-040
 -2.060000000000000E-002   -4.881626026596468E-040
 -2.050000000000000E-002   -5.667086657491114E-040
 -2.040000000000000E-002   -5.864592832739737E-040
 -2.030000000000000E-002   -5.084244865616395E-040
 -2.020000000000000E-002   -2.887564757317933E-040
 -2.010000000000000E-002    1.158845857460481E-040
 -2.000000000000000E-002    7.399275968137597E-040
 -1.990000000000000E-002    1.597262114696730E-039
 -1.980000000000000E-002    2.666692701559107E-039
 -1.970000000000000E-002    3.875509985724407E-039
 -1.960000000000000E-002    5.083138412232674E-039
 -1.950000000000000E-002    6.067927694926164E-039
 -1.940000000000000E-002    6.521274436443858E-039
 -1.930000000000000E-002    6.054287071050607E-039
 -1.920000000000000E-002    4.222765135400667E-039
 -1.910000000000000E-002    5.761949674885170E-040
 -1.900000000000000E-002   -5.264800315178340E-039
 -1.890000000000000E-002   -1.350084466234546E-038
 -1.880000000000000E-002   -2.401868630878691E-038
 -1.870000000000000E-002   -3.623772204141500E-038
 -1.860000000000000E-002   -4.895542878803941E-038
 -1.850000000000000E-002   -6.021844303664132E-038
 -1.840000000000000E-002   -6.725580173728236E-038
 -1.830000000000000E-002   -6.651912123892265E-038
 -1.820000000000000E-002   -5.387952624922514E-038
 -1.810000000000000E-002   -2.502990471879866E-038
 -1.800000000000000E-002    2.386906620388069E-038
 -1.790000000000000E-002    9.528421808353362E-038
 -1.780000000000000E-002    1.891654370757714E-037
 -1.770000000000000E-002    3.016360199446341E-037
 -1.760000000000000E-002    4.236533731469345E-037
 -1.750000000000000E-002    5.398538389714716E-037
 -1.740000000000000E-002    6.278701394765155E-037
 -1.730000000000000E-002    6.584739913716234E-037
 -1.720000000000000E-002    5.969361108521749E-037
 -1.710000000000000E-002    4.059839649645576E-037
 -1.700000000000000E-002    5.065635853657961E-038
 -1.690000000000000E-002   -4.948071619919050E-037
 -1.680000000000000E-002   -1.238187157482577E-036
 -1.670000000000000E-002   -2.159134673764952E-036
 -1.660000000000000E-002   -3.198645104864883E-036
 -1.650000000000000E-002   -4.249703586427011E-036
 -1.640000000000000E-002   -5.151175346251087E-036
 -1.630000000000000E-002   -5.687489936679840E-036
 -1.620000000000000E-002   -5.596911448691707E-036
 -1.610000000000000E-002   -4.591123475124827E-036
 -1.600000000000000E-002   -2.388269631702833E-036
 -1.590000000000000E-002    1.239517642114200E-036
 -1.580000000000000E-002    6.405044705351047E-036
 -1.570000000000000E-002    1.303482328365257E-035
 -1.560000000000000E-002    2.079437673478193E-035
 -1.550000000000000E-002    2.902029441000821E-035
 -1.540000000000000E-002    3.667281787530722E-035
 -1.530000000000000E-002    4.232566718312219E-035
 -1.520000000000000E-002    4.421143931358095E-035
 -1.510000000000000E-002    4.034017886057130E-035
 -1.500000000000000E-002    2.870524225160064E-035
 -1.490000000000000E-002    7.582709234515198E-036
 -1.480000000000000E-002   -2.408070860919087E-035
 -1.470000000000000E-002   -6.621314119190872E-035
 -1.460000000000000E-002   -1.171372230932978E-034
 -1.450000000000000E-002   -1.731271582883320E-034
 -1.440000000000000E-002   -2.280871228363894E-034
 -1.430000000000000E-002   -2.734524821284597E-034
 -1.420000000000000E-002   -2.984232398731532E-034
 -1.410000000000000E-002   -2.906353626299700E-034
 -1.400000000000000E-002   -2.373517721903610E-034
 -1.390000000000000E-002   -1.272091709174003E-034
 -1.380000000000000E-002    4.751137759194607E-035
 -1.370000000000000E-002    2.882178335983287E-034
 -1.360000000000000E-002    5.871836771733972E-034
 -1.350000000000000E-002    9.249294438265091E-034
 -1.340000000000000E-002    1.268287402452698E-033
 -1.330000000000000E-002    1.569718665381501E-033
 -1.320000000000000E-002    1.768494850877241E-033
 -1.310000000000000E-002    1.794316689912134E-033
 -1.300000000000000E-002    1.573812547158572E-033
 -1.290000000000000E-002    1.040098692059244E-033
 -1.280000000000000E-002    1.451863022154647E-034
 -1.270000000000000E-002   -1.125461385149977E-033
 -1.260000000000000E-002   -2.737554544664098E-033
 -1.250000000000000E-002   -4.593736634286111E-033
 -1.240000000000000E-002   -6.523023001248169E-033
 -1.230000000000000E-002   -8.276934853827317E-033
 -1.220000000000000E-002   -9.535480979729725E-033
 -1.210000000000000E-002   -9.925932277961698E-033
 -1.200000000000000E-002   -9.056553714023862E-033
 -1.190000000000000E-002   -6.566092309562277E-033
 -1.180000000000000E-002   -2.187771386255724E-033
 -1.170000000000000E-002    4.175997431140165E-033
 -1.160000000000000E-002    1.237508591342247E-032
 -1.150000000000000E-002    2.193925755889589E-032
 -1.140000000000000E-002    3.202478226385623E-032
 -1.130000000000000E-002    4.139492740437881E-032
 -1.120000000000000E-002    4.844978571937522E-032
 -1.110000000000000E-002    5.131947043777577E-032
 -1.100000000000000E-002    4.803070324062899E-032
 -1.090000000000000E-002    3.674984123863596E-032
 -1.080000000000000E-002    1.609546957772528E-032
 -1.070000000000000E-002   -1.449876750841062E-032
 -1.060000000000000E-002   -5.440488013380486E-032
 -1.050000000000000E-002   -1.014528887908181E-031
 -1.040000000000000E-002   -1.516758322550801E-031
 -1.030000000000000E-002   -1.992169178865381E-031
 -1.020000000000000E-002   -2.364702482262410E-031
 -1.010000000000000E-002   -2.545180159983978E-031
 -1.000000000000000E-002   -2.439081515742118E-031
 -9.899999999999999E-003   -1.957822945295029E-031
 -9.800000000000000E-003   -1.033194619769629E-031
 -9.699999999999999E-003    3.659756636240331E-032
 -9.599999999999999E-003    2.216480221984341E-031
 -9.500000000000000E-003    4.424900957164691E-031
 -9.399999999999999E-003    6.816018256392264E-031
 -9.299999999999999E-003    9.128525464002032E-031
 -9.200000000000000E-003    1.102113228360770E-030
 -9.099999999999999E-003    1.209175888383009E-030
 -8.999999999999999E-003    1.191156757794684E-030
 -8.900000000000000E-003    1.007418381727716E-030
 -8.799999999999999E-003    6.258384981269641E-031
 -8.699999999999999E-003    3.001612486580629E-032
 -8.600000000000000E-003   -7.732603461771946E-031
 -8.499999999999999E-003   -1.747214153128486E-030
 -8.399999999999999E-003   -2.820100494803805E-030
 -8.300000000000000E-003   -3.883308980664129E-030
 -8.199999999999999E-003   -4.793814925312312E-030
 -8.100000000000000E-003   -5.382036799552651E-030
 -8.000000000000000E-003   -5.465788326279817E-030
 -7.899999999999999E-003   -4.870373771546888E-030
 -7.800000000000000E-003   -3.454076378018569E-030
 -7.699999999999999E-003   -1.137323322454543E-030
 -7.599999999999999E-003    2.067244472173453E-030
 -7.499999999999999E-003    6.027529620971048E-030
 -7.399999999999999E-003    1.047208682689588E-029
 -7.299999999999999E-003    1.498250814286035E-029
 -7.199999999999999E-003    1.900286630285199E-029
 -7.100000000000000E-003    2.187016752474439E-029
 -6.999999999999999E-003    2.286811327724004E-029
 -6.899999999999999E-003    2.130411909353643E-029
 -6.800000000000000E-003    1.660632573501387E-029
 -6.699999999999999E-003    8.433651615997738E-030
 -6.599999999999999E-003   -3.211691127584644E-030
 -6.499999999999999E-003   -1.788349345020269E-029
 -6.399999999999999E-003   -3.461941342454072E-029
 -6.299999999999999E-003   -5.191528536528584E-029
 -6.199999999999999E-003   -6.776279743595435E-029
 -6.100000000000000E-003   -7.976391499152274E-029
 -5.999999999999999E-003   -8.532897853032446E-029
 -5.899999999999999E-003   -8.195639663185934E-029
 -5.800000000000000E-003   -6.758017562956997E-029
 -5.699999999999999E-003   -4.095866288176473E-029
 -5.599999999999999E-003   -2.064675857540442E-030
 -5.499999999999999E-003    4.757403714700271E-029
 -5.399999999999999E-003    1.046431616212091E-028
 -5.299999999999999E-003    1.639802832078585E-028
 -5.199999999999999E-003    2.187385837949124E-028
 -5.099999999999999E-003    2.608172539532525E-028
 -4.999999999999999E-003    2.815749722131291E-028
 -4.899999999999999E-003    2.728098193928311E-028
 -4.799999999999999E-003    2.279484133124937E-028
 -4.699999999999999E-003    1.433439571269471E-028
 -4.599999999999999E-003    1.953887144333122E-029
 -4.499999999999999E-003   -1.376861867613030E-028
 -4.399999999999999E-003   -3.166756772939488E-028
 -4.299999999999999E-003   -4.998737703501483E-028
 -4.199999999999999E-003   -6.645801018294129E-028
 -4.099999999999999E-003   -7.845990463861725E-028
 -3.999999999999999E-003   -8.328029055798907E-028
 -3.899999999999999E-003   -7.845165851150352E-028
 -3.799999999999999E-003   -6.214865838652301E-028
 -3.699999999999999E-003   -3.360604012011685E-028
 -3.599999999999999E-003    6.493355369160613E-029
 -3.499999999999999E-003    5.572119149710800E-028
 -3.399999999999999E-003    1.097621689252035E-027
 -3.299999999999999E-003    1.624902785048982E-027
 -3.199999999999999E-003    2.063125276053179E-027
 -3.099999999999999E-003    2.328066775959069E-027
 -2.999999999999999E-003    2.336473400092121E-027
 -2.899999999999999E-003    2.017746926463380E-027
 -2.799999999999999E-003    1.327130556980509E-027
 -2.699999999999999E-003    2.590253233979989E-028
 -2.599999999999999E-003   -1.141336606633155E-027
 -2.499999999999999E-003   -2.769897631512707E-027
 -2.399999999999999E-003   -4.461562626149151E-027
 -2.299999999999999E-003   -5.995667358434499E-027
 -2.199999999999999E-003   -7.110518911802978E-027
 -2.099999999999999E-003   -7.527571393680172E-027
 -1.999999999999999E-003   -6.984652277550625E-027
 -1.899999999999999E-003   -5.276287114167286E-027
 -1.799999999999999E-003   -2.297706196090974E-027
 -1.699999999999999E-003    1.912343116487567E-027
 -1.599999999999999E-003    7.135980415240114E-027
 -1.499999999999999E-003    1.295450535691573E-026
 -1.399999999999999E-003    1.874733501981651E-026
 -1.299999999999999E-003    2.371738455140369E-026
 -1.199999999999999E-003    2.694681292657831E-026
 -1.099999999999999E-003    2.748409281701438E-026
 -9.999999999999989E-004    2.445967158557950E-026
 -8.999999999999990E-004    1.722287527318166E-026
 -7.999999999999990E-004    5.488102837754108E-027
 -6.999999999999989E-004   -1.052604981277952E-026
 -5.999999999999990E-004   -2.998456209027101E-026
 -4.999999999999989E-004   -5.137223556633175E-026
 -3.999999999999989E-004   -7.249951112692586E-026
 -2.999999999999989E-004   -9.059557122585408E-026
 -1.999999999999989E-004   -1.025000502943070E-025
 -9.999999999999892E-005   -1.049550238606511E-025
  1.084202172485504E-018   -9.498700348221606E-026
  1.000000000000011E-004   -7.035419591589300E-026
  2.000000000000011E-004   -3.002031365277663E-026
  3.000000000000011E-004    2.539725110145249E-026
  4.000000000000011E-004    9.326696433578060E-026
  5.000000000000011E-004    1.687374491909195E-025
  6.000000000000011E-004    2.447508911106961E-025
  7.000000000000011E-004    3.123290630799770E-025
  8.000000000000011E-004    3.611655825620482E-025
  9.000000000000012E-004    3.805275359149053E-025
  1.000000000000001E-003    3.604342912451457E-025
  1.100000000000001E-003    2.930381786472803E-025
  1.200000000000001E-003    1.740897929465397E-025
  1.300000000000001E-003    4.331945506729829E-027
  1.400000000000001E-003   -2.093622750738498E-025
  1.500000000000001E-003   -4.533043741744594E-025
  1.600000000000001E-003   -7.069480689661013E-025
  1.700000000000001E-003   -9.436453972656461E-025
  1.800000000000001E-003   -1.132299317152724E-024
  1.900000000000001E-003   -1.239924752720662E-024
  2.000000000000001E-003   -1.235025592153806E-024
  2.100000000000001E-003   -1.091576662938183E-024
  2.200000000000001E-003   -7.932786299920794E-025
  2.300000000000001E-003   -3.376500227843453E-025
  2.400000000000001E-003    2.605606480789322E-025
  2.500000000000001E-003    9.671927282474704E-025
  2.600000000000001E-003    1.728246364560239E-024
  2.700000000000001E-003    2.471649025138019E-024
  2.800000000000001E-003    3.111481744340811E-024
  2.900000000000001E-003    3.554712020190022E-024
  3.000000000000001E-003    3.710185732706752E-024
  3.100000000000001E-003    3.499320598651205E-024
  3.200000000000001E-003    2.867624787815339E-024
  3.300000000000001E-003    1.795877117054597E-024
  3.400000000000001E-003    3.096137453953118E-025
  3.500000000000001E-003   -1.514528574046232E-024
  3.600000000000001E-003   -3.546983145426430E-024
  3.700000000000001E-003   -5.609079752255024E-024
  3.800000000000001E-003   -7.483221285127923E-024
  3.900000000000001E-003   -8.929523632959576E-024
  4.000000000000001E-003   -9.708291044101209E-024
  4.100000000000001E-003   -9.606899843687101E-024
  4.200000000000001E-003   -8.468858812632247E-024
  4.300000000000001E-003   -6.222135011740030E-024
  4.400000000000001E-003   -2.903328170424491E-024
  4.500000000000001E-003    1.325882962471719E-024
  4.600000000000002E-003    6.173420228484615E-024
  4.700000000000001E-003    1.122534295782235E-023
  4.800000000000001E-003    1.596988895824385E-023
  4.900000000000002E-003    1.983718493329046E-023
  5.000000000000001E-003    2.225296515900094E-023
  5.100000000000001E-003    2.270269105415961E-023
  5.200000000000001E-003    2.080059045464629E-023
  5.300000000000002E-003    1.635647203399290E-023
  5.400000000000001E-003    9.432156208576753E-024
  5.500000000000001E-003    3.789973660619339E-025
  5.600000000000002E-003   -1.015132647348077E-023
  5.700000000000001E-003   -2.122896576724626E-023
  5.800000000000001E-003   -3.170433835380234E-023
  5.900000000000002E-003   -4.030268554413205E-023
  6.000000000000001E-003   -4.575011964444860E-023
  6.100000000000001E-003   -4.692202055186983E-023
  6.200000000000002E-003   -4.300033222388701E-023
  6.300000000000002E-003   -3.362265735693532E-023
  6.400000000000001E-003   -1.900400289500910E-023
  6.500000000000001E-003   -1.171194206501512E-026
  6.600000000000002E-003    2.182389356637354E-023
  6.700000000000001E-003    4.437608253257774E-023
  6.800000000000001E-003    6.507163190904149E-023
  6.900000000000002E-003    8.112124122290383E-023
  7.000000000000001E-003    8.981755377587553E-023
  7.100000000000001E-003    8.887715870270129E-023
  7.200000000000002E-003    7.679358125798664E-023
  7.300000000000002E-003    5.316050918523109E-023
  7.400000000000001E-003    1.892077065372599E-023
  7.500000000000001E-003   -2.350282639660399E-023
  7.600000000000002E-003   -7.023262018217411E-023
  7.700000000000001E-003   -1.161431705892492E-022
  7.800000000000001E-003   -1.552590645873067E-022
  7.900000000000001E-003   -1.813313406229512E-022
  8.000000000000002E-003   -1.885557742682717E-022
  8.100000000000001E-003   -1.723730290992361E-022
  8.200000000000001E-003   -1.302692002716180E-022
  8.300000000000002E-003   -6.247967019848001E-023
  8.400000000000001E-003    2.750672540169462E-023
  8.500000000000002E-003    1.327425515242321E-022
  8.600000000000002E-003    2.429969484131104E-022
  8.700000000000001E-003    3.453628627455272E-022
  8.800000000000002E-003    4.253052390403634E-022
  8.900000000000002E-003    4.681093140199031E-022
  9.000000000000001E-003    4.606316726708028E-022
  9.100000000000002E-003    3.932020781724867E-022
  9.200000000000002E-003    2.614794048629725E-022
  9.300000000000001E-003    6.803068749274482E-023
  9.400000000000002E-003   -1.766056641087875E-022
  9.500000000000001E-003   -4.535968609339329E-022
  9.600000000000001E-003   -7.364123280741748E-022
  9.700000000000002E-003   -9.924427710654574E-022
  9.800000000000001E-003   -1.185646809430469E-021
  9.900000000000001E-003   -1.280107898599533E-021
  1.000000000000000E-002   -1.244257873236135E-021
  1.010000000000000E-002   -1.055402743638418E-021
  1.020000000000000E-002   -7.040782894424230E-022
  1.030000000000000E-002   -1.977034762480372E-022
  1.040000000000000E-002    4.370233601339424E-022
  1.050000000000000E-002    1.153491385100387E-021
  1.060000000000000E-002    1.886706408137645E-021
  1.070000000000000E-002    2.557203641698050E-021
  1.080000000000000E-002    3.077329459508405E-021
  1.090000000000000E-002    3.359614326314330E-021
  1.100000000000000E-002    3.326655005431137E-021
  1.110000000000000E-002    2.921666561625439E-021
  1.120000000000000E-002    2.118630384586619E-021
  1.130000000000000E-002    9.308161579681192E-022
  1.140000000000000E-002   -5.835600557718374E-022
  1.150000000000000E-002   -2.319685773274143E-021
  1.160000000000000E-002   -4.129395041347240E-021
  1.170000000000000E-002   -5.829801064502601E-021
  1.180000000000000E-002   -7.217281840341812E-021
  1.190000000000000E-002   -8.086195930427618E-021
  1.200000000000000E-002   -8.251052669550695E-021
  1.210000000000000E-002   -7.570277753371466E-021
  1.220000000000000E-002   -5.969211727161729E-021
  1.230000000000000E-002   -3.459668865330019E-021
  1.240000000000000E-002   -1.533349044526143E-022
  1.250000000000000E-002    3.733513769585545E-021
  1.260000000000000E-002    7.885917662412616E-021
  1.270000000000000E-002    1.190786886505040E-020
  1.280000000000000E-002    1.535168278950419E-020
  1.290000000000000E-002    1.775779421224927E-020
  1.300000000000000E-002    1.870230881733267E-020
  1.310000000000000E-002    1.784839915423066E-020
  1.320000000000000E-002    1.499653694053104E-020
  1.330000000000000E-002    1.012790404107820E-020
  1.340000000000000E-002    3.435181353309332E-021
  1.350000000000000E-002   -4.664623827470742E-021
  1.360000000000000E-002   -1.353955449716717E-020
  1.370000000000000E-002   -2.237669896613832E-020
  1.380000000000000E-002   -3.024100302466603E-020
  1.390000000000000E-002   -3.615631432252706E-020
  1.400000000000000E-002   -3.920338021319821E-020
  1.410000000000000E-002   -3.862675182878928E-020
  1.420000000000000E-002   -3.394038151881125E-020
  1.430000000000000E-002   -2.502035481439873E-020
  1.440000000000000E-002   -1.217274441532493E-020
  1.450000000000000E-002    3.834461965299831E-021
  1.460000000000000E-002    2.178421490930679E-020
  1.470000000000000E-002    4.007335848640651E-020
  1.480000000000000E-002    5.682631467802341E-020
  1.490000000000000E-002    7.005483565762305E-020
  1.500000000000000E-002    7.785341327084372E-020
  1.510000000000000E-002    7.861445626133591E-020
  1.520000000000000E-002    7.124314378350187E-020
  1.530000000000000E-002    5.534861757819317E-020
  1.540000000000000E-002    3.138763252216246E-020
  1.550000000000000E-002    7.382094146442624E-022
  1.560000000000000E-002   -3.431464897366319E-020
  1.570000000000000E-002   -7.069245107114174E-020
  1.580000000000000E-002   -1.047377531661873E-019
  1.590000000000000E-002   -1.325214692119924E-019
  1.600000000000000E-002   -1.502229974320917E-019
  1.610000000000000E-002   -1.545526720998218E-019
  1.620000000000000E-002   -1.431773839593913E-019
  1.630000000000000E-002   -1.151040406033876E-019
  1.640000000000000E-002   -7.097380565320084E-020
  1.650000000000000E-002   -1.322292740979172E-020
  1.660000000000000E-002    5.392565611489303E-020
  1.670000000000000E-002    1.246629005334418E-019
  1.680000000000000E-002    1.919915999722490E-019
  1.690000000000000E-002    2.483066978554728E-019
  1.700000000000000E-002    2.861209705639498E-019
  1.710000000000000E-002    2.988787341847340E-019
  1.720000000000000E-002    2.817823128858838E-019
  1.730000000000000E-002    2.325448684620860E-019
  1.740000000000000E-002    1.519787192701135E-019
  1.750000000000000E-002    4.433363783664030E-020
  1.760000000000000E-002   -8.268508597909392E-020
  1.770000000000000E-002   -2.182648067309296E-019
  1.780000000000000E-002   -3.492127792740637E-019
  1.790000000000000E-002   -4.610355463896202E-019
  1.800000000000000E-002   -5.393038353384265E-019
  1.810000000000000E-002   -5.711954397074230E-019
  1.820000000000000E-002   -5.470757717271331E-019
  1.830000000000000E-002   -4.619514620808845E-019
  1.840000000000000E-002   -3.166262721648484E-019
  1.850000000000000E-002   -1.183943015749628E-019
  1.860000000000000E-002    1.188640198431048E-019
  1.870000000000000E-002    3.752743048703129E-019