 -4.000000000000000E-002    0.000000000000000E+000
 -3.990000000000000E-002    0.000000000000000E+000
 -3.980000000000000E-002    0.000000000000000E+000
 -3.970000000000000E-002    0.000000000000000E+000
 -3.960000000000000E-002    0.000000000000000E+000
 -3.950000000000000E-002    0.000000000000000E+000
 -3.940000000000000E-002    0.000000000000000E+000
 -3.930000000000000E-002    0.000000000000000E+000
 -3.920000000000000E-002    0.000000000000000E+000
 -3.910000000000000E-002    0.000000000000000E+000
 -3.900000000000000E-002    0.000000000000000E+000
 -3.890000000000000E-002    0.000000000000000E+000
 -3.880000000000000E-002    0.000000000000000E+000
 -3.870000000000000E-002    0.000000000000000E+000
 -3.860000000000000E-002    0.000000000000000E+000
 -3.850000000000000E-002    0.000000000000000E+000
 -3.840000000000000E-002    0.000000000000000E+000
 -3.830000000000000E-002    0.000000000000000E+000
 -3.820000000000000E-002    0.000000000000000E+000
 -3.810000000000000E-002    0.000000000000000E+000
 -3.800000000000000E-002    0.000000000000000E+000
 -3.790000000000000E-002    0.000000000000000E+000
 -3.780000000000000E-002    0.000000000000000E+000
 -3.770000000000000E-002    0.000000000000000E+000
 -3.760000000000000E-002    0.000000000000000E+000
 -3.750000000000000E-002    0.000000000000000E+000
 -3.740000000000000E-002    0.000000000000000E+000
 -3.730000000000000E-002    0.000000000000000E+000
 -3.720000000000000E-002    0.000000000000000E+000
 -3.710000000000000E-002    0.000000000000000E+000
 -3.700000000000000E-002    0.000000000000000E+000
 -3.690000000000000E-002    0.000000000000000E+000
 -3.680000000000000E-002    0.000000000000000E+000
 -3.670000000000000E-002    0.000000000000000E+000
 -3.660000000000000E-002    0.000000000000000E+000
 -3.650000000000000E-002    0.000000000000000E+000
 -3.640000000000000E-002    0.000000000000000E+000
 -3.630000000000000E-002    0.000000000000000E+000
 -3.620000000000000E-002    0.000000000000000E+000
 -3.610000000000000E-002    0.000000000000000E+000
 -3.600000000000000E-002    0.000000000000000E+000
 -3.590000000000000E-002    0.000000000000000E+000
 -3.580000000000000E-002    0.000000000000000E+000
 -3.570000000000000E-002    0.000000000000000E+000
 -3.560000000000000E-002    0.000000000000000E+000
 -3.550000000000000E-002    0.000000000000000E+000
 -3.540000000000000E-002    0.000000000000000E+000
 -3.530000000000000E-002    0.000000000000000E+000
 -3.520000000000000E-002    0.000000000000000E+000
 -3.510000000000000E-002    0.000000000000000E+000
 -3.500000000000000E-002    0.000000000000000E+000
 -3.490000000000000E-002    0.000000000000000E+000
 -3.480000000000000E-002    0.000000000000000E+000
 -3.470000000000000E-002    0.000000000000000E+000
 -3.460000000000000E-002    0.000000000000000E+000
 -3.450000000000000E-002    0.000000000000000E+000
 -3.440000000000000E-002    0.000000000000000E+000
 -3.430000000000000E-002    0.000000000000000E+000
 -3.420000000000000E-002    0.000000000000000E+000
 -3.410000000000000E-002    0.000000000000000E+000
 -3.400000000000000E-002    0.000000000000000E+000
 -3.390000000000000E-002    0.000000000000000E+000
 -3.380000000000000E-002    0.000000000000000E+000
 -3.370000000000000E-002    0.000000000000000E+000
 -3.360000000000000E-002    0.000000000000000E+000
 -3.350000000000000E-002    0.000000000000000E+000
 -3.340000000000000E-002    0.000000000000000E+000
 -3.330000000000000E-002    0.000000000000000E+000
 -3.320000000000000E-002    0.000000000000000E+000
 -3.310000000000000E-002    0.000000000000000E+000
 -3.300000000000000E-002    0.000000000000000E+000
 -3.290000000000000E-002    0.000000000000000E+000
 -3.280000000000000E-002    0.000000000000000E+000
 -3.270000000000000E-002    0.000000000000000E+000
 -3.260000000000000E-002    0.000000000000000E+000
 -3.250000000000000E-002    0.000000000000000E+000
 -3.240000000000000E-002    0.000000000000000E+000
 -3.230000000000000E-002    0.000000000000000E+000
 -3.220000000000000E-002    0.000000000000000E+000
 -3.210000000000000E-002    0.000000000000000E+000
 -3.200000000000000E-002    0.000000000000000E+000
 -3.190000000000000E-002    0.000000000000000E+000
 -3.180000000000000E-002    0.000000000000000E+000
 -3.170000000000000E-002    0.000000000000000E+000
 -3.160000000000000E-002    0.000000000000000E+000
 -3.150000000000000E-002    0.000000000000000E+000
 -3.140000000000000E-002    0.000000000000000E+000
 -3.130000000000000E-002    0.000000000000000E+000
 -3.120000000000000E-002    0.000000000000000E+000
 -3.110000000000000E-002    0.000000000000000E+000
 -3.100000000000000E-002    0.000000000000000E+000
 -3.090000000000000E-002    0.000000000000000E+000
 -3.080000000000000E-002    0.000000000000000E+000
 -3.070000000000000E-002    0.000000000000000E+000
 -3.060000000000000E-002    0.000000000000000E+000
 -3.050000000000000E-002    0.000000000000000E+000
 -3.040000000000000E-002    0.000000000000000E+000
 -3.030000000000000E-002    0.000000000000000E+000
 -3.020000000000000E-002    0.000000000000000E+000
 -3.010000000000000E-002    0.000000000000000E+000
 -3.000000000000000E-002    0.000000000000000E+000
 -2.990000000000000E-002    0.000000000000000E+000
 -2.980000000000000E-002    0.000000000000000E+000
 -2.970000000000000E-002    0.000000000000000E+000
 -2.960000000000000E-002    0.000000000000000E+000
 -2.950000000000000E-002    0.000000000000000E+000
 -2.940000000000000E-002    0.000000000000000E+000
 -2.930000000000000E-002    0.000000000000000E+000
 -2.920000000000000E-002    0.000000000000000E+000
 -2.910000000000000E-002    0.000000000000000E+000
 -2.900000000000000E-002    0.000000000000000E+000
 -2.890000000000000E-002    0.000000000000000E+000
 -2.880000000000000E-002    0.000000000000000E+000
 -2.870000000000000E-002    0.000000000000000E+000
 -2.860000000000000E-002    0.000000000000000E+000
 -2.850000000000000E-002    0.000000000000000E+000
 -2.840000000000000E-002    0.000000000000000E+000
 -2.830000000000000E-002    0.000000000000000E+000
 -2.820000000000000E-002    0.000000000000000E+000
 -2.810000000000000E-002    0.000000000000000E+000
 -2.800000000000000E-002    0.000000000000000E+000
 -2.790000000000000E-002    0.000000000000000E+000
 -2.780000000000000E-002    0.000000000000000E+000
 -2.770000000000000E-002    0.000000000000000E+000
 -2.760000000000000E-002    0.000000000000000E+000
 -2.750000000000000E-002    0.000000000000000E+000
 -2.740000000000000E-002    0.000000000000000E+000
 -2.730000000000000E-002    0.000000000000000E+000
 -2.720000000000000E-002    0.000000000000000E+000
 -2.710000000000000E-002    0.000000000000000E+000
 -2.700000000000000E-002    0.000000000000000E+000
 -2.690000000000000E-002    0.000000000000000E+000
 -2.680000000000000E-002    0.000000000000000E+000
 -2.670000000000000E-002    0.000000000000000E+000
 -2.660000000000000E-002    0.000000000000000E+000
 -2.650000000000000E-002    0.000000000000000E+000
 -2.640000000000000E-002    0.000000000000000E+000
 -2.630000000000000E-002    0.000000000000000E+000
 -2.620000000000000E-002    0.000000000000000E+000
 -2.610000000000000E-002    0.000000000000000E+000
 -2.600000000000000E-002    0.000000000000000E+000
 -2.590000000000000E-002    0.000000000000000E+000
 -2.580000000000000E-002    0.000000000000000E+000
 -2.570000000000000E-002    0.000000000000000E+000
 -2.560000000000000E-002    0.000000000000000E+000
 -2.550000000000000E-002    0.000000000000000E+000
 -2.540000000000000E-002    0.000000000000000E+000
 -2.530000000000000E-002    0.000000000000000E+000
 -2.520000000000000E-002    0.000000000000000E+000
 -2.510000000000000E-002    0.000000000000000E+000
 -2.500000000000000E-002    0.000000000000000E+000
 -2.490000000000000E-002    0.000000000000000E+000
 -2.480000000000000E-002    0.000000000000000E+000
 -2.470000000000000E-002    0.000000000000000E+000
 -2.460000000000000E-002    0.000000000000000E+000
 -2.450000000000000E-002    0.000000000000000E+000
 -2.440000000000000E-002    0.000000000000000E+000
 -2.430000000000000E-002    0.000000000000000E+000
 -2.420000000000000E-002    0.000000000000000E+000
 -2.410000000000000E-002    0.000000000000000E+000
 -2.400000000000000E-002    0.000000000000000E+000
 -2.390000000000000E-002    0.000000000000000E+000
 -2.380000000000000E-002    0.000000000000000E+000
 -2.370000000000000E-002    0.000000000000000E+000
 -2.360000000000000E-002    0.000000000000000E+000
 -2.350000000000000E-002    0.000000000000000E+000
 -2.340000000000000E-002    0.000000000000000E+000
 -2.330000000000000E-002    0.000000000000000E+000
 -2.320000000000000E-002    0.000000000000000E+000
 -2.310000000000000E-002    0.000000000000000E+000
 -2.300000000000000E-002    0.000000000000000E+000
 -2.290000000000000E-002    0.000000000000000E+000
 -2.280000000000000E-002    0.000000000000000E+000
 -2.270000000000000E-002    0.000000000000000E+000
 -2.260000000000000E-002    0.000000000000000E+000
 -2.250000000000000E-002    0.000000000000000E+000
 -2.240000000000000E-002    0.000000000000000E+000
 -2.230000000000000E-002    0.000000000000000E+000
 -2.220000000000000E-002    0.000000000000000E+000
 -2.210000000000000E-002    0.000000000000000E+000
 -2.200000000000000E-002    0.000000000000000E+000
 -2.190000000000000E-002    0.000000000000000E+000
 -2.180000000000000E-002    0.000000000000000E+000
 -2.170000000000000E-002    0.000000000000000E+000
 -2.160000000000000E-002    0.000000000000000E+000
 -2.150000000000000E-002    0.000000000000000E+000
 -2.140000000000000E-002    0.000000000000000E+000
 -2.130000000000000E-002    0.000000000000000E+000
 -2.120000000000000E-002    0.000000000000000E+000
 -2.110000000000000E-002    0.000000000000000E+000
 -2.100000000000000E-002    0.000000000000000E+000
 -2.090000000000000E-002    0.000000000000000E+000
 -2.080000000000000E-002    0.000000000000000E+000
 -2.070000000000000E-002    0.000000000000000E+000
 -2.060000000000000E-002    0.000000000000000E+000
 -2.050000000000000E-002    0.000000000000000E+000
 -2.040000000000000E-002    0.000000000000000E+000
 -2.030000000000000E-002    0.000000000000000E+000
 -2.020000000000000E-002    0.000000000000000E+000
 -2.010000000000000E-002    0.000000000000000E+000
 -2.000000000000000E-002    0.000000000000000E+000
 -1.990000000000000E-002    0.000000000000000E+000
 -1.980000000000000E-002    7.996413123261028E-048
 -1.970000000000000E-002    1.599282624652206E-047
 -1.960000000000000E-002    2.398923936978308E-047
 -1.950000000000000E-002    2.398923936978308E-047
 -1.940000000000000E-002    2.398923936978308E-047
 -1.930000000000000E-002    1.326677636329474E-047
 -1.920000000000000E-002   -5.452099766454630E-048
 -1.910000000000000E-002    9.717247668960582E-048
 -1.900000000000000E-002   -1.316530121037592E-047
 -1.890000000000000E-002   -2.149264670955019E-047
 -1.880000000000000E-002   -3.509035544875817E-047
 -1.870000000000000E-002   -8.429479860341474E-047
 -1.860000000000000E-002   -7.368147909457576E-047
 -1.850000000000000E-002   -5.317149908577082E-047
 -1.840000000000000E-002   -1.353772422939684E-046
 -1.830000000000000E-002   -2.904985020914247E-046
 -1.820000000000000E-002   -3.904668195665494E-046
 -1.810000000000000E-002   -6.492516902958011E-046
 -1.800000000000000E-002   -1.009405725673427E-045
 -1.790000000000000E-002   -1.242552366797519E-045
 -1.780000000000000E-002   -1.376864470923245E-045
 -1.770000000000000E-002   -1.083817981777791E-045
 -1.760000000000000E-002   -5.613820248348713E-046
 -1.750000000000000E-002   -6.150126694638034E-046
 -1.740000000000000E-002    3.448667607607558E-046
 -1.730000000000000E-002    1.320775791063593E-045
 -1.720000000000000E-002    1.463322851749348E-045
 -1.710000000000000E-002    2.732652985139834E-045
 -1.700000000000000E-002    3.372227532878679E-045
 -1.690000000000000E-002    3.846277072480651E-045
 -1.680000000000000E-002    3.510627735875583E-045
 -1.670000000000000E-002    2.629297289593476E-045
 -1.660000000000000E-002    5.361532619574831E-046
 -1.650000000000000E-002   -2.910600737078024E-045
 -1.640000000000000E-002   -7.303548046555669E-045
 -1.630000000000000E-002   -1.246989534034942E-044
 -1.620000000000000E-002   -1.874020745395452E-044
 -1.610000000000000E-002   -2.565990460350867E-044
 -1.600000000000000E-002   -3.156543781672534E-044
 -1.590000000000000E-002   -3.545108900071144E-044
 -1.580000000000000E-002   -3.591422778800462E-044
 -1.570000000000000E-002   -2.907028788316800E-044
 -1.560000000000000E-002   -1.365165519406713E-044
 -1.550000000000000E-002    1.317628130535425E-044
 -1.540000000000000E-002    5.238118750905491E-044
 -1.530000000000000E-002    1.049943039593850E-043
 -1.520000000000000E-002    1.682832630421273E-043
 -1.510000000000000E-002    2.375831423338619E-043
 -1.500000000000000E-002    3.033067810123614E-043
 -1.490000000000000E-002    3.518038972481796E-043
 -1.480000000000000E-002    3.656530809376225E-043
 -1.470000000000000E-002    3.218787336586561E-043
 -1.460000000000000E-002    1.983957544592175E-043
 -1.450000000000000E-002   -2.770989884660203E-044
 -1.440000000000000E-002   -3.722355734371353E-043
 -1.430000000000000E-002   -8.386140546184141E-043
 -1.420000000000000E-002   -1.412098373354238E-042
 -1.410000000000000E-002   -2.051816838717809E-042
 -1.400000000000000E-002   -2.683350851730149E-042
 -1.390000000000000E-002   -3.196045394578196E-042
 -1.380000000000000E-002   -3.440386192014873E-042
 -1.370000000000000E-002   -3.234843967973596E-042
 -1.360000000000000E-002   -2.379417471135363E-042
 -1.350000000000000E-002   -6.821625056803483E-043
 -1.340000000000000E-002    2.006916191096562E-042
 -1.330000000000000E-002    5.747870656095618E-042
 -1.320000000000000E-002    1.045741432502592E-041
 -1.310000000000000E-002    1.584612537835844E-041
 -1.300000000000000E-002    2.137023162858019E-041
 -1.290000000000000E-002    2.618951464677997E-041
 -1.280000000000000E-002    2.916193559190797E-041
 -1.270000000000000E-002    2.888393976076957E-041
 -1.260000000000000E-002    2.379033325888316E-041
 -1.250000000000000E-002    1.233393477605941E-041
 -1.240000000000000E-002   -6.751990500118735E-042
 -1.230000000000000E-002   -3.411331369693479E-041
 -1.220000000000000E-002   -6.937227629007941E-041
 -1.210000000000000E-002   -1.106919145648137E-040
 -1.200000000000000E-002   -1.543799389194601E-040
 -1.190000000000000E-002   -1.946042703495462E-040
 -1.180000000000000E-002   -2.233144420595638E-040
 -1.170000000000000E-002   -2.304943736318453E-040
 -1.160000000000000E-002   -2.048361091640632E-040
 -1.150000000000000E-002   -1.349490442106402E-040
 -1.140000000000000E-002   -1.113162321610035E-041
 -1.130000000000000E-002    1.723050663744487E-040
 -1.120000000000000E-002    4.142865643086748E-040
 -1.110000000000000E-002    7.040416309269500E-040
 -1.100000000000000E-002    1.018376192609740E-039
 -1.090000000000000E-002    1.319671873135703E-039
 -1.080000000000000E-002    1.555256694343622E-039
 -1.070000000000000E-002    1.658875381263975E-039
 -1.060000000000000E-002    1.554929979586590E-039
 -1.050000000000000E-002    1.166094099894731E-039
 -1.040000000000000E-002    4.245632310676169E-040
 -1.030000000000000E-002   -7.132151024590386E-040
 -1.020000000000000E-002   -2.249096946542059E-039
 -1.010000000000000E-002   -4.124642306476844E-039
 -1.000000000000000E-002   -6.203735960666749E-039
 -9.899999999999999E-003   -8.259680038959049E-039
 -9.800000000000000E-003   -9.970637584161990E-039
 -9.699999999999999E-003   -1.092778805784672E-038
 -9.599999999999999E-003   -1.066028985376215E-038
 -9.500000000000000E-003   -8.680397721921035E-039
 -9.399999999999999E-003   -4.550369603828953E-039
 -9.299999999999999E-003    2.029993493999112E-039
 -9.200000000000000E-003    1.111975752902939E-038
 -9.099999999999999E-003    2.242641783298296E-038
 -8.999999999999999E-003    3.520246092212695E-038
 -8.900000000000000E-003    4.816755814903067E-038
 -8.799999999999999E-003    5.947886036779276E-038
 -8.699999999999999E-003    6.677339065357656E-038
 -8.600000000000000E-003    6.730590614568091E-038
 -8.499999999999999E-003    5.820017161401537E-038
 -8.399999999999999E-003    3.682229380332104E-038
 -8.300000000000000E-003    1.269055269398887E-039
 -8.199999999999999E-003   -4.905487296491493E-038
 -8.100000000000000E-003   -1.128216127292360E-037
 -8.000000000000000E-003   -1.862028720093977E-037
 -7.899999999999999E-003   -2.624308182235219E-037
 -7.800000000000000E-003   -3.316175403501301E-037
 -7.699999999999999E-003   -3.809610943384633E-037
 -7.599999999999999E-003   -3.954581930348094E-037
 -7.499999999999999E-003   -3.592174101435594E-037
 -7.399999999999999E-003   -2.574126661669712E-037
 -7.299999999999999E-003   -7.883987835675496E-038
 -7.199999999999999E-003    1.810663131282754E-037
 -7.100000000000000E-003    5.170171663459084E-037
 -6.999999999999999E-003    9.108464491048371E-037
 -6.899999999999999E-003    1.329191050817195E-036
 -6.800000000000000E-003    1.722476161043107E-036
 -6.699999999999999E-003    2.025836402265967E-036
 -6.599999999999999E-003    2.162575364613507E-036
 -6.499999999999999E-003    2.050590485704510E-036
 -6.399999999999999E-003    1.611962617243307E-036
 -6.299999999999999E-003    7.854867066209807E-037
 -6.199999999999999E-003   -4.585528194199733E-037
 -6.100000000000000E-003   -2.102654396068009E-036
 -5.999999999999999E-003   -4.067311305855584E-036
 -5.899999999999999E-003   -6.199579197451921E-036
 -5.800000000000000E-003   -8.267852842487890E-036
 -5.699999999999999E-003   -9.965759615437504E-036
 -5.599999999999999E-003   -1.092792383610872E-035
 -5.499999999999999E-003   -1.075954024677052E-035
 -5.399999999999999E-003   -9.080469192970625E-036
 -5.299999999999999E-003   -5.582791770670165E-036
 -5.199999999999999E-003   -9.842563165302277E-038
 -5.099999999999999E-003    7.329114533608251E-036
 -4.999999999999999E-003    1.637741843066654E-035
 -4.899999999999999E-003    2.639321220340481E-035
 -4.799999999999999E-003    3.636823902662007E-035
 -4.699999999999999E-003    4.495563774839272E-035
 -4.599999999999999E-003    5.053852698338594E-035
 -4.499999999999999E-003    5.135846454678573E-035
 -4.399999999999999E-003    4.570651278523707E-035
 -4.299999999999999E-003    3.217095019088346E-035
 -4.199999999999999E-003    9.926529202340396E-036
 -4.099999999999999E-003   -2.096095808684382E-035
 -3.999999999999999E-003   -5.925184847851030E-035
 -3.899999999999999E-003   -1.023171697549881E-034
 -3.799999999999999E-003   -1.460425892394381E-034
 -3.699999999999999E-003   -1.849028209521733E-034
 -3.599999999999999E-003   -2.122521081947189E-034
 -3.499999999999999E-003   -2.208589931457474E-034
 -3.399999999999999E-003   -2.036907445950316E-034
 -3.299999999999999E-003   -1.549190751185698E-034
 -3.199999999999999E-003   -7.107838489294665E-035
 -3.099999999999999E-003    4.773292235145620E-035
 -2.999999999999999E-003    1.967606006599169E-034
 -2.899999999999999E-003    3.657953573279998E-034
 -2.799999999999999E-003    5.388655419640266E-034
 -2.699999999999999E-003    6.946196026885242E-034
 -2.599999999999999E-003    8.075546893918616E-034
 -2.499999999999999E-003    8.501836565382954E-034
 -2.399999999999999E-003    7.961329528326935E-034
 -2.299999999999999E-003    6.240240850558864E-034
 -2.199999999999999E-003    3.218477604935851E-034
 -2.099999999999999E-003   -1.086252701471070E-034
 -1.999999999999999E-003   -6.479928275880299E-034
 -1.899999999999999E-003   -1.256632371571463E-033
 -1.799999999999999E-003   -1.874109580522413E-033
 -1.699999999999999E-003   -2.421265644534427E-033
 -1.599999999999999E-003   -2.805506818161249E-033
 -1.499999999999999E-003   -2.929504003477072E-033
 -1.399999999999999E-003   -2.703132902173315E-033
 -1.299999999999999E-003   -2.057944470821754E-033
 -1.199999999999999E-003   -9.629120920296158E-034
 -1.099999999999999E-003    5.603710871972642E-034
 -9.999999999999989E-004    2.425324942858757E-033
 -8.999999999999990E-004    4.473448837153058E-033
 -7.999999999999990E-004    6.475354838041090E-033
 -6.999999999999989E-004    8.142085026600915E-033
 -5.999999999999990E-004    9.148127196427273E-033
 -4.999999999999989E-004    9.166397283288408E-033
 -3.999999999999989E-004    7.913820065329147E-033
 -2.999999999999989E-004    5.204289747542683E-033
 -1.999999999999989E-004    1.003650461705928E-033
 -9.999999999999892E-005   -4.520411652791711E-033
  1.084202172485504E-018   -1.096217321267167E-032
  1.000000000000011E-004   -1.766468357450269E-032
  2.000000000000011E-004   -2.373821682576559E-032
  3.000000000000011E-004   -2.811752066667435E-032
  4.000000000000011E-004   -2.966123074244657E-032
  5.000000000000011E-004   -2.729218516658523E-032
  6.000000000000011E-004   -2.017122783141736E-032
  7.000000000000011E-004   -7.889808585092045E-033
  8.000000000000011E-004    9.339916429074549E-033
  9.000000000000012E-004    3.052542274063397E-032
  1.000000000000001E-003    5.379599896178507E-032
  1.100000000000001E-003    7.639952516146130E-032
  1.200000000000001E-003    9.482330373883522E-032
  1.300000000000001E-003    1.050586731327373E-031
  1.400000000000001E-003    1.030173780855094E-031
  1.500000000000001E-003    8.508588964891725E-032
  1.600000000000001E-003    4.878333164201188E-032
  1.700000000000001E-003   -6.537966398155447E-033
  1.800000000000001E-003   -7.903349534344533E-032
  1.900000000000001E-003   -1.638528535106121E-031
  2.000000000000001E-003   -2.528863697929088E-031
  2.100000000000001E-003   -3.348859479825562E-031
  2.200000000000001E-003   -3.960540943172542E-031
  2.300000000000001E-003   -4.211633087042132E-031
  2.400000000000001E-003   -3.952096346689140E-031
  2.500000000000001E-003   -3.055355038184464E-031
  2.600000000000001E-003   -1.442739845971225E-031
  2.700000000000001E-003    8.912218834721140E-032
  2.800000000000001E-003    3.855820720585552E-031
  2.900000000000001E-003    7.247247604369078E-031
  3.000000000000001E-003    1.074180750812255E-030
  3.100000000000001E-003    1.390313212522085E-030
  3.200000000000001E-003    1.620648815843715E-030
  3.300000000000001E-003    1.708197746013277E-030
  3.400000000000001E-003    1.597634565526948E-030
  3.500000000000001E-003    1.243060572768095E-030
  3.600000000000001E-003    6.167867100071466E-031
  3.700000000000001E-003   -2.817253304365821E-031
  3.800000000000001E-003   -1.417890713623589E-030
  3.900000000000001E-003   -2.716294901818679E-030
  4.000000000000001E-003   -4.058650750045400E-030
  4.100000000000001E-003   -5.286704538547023E-030
  4.200000000000001E-003   -6.211084515930153E-030
  4.300000000000001E-003   -6.626631286925090E-030
  4.400000000000001E-003   -6.334022685771599E-030
  4.500000000000001E-003   -5.166657210389065E-030
  4.600000000000002E-003   -3.020821905292577E-030
  4.700000000000001E-003    1.138168576286326E-031
  4.800000000000001E-003    4.127143127953574E-030
  4.900000000000002E-003    8.769348937186846E-030
  5.000000000000001E-003    1.364397311523749E-029
  5.100000000000001E-003    1.821744753125154E-029
  5.200000000000001E-003    2.184826211824161E-029
  5.300000000000002E-003    2.383738524568949E-029
  5.400000000000001E-003    2.349908352727968E-029
  5.500000000000001E-003    2.024878374401879E-029
  5.600000000000002E-003    1.370140302854248E-029
  5.700000000000001E-003    3.770645268991366E-030
  5.800000000000001E-003   -9.242764955132716E-030
  5.900000000000002E-003   -2.458758136138111E-029
  6.000000000000001E-003   -4.103759503505207E-029
  6.100000000000001E-003   -5.691887704141117E-029
  6.200000000000002E-003   -7.019858491774115E-029
  6.300000000000002E-003   -7.863977748483256E-029
  6.400000000000001E-003   -8.001972089625576E-029
  6.500000000000001E-003   -7.240072099494211E-029
  6.600000000000002E-003   -5.443335621481354E-029
  6.700000000000001E-003   -2.566320953465433E-029
  6.800000000000001E-003    1.319550086434408E-029
  6.900000000000002E-003    6.006070356961744E-029
  7.000000000000001E-003    1.113994467329545E-028
  7.100000000000001E-003    1.622995856449469E-028
  7.200000000000002E-003    2.067236743900501E-028
  7.300000000000002E-003    2.379584978317506E-028
  7.400000000000001E-003    2.492511793285636E-028
  7.500000000000001E-003    2.346001062032953E-028
  7.600000000000002E-003    1.896402416124781E-028
  7.700000000000001E-003    1.125396294468640E-028
  7.800000000000001E-003    4.800895671097892E-030
  7.900000000000001E-003   -1.281504150463612E-028
  8.000000000000002E-003   -2.767090279130721E-028
  8.100000000000001E-003   -4.272718946724315E-028
  8.200000000000001E-003   -5.629365023483322E-028
  8.300000000000002E-003   -6.647488810227926E-028
  8.400000000000001E-003   -7.134722271644706E-028
  8.500000000000002E-003   -6.917853485022869E-028
  8.600000000000002E-003   -5.867394103866173E-028
  8.700000000000001E-003   -3.922399234097070E-028
  8.800000000000002E-003   -1.112591965637260E-028
  8.900000000000002E-003    2.425402862167726E-028
  9.000000000000001E-003    6.440962603185857E-028
  9.100000000000002E-003    1.057434766709308E-027
  9.200000000000002E-003    1.437551843876854E-027
  9.300000000000001E-003    1.733772100389875E-027
  9.400000000000002E-003    1.894487878940341E-027
  9.500000000000001E-003    1.873021723387357E-027
  9.600000000000001E-003    1.634139838425003E-027
  9.700000000000002E-003    1.160581675828779E-027
  9.800000000000001E-003    4.588281497552287E-028
  9.900000000000001E-003   -4.367404701124849E-028
  1.000000000000000E-002   -1.462127899363310E-027
  1.010000000000000E-002   -2.525166106185717E-027
  1.020000000000000E-002   -3.510595427347459E-027
  1.030000000000000E-002   -4.288935247406554E-027
  1.040000000000000E-002   -4.728855562121542E-027
  1.050000000000000E-002   -4.712294661230070E-027
  1.060000000000000E-002   -4.151078616106873E-027
  1.070000000000000E-002   -3.003339170972230E-027
  1.080000000000000E-002   -1.287752083758918E-027
  1.090000000000000E-002    9.065847002649297E-028
  1.100000000000000E-002    3.416686083270129E-027
  1.110000000000000E-002    6.010333122665962E-027
  1.120000000000000E-002    8.399949780942273E-027
  1.130000000000000E-002    1.026583981554633E-026
  1.140000000000000E-002    1.128792513956574E-026
  1.150000000000000E-002    1.118381693576926E-026
  1.160000000000000E-002    9.749917441476201E-027
  1.170000000000000E-002    6.901197516780006E-027
  1.180000000000000E-002    2.704593546790674E-027
  1.190000000000000E-002   -2.599283884335991E-027
  1.200000000000000E-002   -8.591087405311375E-027
  1.210000000000000E-002   -1.468821107664632E-026
  1.220000000000000E-002   -2.018295700556395E-026
  1.230000000000000E-002   -2.430336996452491E-026
  1.240000000000000E-002   -2.629374921447443E-026
  1.250000000000000E-002   -2.550897993651162E-026
  1.260000000000000E-002   -2.151399919033020E-026
  1.270000000000000E-002   -1.417728500592283E-026
  1.280000000000000E-002   -3.745896817894462E-027
  1.290000000000000E-002    9.110720683611735E-027
  1.300000000000000E-002    2.329968092042974E-026
  1.310000000000000E-002    3.735471754958862E-026
  1.320000000000000E-002    4.954160649588559E-026
  1.330000000000000E-002    5.801665365836353E-026
  1.340000000000000E-002    6.102965319064868E-026
  1.350000000000000E-002    5.715527762157278E-026
  1.360000000000000E-002    4.553018533711600E-026
  1.370000000000000E-002    2.606830137172624E-026
  1.380000000000000E-002   -3.764130318726683E-028
  1.390000000000000E-002   -3.192970791038764E-026
  1.400000000000000E-002   -6.572532171422945E-026
  1.410000000000000E-002   -9.805978931582174E-026
  1.420000000000000E-002   -1.246793867029329E-025
  1.430000000000000E-002   -1.411906703909164E-025
  1.440000000000000E-002   -1.435685313600181E-025
  1.450000000000000E-002   -1.287195403965017E-025
  1.460000000000000E-002   -9.504259788315856E-026
  1.470000000000000E-002   -4.291840799863456E-026
  1.480000000000000E-002    2.494551935156394E-026
  1.490000000000000E-002    1.033845852063799E-025
  1.500000000000000E-002    1.849191929972199E-025
  1.510000000000000E-002    2.602057654294790E-025
  1.520000000000000E-002    3.188015938307741E-025
  1.530000000000000E-002    3.502134300516130E-025
  1.540000000000000E-002    3.451579730477003E-025
  1.550000000000000E-002    2.969233296740548E-025
  1.560000000000000E-002    2.026876894280331E-025
  1.570000000000000E-002    6.462764615451738E-026
  1.580000000000000E-002   -1.093580971900795E-025
  1.590000000000000E-002   -3.054706739460176E-025
  1.600000000000000E-002   -5.045070078737687E-025
  1.610000000000000E-002   -6.830988354618452E-025
  1.620000000000000E-002   -8.156934707278328E-025
  1.630000000000000E-002   -8.771790374451688E-025
  1.640000000000000E-002   -8.459692392301823E-025
  1.650000000000000E-002   -7.072647582175601E-025
  1.660000000000000E-002   -4.561394254284269E-025
  1.670000000000000E-002   -1.000519862599869E-025
  1.680000000000000E-002    3.396293592989807E-025
  1.690000000000000E-002    8.274527684979870E-025
  1.700000000000000E-002    1.315338782951402E-024
  1.710000000000000E-002    1.745810571569729E-024
  1.720000000000000E-002    2.056941309440964E-024
  1.730000000000000E-002    2.188776652219669E-024
  1.740000000000000E-002    2.090740869624161E-024
  1.750000000000000E-002    1.729354501223170E-024
  1.760000000000000E-002    1.095410185318458E-024
  1.770000000000000E-002    2.096687942813716E-025
  1.780000000000000E-002   -8.738652646877011E-025
  1.790000000000000E-002   -2.067928956769497E-024
  1.800000000000000E-002   -3.255842852687573E-024
  1.810000000000000E-002   -4.299485316133008E-024
  1.820000000000000E-002   -5.051235044119826E-024
  1.830000000000000E-002   -5.369229182598736E-024
  1.840000000000000E-002   -5.134770325445086E-024
  1.850000000000000E-002   -4.270279504922055E-024
  1.860000000000000E-002   -2.755806583795600E-024
  1.870000000000000E-002   -6.419410352716240E-025