 -4.000000000000000E-002    0.000000000000000E+000
 -3.990000000000000E-002    0.000000000000000E+000
 -3.980000000000000E-002    0.000000000000000E+000
 -3.970000000000000E-002    0.000000000000000E+000
 -3.960000000000000E-002    0.000000000000000E+000
 -3.950000000000000E-002    0.000000000000000E+000
 -3.940000000000000E-002    0.000000000000000E+000
 -3.930000000000000E-002    0.000000000000000E+000
 -3.920000000000000E-002    1.056382340270142E-027
 -3.910000000000000E-002    1.682298876433765E-026
 -3.900000000000000E-002    1.405085983026941E-025
 -3.890000000000000E-002    8.175963486226833E-025
 -3.880000000000000E-002    3.715577002366809E-024
 -3.870000000000000E-002    1.401856918017950E-023
 -3.860000000000000E-002    4.558493211945170E-023
 -3.850000000000000E-002    1.309492948347565E-022
 -3.840000000000000E-002    3.379919561563405E-022
 -3.830000000000000E-002    7.930621341143954E-022
 -3.820000000000000E-002    1.704720153192166E-021
 -3.810000000000000E-002    3.371159851417979E-021
 -3.800000000000000E-002    6.136551949027087E-021
 -3.790000000000000E-002    1.023787898488305E-020
 -3.780000000000000E-002    1.545920549169783E-020
 -3.770000000000000E-002    2.049564922525438E-020
 -3.760000000000000E-002    2.194271664573209E-020
 -3.750000000000000E-002    1.289269493084202E-020
 -3.740000000000000E-002   -1.873429511838325E-020
 -3.730000000000000E-002   -9.174983787589551E-020
 -3.720000000000000E-002   -2.324212027982201E-019
 -3.710000000000000E-002   -4.732098922027277E-019
 -3.700000000000000E-002   -8.479612388927836E-019
 -3.690000000000000E-002   -1.381724723325900E-018
 -3.680000000000000E-002   -2.073489794118074E-018
 -3.670000000000000E-002   -2.870842462726489E-018
 -3.660000000000000E-002   -3.637122890038558E-018
 -3.650000000000000E-002   -4.114265545668420E-018
 -3.640000000000000E-002   -3.888115841534869E-018
 -3.630000000000000E-002   -2.367349898640803E-018
 -3.620000000000000E-002    1.208504065401946E-018
 -3.610000000000000E-002    7.713117359450542E-018
 -3.600000000000000E-002    1.800988533545157E-017
 -3.590000000000000E-002    3.274478723884718E-017
 -3.580000000000000E-002    5.204882181757269E-017
 -3.570000000000000E-002    7.515971900634874E-017
 -3.560000000000000E-002    9.999621974224403E-017
 -3.550000000000000E-002    1.227476429516614E-016
 -3.540000000000000E-002    1.375730447160030E-016
 -3.530000000000000E-002    1.365326171297945E-016
 -3.520000000000000E-002    1.098910194029823E-016
 -3.510000000000000E-002    4.692955135865387E-017
 -3.500000000000000E-002   -6.262812957160636E-017
 -3.490000000000000E-002   -2.265396200414745E-016
 -3.480000000000000E-002   -4.473865404810021E-016
 -3.470000000000000E-002   -7.195475544409827E-016
 -3.460000000000000E-002   -1.026176960807279E-015
 -3.450000000000000E-002   -1.336728892932029E-015
 -3.440000000000000E-002   -1.605701983970997E-015
 -3.430000000000000E-002   -1.773346218512459E-015
 -3.420000000000000E-002   -1.769035345139913E-015
 -3.410000000000000E-002   -1.517826914056840E-015
 -3.400000000000000E-002   -9.503913469640077E-016
 -3.390000000000000E-002   -1.598658508853278E-017
 -3.380000000000000E-002    1.302479567052668E-015
 -3.370000000000000E-002    2.972961859903873E-015
 -3.360000000000000E-002    4.900698664206361E-015
 -3.350000000000000E-002    6.919398153680965E-015
 -3.340000000000000E-002    8.790263119205503E-015
 -3.330000000000000E-002    1.021171902070639E-014
 -3.320000000000000E-002    1.084196240666029E-014
 -3.310000000000000E-002    1.033510323136952E-014
 -3.300000000000000E-002    8.389784310423365E-015
 -3.290000000000000E-002    4.806851414084490E-015
 -3.280000000000000E-002   -4.498314611781759E-016
 -3.270000000000000E-002   -7.197631617525915E-015
 -3.260000000000000E-002   -1.499437664143296E-014
 -3.250000000000000E-002   -2.312313330040294E-014
 -3.240000000000000E-002   -3.061231232144963E-014
 -3.230000000000000E-002   -3.629838400143680E-014
 -3.220000000000000E-002   -3.893410438147912E-014
 -3.210000000000000E-002   -3.733922239304687E-014
 -3.200000000000000E-002   -3.058345357731707E-014
 -3.190000000000000E-002   -1.818399958664959E-014
 -3.180000000000000E-002   -2.930346017493576E-016
 -3.170000000000000E-002    2.215439868265674E-014
 -3.160000000000000E-002    4.736352380698483E-014
 -3.150000000000000E-002    7.270309830243799E-014
 -3.140000000000000E-002    9.485090135975657E-014
 -3.130000000000000E-002    1.100712959922350E-013
 -3.120000000000000E-002    1.146183931615685E-013
 -3.110000000000000E-002    1.052388563403110E-013
 -3.100000000000000E-002    7.972824093127715E-014
 -3.090000000000000E-002    3.747628787831356E-014
 -3.080000000000000E-002   -2.007651760736792E-014
 -3.070000000000000E-002   -8.915414264140637E-014
 -3.060000000000000E-002   -1.636097591736652E-013
 -3.050000000000000E-002   -2.352002061948972E-013
 -3.040000000000000E-002   -2.942009512118181E-013
 -3.030000000000000E-002   -3.303521664978899E-013
 -3.020000000000000E-002   -3.340790366194117E-013
 -3.010000000000000E-002   -2.978803579604153E-013
 -3.000000000000000E-002   -2.177349712968977E-013
 -2.990000000000000E-002   -9.434217588420507E-014
 -2.980000000000000E-002    6.600196416068726E-014
 -2.970000000000000E-002    2.510811319016816E-013
 -2.960000000000000E-002    4.431397638047119E-013
 -2.950000000000000E-002    6.200560494509530E-013
 -2.940000000000000E-002    7.573061907537747E-013
 -2.930000000000000E-002    8.306147313696447E-013
 -2.920000000000000E-002    8.190765471504938E-013
 -2.910000000000000E-002    7.084351827163016E-013
 -2.900000000000000E-002    4.941249720421118E-013
 -2.890000000000000E-002    1.836452358844463E-013
 -2.880000000000000E-002   -2.021546160730841E-013
 -2.870000000000000E-002   -6.292338707075753E-013
 -2.860000000000000E-002   -1.052194587084822E-012
 -2.850000000000000E-002   -1.417848377392929E-012
 -2.840000000000000E-002   -1.670364798736140E-012
 -2.830000000000000E-002   -1.757627659755306E-012
 -2.820000000000000E-002   -1.638215378300653E-012
 -2.810000000000000E-002   -1.288252206352157E-012
 -2.800000000000000E-002   -7.072784515323819E-013
 -2.790000000000000E-002    7.772190408794618E-014
 -2.780000000000000E-002    1.010901425772797E-012
 -2.770000000000000E-002    2.009297210886630E-012
 -2.760000000000000E-002    2.968006686482184E-012
 -2.750000000000000E-002    3.768677566556044E-012
 -2.740000000000000E-002    4.290790647109210E-012
 -2.730000000000000E-002    4.424816165674086E-012
 -2.720000000000000E-002    4.085987283639865E-012
 -2.710000000000000E-002    3.227202399641839E-012
 -2.700000000000000E-002    1.849492824237849E-012
 -2.690000000000000E-002    8.579894563814878E-015
 -2.680000000000000E-002   -2.183671926669703E-012
 -2.670000000000000E-002   -4.563656601792472E-012
 -2.660000000000000E-002   -6.926454161108369E-012
 -2.650000000000000E-002   -9.041797076912011E-012
 -2.640000000000000E-002   -1.067443204046738E-011
 -2.630000000000000E-002   -1.160711963072320E-011
 -2.620000000000000E-002   -1.166409041596180E-011
 -2.610000000000000E-002   -1.073250487705035E-011
 -2.600000000000000E-002   -8.779497560754810E-012
 -2.590000000000000E-002   -5.862650896504852E-012
 -2.580000000000000E-002   -2.132292532946717E-012
 -2.570000000000000E-002    2.175240571948493E-012
 -2.560000000000000E-002    6.753326322207471E-012
 -2.550000000000000E-002    1.124878554945802E-011
 -2.540000000000000E-002    1.529172385991173E-011
 -2.530000000000000E-002    1.852885900558919E-011
 -2.520000000000000E-002    2.065720579383560E-011
 -2.510000000000000E-002    2.145478966917287E-011
 -2.500000000000000E-002    2.080520447605797E-011
 -2.490000000000000E-002    1.871332147471470E-011
 -2.480000000000000E-002    1.531019107568830E-011
 -2.470000000000000E-002    1.084620468400278E-011
 -2.460000000000000E-002    5.672653532507528E-012
 -2.450000000000000E-002    2.129534756226053E-013
 -2.440000000000000E-002   -5.074202360904480E-012
 -2.430000000000000E-002   -9.736666844274104E-012
 -2.420000000000000E-002   -1.337204621074356E-011
 -2.410000000000000E-002   -1.566845006849987E-011
 -2.400000000000000E-002   -1.643906640367268E-011
 -2.390000000000000E-002   -1.564726472127509E-011
 -2.380000000000000E-002   -1.341958807038376E-011
 -2.370000000000000E-002   -1.004488165383751E-011
 -2.360000000000000E-002   -5.958797961750394E-012
 -2.350000000000000E-002   -1.713948342425952E-012
 -2.340000000000000E-002    2.062965608492106E-012
 -2.330000000000000E-002    4.724732420579285E-012
 -2.320000000000000E-002    5.664694599902603E-012
 -2.310000000000000E-002    4.381264751947608E-012
 -2.300000000000000E-002    5.412516781714878E-013
 -2.290000000000000E-002   -5.963234806030264E-012
 -2.280000000000000E-002   -1.496964937458167E-011
 -2.270000000000000E-002   -2.601710215571326E-011
 -2.260000000000000E-002   -3.834062017809030E-011
 -2.250000000000000E-002   -5.089174256207752E-011
 -2.240000000000000E-002   -6.238813775452036E-011
 -2.230000000000000E-002   -7.139302613198402E-011
 -2.220000000000000E-002   -7.642264617952808E-011
 -2.210000000000000E-002   -7.607704359758970E-011
 -2.200000000000000E-002   -6.918626487369124E-011
 -2.190000000000000E-002   -5.496089708300156E-011
 -2.180000000000000E-002   -3.313317611201685E-011
 -2.170000000000000E-002   -4.072993640457676E-012
 -2.160000000000000E-002    3.113734540884276E-011
 -2.150000000000000E-002    7.068473836280167E-011
 -2.140000000000000E-002    1.120752736955658E-010
 -2.130000000000000E-002    1.522595841773016E-010
 -2.120000000000000E-002    1.878337939292228E-010
 -2.110000000000000E-002    2.153078795710119E-010
 -2.100000000000000E-002    2.314247833040418E-010
 -2.090000000000000E-002    2.335046425989010E-010
 -2.080000000000000E-002    2.197818774266575E-010
 -2.070000000000000E-002    1.896978186455296E-010
 -2.060000000000000E-002    1.441107503653692E-010
 -2.050000000000000E-002    8.538842585821946E-011
 -2.040000000000000E-002    1.735555827966863E-011
 -2.030000000000000E-002   -5.491847533102515E-011
 -2.020000000000000E-002   -1.254912035383246E-010
 -2.010000000000000E-002   -1.880588507225747E-010
 -2.000000000000000E-002   -2.365707637716335E-010
 -1.990000000000000E-002   -2.658921942835684E-010
 -1.980000000000000E-002   -2.724474780685855E-010
 -1.970000000000000E-002   -2.547696815465832E-010
 -1.960000000000000E-002   -2.138827637270445E-010
 -1.950000000000000E-002   -1.534525509190598E-010
 -1.940000000000000E-002   -7.966065993305692E-011
 -1.930000000000000E-002   -7.818579897022076E-013
 -1.920000000000000E-002    7.352299082861455E-011
 -1.910000000000000E-002    1.331524701214084E-010
 -1.900000000000000E-002    1.686691207230907E-010
 -1.890000000000000E-002    1.724561950105721E-010
 -1.880000000000000E-002    1.398012722767168E-010
 -1.870000000000000E-002    6.977513639104577E-011
 -1.860000000000000E-002   -3.421670938927679E-011
 -1.850000000000000E-002   -1.643093357243853E-010
 -1.840000000000000E-002   -3.085413108339227E-010
 -1.830000000000000E-002   -4.517172464936360E-010
 -1.820000000000000E-002   -5.767263735813594E-010
 -1.810000000000000E-002   -6.662164966580967E-010
 -1.800000000000000E-002   -7.044722844650191E-010
 -1.790000000000000E-002   -6.793081627356912E-010
 -1.780000000000000E-002   -5.837660077956642E-010
 -1.770000000000000E-002   -4.174086041490916E-010
 -1.760000000000000E-002   -1.870272373900716E-010
 -1.750000000000000E-002    9.337072294523023E-011
 -1.740000000000000E-002    4.033582331689753E-010
 -1.730000000000000E-002    7.176507861183589E-010
 -1.720000000000000E-002    1.008328066286308E-009
 -1.710000000000000E-002    1.247526414769281E-009
 -1.700000000000000E-002    1.410342895753329E-009
 -1.690000000000000E-002    1.477648662839895E-009
 -1.680000000000000E-002    1.438492397166441E-009
 -1.670000000000000E-002    1.291798397451376E-009
 -1.660000000000000E-002    1.047117186587875E-009
 -1.650000000000000E-002    7.242754912377795E-010
 -1.640000000000000E-002    3.518846313528497E-010
 -1.630000000000000E-002   -3.520963199110005E-011
 -1.620000000000000E-002   -3.993274599431571E-010
 -1.610000000000000E-002   -7.038877429045763E-010
 -1.600000000000000E-002   -9.174726826878503E-010
 -1.590000000000000E-002   -1.017582216669766E-009
 -1.580000000000000E-002   -9.936394450412993E-010
 -1.570000000000000E-002   -8.488645461804165E-010
 -1.560000000000000E-002   -6.007323757953744E-010
 -1.550000000000000E-002   -2.798725216997539E-010
 -1.540000000000000E-002    7.256959705490727E-011
 -1.530000000000000E-002    4.089163340896470E-010
 -1.520000000000000E-002    6.799316281287338E-010
 -1.510000000000000E-002    8.402997425207613E-010
 -1.500000000000000E-002    8.540363990130377E-010
 -1.490000000000000E-002    6.992349618578601E-010
 -1.480000000000000E-002    3.715864162937309E-010
 -1.470000000000000E-002   -1.137848168137719E-010
 -1.460000000000000E-002   -7.224699920025560E-010
 -1.450000000000000E-002   -1.403011074237498E-009
 -1.440000000000000E-002   -2.091102516959129E-009
 -1.430000000000000E-002   -2.715420208136112E-009
 -1.420000000000000E-002   -3.204546918734034E-009
 -1.410000000000000E-002   -3.494319794393247E-009
 -1.400000000000000E-002   -3.534844525480251E-009
 -1.390000000000000E-002   -3.296427353936905E-009
 -1.380000000000000E-002   -2.773750937386893E-009
 -1.370000000000000E-002   -1.987781163779067E-009
 -1.360000000000000E-002   -9.851101897768953E-010
 -1.350000000000000E-002    1.653037202402944E-010
 -1.340000000000000E-002    1.377765109709541E-009
 -1.330000000000000E-002    2.557349813938208E-009
 -1.320000000000000E-002    3.608591425725668E-009
 -1.310000000000000E-002    4.444496436337292E-009
 -1.300000000000000E-002    4.994986982024292E-009
 -1.290000000000000E-002    5.213893591752706E-009
 -1.280000000000000E-002    5.083754572135443E-009
 -1.270000000000000E-002    4.617887504946580E-009
 -1.260000000000000E-002    3.859459721951780E-009
 -1.250000000000000E-002    2.877597646216820E-009
 -1.240000000000000E-002    1.760874757058153E-009
 -1.230000000000000E-002    6.087951200497868E-010
 -1.220000000000000E-002   -4.778905926938806E-010
 -1.210000000000000E-002   -1.407068411380041E-009
 -1.200000000000000E-002   -2.104338278844890E-009
 -1.190000000000000E-002   -2.520345093395695E-009
 -1.180000000000000E-002   -2.635593349796819E-009
 -1.170000000000000E-002   -2.462216106040047E-009
 -1.160000000000000E-002   -2.042479609340066E-009
 -1.150000000000000E-002   -1.444132604245544E-009
 -1.140000000000000E-002   -7.530322355456479E-010
 -1.130000000000000E-002   -6.377119005860839E-011
 -1.120000000000000E-002    5.307633712206534E-010
 -1.110000000000000E-002    9.498378244458949E-010
 -1.100000000000000E-002    1.134249263537650E-009
 -1.090000000000000E-002    1.053634603564140E-009
 -1.080000000000000E-002    7.109152940915113E-010
 -1.070000000000000E-002    1.433320622300683E-010
 -1.060000000000000E-002   -5.801357792910771E-010
 -1.050000000000000E-002   -1.364831615672385E-009
 -1.040000000000000E-002   -2.099478143121196E-009
 -1.030000000000000E-002   -2.667446808155594E-009
 -1.020000000000000E-002   -2.959221196952938E-009
 -1.010000000000000E-002   -2.884891849201350E-009
 -1.000000000000000E-002   -2.385477838493876E-009
 -9.899999999999999E-003   -1.441944009265608E-009
 -9.800000000000000E-003   -8.095312169134530E-011
 -9.699999999999999E-003    1.623347306745627E-009
 -9.599999999999999E-003    3.551877973129358E-009
 -9.500000000000000E-003    5.547526225951556E-009
 -9.399999999999999E-003    7.426018064202539E-009
 -9.299999999999999E-003    8.990047564047824E-009
 -9.200000000000000E-003    1.004564627839311E-008
 -9.099999999999999E-003    1.041955795722307E-008
 -8.999999999999999E-003    9.976259730411664E-009
 -8.900000000000000E-003    8.633275053093279E-009
 -8.799999999999999E-003    6.373512026844136E-009
 -8.699999999999999E-003    3.253593937682429E-009
 -8.600000000000000E-003   -5.925632760757755E-010
 -8.499999999999999E-003   -4.955275808639424E-009
 -8.399999999999999E-003   -9.555659295539507E-009
 -8.300000000000000E-003   -1.405674396568391E-008
 -8.199999999999999E-003   -1.807823717300166E-008
 -8.100000000000000E-003   -2.121369345494343E-008
 -8.000000000000000E-003   -2.304861190022438E-008
 -7.899999999999999E-003   -2.317784980298813E-008
 -7.800000000000000E-003   -2.122073011268526E-008
 -7.699999999999999E-003   -1.683243569683642E-008
 -7.599999999999999E-003   -9.710476800979414E-009
 -7.499999999999999E-003    4.044546453015136E-010
 -7.399999999999999E-003    1.373351355351476E-008
 -7.299999999999999E-003    3.047038402412248E-008
 -7.199999999999999E-003    5.079662586577399E-008
 -7.100000000000000E-003    7.490049441764865E-008
 -6.999999999999999E-003    1.029974250040694E-007
 -6.899999999999999E-003    1.353501422074082E-007
 -6.800000000000000E-003    1.722866514639503E-007
 -6.699999999999999E-003    2.142137198643455E-007
 -6.599999999999999E-003    2.616247418430494E-007
 -6.499999999999999E-003    3.151006894235753E-007
 -6.399999999999999E-003    3.753036137030781E-007
 -6.299999999999999E-003    4.429632589404365E-007
 -6.199999999999999E-003    5.188577075800830E-007
 -6.100000000000000E-003    6.037896234544901E-007
 -5.999999999999999E-003    6.985603448246031E-007
 -5.899999999999999E-003    8.039448566544578E-007
 -5.800000000000000E-003    9.206693822463568E-007
 -5.699999999999999E-003    1.049395261778617E-006
 -5.599999999999999E-003    1.190710287102125E-006
 -5.499999999999999E-003    1.345129077743699E-006
 -5.399999999999999E-003    1.513103549014848E-006
 -5.299999999999999E-003    1.695042130066997E-006
 -5.199999999999999E-003    1.891337668892011E-006
 -5.099999999999999E-003    2.102400786576468E-006
 -4.999999999999999E-003    2.328695774699512E-006
 -4.899999999999999E-003    2.570776913281514E-006
 -4.799999999999999E-003    2.829320494609424E-006
 -4.699999999999999E-003    3.105151251193863E-006
 -4.599999999999999E-003    3.399257815145464E-006
 -4.499999999999999E-003    3.712799334167352E-006
 -4.399999999999999E-003    4.047099860987188E-006
 -4.299999999999999E-003    4.403632283901499E-006
 -4.199999999999999E-003    4.783993663354442E-006
 -4.099999999999999E-003    5.189873684681839E-006
 -3.999999999999999E-003    5.623021521169312E-006
 -3.899999999999999E-003    6.085214136916481E-006
 -3.799999999999999E-003    6.578226298174231E-006
 -3.699999999999999E-003    7.103813321511894E-006
 -3.599999999999999E-003    7.663702043298938E-006
 -3.499999999999999E-003    8.259593328023152E-006
 -3.399999999999999E-003    8.893180101086711E-006
 -3.299999999999999E-003    9.566172905783232E-006
 -3.199999999999999E-003    1.028033823649368E-005
 -3.099999999999999E-003    1.103754197505194E-005
 -2.999999999999999E-003    1.183979089545058E-005
 -2.899999999999999E-003    1.268927926455126E-005
 -2.799999999999999E-003    1.358842280681581E-005
 -2.699999999999999E-003    1.453988708054691E-005
 -2.599999999999999E-003    1.554660396739424E-005
 -2.499999999999999E-003    1.661177158192736E-005
 -2.399999999999999E-003    1.773885020470541E-005
 -2.299999999999999E-003    1.893153733083882E-005
 -2.199999999999999E-003    2.019374648424373E-005
 -2.099999999999999E-003    2.152957125947300E-005
 -1.999999999999999E-003    2.294325436227880E-005
 -1.899999999999999E-003    2.443916661011752E-005
 -1.799999999999999E-003    2.602178500776955E-005
 -1.699999999999999E-003    2.769569206966909E-005
 -1.599999999999999E-003    2.946557439082459E-005
 -1.499999999999999E-003    3.133625335278236E-005
 -1.399999999999999E-003    3.331271118168012E-005
 -1.299999999999999E-003    3.540014393540055E-005
 -1.199999999999999E-003    3.760400665597179E-005
 -1.099999999999999E-003    3.993006333984568E-005
 -9.999999999999989E-004    4.238445353815636E-005
 -8.999999999999990E-004    4.497372242648118E-005
 -7.999999999999990E-004    4.770486533725225E-005
 -6.999999999999989E-004    5.058535944545448E-005
 -5.999999999999990E-004    5.362316866043345E-005
 -4.999999999999989E-004    5.682674277536621E-005
 -3.999999999999989E-004    6.020500215821642E-005
 -2.999999999999989E-004    6.376732979933927E-005
 -1.999999999999989E-004    6.752353326476787E-005
 -9.999999999999892E-005    7.148382921623908E-005
  1.084202172485504E-018    7.565881641921049E-005
  1.000000000000011E-004    8.005945878162050E-005
  2.000000000000011E-004    8.469709259217285E-005
  3.000000000000011E-004    8.958342075014028E-005
  4.000000000000011E-004    9.473055595219980E-005
  5.000000000000011E-004    1.001510447599467E-004
  6.000000000000011E-004    1.058579262601657E-004
  7.000000000000011E-004    1.118647757501104E-004
  8.000000000000011E-004    1.181857981772058E-004
  9.000000000000012E-004    1.248358568171385E-004
  1.000000000000001E-003    1.318305546635243E-004
  1.100000000000001E-003    1.391862991703544E-004
  1.200000000000001E-003    1.469203209931207E-004
  1.300000000000001E-003    1.550507327864590E-004
  1.400000000000001E-003    1.635965466156420E-004
  1.500000000000001E-003    1.725776817946057E-004
  1.600000000000001E-003    1.820149545387065E-004
  1.700000000000001E-003    1.919301081522236E-004
  1.800000000000001E-003    2.023457468496758E-004
  1.900000000000001E-003    2.132853996871259E-004
  2.000000000000001E-003    2.247734428498075E-004
  2.100000000000001E-003    2.368351395077773E-004
  2.200000000000001E-003    2.494966756110529E-004
  2.300000000000001E-003    2.627851502367097E-004
  2.400000000000001E-003    2.767285671196478E-004
  2.500000000000001E-003    2.913559866792335E-004
  2.600000000000001E-003    3.066975297700630E-004
  2.700000000000001E-003    3.227844129064724E-004
  2.800000000000001E-003    3.396490959525657E-004
  2.900000000000001E-003    3.573252909449621E-004
  3.000000000000001E-003    3.758480914846771E-004
  3.100000000000001E-003    3.952540235984819E-004
  3.200000000000001E-003    4.155810710449439E-004
  3.300000000000001E-003    4.368688166331154E-004
  3.400000000000001E-003    4.591583495271608E-004
  3.500000000000001E-003    4.824924302066762E-004
  3.600000000000001E-003    5.069154026530459E-004
  3.700000000000001E-003    5.324732720366346E-004
  3.800000000000001E-003    5.592136069085035E-004
  3.900000000000001E-003    5.871857386733404E-004
  4.000000000000001E-003    6.164404746923356E-004
  4.100000000000001E-003    6.470303163384129E-004
  4.200000000000001E-003    6.790094247488061E-004
  4.300000000000001E-003    7.124335390394865E-004
  4.400000000000001E-003    7.473602168917769E-004
  4.500000000000001E-003    7.838486961536518E-004
  4.600000000000002E-003    8.219600354198325E-004
  4.700000000000001E-003    8.617572212743999E-004
  4.800000000000001E-003    9.033052933855074E-004
  4.900000000000002E-003    9.466713153520636E-004
  5.000000000000001E-003    9.919246210588571E-004
  5.100000000000001E-003    1.039136806604770E-003
  5.200000000000001E-003    1.088381904085763E-003
  5.300000000000002E-003    1.139736565929991E-003
  5.400000000000001E-003    1.193279816129399E-003
  5.500000000000001E-003    1.249093557877504E-003
  5.600000000000002E-003    1.307262114228420E-003
  5.700000000000001E-003    1.367872502286242E-003
  5.800000000000001E-003    1.431014491541726E-003
  5.900000000000002E-003    1.496780410471048E-003
  6.000000000000001E-003    1.565265288711461E-003
  6.100000000000001E-003    1.636566618031968E-003
  6.200000000000002E-003    1.710784449862129E-003
  6.300000000000002E-003    1.788021355719790E-003
  6.400000000000001E-003    1.868382523331828E-003
  6.500000000000001E-003    1.951975812227624E-003
  6.600000000000002E-003    2.038911334292371E-003
  6.700000000000001E-003    2.129302330394589E-003
  6.800000000000001E-003    2.223264445196612E-003
  6.900000000000002E-003    2.320916030515143E-003
  7.000000000000001E-003    2.422378833887031E-003
  7.100000000000001E-003    2.527777073062161E-003
  7.200000000000002E-003    2.637238411871144E-003
  7.300000000000002E-003    2.750893607660902E-003
  7.400000000000001E-003    2.868876371369033E-003
  7.500000000000001E-003    2.991323784385111E-003
  7.600000000000002E-003    3.118376767287564E-003
  7.700000000000001E-003    3.250178730045966E-003
  7.800000000000001E-003    3.386876510640614E-003
  7.900000000000001E-003    3.528620618056067E-003
  8.000000000000002E-003    3.675564228030557E-003
  8.100000000000001E-003    3.827863930286047E-003
  8.200000000000001E-003    3.985679201605179E-003
  8.300000000000002E-003    4.149172394705636E-003
  8.400000000000001E-003    4.318508528365398E-003
  8.500000000000002E-003    4.493856091172998E-003
  8.600000000000002E-003    4.675386151487209E-003
  8.700000000000001E-003    4.863272579769606E-003
  8.800000000000002E-003    5.057692161480069E-003
  8.900000000000002E-003    5.258824219522796E-003
  9.000000000000001E-003    5.466851323893232E-003
  9.100000000000002E-003    5.681958497734796E-003
  9.200000000000002E-003    5.904334059023918E-003
  9.300000000000001E-003    6.134168178531425E-003
  9.400000000000002E-003    6.371654833494978E-003
  9.500000000000001E-003    6.616990034302179E-003
  9.600000000000001E-003    6.870372665892564E-003
  9.700000000000002E-003    7.132003507664044E-003
  9.800000000000001E-003    7.402086109306008E-003
  9.900000000000001E-003    7.680825316158916E-003
  1.000000000000000E-002    7.968429535705470E-003
  1.010000000000000E-002    8.265107466913476E-003
  1.020000000000000E-002    8.571070419000076E-003
  1.030000000000000E-002    8.886531137907161E-003
  1.040000000000000E-002    9.211703029350973E-003
  1.050000000000000E-002    9.546801445626243E-003
  1.060000000000000E-002    9.892042771705174E-003
  1.070000000000000E-002    1.024764375720455E-002
  1.080000000000000E-002    1.061382194400676E-002
  1.090000000000000E-002    1.099079607179517E-002
  1.100000000000000E-002    1.137878498505964E-002
  1.110000000000000E-002    1.177800797668793E-002
  1.120000000000000E-002    1.218868403576844E-002
  1.130000000000000E-002    1.261103280264851E-002
  1.140000000000000E-002    1.304527375576665E-002
  1.150000000000000E-002    1.349162445835629E-002
  1.160000000000000E-002    1.395030204610299E-002
  1.170000000000000E-002    1.442152379214633E-002
  1.180000000000000E-002    1.490550372755877E-002
  1.190000000000000E-002    1.540245510366903E-002
  1.200000000000000E-002    1.591258870399475E-002
  1.210000000000000E-002    1.643611402379537E-002
  1.220000000000000E-002    1.697323506091016E-002
  1.230000000000000E-002    1.752415613269575E-002
  1.240000000000000E-002    1.808907647425332E-002
  1.250000000000000E-002    1.866819029101314E-002
  1.260000000000000E-002    1.926168918750367E-002
  1.270000000000000E-002    1.986975992103386E-002
  1.280000000000000E-002    2.049258504844743E-002
  1.290000000000000E-002    2.113033902668580E-002
  1.300000000000000E-002    2.178319311203145E-002
  1.310000000000000E-002    2.245131333862765E-002
  1.320000000000000E-002    2.313485648739233E-002
  1.330000000000000E-002    2.383397535873982E-002
  1.340000000000000E-002    2.454881411637616E-002
  1.350000000000000E-002    2.527950967994034E-002
  1.360000000000000E-002    2.602619057272846E-002
  1.370000000000000E-002    2.678897804238368E-002
  1.380000000000000E-002    2.756798243458394E-002
  1.390000000000000E-002    2.836330685859412E-002
  1.400000000000000E-002    2.917504479828005E-002
  1.410000000000000E-002    3.000327702331135E-002
  1.420000000000000E-002    3.084807381768820E-002
  1.430000000000000E-002    3.170949341049749E-002
  1.440000000000000E-002    3.258758761870686E-002
  1.450000000000000E-002    3.348238730862634E-002
  1.460000000000000E-002    3.439391582409722E-002
  1.470000000000000E-002    3.532218031938387E-002
  1.480000000000000E-002    3.626717464955648E-002
  1.490000000000000E-002    3.722887711476429E-002
  1.500000000000000E-002    3.820725243324486E-002
  1.510000000000000E-002    3.920225027354088E-002
  1.520000000000000E-002    4.021379899257761E-002
  1.530000000000000E-002    4.124181608733275E-002
  1.540000000000000E-002    4.228619879007048E-002
  1.550000000000000E-002    4.334682554051002E-002
  1.560000000000000E-002    4.442356247854859E-002
  1.570000000000000E-002    4.551625079540816E-002
  1.580000000000000E-002    4.662471528924712E-002
  1.590000000000000E-002    4.774875792050499E-002
  1.600000000000000E-002    4.888816183410628E-002
  1.610000000000000E-002    5.004269268080325E-002
  1.620000000000000E-002    5.121208799388350E-002
  1.630000000000000E-002    5.239606829223514E-002
  1.640000000000000E-002    5.359433131366229E-002
  1.650000000000000E-002    5.480654668675285E-002
  1.660000000000000E-002    5.603236985114619E-002
  1.670000000000000E-002    5.727142321335323E-002
  1.680000000000000E-002    5.852330617449752E-002
  1.690000000000000E-002    5.978760125328858E-002
  1.700000000000000E-002    6.106385179560953E-002
  1.710000000000000E-002    6.235159116191762E-002
  1.720000000000000E-002    6.365031829130340E-002
  1.730000000000000E-002    6.495950533697706E-002
  1.740000000000000E-002    6.627860270607505E-002
  1.750000000000000E-002    6.760702551497046E-002
  1.760000000000000E-002    6.894417361899448E-002
  1.770000000000000E-002    7.028940859311861E-002
  1.780000000000000E-002    7.164206710780520E-002
  1.790000000000000E-002    7.300146335242952E-002
  1.800000000000000E-002    7.436687844884415E-002
  1.810000000000000E-002    7.573755906912871E-002
  1.820000000000000E-002    7.711273492144227E-002
  1.830000000000000E-002    7.849160192462772E-002
  1.840000000000000E-002    7.987331865653548E-002
  1.850000000000000E-002    8.125702795037994E-002
  1.860000000000000E-002    8.264183445833427E-002
  1.870000000000000E-002    8.402681639597126E-002