 -4.000000000000000E-002    0.000000000000000E+000
 -3.990000000000000E-002    0.000000000000000E+000
 -3.980000000000000E-002    0.000000000000000E+000
 -3.970000000000000E-002    0.000000000000000E+000
 -3.960000000000000E-002    0.000000000000000E+000
 -3.950000000000000E-002    0.000000000000000E+000
 -3.940000000000000E-002    0.000000000000000E+000
 -3.930000000000000E-002    0.000000000000000E+000
 -3.920000000000000E-002    0.000000000000000E+000
 -3.910000000000000E-002    0.000000000000000E+000
 -3.900000000000000E-002    0.000000000000000E+000
 -3.890000000000000E-002    0.000000000000000E+000
 -3.880000000000000E-002    0.000000000000000E+000
 -3.870000000000000E-002    0.000000000000000E+000
 -3.860000000000000E-002   -2.983739547007835E-045
 -3.850000000000000E-002   -8.227269481892909E-044
 -3.840000000000000E-002   -1.171838717437987E-042
 -3.830000000000000E-002   -1.142921784263463E-041
 -3.820000000000000E-002   -8.577143788149322E-041
 -3.810000000000000E-002   -5.275436871499183E-040
 -3.800000000000000E-002   -2.766353256303195E-039
 -3.790000000000000E-002   -1.270400312803582E-038
 -3.780000000000000E-002   -5.208668412691907E-038
 -3.770000000000000E-002   -1.934249837421961E-037
 -3.760000000000000E-002   -6.577827152060008E-037
 -3.750000000000000E-002   -2.066138765954104E-036
 -3.740000000000000E-002   -6.034763039304230E-036
 -3.730000000000000E-002   -1.647603445056879E-035
 -3.720000000000000E-002   -4.221422388973808E-035
 -3.710000000000000E-002   -1.017884691060098E-034
 -3.700000000000000E-002   -2.313611128802221E-034
 -3.690000000000000E-002   -4.958964133337192E-034
 -3.680000000000000E-002   -1.001023592305581E-033
 -3.670000000000000E-002   -1.896116717156270E-033
 -3.660000000000000E-002   -3.344762584148886E-033
 -3.650000000000000E-002   -5.412470351736468E-033
 -3.640000000000000E-002   -7.778388734861703E-033
 -3.630000000000000E-002   -9.115466209225260E-033
 -3.620000000000000E-002   -5.905528896074117E-033
 -3.610000000000000E-002    9.617991605310273E-033
 -3.600000000000000E-002    5.273179904806285E-032
 -3.590000000000000E-002    1.509104055536115E-031
 -3.580000000000000E-002    3.497737113809534E-031
 -3.570000000000000E-002    7.192650137681641E-031
 -3.560000000000000E-002    1.357435101745453E-030
 -3.550000000000000E-002    2.386628835080260E-030
 -3.540000000000000E-002    3.933148731621657E-030
 -3.530000000000000E-002    6.076712256890264E-030
 -3.520000000000000E-002    8.750861089736698E-030
 -3.510000000000000E-002    1.157133177363958E-029
 -3.500000000000000E-002    1.356907331930098E-029
 -3.490000000000000E-002    1.281206581038169E-029
 -3.480000000000000E-002    5.921268006616637E-030
 -3.470000000000000E-002   -1.247218384912789E-029
 -3.460000000000000E-002   -5.021195142754368E-029
 -3.450000000000000E-002   -1.178239491796409E-028
 -3.440000000000000E-002   -2.280913628486689E-028
 -3.430000000000000E-002   -3.944815225831338E-028
 -3.420000000000000E-002   -6.277509214998448E-028
 -3.410000000000000E-002   -9.299408037491408E-028
 -3.400000000000000E-002   -1.284979910079092E-027
 -3.390000000000000E-002   -1.645332657759324E-027
 -3.380000000000000E-002   -1.914691945639455E-027
 -3.370000000000000E-002   -1.927740490501044E-027
 -3.360000000000000E-002   -1.429631666057292E-027
 -3.350000000000000E-002   -6.009687615077537E-029
 -3.340000000000000E-002    2.650022804963645E-027
 -3.330000000000000E-002    7.258811298945573E-027
 -3.320000000000000E-002    1.435565988692613E-026
 -3.310000000000000E-002    2.444955570374380E-026
 -3.300000000000000E-002    3.778681377978229E-026
 -3.290000000000000E-002    5.408469406235381E-026
 -3.280000000000000E-002    7.217656356398815E-026
 -3.270000000000000E-002    8.957959601467156E-026
 -3.260000000000000E-002    1.020207140671581E-025
 -3.250000000000000E-002    1.029893214705460E-025
 -3.240000000000000E-002    8.342836281765834E-026
 -3.230000000000000E-002    3.172041277080070E-026
 -3.220000000000000E-002   -6.582515022931669E-026
 -3.210000000000000E-002   -2.237471461669081E-025
 -3.200000000000000E-002   -4.552182000772467E-025
 -3.190000000000000E-002   -7.686211485720480E-025
 -3.180000000000000E-002   -1.162796022136275E-024
 -3.170000000000000E-002   -1.620997680173299E-024
 -3.160000000000000E-002   -2.103892147831853E-024
 -3.150000000000000E-002   -2.542284532381532E-024
 -3.140000000000000E-002   -2.830732127406150E-024
 -3.130000000000000E-002   -2.823741207274745E-024
 -3.120000000000000E-002   -2.336746907199874E-024
 -3.110000000000000E-002   -1.154500862513873E-024
 -3.100000000000000E-002    9.503475037374114E-025
 -3.090000000000000E-002    4.185896539909195E-024
 -3.080000000000000E-002    8.695160402450798E-024
 -3.070000000000000E-002    1.449564299732094E-023
 -3.060000000000000E-002    2.140662043808888E-023
 -3.050000000000000E-002    2.897005804486581E-023
 -3.040000000000000E-002    3.637509595545754E-023
 -3.030000000000000E-002    4.240082263280671E-023
 -3.020000000000000E-002    4.539673059166571E-023
 -3.010000000000000E-002    4.332370475508217E-023
 -3.000000000000000E-002    3.387939968525570E-023
 -2.990000000000000E-002    1.473032754217327E-023
 -2.980000000000000E-002   -1.613500136228798E-023
 -2.970000000000000E-002   -5.993057032667963E-023
 -2.960000000000000E-002   -1.164942394396728E-022
 -2.950000000000000E-002   -1.836525605896323E-022
 -2.940000000000000E-002   -2.566078605479399E-022
 -2.930000000000000E-002   -3.274610882689028E-022
 -2.920000000000000E-002   -3.850151345778811E-022
 -2.910000000000000E-002   -4.150254843913572E-022
 -2.900000000000000E-002   -4.010666058440089E-022
 -2.890000000000000E-002   -3.261577204053102E-022
 -2.880000000000000E-002   -1.752260871272337E-022
 -2.870000000000000E-002    6.161396201901274E-023
 -2.860000000000000E-002    3.851488658379007E-022
 -2.850000000000000E-002    7.828881711919342E-022
 -2.840000000000000E-002    1.225208776373113E-021
 -2.830000000000000E-002    1.662622392177819E-021
 -2.820000000000000E-002    2.025142056051560E-021
 -2.810000000000000E-002    2.224816221504857E-021
 -2.800000000000000E-002    2.162435283265042E-021
 -2.790000000000000E-002    1.739162791144642E-021
 -2.780000000000000E-002    8.733629718532414E-022
 -2.770000000000000E-002   -4.778942859961456E-022
 -2.760000000000000E-002   -2.294162182610642E-021
 -2.750000000000000E-002   -4.466503557609422E-021
 -2.740000000000000E-002   -6.775941994318005E-021
 -2.730000000000000E-002   -8.880651454146987E-021
 -2.720000000000000E-002   -1.031787096603953E-020
 -2.710000000000000E-002   -1.052672921201686E-020
 -2.700000000000000E-002   -8.897368938073321E-021
 -2.690000000000000E-002   -4.849867286977375E-021
 -2.680000000000000E-002    2.056937239074574E-021
 -2.670000000000000E-002    1.199135236725349E-020
 -2.660000000000000E-002    2.470000805114583E-020
 -2.650000000000000E-002    3.936166539652461E-020
 -2.640000000000000E-002    5.446763959739359E-020
 -2.630000000000000E-002    6.775857306533789E-020
 -2.620000000000000E-002    7.625043712163093E-020
 -2.610000000000000E-002    7.638241743103056E-020
 -2.600000000000000E-002    6.431342776610143E-020
 -2.590000000000000E-002    3.638212072437114E-020
 -2.580000000000000E-002   -1.027348586620147E-020
 -2.570000000000000E-002   -7.696590366306890E-020
 -2.560000000000000E-002   -1.626368931734139E-019
 -2.550000000000000E-002   -2.630578327645360E-019
 -2.540000000000000E-002   -3.701749431414387E-019
 -2.530000000000000E-002   -4.717479940573419E-019
 -2.520000000000000E-002   -5.514419360795454E-019
 -2.510000000000000E-002   -5.895250936019123E-019
 -2.500000000000000E-002   -5.642951227775958E-019
 -2.490000000000000E-002   -4.542940697315347E-019
 -2.480000000000000E-002   -2.412864126492943E-019
 -2.470000000000000E-002    8.614355344796808E-020
 -2.460000000000000E-002    5.286502353471708E-019
 -2.450000000000000E-002    1.072258554992941E-018
 -2.440000000000000E-002    1.685112219323929E-018
 -2.430000000000000E-002    2.315477691905066E-018
 -2.420000000000000E-002    2.891681400046287E-018
 -2.410000000000000E-002    3.324610252394116E-018
 -2.400000000000000E-002    3.513269168272024E-018
 -2.390000000000000E-002    3.353628467631289E-018
 -2.380000000000000E-002    2.750645607538822E-018
 -2.370000000000000E-002    1.632868534632068E-018
 -2.360000000000000E-002   -3.146382718733535E-020
 -2.350000000000000E-002   -2.218437648648087E-018
 -2.340000000000000E-002   -4.834674481663425E-018
 -2.330000000000000E-002   -7.708123831690554E-018
 -2.320000000000000E-002   -1.058593174279959E-017
 -2.310000000000000E-002   -1.314165325707622E-017
 -2.300000000000000E-002   -1.499355253552679E-017
 -2.290000000000000E-002   -1.573476987745075E-017
 -2.280000000000000E-002   -1.497485728093795E-017
 -2.270000000000000E-002   -1.239059272168065E-017
 -2.260000000000000E-002   -7.782238169106479E-018
 -2.250000000000000E-002   -1.129748502183550E-018
 -2.240000000000000E-002    7.358064167696527E-018
 -2.230000000000000E-002    1.720927321879780E-017
 -2.220000000000000E-002    2.767756122206596E-017
 -2.210000000000000E-002    3.776111608497734E-017
 -2.200000000000000E-002    4.625688760916038E-017
 -2.190000000000000E-002    5.185244395135454E-017
 -2.180000000000000E-002    5.325328745266966E-017
 -2.170000000000000E-002    4.933873771439750E-017
 -2.160000000000000E-002    3.933411344009517E-017
 -2.150000000000000E-002    2.298210303424694E-017
 -2.140000000000000E-002    6.921561064441744E-019
 -2.130000000000000E-002   -2.635551086035722E-017
 -2.120000000000000E-002   -5.617455180041871E-017
 -2.110000000000000E-002   -8.602591104980061E-017
 -2.100000000000000E-002   -1.125737610329138E-016
 -2.090000000000000E-002   -1.321482650071517E-016
 -2.080000000000000E-002   -1.411069671713115E-016
 -2.070000000000000E-002   -1.362727820473767E-016
 -2.060000000000000E-002   -1.154120888776172E-016
 -2.050000000000000E-002   -7.770330639465694E-017
 -2.040000000000000E-002   -2.413646763494260E-017
 -2.030000000000000E-002    4.222003674724230E-017
 -2.020000000000000E-002    1.161472572004890E-016
 -2.010000000000000E-002    1.904484987502482E-016
 -2.000000000000000E-002    2.563993810864380E-016
 -1.990000000000000E-002    3.044788917532102E-016
 -1.980000000000000E-002    3.253522240058675E-016
 -1.970000000000000E-002    3.110390315995935E-016
 -1.960000000000000E-002    2.561628763431078E-016
 -1.950000000000000E-002    1.591472967714795E-016
 -1.940000000000000E-002    2.320078671712076E-017
 -1.930000000000000E-002   -1.430733179837075E-016
 -1.920000000000000E-002   -3.255939430453190E-016
 -1.910000000000000E-002   -5.053665681321284E-016
 -1.900000000000000E-002   -6.597588216083257E-016
 -1.890000000000000E-002   -7.644806210459134E-016
 -1.880000000000000E-002   -7.961715380796186E-016
 -1.870000000000000E-002   -7.354091995372678E-016
 -1.860000000000000E-002   -5.698599559304956E-016
 -1.850000000000000E-002   -2.972230142753507E-016
 -1.840000000000000E-002    7.242732337509060E-017
 -1.830000000000000E-002    5.153015097996581E-016
 -1.820000000000000E-002    9.939175183007268E-016
 -1.810000000000000E-002    1.458750256434018E-015
 -1.800000000000000E-002    1.851637705982299E-015
 -1.790000000000000E-002    2.110880003596681E-015
 -1.780000000000000E-002    2.177763295672088E-015
 -1.770000000000000E-002    2.004012539845283E-015
 -1.760000000000000E-002    1.559482927639648E-015
 -1.750000000000000E-002    8.392322524758225E-016
 -1.740000000000000E-002   -1.309643006301800E-016
 -1.730000000000000E-002   -1.291594971830979E-015
 -1.720000000000000E-002   -2.549696931485774E-015
 -1.710000000000000E-002   -3.783038307604634E-015
 -1.700000000000000E-002   -4.848421721208587E-015
 -1.690000000000000E-002   -5.593921812833278E-015
 -1.680000000000000E-002   -5.874362928690294E-015
 -1.670000000000000E-002   -5.568863454834377E-015
 -1.660000000000000E-002   -4.598820965060229E-015
 -1.650000000000000E-002   -2.944378835135925E-015
 -1.640000000000000E-002   -6.572497809141454E-016
 -1.630000000000000E-002    2.132178005664729E-015
 -1.620000000000000E-002    5.215242129044997E-015
 -1.610000000000000E-002    8.314144235596004E-015
 -1.600000000000000E-002    1.110030689260103E-014
 -1.590000000000000E-002    1.322142280615237E-014
 -1.580000000000000E-002    1.433569722840974E-014
 -1.570000000000000E-002    1.415064094939510E-014
 -1.560000000000000E-002    1.246289703523420E-014
 -1.550000000000000E-002    9.194901770049720E-015
 -1.540000000000000E-002    4.423839109479610E-015
 -1.530000000000000E-002   -1.601499844133769E-015
 -1.520000000000000E-002   -8.459703259300887E-015
 -1.510000000000000E-002   -1.557414231911255E-014
 -1.500000000000000E-002   -2.224976874287664E-014
 -1.490000000000000E-002   -2.772827472781137E-014
 -1.480000000000000E-002   -3.125848355177870E-014
 -1.470000000000000E-002   -3.217661923300195E-014
 -1.460000000000000E-002   -2.998935244289757E-014
 -1.450000000000000E-002   -2.445106752986354E-014
 -1.440000000000000E-002   -1.562625709531171E-014
 -1.430000000000000E-002   -3.928212694492592E-015
 -1.420000000000000E-002    9.873548634557188E-015
 -1.410000000000000E-002    2.468236826564604E-014
 -1.400000000000000E-002    3.914206188312737E-014
 -1.390000000000000E-002    5.174140170409686E-014
 -1.380000000000000E-002    6.094936128672026E-014
 -1.370000000000000E-002    6.537121345372446E-014
 -1.360000000000000E-002    6.391170334403656E-014
 -1.350000000000000E-002    5.592908926101851E-014
 -1.340000000000000E-002    4.136261462873879E-014
 -1.330000000000000E-002    2.081632398405289E-014
 -1.320000000000000E-002   -4.415312799289744E-015
 -1.310000000000000E-002   -3.239036755741858E-014
 -1.300000000000000E-002   -6.063559772558818E-014
 -1.290000000000000E-002   -8.633300485428217E-014
 -1.280000000000000E-002   -1.065665701757699E-013
 -1.270000000000000E-002   -1.186110102174999E-013
 -1.260000000000000E-002   -1.202378726505180E-013
 -1.250000000000000E-002   -1.100091172844101E-013
 -1.240000000000000E-002   -8.752598658316772E-014
 -1.230000000000000E-002   -5.360153612192435E-014
 -1.220000000000000E-002   -1.032916683284685E-014
 -1.210000000000000E-002    3.897320195329965E-014
 -1.200000000000000E-002    8.995311055883933E-014
 -1.190000000000000E-002    1.375449895568060E-013
 -1.180000000000000E-002    1.764060301952393E-013
 -1.170000000000000E-002    2.014357863845415E-013
 -1.160000000000000E-002    2.083361950871700E-013
 -1.150000000000000E-002    1.941591245727618E-013
 -1.140000000000000E-002    1.577831033696930E-013
 -1.130000000000000E-002    1.002614340956538E-013
 -1.120000000000000E-002    2.498944673957072E-014
 -1.110000000000000E-002   -6.234892759441263E-014
 -1.100000000000000E-002   -1.540774954435056E-013
 -1.090000000000000E-002   -2.410669292116318E-013
 -1.080000000000000E-002   -3.134922584916816E-013
 -1.070000000000000E-002   -3.617582896680983E-013
 -1.060000000000000E-002   -3.775195685262491E-013
 -1.050000000000000E-002   -3.547027626518428E-013
 -1.040000000000000E-002   -2.904279528121939E-013
 -1.030000000000000E-002   -1.857218915623929E-013
 -1.020000000000000E-002   -4.592526008663506E-014
 -1.010000000000000E-002    1.192860475890498E-013
 -1.000000000000000E-002    2.963163010469977E-013
 -9.899999999999999E-003    4.685150617949284E-013
 -9.800000000000000E-003    6.174615309587563E-013
 -9.699999999999999E-003    7.245911979004529E-013
 -9.599999999999999E-003    7.730462342300748E-013
 -9.500000000000000E-003    7.495904598047932E-013
 -9.399999999999999E-003    6.464069888375687E-013
 -9.299999999999999E-003    4.625849987678798E-013
 -9.200000000000000E-003    2.051078674565939E-013
 -9.099999999999999E-003   -1.108167883779104E-013
 -8.999999999999999E-003   -4.621996522389208E-013
 -8.900000000000000E-003   -8.195359928345177E-013
 -8.799999999999999E-003   -1.148873067342391E-012
 -8.699999999999999E-003   -1.414572107774914E-012
 -8.600000000000000E-003   -1.582576256144936E-012
 -8.499999999999999E-003   -1.623926853843059E-012
 -8.399999999999999E-003   -1.518208559648759E-012
 -8.300000000000000E-003   -1.256578077704853E-012
 -8.199999999999999E-003   -8.440288225349952E-013
 -8.100000000000000E-003   -3.005751221092994E-013
 -8.000000000000000E-003    3.388860416931186E-013
 -7.899999999999999E-003    1.026179829127579E-012
 -7.800000000000000E-003    1.702940372977252E-012
 -7.699999999999999E-003    2.305047374713385E-012
 -7.599999999999999E-003    2.768135509134878E-012
 -7.499999999999999E-003    3.033757099631238E-012
 -7.399999999999999E-003    3.055667314531330E-012
 -7.299999999999999E-003    2.805624883850721E-012
 -7.199999999999999E-003    2.278082964067089E-012
 -7.100000000000000E-003    1.493180485000881E-012
 -6.999999999999999E-003    4.975472066235006E-013
 -6.899999999999999E-003   -6.374010256123875E-013
 -6.800000000000000E-003   -1.819785103524416E-012
 -6.699999999999999E-003   -2.944064802093413E-012
 -6.599999999999999E-003   -3.899911918032658E-012
 -6.499999999999999E-003   -4.582496198194038E-012
 -6.399999999999999E-003   -4.903308497011844E-012
 -6.299999999999999E-003   -4.800490622815967E-012
 -6.199999999999999E-003   -4.247583200588189E-012
 -6.100000000000000E-003   -3.259636832253656E-012
 -5.999999999999999E-003   -1.895786936553112E-012
 -5.899999999999999E-003   -2.576537272706830E-013
 -5.800000000000000E-003    1.516716824196655E-012
 -5.699999999999999E-003    3.263223819943593E-012
 -5.599999999999999E-003    4.805797630180420E-012
 -5.499999999999999E-003    5.973151682733781E-012
 -5.399999999999999E-003    6.616754644024299E-012
 -5.299999999999999E-003    6.628316031491565E-012
 -5.199999999999999E-003    5.954909865962470E-012
 -5.099999999999999E-003    4.609940343314143E-012
 -4.999999999999999E-003    2.678351804364916E-012
 -4.899999999999999E-003    3.149420038023244E-013
 -4.799999999999999E-003   -2.264787677255154E-012
 -4.699999999999999E-003   -4.801087641627528E-012
 -4.599999999999999E-003   -7.012788206653999E-012
 -4.499999999999999E-003   -8.624789812569390E-012
 -4.399999999999999E-003   -9.397844606273554E-012
 -4.299999999999999E-003   -9.157764813724616E-012
 -4.199999999999999E-003   -7.820926754833709E-012
 -4.099999999999999E-003   -5.413002323560185E-012
 -3.999999999999999E-003   -2.078230527937717E-012
 -3.899999999999999E-003    1.922771877896286E-012
 -3.799999999999999E-003    6.227661584880721E-012
 -3.699999999999999E-003    1.039929646231409E-011
 -3.599999999999999E-003    1.396345452099640E-011
 -3.499999999999999E-003    1.645455572801719E-011
 -3.399999999999999E-003    1.746550140445673E-011
 -3.299999999999999E-003    1.669687482323190E-011
 -3.199999999999999E-003    1.400031452629598E-011
 -3.099999999999999E-003    9.410966893973848E-012
 -2.999999999999999E-003    3.164499945147017E-012
 -2.899999999999999E-003   -4.304700834160895E-012
 -2.799999999999999E-003   -1.238592956083384E-011
 -2.699999999999999E-003   -2.033498307337886E-011
 -2.599999999999999E-003   -2.733509985448572E-011
 -2.499999999999999E-003   -3.257163771309080E-011
 -2.399999999999999E-003   -3.531424554354949E-011
 -2.299999999999999E-003   -3.499891005441516E-011
 -2.199999999999999E-003   -3.130151640447073E-011
 -2.099999999999999E-003   -2.419466213095456E-011
 -1.999999999999999E-003   -1.398032096642915E-011
 -1.899999999999999E-003   -1.292811347683462E-012
 -1.799999999999999E-003    1.293106333026325E-011
 -1.699999999999999E-003    2.751469647355899E-011
 -1.599999999999999E-003    4.113390469798708E-011
 -1.499999999999999E-003    5.243211264389465E-011
 -1.399999999999999E-003    6.014895088461456E-011
 -1.299999999999999E-003    6.325061498491517E-011
 -1.199999999999999E-003    6.104909325589089E-011
 -1.099999999999999E-003    5.329742519181835E-011
 -9.999999999999989E-004    4.024949908574871E-011
 -8.999999999999990E-004    2.267552501398136E-011
 -7.999999999999990E-004    1.828100429847351E-012
 -6.999999999999989E-004   -2.064165345921332E-011
 -5.999999999999990E-004   -4.281339657825296E-011
 -4.999999999999989E-004   -6.266287122325873E-011
 -3.999999999999989E-004   -7.824946327391945E-011
 -2.999999999999989E-004   -8.790881480631030E-011
 -1.999999999999989E-004   -9.043174702591519E-011
 -9.999999999999892E-005   -8.521052303208943E-011
  1.084202172485504E-018   -7.233551013922924E-011
  1.000000000000011E-004   -5.262906218761351E-011
  2.000000000000011E-004   -2.760897877389394E-011
  3.000000000000011E-004    6.196196222816714E-013
  4.000000000000011E-004    2.953790094947148E-011
  5.000000000000011E-004    5.643916811568794E-011
  6.000000000000011E-004    7.868751895896521E-011
  7.000000000000011E-004    9.398521654191583E-011
  8.000000000000011E-004    1.006221192206250E-010
  9.000000000000012E-004    9.768041302918909E-011
  1.000000000000001E-003    8.517103565581929E-011
  1.100000000000001E-003    6.408317627154172E-011
  1.200000000000001E-003    3.633626452830129E-011
  1.300000000000001E-003    4.633010803139654E-012
  1.400000000000001E-003   -2.777776842546687E-011
  1.500000000000001E-003   -5.740986095968951E-011
  1.600000000000001E-003   -8.089274890488361E-011
  1.700000000000001E-003   -9.533524399029899E-011
  1.800000000000001E-003   -9.866271400635731E-011
  1.900000000000001E-003   -8.989110048190063E-011
  2.000000000000001E-003   -6.930483088545790E-011
  2.100000000000001E-003   -3.851365050217294E-011
  2.200000000000001E-003   -3.740630523715812E-013
  2.300000000000001E-003    4.122586605771726E-011
  2.400000000000001E-003    8.170555208241208E-011
  2.500000000000001E-003    1.162284216597657E-010
  2.600000000000001E-003    1.401975977746616E-010
  2.700000000000001E-003    1.497636856120571E-010
  2.800000000000001E-003    1.422933124956803E-010
  2.900000000000001E-003    1.167472027933727E-010
  3.000000000000001E-003    7.392251764468841E-011
  3.100000000000001E-003    1.652486302022091E-011
  3.200000000000001E-003   -5.094980782073067E-011
  3.300000000000001E-003   -1.225249467669596E-010
  3.400000000000001E-003   -1.912275146181025E-010
  3.500000000000001E-003   -2.497099281465136E-010
  3.600000000000001E-003   -2.909570929786515E-010
  3.700000000000001E-003   -3.090141449976843E-010
  3.800000000000001E-003   -2.996630109245755E-010
  3.900000000000001E-003   -2.609777057347818E-010
  4.000000000000001E-003   -1.936945707584683E-010
  4.100000000000001E-003   -1.013483452212945E-010
  4.200000000000001E-003    9.854873596628946E-012
  4.300000000000001E-003    1.314329267929557E-010
  4.400000000000001E-003    2.532699280067251E-010
  4.500000000000001E-003    3.644591229376566E-010
  4.600000000000002E-003    4.542765458486400E-010
  4.700000000000001E-003    5.131998750930192E-010
  4.800000000000001E-003    5.338765199353907E-010
  4.900000000000002E-003    5.119441612101672E-010
  5.000000000000001E-003    4.466165283079921E-010
  5.100000000000001E-003    3.409644119784039E-010
  5.200000000000001E-003    2.018477734423381E-010
  5.300000000000002E-003    3.948610379826270E-011
  5.400000000000001E-003   -1.333115145837425E-010
  5.500000000000001E-003   -3.022008069053558E-010
  5.600000000000002E-003   -4.525554124647546E-010
  5.700000000000001E-003   -5.708086425610941E-010
  5.800000000000001E-003   -6.457601754988283E-010
  5.900000000000002E-003   -6.697203103495202E-010
  6.000000000000001E-003   -6.393752368821253E-010
  6.100000000000001E-003   -5.562752188259519E-010
  6.200000000000002E-003   -4.268825659989832E-010
  6.300000000000002E-003   -2.621526959116429E-010
  6.400000000000001E-003   -7.666749574126574E-011
  6.500000000000001E-003    1.126166843324171E-010
  6.600000000000002E-003    2.879034717984874E-010
  6.700000000000001E-003    4.322380091271720E-010
  6.800000000000001E-003    5.311802041239677E-010
  6.900000000000002E-003    5.743074917827688E-010
  7.000000000000001E-003    5.563933581339076E-010
  7.100000000000001E-003    4.781334773722843E-010
  7.200000000000002E-003    3.463280970436241E-010
  7.300000000000002E-003    1.734779017766638E-010
  7.400000000000001E-003   -2.319395239095252E-011
  7.500000000000001E-003   -2.232249375347483E-010
  7.600000000000002E-003   -4.047809123495646E-010
  7.700000000000001E-003   -5.467450606140244E-010
  7.800000000000001E-003   -6.308353346724877E-010
  7.900000000000001E-003   -6.435469484078081E-010
  8.000000000000002E-003   -5.777240661833590E-010
  8.100000000000001E-003   -4.335915312252699E-010
  8.200000000000001E-003   -2.191234843463357E-010
  8.300000000000002E-003    5.031664055314430E-011
  8.400000000000001E-003    3.530616973886922E-010
  8.500000000000002E-003    6.628781389119834E-010
  8.600000000000002E-003    9.512160376276655E-010
  8.700000000000001E-003    1.189775428066395E-009
  8.800000000000002E-003    1.353154932603380E-009
  8.900000000000002E-003    1.421330182101004E-009
  9.000000000000001E-003    1.381715606056336E-009
  9.100000000000002E-003    1.230594267896565E-009
  9.200000000000002E-003    9.737533771739478E-010
  9.300000000000001E-003    6.262334309087710E-010
  9.400000000000002E-003    2.111844324519646E-010
  9.500000000000001E-003   -2.420919089923231E-010
  9.600000000000001E-003   -7.007487636051007E-010
  9.700000000000002E-003   -1.131415054941824E-009
  9.800000000000001E-003   -1.503343507148367E-009
  9.900000000000001E-003   -1.791374370994255E-009
  1.000000000000000E-002   -1.978407809816237E-009
  1.010000000000000E-002   -2.057112430294853E-009
  1.020000000000000E-002   -2.030665133576569E-009
  1.030000000000000E-002   -1.912400418545441E-009
  1.040000000000000E-002   -1.724357351865063E-009
  1.050000000000000E-002   -1.494818938012933E-009
  1.060000000000000E-002   -1.255049247782740E-009
  1.070000000000000E-002   -1.035523878384180E-009
  1.080000000000000E-002   -8.620206662897507E-010
  1.090000000000000E-002   -7.519684730678218E-010
  1.100000000000000E-002   -7.114560742667400E-010
  1.110000000000000E-002   -7.332574767875353E-010
  1.120000000000000E-002   -7.961509706015883E-010
  1.130000000000000E-002   -8.657045936023875E-010
  1.140000000000000E-002   -8.965587981239991E-010
  1.150000000000000E-002   -8.361042932702671E-010
  1.160000000000000E-002   -6.293013743145417E-010
  1.170000000000000E-002   -2.242717697452167E-010
  1.180000000000000E-002    4.218101651207530E-010
  1.190000000000000E-002    1.337050411320983E-009
  1.200000000000000E-002    2.529928882651112E-009
  1.210000000000000E-002    3.985651551691401E-009
  1.220000000000000E-002    5.664164878186190E-009
  1.230000000000000E-002    7.500115584581888E-009
  1.240000000000000E-002    9.404871564909636E-009
  1.250000000000000E-002    1.127054509261980E-008
  1.260000000000000E-002    1.297577882168263E-008
  1.270000000000000E-002    1.439289387146925E-008
  1.280000000000000E-002    1.539587058995737E-008
  1.290000000000000E-002    1.586854281575599E-008
  1.300000000000000E-002    1.571235567585672E-008
  1.310000000000000E-002    1.485307912394560E-008
  1.320000000000000E-002    1.324593746536962E-008
  1.330000000000000E-002    1.087877855117070E-008
  1.340000000000000E-002    7.773067279520880E-009
  1.350000000000000E-002    3.982705621758363E-009
  1.360000000000000E-002   -4.091081354698863E-010
  1.370000000000000E-002   -5.294588699473191E-009
  1.380000000000000E-002   -1.054707042830990E-008
  1.390000000000000E-002   -1.602703727309965E-008
  1.400000000000000E-002   -2.158778335039640E-008
  1.410000000000000E-002   -2.707998685130007E-008
  1.420000000000000E-002   -3.235463494680695E-008
  1.430000000000000E-002   -3.726383722518251E-008
  1.440000000000000E-002   -4.165932652916353E-008
  1.450000000000000E-002   -4.538864182747733E-008
  1.460000000000000E-002   -4.828925851253823E-008
  1.470000000000000E-002   -5.018114918939908E-008
  1.480000000000000E-002   -5.085844529690226E-008
  1.490000000000000E-002   -5.008101823890915E-008
  1.500000000000000E-002   -4.756680445014052E-008
  1.510000000000000E-002   -4.298576723693440E-008
  1.520000000000000E-002   -3.595610428514705E-008
  1.530000000000000E-002   -2.604337056412440E-008
  1.540000000000000E-002   -1.276264149911888E-008
  1.550000000000000E-002    4.416175158445476E-009
  1.560000000000000E-002    2.606025616584744E-008
  1.570000000000000E-002    5.276356276631818E-008
  1.580000000000000E-002    8.513524233840822E-008
  1.590000000000000E-002    1.237875962439238E-007
  1.600000000000000E-002    1.693248997201271E-007
  1.610000000000000E-002    2.223339231046499E-007
  1.620000000000000E-002    2.833772213861183E-007
  1.630000000000000E-002    3.529901040952317E-007
  1.640000000000000E-002    4.316812926191133E-007
  1.650000000000000E-002    5.199380816913100E-007
  1.660000000000000E-002    6.182349381813320E-007
  1.670000000000000E-002    7.270453654824818E-007
  1.680000000000000E-002    8.468567059189235E-007
  1.690000000000000E-002    9.781854384035218E-007
  1.700000000000000E-002    1.121593057743741E-006
  1.710000000000000E-002    1.277700444699393E-006
  1.720000000000000E-002    1.447199767931992E-006
  1.730000000000000E-002    1.630863139124060E-006
  1.740000000000000E-002    1.829547614427857E-006
  1.750000000000000E-002    2.044195201329492E-006
  1.760000000000000E-002    2.275829918581620E-006
  1.770000000000000E-002    2.525549886947880E-006
  1.780000000000000E-002    2.794518812290323E-006
  1.790000000000000E-002    3.083953664079636E-006
  1.800000000000000E-002    3.395115094469436E-006
  1.810000000000000E-002    3.729296911230069E-006
  1.820000000000000E-002    4.087819949227220E-006
  1.830000000000000E-002    4.472028912060197E-006
  1.840000000000000E-002    4.883294175435038E-006
  1.850000000000000E-002    5.323019672129958E-006
  1.860000000000000E-002    5.792653737726248E-006
  1.870000000000000E-002    6.293705167128279E-006