 -4.000000000000000E-002    0.000000000000000E+000
 -3.990000000000000E-002    0.000000000000000E+000
 -3.980000000000000E-002    0.000000000000000E+000
 -3.970000000000000E-002    0.000000000000000E+000
 -3.960000000000000E-002    1.718973000097639E-018
 -3.950000000000000E-002    1.388738538912535E-017
 -3.940000000000000E-002    6.044830245783748E-017
 -3.930000000000000E-002    1.859773150952900E-016
 -3.920000000000000E-002    4.467729212061676E-016
 -3.910000000000000E-002    8.724436324653415E-016
 -3.900000000000000E-002    1.385214191223332E-015
 -3.890000000000000E-002    1.676137074765275E-015
 -3.880000000000000E-002    1.060540403424572E-015
 -3.870000000000000E-002   -1.631882965527860E-015
 -3.860000000000000E-002   -8.039743555351442E-015
 -3.850000000000000E-002   -2.000186295476612E-014
 -3.840000000000000E-002   -3.890372738333129E-014
 -3.830000000000000E-002   -6.452894127327209E-014
 -3.820000000000000E-002   -9.337994727125220E-014
 -3.810000000000000E-002   -1.165642760135511E-013
 -3.800000000000000E-002   -1.175249669700500E-013
 -3.790000000000000E-002   -7.011599937672089E-014
 -3.780000000000000E-002    6.226317089460656E-014
 -3.770000000000000E-002    3.255868964745182E-013
 -3.760000000000000E-002    7.712438556282154E-013
 -3.750000000000000E-002    1.448377430858117E-012
 -3.740000000000000E-002    2.392056487934538E-012
 -3.730000000000000E-002    3.607408353857157E-012
 -3.720000000000000E-002    5.050664541933253E-012
 -3.710000000000000E-002    6.609080248093480E-012
 -3.700000000000000E-002    8.082721328734574E-012
 -3.690000000000000E-002    9.172057558939360E-012
 -3.680000000000000E-002    9.475848464670048E-012
 -3.670000000000000E-002    8.503905582535035E-012
 -3.660000000000000E-002    5.708570791715900E-012
 -3.650000000000000E-002    5.373343941892145E-013
 -3.640000000000000E-002   -7.493498284134317E-012
 -3.630000000000000E-002   -1.870715027365734E-011
 -3.620000000000000E-002   -3.316342793697701E-011
 -3.610000000000000E-002   -5.055474661697743E-011
 -3.600000000000000E-002   -7.011450238268338E-011
 -3.590000000000000E-002   -9.055317085523634E-011
 -3.580000000000000E-002   -1.100380427453247E-010
 -3.570000000000000E-002   -1.262306451402169E-010
 -3.560000000000000E-002   -1.363923684390467E-010
 -3.550000000000000E-002   -1.375622590957058E-010
 -3.540000000000000E-002   -1.268031920234960E-010
 -3.530000000000000E-002   -1.015035042049975E-010
 -3.520000000000000E-002   -5.971170989575040E-011
 -3.510000000000000E-002   -4.739229755106965E-013
 -3.500000000000000E-002    7.586255945748710E-011
 -3.490000000000000E-002    1.674182665644438E-010
 -3.480000000000000E-002    2.706602543630885E-010
 -3.470000000000000E-002    3.804207032549591E-010
 -3.460000000000000E-002    4.900747310738854E-010
 -3.450000000000000E-002    5.918811017315300E-010
 -3.440000000000000E-002    6.774727592866933E-010
 -3.430000000000000E-002    7.384650581663263E-010
 -3.420000000000000E-002    7.671336014438607E-010
 -3.410000000000000E-002    7.571004754786646E-010
 -3.400000000000000E-002    7.039609176431028E-010
 -3.390000000000000E-002    6.057819160057085E-010
 -3.380000000000000E-002    4.634131829517874E-010
 -3.370000000000000E-002    2.805656155883943E-010
 -3.360000000000000E-002    6.363519972304315E-011
 -3.350000000000000E-002   -1.787238606559397E-010
 -3.340000000000000E-002   -4.362453373151464E-010
 -3.330000000000000E-002   -6.978583967085741E-010
 -3.320000000000000E-002   -9.525780972678394E-010
 -3.310000000000000E-002   -1.190386809640530E-009
 -3.300000000000000E-002   -1.403010738056707E-009
 -3.290000000000000E-002   -1.584504319752124E-009
 -3.280000000000000E-002   -1.731570002890722E-009
 -3.270000000000000E-002   -1.843570041545296E-009
 -3.260000000000000E-002   -1.922216707984492E-009
 -3.250000000000000E-002   -1.970963244414973E-009
 -3.240000000000000E-002   -1.994150659878593E-009
 -3.230000000000000E-002   -1.995994361194230E-009
 -3.220000000000000E-002   -1.979513963802979E-009
 -3.210000000000000E-002   -1.945521611914038E-009
 -3.200000000000000E-002   -1.891780164579198E-009
 -3.190000000000000E-002   -1.812434419312515E-009
 -3.180000000000000E-002   -1.697794793131502E-009
 -3.170000000000000E-002   -1.534527010671305E-009
 -3.160000000000000E-002   -1.306269430279127E-009
 -3.150000000000000E-002   -9.946679327524992E-010
 -3.140000000000000E-002   -5.807879295717708E-010
 -3.130000000000000E-002   -4.683651664575045E-011
 -3.120000000000000E-002    6.218934101142801E-010
 -3.110000000000000E-002    1.434964433848502E-009
 -3.100000000000000E-002    2.394741397163892E-009
 -3.090000000000000E-002    3.494471099456729E-009
 -3.080000000000000E-002    4.716635380736873E-009
 -3.070000000000000E-002    6.031721684160268E-009
 -3.060000000000000E-002    7.397555517189451E-009
 -3.050000000000000E-002    8.759339913238725E-009
 -3.040000000000000E-002    1.005053320022914E-008
 -3.030000000000000E-002    1.119467083397121E-008
 -3.020000000000000E-002    1.210820382699342E-008
 -3.010000000000000E-002    1.270436189179877E-008
 -3.000000000000000E-002    1.289797094895298E-008
 -2.990000000000000E-002    1.261107120767048E-008
 -2.980000000000000E-002    1.177906376784319E-008
 -2.970000000000000E-002    1.035701960854387E-008
 -2.960000000000000E-002    8.325679461733318E-009
 -2.950000000000000E-002    5.696611962567389E-009
 -2.940000000000000E-002    2.515955511705871E-009
 -2.930000000000000E-002   -1.133799534901924E-009
 -2.920000000000000E-002   -5.134449577269826E-009
 -2.910000000000000E-002   -9.335464881353934E-009
 -2.900000000000000E-002   -1.356021156687199E-008
 -2.890000000000000E-002   -1.761488857881942E-008
 -2.880000000000000E-002   -2.129972116490743E-008
 -2.870000000000000E-002   -2.442172728369015E-008
 -2.860000000000000E-002   -2.680807621391174E-008
 -2.850000000000000E-002   -2.831892761127772E-008
 -2.840000000000000E-002   -2.885851091136492E-008
 -2.830000000000000E-002   -2.838328396684501E-008
 -2.820000000000000E-002   -2.690616308678279E-008
 -2.810000000000000E-002   -2.449611057857070E-008
 -2.800000000000000E-002   -2.127278925339336E-008
 -2.790000000000000E-002   -1.739648262135477E-008
 -2.780000000000000E-002   -1.305398583777406E-008
 -2.770000000000000E-002   -8.441676187154686E-009
 -2.760000000000000E-002   -3.747379142603004E-009
 -2.750000000000000E-002    8.671105154924709E-010
 -2.740000000000000E-002    5.280873874713359E-009
 -2.730000000000000E-002    9.424277893624121E-009
 -2.720000000000000E-002    1.328347003141764E-008
 -2.710000000000000E-002    1.689804989371973E-008
 -2.700000000000000E-002    2.035169395242877E-008
 -2.690000000000000E-002    2.375632735712647E-008
 -2.680000000000000E-002    2.723120167123979E-008
 -2.670000000000000E-002    3.087894632164820E-008
 -2.660000000000000E-002    3.476123861797751E-008
 -2.650000000000000E-002    3.887689640646231E-008
 -2.640000000000000E-002    4.314531182429536E-008
 -2.630000000000000E-002    4.739767591029933E-008
 -2.620000000000000E-002    5.137785434714654E-008
 -2.610000000000000E-002    5.475382676623007E-008
 -2.600000000000000E-002    5.713950167310446E-008
 -2.590000000000000E-002    5.812562213247141E-008
 -2.580000000000000E-002    5.731734081576670E-008
 -2.570000000000000E-002    5.437519487885152E-008
 -2.560000000000000E-002    4.905560095382780E-008
 -2.550000000000000E-002    4.124682256043850E-008
 -2.540000000000000E-002    3.099658089728045E-008
 -2.530000000000000E-002    1.852813824433843E-008
 -2.520000000000000E-002    4.242774383875657E-009
 -2.510000000000000E-002   -1.129214099555272E-008
 -2.500000000000000E-002   -2.736876327244474E-008
 -2.490000000000000E-002   -4.317590603259847E-008
 -2.480000000000000E-002   -5.784420604816006E-008
 -2.470000000000000E-002   -7.049490255934994E-008
 -2.460000000000000E-002   -8.028718409194429E-008
 -2.450000000000000E-002   -8.645921295284481E-008
 -2.440000000000000E-002   -8.835827453568757E-008
 -2.430000000000000E-002   -8.545669488025032E-008
 -2.420000000000000E-002   -7.735153170722325E-008
 -2.410000000000000E-002   -6.374770075771226E-008
 -2.400000000000000E-002   -4.442608084205306E-008
 -2.390000000000000E-002   -1.919965843955449E-008
 -2.380000000000000E-002    1.213774420792175E-008
 -2.370000000000000E-002    4.986489762788238E-008
 -2.360000000000000E-002    9.438299190665610E-008
 -2.350000000000000E-002    1.462565780358251E-007
 -2.340000000000000E-002    2.062411114868109E-007
 -2.330000000000000E-002    2.752940083268706E-007
 -2.320000000000000E-002    3.545680621335160E-007
 -2.310000000000000E-002    4.453878257676391E-007
 -2.300000000000000E-002    5.492112636850996E-007
 -2.290000000000000E-002    6.675812883932062E-007
 -2.280000000000000E-002    8.020721762722445E-007
 -2.270000000000000E-002    9.542367145877601E-007
 -2.260000000000000E-002    1.125561052832351E-006
 -2.250000000000000E-002    1.317430726270033E-006
 -2.240000000000000E-002    1.531113382813048E-006
 -2.230000000000000E-002    1.767760117682843E-006
 -2.220000000000000E-002    2.028425132978237E-006
 -2.210000000000000E-002    2.314101775460340E-006
 -2.200000000000000E-002    2.625773343295612E-006
 -2.190000000000000E-002    2.964470959247285E-006
 -2.180000000000000E-002    3.331333953257788E-006
 -2.170000000000000E-002    3.727667537793524E-006
 -2.160000000000000E-002    4.154989012756853E-006
 -2.150000000000000E-002    4.615061686060059E-006
 -2.140000000000000E-002    5.109908790479903E-006
 -2.130000000000000E-002    5.641811855371524E-006
 -2.120000000000000E-002    6.213286225700513E-006
 -2.110000000000000E-002    6.827046393835735E-006
 -2.100000000000000E-002    7.485956155615787E-006
 -2.090000000000000E-002    8.192973692374223E-006
 -2.080000000000000E-002    8.951097297858888E-006
 -2.070000000000000E-002    9.763318936272618E-006
 -2.060000000000000E-002    1.063258689682633E-005
 -2.050000000000000E-002    1.156178608737147E-005
 -2.040000000000000E-002    1.255373549080231E-005
 -2.030000000000000E-002    1.361121025479940E-005
 -2.020000000000000E-002    1.473697663571696E-005
 -2.010000000000000E-002    1.593384384321690E-005
 -2.000000000000000E-002    1.720473202466595E-005
 -1.990000000000000E-002    1.855274251218838E-005
 -1.980000000000000E-002    1.998123328959118E-005
 -1.970000000000000E-002    2.149388486235561E-005
 -1.960000000000000E-002    2.309476207398575E-005
 -1.950000000000000E-002    2.478835677612411E-005
 -1.940000000000000E-002    2.657962038407836E-005
 -1.930000000000000E-002    2.847397173481626E-005
 -1.920000000000000E-002    3.047728935881097E-005
 -1.910000000000000E-002    3.259589571399783E-005
 -1.900000000000000E-002    3.483651321307547E-005
 -1.890000000000000E-002    3.720622106931525E-005
 -1.880000000000000E-002    3.971241042925255E-005
 -1.870000000000000E-002    4.236272949414567E-005
 -1.860000000000000E-002    4.516505348706504E-005
 -1.850000000000000E-002    4.812744017365925E-005
 -1.840000000000000E-002    5.125812040210702E-005
 -1.830000000000000E-002    5.456550701558021E-005
 -1.820000000000000E-002    5.805820425271726E-005
 -1.810000000000000E-002    6.174507923386296E-005
 -1.800000000000000E-002    6.563529766131879E-005
 -1.790000000000000E-002    6.973843004938536E-005
 -1.780000000000000E-002    7.406453355590405E-005
 -1.770000000000000E-002    7.862426065014025E-005
 -1.760000000000000E-002    8.342897719957704E-005
 -1.750000000000000E-002    8.849086621843378E-005
 -1.740000000000000E-002    9.382301785504824E-005
 -1.730000000000000E-002    9.943950627949318E-005
 -1.720000000000000E-002    1.053554491624373E-004
 -1.710000000000000E-002    1.115870362587663E-004
 -1.700000000000000E-002    1.181515531487995E-004
 -1.690000000000000E-002    1.250673243654379E-004
 -1.680000000000000E-002    1.323536979756320E-004
 -1.670000000000000E-002    1.400309728384320E-004
 -1.660000000000000E-002    1.481203057539184E-004
 -1.650000000000000E-002    1.566436686935613E-004
 -1.640000000000000E-002    1.656237668807902E-004
 -1.630000000000000E-002    1.750839750728025E-004
 -1.620000000000000E-002    1.850483458961056E-004
 -1.610000000000000E-002    1.955416135572716E-004
 -1.600000000000000E-002    2.065892263491167E-004
 -1.590000000000000E-002    2.182174735972871E-004
 -1.580000000000000E-002    2.304535981938299E-004
 -1.570000000000000E-002    2.433258973323712E-004
 -1.560000000000000E-002    2.568639777128426E-004
 -1.550000000000000E-002    2.710988720516543E-004
 -1.540000000000000E-002    2.860632075867922E-004
 -1.530000000000000E-002    3.017914016376679E-004
 -1.520000000000000E-002    3.183196688758523E-004
 -1.510000000000000E-002    3.356862304913121E-004
 -1.500000000000000E-002    3.539312228540257E-004
 -1.490000000000000E-002    3.730967630771509E-004
 -1.480000000000000E-002    3.932268304499294E-004
 -1.470000000000000E-002    4.143672670699810E-004
 -1.460000000000000E-002    4.365655986822718E-004
 -1.450000000000000E-002    4.598709914523977E-004
 -1.440000000000000E-002    4.843341542480478E-004
 -1.430000000000000E-002    5.100073438707759E-004
 -1.420000000000000E-002    5.369443167759755E-004
 -1.410000000000000E-002    5.652004035071966E-004
 -1.400000000000000E-002    5.948326405336167E-004
 -1.390000000000000E-002    6.258999161095868E-004
 -1.380000000000000E-002    6.584631323499977E-004
 -1.370000000000000E-002    6.925855191180777E-004
 -1.360000000000000E-002    7.283328513612429E-004
 -1.350000000000000E-002    7.657735502392642E-004
 -1.340000000000000E-002    8.049790644282364E-004
 -1.330000000000000E-002    8.460237859792805E-004
 -1.320000000000000E-002    8.889854726972761E-004
 -1.310000000000000E-002    9.339450239780599E-004
 -1.300000000000000E-002    9.809866632270901E-004
 -1.290000000000000E-002    1.030197737066323E-003
 -1.280000000000000E-002    1.081668646879737E-003
 -1.270000000000000E-002    1.135492920442719E-003
 -1.260000000000000E-002    1.191766885469284E-003
 -1.250000000000000E-002    1.250589800837449E-003
 -1.240000000000000E-002    1.312063758567657E-003
 -1.230000000000000E-002    1.376293607875733E-003
 -1.220000000000000E-002    1.443387420885316E-003
 -1.210000000000000E-002    1.513456208094634E-003
 -1.200000000000000E-002    1.586614299280063E-003
 -1.190000000000000E-002    1.662979816195767E-003
 -1.180000000000000E-002    1.742674398610828E-003
 -1.170000000000000E-002    1.825823834739080E-003
 -1.160000000000000E-002    1.912558293165965E-003
 -1.150000000000000E-002    2.003012314913119E-003
 -1.140000000000000E-002    2.097324870874332E-003
 -1.130000000000000E-002    2.195639650695488E-003
 -1.120000000000000E-002    2.298104752401913E-003
 -1.110000000000000E-002    2.404872859273124E-003
 -1.100000000000000E-002    2.516100663609916E-003
 -1.090000000000000E-002    2.631949485238309E-003
 -1.080000000000000E-002    2.752584474665881E-003
 -1.070000000000000E-002    2.878174808932903E-003
 -1.060000000000000E-002    3.008893590706083E-003
 -1.050000000000000E-002    3.144917743925797E-003
 -1.040000000000000E-002    3.286428610162974E-003
 -1.030000000000000E-002    3.433611114276346E-003
 -1.020000000000000E-002    3.586655152483601E-003
 -1.010000000000000E-002    3.745754906098141E-003
 -1.000000000000000E-002    3.911109377215972E-003
 -9.899999999999999E-003    4.082923006528950E-003
 -9.800000000000000E-003    4.261404932079976E-003
 -9.699999999999999E-003    4.446770335377103E-003
 -9.599999999999999E-003    4.639239231382416E-003
 -9.500000000000000E-003    4.839037634904820E-003
 -9.399999999999999E-003    5.046396985446081E-003
 -9.299999999999999E-003    5.261553716933533E-003
 -9.200000000000000E-003    5.484749948263787E-003
 -9.099999999999999E-003    5.716231895122742E-003
 -8.999999999999999E-003    5.956250772734430E-003
 -8.900000000000000E-003    6.205062247015026E-003
 -8.799999999999999E-003    6.462925605717046E-003
 -8.699999999999999E-003    6.730105157897207E-003
 -8.600000000000000E-003    7.006868211067473E-003
 -8.499999999999999E-003    7.293486580794024E-003
 -8.399999999999999E-003    7.590236524931705E-003
 -8.300000000000000E-003    7.897396895158471E-003
 -8.199999999999999E-003    8.215251137994336E-003
 -8.100000000000000E-003    8.544087101360162E-003
 -8.000000000000000E-003    8.884196746090695E-003
 -7.899999999999999E-003    9.235875651948961E-003
 -7.800000000000000E-003    9.599423346034830E-003
 -7.699999999999999E-003    9.975143305148539E-003
 -7.599999999999999E-003    1.036334123334433E-002
 -7.499999999999999E-003    1.076432862386079E-002
 -7.399999999999999E-003    1.117841709079007E-002
 -7.299999999999999E-003    1.160592297636738E-002
 -7.199999999999999E-003    1.204716319810628E-002
 -7.100000000000000E-003    1.250245755716914E-002
 -6.999999999999999E-003    1.297212656587622E-002
 -6.899999999999999E-003    1.345649389158528E-002
 -6.800000000000000E-003    1.395588089045349E-002
 -6.699999999999999E-003    1.447061345702263E-002
 -6.599999999999999E-003    1.500101729980237E-002
 -6.499999999999999E-003    1.554741645408190E-002
 -6.399999999999999E-003    1.611013832540000E-002
 -6.299999999999999E-003    1.668950706721418E-002
 -6.199999999999999E-003    1.728584904243562E-002
 -6.100000000000000E-003    1.789948737744912E-002
 -5.999999999999999E-003    1.853074583248789E-002
 -5.899999999999999E-003    1.917994404639612E-002
 -5.800000000000000E-003    1.984739977920583E-002
 -5.699999999999999E-003    2.053342615604541E-002
 -5.599999999999999E-003    2.123833138104501E-002
 -5.499999999999999E-003    2.196242008491848E-002
 -5.399999999999999E-003    2.270599045290943E-002
 -5.299999999999999E-003    2.346933489232437E-002
 -5.199999999999999E-003    2.425273764947772E-002
 -5.099999999999999E-003    2.505647572784944E-002
 -4.999999999999999E-003    2.588081792982001E-002
 -4.899999999999999E-003    2.672602449772665E-002
 -4.799999999999999E-003    2.759234617033324E-002
 -4.699999999999999E-003    2.848002567333353E-002
 -4.599999999999999E-003    2.938929466350758E-002
 -4.499999999999999E-003    3.032037343475386E-002
 -4.399999999999999E-003    3.127347127575900E-002
 -4.299999999999999E-003    3.224878718572409E-002
 -4.199999999999999E-003    3.324650442067685E-002
 -4.099999999999999E-003    3.426679384086988E-002
 -3.999999999999999E-003    3.530980981037639E-002
 -3.899999999999999E-003    3.637568801922165E-002
 -3.799999999999999E-003    3.746454790246065E-002
 -3.699999999999999E-003    3.857649232787130E-002
 -3.599999999999999E-003    3.971160044514091E-002
 -3.499999999999999E-003    4.086993499494182E-002
 -3.399999999999999E-003    4.205152833957854E-002
 -3.299999999999999E-003    4.325640106097651E-002
 -3.199999999999999E-003    4.448453943182215E-002
 -3.099999999999999E-003    4.573591273923432E-002
 -2.999999999999999E-003    4.701045919515923E-002
 -2.899999999999999E-003    4.830809354332823E-002
 -2.799999999999999E-003    4.962870063596230E-002
 -2.699999999999999E-003    5.097214163360777E-002
 -2.599999999999999E-003    5.233824772260023E-002
 -2.499999999999999E-003    5.372681284813480E-002
 -2.399999999999999E-003    5.513760430852294E-002
 -2.299999999999999E-003    5.657035267378890E-002
 -2.199999999999999E-003    5.802475908134561E-002
 -2.099999999999999E-003    5.950047899043025E-002
 -1.999999999999999E-003    6.099714057664282E-002
 -1.899999999999999E-003    6.251432443919885E-002
 -1.799999999999999E-003    6.405157733624303E-002
 -1.699999999999999E-003    6.560839551714182E-002
 -1.599999999999999E-003    6.718424432119907E-002
 -1.499999999999999E-003    6.877854115066424E-002
 -1.399999999999999E-003    7.039065350608001E-002
 -1.299999999999999E-003    7.201990722005294E-002
 -1.199999999999999E-003    7.366558508886500E-002
 -1.099999999999999E-003    7.532692149839458E-002
 -9.999999999999989E-004    7.700309542753656E-002
 -8.999999999999990E-004    7.869324161828392E-002
 -7.999999999999990E-004    8.039644384927944E-002
 -6.999999999999989E-004    8.211173035283477E-002
 -5.999999999999990E-004    8.383808201289673E-002
 -4.999999999999989E-004    8.557441976689405E-002
 -3.999999999999989E-004    8.731961046860601E-002
 -2.999999999999989E-004    8.907246648132397E-002
 -1.999999999999989E-004    9.083173257584946E-002
 -9.999999999999892E-005    9.259610606461575E-002
  1.084202172485504E-018    9.436422233769748E-002
  1.000000000000011E-004    9.613465082750805E-002
  2.000000000000011E-004    9.790590184360590E-002
  3.000000000000011E-004    9.967641624085981E-002
  4.000000000000011E-004    0.101444583416328     
  5.000000000000011E-004    0.103208727579925     
  6.000000000000011E-004    0.104967095465616     
  7.000000000000011E-004    0.106717891196996     
  8.000000000000011E-004    0.108459233490335     
  9.000000000000012E-004    0.110189190528749     
  1.000000000000001E-003    0.111905748347887     
  1.100000000000001E-003    0.113606845580600     
  1.200000000000001E-003    0.115290342629728     
  1.300000000000001E-003    0.116954026430446     
  1.400000000000001E-003    0.118595636153389     
  1.500000000000001E-003    0.120212827053926     
  1.600000000000001E-003    0.121803182232047     
  1.700000000000001E-003    0.123364236746201     
  1.800000000000001E-003    0.124893445297653     
  1.900000000000001E-003    0.126388194007854     
  2.000000000000001E-003    0.127845811127938     
  2.100000000000001E-003    0.129263548665354     
  2.200000000000001E-003    0.130638603331247     
  2.300000000000001E-003    0.131968096724585     
  2.400000000000001E-003    0.133249085145827     
  2.500000000000001E-003    0.134478588303662     
  2.600000000000001E-003    0.135653538496014     
  2.700000000000001E-003    0.136770804150616     
  2.800000000000001E-003    0.137827218080197     
  2.900000000000001E-003    0.138819531492678     
  3.000000000000001E-003    0.139744458433050     
  3.100000000000001E-003    0.140598642282825     
  3.200000000000001E-003    0.141378670719424     
  3.300000000000001E-003    0.142081084160434     
  3.400000000000001E-003    0.142702377117414     
  3.500000000000001E-003    0.143238979921720     
  3.600000000000001E-003    0.143687293257559     
  3.700000000000001E-003    0.144043667839609     
  3.800000000000001E-003    0.144304399092608     
  3.900000000000001E-003    0.144465772246803     
  4.000000000000001E-003    0.144524003471565     
  4.100000000000001E-003    0.144475300306289     
  4.200000000000001E-003    0.144315837041465     
  4.300000000000001E-003    0.144041738471847     
  4.400000000000001E-003    0.143649124888310     
  4.500000000000001E-003    0.143134098186132     
  4.600000000000002E-003    0.142492720552897     
  4.700000000000001E-003    0.141721062684955     
  4.800000000000001E-003    0.140815170255389     
  4.900000000000002E-003    0.139771090319449     
  5.000000000000001E-003    0.138584847618699     
  5.100000000000001E-003    0.137252479673463     
  5.200000000000001E-003    0.135770035008039     
  5.300000000000002E-003    0.134133555560675     
  5.400000000000001E-003    0.132339099618552     
  5.500000000000001E-003    0.130382750011355     
  5.600000000000002E-003    0.128260607228542     
  5.700000000000001E-003    0.125968802397322     
  5.800000000000001E-003    0.123503496766293     
  5.900000000000002E-003    0.120860885323813     
  6.000000000000001E-003    0.118037208921771     
  6.100000000000001E-003    0.115028753334603     
  6.200000000000002E-003    0.111831852442827     
  6.300000000000002E-003    0.108442897131381     
  6.400000000000001E-003    0.104858347136686     
  6.500000000000001E-003    0.101074730776086     
  6.600000000000002E-003    9.708863283221050E-002
  6.700000000000001E-003    9.289672596144147E-002
  6.800000000000001E-003    8.849576813786761E-002
  6.900000000000002E-003    8.388260224046033E-002
  7.000000000000001E-003    7.905416355016846E-002
  7.100000000000001E-003    7.400748853986722E-002
  7.200000000000002E-003    6.873972595072597E-002
  7.300000000000002E-003    6.324813291182164E-002
  7.400000000000001E-003    5.753008497313995E-002
  7.500000000000001E-003    5.158307542313295E-002
  7.600000000000002E-003    4.540473549624537E-002
  7.700000000000001E-003    3.899282715755083E-002
  7.800000000000001E-003    3.234526047360069E-002
  7.900000000000001E-003    2.546008586693801E-002
  8.000000000000002E-003    1.833550438271352E-002
  8.100000000000001E-003    1.096988054038288E-002
  8.200000000000001E-003    3.361740868098652E-003
  8.300000000000002E-003   -4.490219318467828E-003
  8.400000000000001E-003   -1.258712904458753E-002
  8.500000000000002E-003   -2.092994401896814E-002
  8.600000000000002E-003   -2.951942729166654E-002
  8.700000000000001E-003   -3.835615958590542E-002
  8.800000000000002E-003   -4.744051130656906E-002
  8.900000000000002E-003   -5.677266073612310E-002
  9.000000000000001E-003   -6.635257482803894E-002
  9.100000000000002E-003   -7.618001321853986E-002
  9.200000000000002E-003   -8.625452118975946E-002
  9.300000000000001E-003   -9.657542534571123E-002
  9.400000000000002E-003   -0.107141811332112     
  9.500000000000001E-003   -0.117952549896027     
  9.600000000000001E-003   -0.129006259295840     
  9.700000000000002E-003   -0.140301347202112     
  9.800000000000001E-003   -0.151835962015265     
  9.900000000000001E-003   -0.163608012042977     
  1.000000000000000E-002   -0.175615128964735     
  1.010000000000000E-002   -0.187854740321197     
  1.020000000000000E-002   -0.200323993509418     
  1.030000000000000E-002   -0.213019793549261     
  1.040000000000000E-002   -0.225938751203867     
  1.050000000000000E-002   -0.239077264893930     
  1.060000000000000E-002   -0.252431420697283     
  1.070000000000000E-002   -0.265997066081533     
  1.080000000000000E-002   -0.279769760394124     
  1.090000000000000E-002   -0.293744825382981     
  1.100000000000000E-002   -0.307917262981953     
  1.110000000000000E-002   -0.322281849269563     
  1.120000000000000E-002   -0.336833089670875     
  1.130000000000000E-002   -0.351565171788374     
  1.140000000000000E-002   -0.366472047520508     
  1.150000000000000E-002   -0.381547378213709     
  1.160000000000000E-002   -0.396784561236420     
  1.170000000000000E-002   -0.412176736714668     
  1.180000000000000E-002   -0.427716767101435     
  1.190000000000000E-002   -0.443397236913549     
  1.200000000000000E-002   -0.459210468761566     
  1.210000000000000E-002   -0.475148598205571     
  1.220000000000000E-002   -0.491203362614441     
  1.230000000000000E-002   -0.507366326658456     
  1.240000000000000E-002   -0.523628825567453     
  1.250000000000000E-002   -0.539981865587220     
  1.260000000000000E-002   -0.556416272401689     
  1.270000000000000E-002   -0.572922587502687     
  1.280000000000000E-002   -0.589491180217379     
  1.290000000000000E-002   -0.606112064865376     
  1.300000000000000E-002   -0.622775171217467     
  1.310000000000000E-002   -0.639470134435515     
  1.320000000000000E-002   -0.656186352235323     
  1.330000000000000E-002   -0.672913030789924     
  1.340000000000000E-002   -0.689639248319773     
  1.350000000000000E-002   -0.706353774966370     
  1.360000000000000E-002   -0.723045277811314     
  1.370000000000000E-002   -0.739702238061721     
  1.380000000000000E-002   -0.756312883513970     
  1.390000000000000E-002   -0.772865391764208     
  1.400000000000000E-002   -0.789347661150049     
  1.410000000000000E-002   -0.805747559814461     
  1.420000000000000E-002   -0.822052760797373     
  1.430000000000000E-002   -0.838250840076781     
  1.440000000000000E-002   -0.854329258741645     
  1.450000000000000E-002   -0.870275253720234     
  1.460000000000000E-002   -0.886076128207703     
  1.470000000000000E-002   -0.901718974274303     
  1.480000000000000E-002   -0.917190896289317     
  1.490000000000000E-002   -0.932478837840100     
  1.500000000000000E-002   -0.947569749956250     
  1.510000000000000E-002   -0.962450514821899     
  1.520000000000000E-002   -0.977108050346265     
  1.530000000000000E-002   -0.991529151304392     
  1.540000000000000E-002    -1.00570068229665     
  1.550000000000000E-002    -1.01960940740623     
  1.560000000000000E-002    -1.03324231037294     
  1.570000000000000E-002    -1.04658616944594     
  1.580000000000000E-002    -1.05962796044944     
  1.590000000000000E-002    -1.07235464553859     
  1.600000000000000E-002    -1.08475326666873     
  1.610000000000000E-002    -1.09681094204636     
  1.620000000000000E-002    -1.10851480572999     
  1.630000000000000E-002    -1.11985225297422     
  1.640000000000000E-002    -1.13081067109911     
  1.650000000000000E-002    -1.14137761694647     
  1.660000000000000E-002    -1.15154072424718     
  1.670000000000000E-002    -1.16128788584868     
  1.680000000000000E-002    -1.17060699641913     
  1.690000000000000E-002    -1.17948636659073     
  1.700000000000000E-002    -1.18791436163078     
  1.710000000000000E-002    -1.19587959415975     
  1.720000000000000E-002    -1.20337082385633     
  1.730000000000000E-002    -1.21037706050670     
  1.740000000000000E-002    -1.21688760874436     
  1.750000000000000E-002    -1.22289201815221     
  1.760000000000000E-002    -1.22838013969688     
  1.770000000000000E-002    -1.23334200757921     
  1.780000000000000E-002    -1.23776795030062     
  1.790000000000000E-002    -1.24164869137047     
  1.800000000000000E-002    -1.24497512087675     
  1.810000000000000E-002    -1.24773864621220     
  1.820000000000000E-002    -1.24993079121858     
  1.830000000000000E-002    -1.25154361705953     
  1.840000000000000E-002    -1.25256940494584     
  1.850000000000000E-002    -1.25300088458064     
  1.860000000000000E-002    -1.25283104874040     
  1.870000000000000E-002    -1.25205338530603     