 -4.000000000000000E-002    0.000000000000000E+000
 -3.990000000000000E-002    0.000000000000000E+000
 -3.980000000000000E-002    0.000000000000000E+000
 -3.970000000000000E-002    0.000000000000000E+000
 -3.960000000000000E-002    0.000000000000000E+000
 -3.950000000000000E-002    0.000000000000000E+000
 -3.940000000000000E-002    0.000000000000000E+000
 -3.930000000000000E-002    0.000000000000000E+000
 -3.920000000000000E-002    0.000000000000000E+000
 -3.910000000000000E-002    0.000000000000000E+000
 -3.900000000000000E-002    0.000000000000000E+000
 -3.890000000000000E-002    0.000000000000000E+000
 -3.880000000000000E-002    0.000000000000000E+000
 -3.870000000000000E-002    0.000000000000000E+000
 -3.860000000000000E-002    0.000000000000000E+000
 -3.850000000000000E-002    0.000000000000000E+000
 -3.840000000000000E-002    0.000000000000000E+000
 -3.830000000000000E-002    0.000000000000000E+000
 -3.820000000000000E-002    4.184116192552539E-048
 -3.810000000000000E-002    1.112842867148763E-047
 -3.800000000000000E-002    6.410006037573065E-047
 -3.790000000000000E-002    4.232459047431803E-046
 -3.780000000000000E-002    2.396733780444135E-045
 -3.770000000000000E-002    1.197986646365695E-044
 -3.760000000000000E-002    5.303093797469096E-044
 -3.750000000000000E-002    2.109093843320323E-043
 -3.740000000000000E-002    7.689630734888419E-043
 -3.730000000000000E-002    2.571656223176044E-042
 -3.720000000000000E-002    7.940535744849568E-042
 -3.710000000000000E-002    2.273880443560638E-041
 -3.700000000000000E-002    6.052461898160977E-041
 -3.690000000000000E-002    1.497365777829076E-040
 -3.680000000000000E-002    3.432760507808240E-040
 -3.670000000000000E-002    7.235139769961588E-040
 -3.660000000000000E-002    1.377856746043254E-039
 -3.650000000000000E-002    2.277243959488346E-039
 -3.640000000000000E-002    2.900081309717884E-039
 -3.630000000000000E-002    1.273715973978170E-039
 -3.620000000000000E-002   -8.184665101968504E-039
 -3.610000000000000E-002   -3.908523164840642E-038
 -3.600000000000000E-002   -1.213599123691439E-037
 -3.590000000000000E-002   -3.155696344230045E-037
 -3.580000000000000E-002   -7.353772366233840E-037
 -3.570000000000000E-002   -1.578880956822416E-036
 -3.560000000000000E-002   -3.164849753080214E-036
 -3.550000000000000E-002   -5.959222987864798E-036
 -3.540000000000000E-002   -1.055671565916563E-035
 -3.530000000000000E-002   -1.754728304507624E-035
 -3.520000000000000E-002   -2.714376232674181E-035
 -3.510000000000000E-002   -3.837469419061176E-035
 -3.500000000000000E-002   -4.756349819085933E-035
 -3.490000000000000E-002   -4.574696962893618E-035
 -3.480000000000000E-002   -1.468397936706715E-035
 -3.470000000000000E-002    7.873984482901843E-035
 -3.460000000000000E-002    2.894540736623450E-034
 -3.450000000000000E-002    7.013005818201703E-034
 -3.440000000000000E-002    1.431456688869228E-033
 -3.430000000000000E-002    2.626819510983388E-033
 -3.420000000000000E-002    4.443450690037002E-033
 -3.410000000000000E-002    6.995863558401960E-033
 -3.400000000000000E-002    1.025849640480935E-032
 -3.390000000000000E-002    1.389860623324324E-032
 -3.380000000000000E-002    1.702062703951574E-032
 -3.370000000000000E-002    1.781043821809109E-032
 -3.360000000000000E-002    1.308924749778533E-032
 -3.350000000000000E-002   -2.173364233768646E-033
 -3.340000000000000E-002   -3.527322886961642E-032
 -3.330000000000000E-002   -9.590585561337936E-032
 -3.320000000000000E-002   -1.956953159931739E-031
 -3.310000000000000E-002   -3.466572071605425E-031
 -3.300000000000000E-002   -5.580084079348250E-031
 -3.290000000000000E-002   -8.306632789977215E-031
 -3.280000000000000E-002   -1.148799929545387E-030
 -3.270000000000000E-002   -1.468139329042291E-030
 -3.260000000000000E-002   -1.701143140551873E-030
 -3.250000000000000E-002   -1.700343735804544E-030
 -3.240000000000000E-002   -1.242522128757967E-030
 -3.230000000000000E-002   -1.850718237415252E-032
 -3.220000000000000E-002    2.364150807585598E-030
 -3.210000000000000E-002    6.355687196057071E-030
 -3.200000000000000E-002    1.240358895392802E-029
 -3.190000000000000E-002    2.084362330488710E-029
 -3.180000000000000E-002    3.173019751214674E-029
 -3.170000000000000E-002    4.459863863975788E-029
 -3.160000000000000E-002    5.816208371627710E-029
 -3.150000000000000E-002    6.996225073105869E-029
 -3.140000000000000E-002    7.601760888730010E-029
 -3.130000000000000E-002    7.054363560396558E-029
 -3.120000000000000E-002    4.585630116095204E-029
 -3.110000000000000E-002   -7.392374350905656E-030
 -3.100000000000000E-002   -9.946800283322486E-029
 -3.090000000000000E-002   -2.401039979966083E-028
 -3.080000000000000E-002   -4.361754969418217E-028
 -3.070000000000000E-002   -6.883873862558227E-028
 -3.060000000000000E-002   -9.870010935929470E-028
 -3.050000000000000E-002   -1.306825447984263E-027
 -3.040000000000000E-002   -1.601994250642033E-027
 -3.030000000000000E-002   -1.801406626678562E-027
 -3.020000000000000E-002   -1.806124301069596E-027
 -3.010000000000000E-002   -1.490415926817806E-027
 -3.000000000000000E-002   -7.084580525078223E-028
 -2.990000000000000E-002    6.912006047577823E-028
 -2.980000000000000E-002    2.841516641983971E-027
 -2.970000000000000E-002    5.822034661466718E-027
 -2.960000000000000E-002    9.613358052519999E-027
 -2.950000000000000E-002    1.404333955821416E-026
 -2.940000000000000E-002    1.873009085411479E-026
 -2.930000000000000E-002    2.303047172802598E-026
 -2.920000000000000E-002    2.600642759520894E-026
 -2.910000000000000E-002    2.642511753309418E-026
 -2.900000000000000E-002    2.281148756652561E-026
 -2.890000000000000E-002    1.357226331234494E-026
 -2.880000000000000E-002   -2.791920736114382E-027
 -2.870000000000000E-002   -2.737711296047273E-026
 -2.860000000000000E-002   -6.047216173816679E-026
 -2.850000000000000E-002   -1.010821836474837E-025
 -2.840000000000000E-002   -1.464257022181881E-025
 -2.830000000000000E-002   -1.914804314791333E-025
 -2.820000000000000E-002   -2.286840348278271E-025
 -2.810000000000000E-002   -2.479229286319892E-025
 -2.800000000000000E-002   -2.369610524261177E-025
 -2.790000000000000E-002   -1.824603024108464E-025
 -2.780000000000000E-002   -7.171813337282751E-026
 -2.770000000000000E-002    1.048154318588227E-025
 -2.760000000000000E-002    3.502814002984152E-025
 -2.750000000000000E-002    6.576074573369214E-025
 -2.740000000000000E-002    1.005540297121139E-024
 -2.730000000000000E-002    1.355115908124757E-024
 -2.720000000000000E-002    1.647398655177390E-024
 -2.710000000000000E-002    1.803508622942837E-024
 -2.700000000000000E-002    1.728069666295480E-024
 -2.690000000000000E-002    1.317188448248258E-024
 -2.680000000000000E-002    4.718381541252732E-025
 -2.670000000000000E-002   -8.829571447291493E-025
 -2.660000000000000E-002   -2.773532556998360E-024
 -2.650000000000000E-002   -5.149058000976271E-024
 -2.640000000000000E-002   -7.851920766257884E-024
 -2.630000000000000E-002   -1.059135619625833E-023
 -2.620000000000000E-002   -1.292618237571851E-023
 -2.610000000000000E-002   -1.426374418288081E-023
 -2.600000000000000E-002   -1.388279339225903E-023
 -2.590000000000000E-002   -1.098777156948680E-023
 -2.580000000000000E-002   -4.800302996341451E-024
 -2.570000000000000E-002    5.309624982935967E-024
 -2.560000000000000E-002    1.965527579387874E-023
 -2.550000000000000E-002    3.803725225144068E-023
 -2.540000000000000E-002    5.953813866028622E-023
 -2.530000000000000E-002    8.233489565126574E-023
 -2.520000000000000E-002    1.035656895943818E-022
 -2.510000000000000E-002    1.192945803080389E-022
 -2.500000000000000E-002    1.246215227377441E-022
 -2.490000000000000E-002    1.139829771208425E-022
 -2.480000000000000E-002    8.167837522053069E-023
 -2.470000000000000E-002    2.263926126504201E-023
 -2.460000000000000E-002   -6.657183781432512E-023
 -2.450000000000000E-002   -1.865839822613130E-022
 -2.440000000000000E-002   -3.339604545789623E-022
 -2.430000000000000E-002   -5.000091357512547E-022
 -2.420000000000000E-002   -6.698571326674889E-022
 -2.410000000000000E-002   -8.220243895107977E-022
 -2.400000000000000E-002   -9.287487111171018E-022
 -2.390000000000000E-002   -9.573044155583624E-022
 -2.380000000000000E-002   -8.725057538260215E-022
 -2.370000000000000E-002   -6.404942700079660E-022
 -2.360000000000000E-002   -2.337619953039145E-022
 -2.350000000000000E-002    3.628240308328467E-022
 -2.340000000000000E-002    1.145452544437232E-021
 -2.330000000000000E-002    2.084949441553703E-021
 -2.320000000000000E-002    3.121426485641823E-021
 -2.310000000000000E-002    4.161088969856326E-021
 -2.300000000000000E-002    5.076376441305999E-021
 -2.290000000000000E-002    5.710550257699178E-021
 -2.280000000000000E-002    5.887637154456117E-021
 -2.270000000000000E-002    5.428197573827499E-021
 -2.260000000000000E-002    4.170781867876207E-021
 -2.250000000000000E-002    1.998129032799047E-021
 -2.240000000000000E-002   -1.133780039298002E-021
 -2.230000000000000E-002   -5.166662104774045E-021
 -2.220000000000000E-002   -9.914640617534693E-021
 -2.210000000000000E-002   -1.504715028718902E-020
 -2.200000000000000E-002   -2.008479744794192E-020
 -2.190000000000000E-002   -2.441264200416840E-020
 -2.180000000000000E-002   -2.731450750409838E-020
 -2.170000000000000E-002   -2.803020350671888E-020
 -2.160000000000000E-002   -2.583517405419194E-020
 -2.150000000000000E-002   -2.013895312526132E-020
 -2.140000000000000E-002   -1.059543693676570E-020
 -2.130000000000000E-002    2.785755665707382E-021
 -2.120000000000000E-002    1.954058584042195E-020
 -2.110000000000000E-002    3.868070397963607E-020
 -2.100000000000000E-002    5.866931309661673E-020
 -2.090000000000000E-002    7.745843498557284E-020
 -2.080000000000000E-002    9.259987155960973E-020
 -2.070000000000000E-002    1.014357027979764E-019
 -2.060000000000000E-002    1.013656642504882E-019
 -2.050000000000000E-002    9.017820689749860E-020
 -2.040000000000000E-002    6.641986490650693E-020
 -2.030000000000000E-002    2.976627826693209E-020
 -2.020000000000000E-002   -1.865200012734062E-020
 -2.010000000000000E-002   -7.602221351316943E-020
 -2.000000000000000E-002   -1.377752174912440E-019
 -1.990000000000000E-002   -1.977133127800119E-019
 -1.980000000000000E-002   -2.483755701012812E-019
 -1.970000000000000E-002   -2.816548162998623E-019
 -1.960000000000000E-002   -2.896503522403226E-019
 -1.950000000000000E-002   -2.657080579020036E-019
 -1.940000000000000E-002   -2.055597936895178E-019
 -1.930000000000000E-002   -1.084417790890296E-019
 -1.920000000000000E-002    2.195826426485923E-020
 -1.910000000000000E-002    1.768902807104695E-019
 -1.900000000000000E-002    3.424296283362686E-019
 -1.890000000000000E-002    5.000029311376649E-019
 -1.880000000000000E-002    6.276428092877413E-019
 -1.870000000000000E-002    7.019896602452864E-019
 -1.860000000000000E-002    7.009678073689157E-019
 -1.850000000000000E-002    6.069558985992897E-019
 -1.840000000000000E-002    4.101646404727795E-019
 -1.830000000000000E-002    1.118365014555360E-019
 -1.820000000000000E-002   -2.731910021051826E-019
 -1.810000000000000E-002   -7.150432342622741E-019
 -1.800000000000000E-002   -1.168951307145802E-018
 -1.790000000000000E-002   -1.577348358920216E-018
 -1.780000000000000E-002   -1.874129946399875E-018
 -1.770000000000000E-002   -1.991056237020430E-018
 -1.760000000000000E-002   -1.866007411393394E-018
 -1.750000000000000E-002   -1.452478864705120E-018
 -1.740000000000000E-002   -7.294184899480361E-019
 -1.730000000000000E-002    2.897672582057193E-019
 -1.720000000000000E-002    1.550367596577751E-018
 -1.710000000000000E-002    2.953068859322127E-018
 -1.700000000000000E-002    4.355457385990078E-018
 -1.690000000000000E-002    5.579269440227844E-018
 -1.680000000000000E-002    6.423841075303887E-018
 -1.670000000000000E-002    6.685541512901351E-018
 -1.660000000000000E-002    6.182168343867614E-018
 -1.650000000000000E-002    4.780450821543426E-018
 -1.640000000000000E-002    2.423992980642512E-018
 -1.630000000000000E-002   -8.416605555122089E-019
 -1.620000000000000E-002   -4.850550295257341E-018
 -1.610000000000000E-002   -9.308150699262500E-018
 -1.600000000000000E-002   -1.379682532593233E-017
 -1.590000000000000E-002   -1.779726659052060E-017
 -1.580000000000000E-002   -2.072684121957028E-017
 -1.570000000000000E-002   -2.199397430586010E-017
 -1.560000000000000E-002   -2.106549066296578E-017
 -1.550000000000000E-002   -1.754180609728574E-017
 -1.540000000000000E-002   -1.123257771733738E-017
 -1.530000000000000E-002   -2.224107183209462E-018
 -1.520000000000000E-002    9.071251316836727E-018
 -1.510000000000000E-002    2.189317548997444E-017
 -1.500000000000000E-002    3.514717692667186E-017
 -1.490000000000000E-002    4.745979539464638E-017
 -1.480000000000000E-002    5.727710571487954E-017
 -1.470000000000000E-002    6.300380176278211E-017
 -1.460000000000000E-002    6.317472927827111E-017
 -1.450000000000000E-002    5.664553496061742E-017
 -1.440000000000000E-002    4.278409569220026E-017
 -1.430000000000000E-002    2.164089334484249E-017
 -1.420000000000000E-002   -5.925188093585168E-018
 -1.410000000000000E-002   -3.818852943759978E-017
 -1.400000000000000E-002   -7.258520724862616E-017
 -1.390000000000000E-002   -1.058410122206986E-016
 -1.380000000000000E-002   -1.342028349169733E-016
 -1.370000000000000E-002   -1.537659790483449E-016
 -1.360000000000000E-002   -1.608774559350508E-016
 -1.350000000000000E-002   -1.525831464188325E-016
 -1.340000000000000E-002   -1.270759993390253E-016
 -1.330000000000000E-002   -8.409455859743059E-017
 -1.320000000000000E-002   -2.521820857078454E-017
 -1.310000000000000E-002    4.599216650558850E-017
 -1.300000000000000E-002    1.240506402597050E-016
 -1.290000000000000E-002    2.018266715544311E-016
 -1.280000000000000E-002    2.710561602746797E-016
 -1.270000000000000E-002    3.230635835211170E-016
 -1.260000000000000E-002    3.496491462452803E-016
 -1.250000000000000E-002    3.440680683319982E-016
 -1.240000000000000E-002    3.020064571278130E-016
 -1.230000000000000E-002    2.224430223783357E-016
 -1.220000000000000E-002    1.082810253884162E-016
 -1.210000000000000E-002   -3.335844595738146E-017
 -1.200000000000000E-002   -1.912687862575867E-016
 -1.190000000000000E-002   -3.507697721486006E-016
 -1.180000000000000E-002   -4.948053813262326E-016
 -1.170000000000000E-002   -6.054803421078768E-016
 -1.160000000000000E-002   -6.659317964516112E-016
 -1.150000000000000E-002   -6.623758151373783E-016
 -1.140000000000000E-002   -5.861253147338709E-016
 -1.130000000000000E-002   -4.353457437270085E-016
 -1.120000000000000E-002   -2.163088815202900E-016
 -1.110000000000000E-002    5.607563481822292E-017
 -1.100000000000000E-002    3.586240050729545E-016
 -1.090000000000000E-002    6.612360496308499E-016
 -1.080000000000000E-002    9.292464207307616E-016
 -1.070000000000000E-002    1.126660065034687E-015
 -1.060000000000000E-002    1.220041311341626E-015
 -1.050000000000000E-002    1.182719210487126E-015
 -1.040000000000000E-002    9.988850904425749E-016
 -1.030000000000000E-002    6.671022987264709E-016
 -1.020000000000000E-002    2.027417568780794E-016
 -1.010000000000000E-002   -3.610957614292250E-016
 -1.000000000000000E-002   -9.745090498380967E-016
 -9.899999999999999E-003   -1.573761049590519E-015
 -9.800000000000000E-003   -2.086258367566453E-015
 -9.699999999999999E-003   -2.437307853067954E-015
 -9.599999999999999E-003   -2.558170310116219E-015
 -9.500000000000000E-003   -2.394716986637409E-015
 -9.399999999999999E-003   -1.915833812917815E-015
 -9.299999999999999E-003   -1.120601497563642E-015
 -9.200000000000000E-003   -4.328396420317742E-017
 -9.099999999999999E-003    1.244754370220717E-015
 -8.999999999999999E-003    2.636874745681932E-015
 -8.900000000000000E-003    3.997101280879454E-015
 -8.799999999999999E-003    5.170135670620785E-015
 -8.699999999999999E-003    5.994993573024965E-015
 -8.600000000000000E-003    6.321325222396304E-015
 -8.499999999999999E-003    6.027080593286864E-015
 -8.399999999999999E-003    5.035837464704058E-015
 -8.300000000000000E-003    3.331916620906877E-015
 -8.199999999999999E-003    9.713605687263905E-016
 -8.100000000000000E-003   -1.912953932939505E-015
 -8.000000000000000E-003   -5.113440572834404E-015
 -7.899999999999999E-003   -8.357960382345332E-015
 -7.800000000000000E-003   -1.132807326215171E-014
 -7.699999999999999E-003   -1.368461131546089E-014
 -7.599999999999999E-003   -1.509894413370542E-014
 -7.499999999999999E-003   -1.528750651892394E-014
 -7.399999999999999E-003   -1.404646657109946E-014
 -7.299999999999999E-003   -1.128305686222793E-014
 -7.199999999999999E-003   -7.039923882024546E-015
 -7.100000000000000E-003   -1.509134035449329E-015
 -6.999999999999999E-003    4.966906736901682E-015
 -6.899999999999999E-003    1.190936165166960E-014
 -6.800000000000000E-003    1.873217013430102E-014
 -6.699999999999999E-003    2.478550876052843E-014
 -6.599999999999999E-003    2.941088809613994E-014
 -6.499999999999999E-003    3.200379598222529E-014
 -6.399999999999999E-003    3.207853644734700E-014
 -6.299999999999999E-003    2.932904252401638E-014
 -6.199999999999999E-003    2.367910894156899E-014
 -6.100000000000000E-003    1.531586414106254E-014
 -5.999999999999999E-003    4.701184277564882E-015
 -5.899999999999999E-003   -7.442577905576241E-015
 -5.800000000000000E-003   -2.017400463675602E-014
 -5.699999999999999E-003   -3.240005638948639E-014
 -5.599999999999999E-003   -4.296567060086832E-014
 -5.499999999999999E-003   -5.075900168945467E-014
 -5.399999999999999E-003   -5.482342609902572E-014
 -5.299999999999999E-003   -5.446581315655514E-014
 -5.199999999999999E-003   -4.934976509409372E-014
 -5.099999999999999E-003   -3.956282258386790E-014
 -4.999999999999999E-003   -2.564808115577135E-014
 -4.899999999999999E-003   -8.593214783774182E-015
 -4.799999999999999E-003    1.022648882322965E-014
 -4.699999999999999E-003    2.915007888541473E-014
 -4.599999999999999E-003    4.637226723830092E-014
 -4.499999999999999E-003    6.011372321416306E-014
 -4.399999999999999E-003    6.880581115380281E-014
 -4.299999999999999E-003    7.127222108761787E-014
 -4.199999999999999E-003    6.688819906151172E-014
 -4.099999999999999E-003    5.569830862194331E-014
 -3.999999999999999E-003    3.847578660967264E-014
 -3.899999999999999E-003    1.671078944758382E-014
 -3.799999999999999E-003   -7.479155570574329E-015
 -3.699999999999999E-003   -3.151593227536183E-014
 -3.599999999999999E-003   -5.259581032056186E-014
 -3.499999999999999E-003   -6.797556866787112E-014
 -3.399999999999999E-003   -7.528521448288128E-014
 -3.299999999999999E-003   -7.283673434512800E-014
 -3.199999999999999E-003   -5.989555927855220E-014
 -3.099999999999999E-003   -3.688068533782205E-014
 -2.999999999999999E-003   -5.463206316113940E-015
 -2.899999999999999E-003    3.146021645041554E-014
 -2.799999999999999E-003    6.993190716297430E-014
 -2.699999999999999E-003    1.052360021506745E-013
 -2.599999999999999E-003    1.323248973912325E-013
 -2.499999999999999E-003    1.463398829595121E-013
 -2.399999999999999E-003    1.431825930129922E-013
 -2.299999999999999E-003    1.200833778460710E-013
 -2.199999999999999E-003    7.610526970574531E-014
 -2.099999999999999E-003    1.252182720899548E-014
 -1.999999999999999E-003   -6.698835485162242E-014
 -1.899999999999999E-003   -1.563755677493557E-013
 -1.799999999999999E-003   -2.475086905124153E-013
 -1.699999999999999E-003   -3.307250955974659E-013
 -1.599999999999999E-003   -3.956182417335188E-013
 -1.499999999999999E-003   -4.320134333488212E-013
 -1.399999999999999E-003   -4.310568749210093E-013
 -1.299999999999999E-003   -3.863197767939220E-013
 -1.199999999999999E-003   -2.948081472250492E-013
 -1.099999999999999E-003   -1.577614968030413E-013
 -9.999999999999989E-004    1.886690875167191E-014
 -8.999999999999990E-004    2.243388631678254E-013
 -7.999999999999990E-004    4.435282678350035E-013
 -6.999999999999989E-004    6.578058714051035E-013
 -5.999999999999990E-004    8.463844673919415E-013
 -4.999999999999989E-004    9.880479829321361E-013
 -3.999999999999989E-004    1.063138669126983E-012
 -2.999999999999989E-004    1.055637640709448E-012
 -1.999999999999989E-004    9.551442756543384E-013
 -9.999999999999892E-005    7.585471361141300E-013
  1.084202172485504E-018    4.711871495168745E-013
  1.000000000000011E-004    1.073410401038789E-013
  2.000000000000011E-004   -3.100988075033883E-013
  3.000000000000011E-004   -7.508040922750224E-013
  4.000000000000011E-004   -1.179029003674339E-012
  5.000000000000011E-004   -1.556358744167479E-012
  6.000000000000011E-004   -1.844995891640110E-012
  7.000000000000011E-004   -2.011320752172446E-012
  8.000000000000011E-004   -2.029404671250888E-012
  9.000000000000012E-004   -1.884130778331851E-012
  1.000000000000001E-003   -1.573577763251868E-012
  1.100000000000001E-003   -1.110365260593338E-012
  1.200000000000001E-003   -5.217321629401410E-013
  1.300000000000001E-003    1.517751155956351E-013
  1.400000000000001E-003    8.590009653506187E-013
  1.500000000000001E-003    1.542120659584812E-012
  1.600000000000001E-003    2.141541339404766E-012
  1.700000000000001E-003    2.601359105336412E-012
  1.800000000000001E-003    2.874876263703839E-012
  1.900000000000001E-003    2.929632521369832E-012
  2.000000000000001E-003    2.751407775902331E-012
  2.100000000000001E-003    2.346709498459039E-012
  2.200000000000001E-003    1.743375526123395E-012
  2.300000000000001E-003    9.890835748546292E-013
  2.400000000000001E-003    1.477590715440683E-013
  2.500000000000001E-003   -7.059104438388414E-013
  2.600000000000001E-003   -1.493426160569244E-012
  2.700000000000001E-003   -2.140286470375354E-012
  2.800000000000001E-003   -2.583891944720060E-012
  2.900000000000001E-003   -2.780719388041891E-012
  3.000000000000001E-003   -2.711948199009797E-012
  3.100000000000001E-003   -2.386808641694137E-012
  3.200000000000001E-003   -1.843115872111335E-012
  3.300000000000001E-003   -1.144702731255596E-012
  3.400000000000001E-003   -3.757779616276311E-013
  3.500000000000001E-003    3.674228035377697E-013
  3.600000000000001E-003    9.870099585249695E-013
  3.700000000000001E-003    1.394855535793790E-012
  3.800000000000001E-003    1.523877420357766E-012
  3.900000000000001E-003    1.337920769528958E-012
  4.000000000000001E-003    8.390002303187476E-013
  4.100000000000001E-003    7.083854984130245E-014
  4.200000000000001E-003   -8.820596494749616E-013
  4.300000000000001E-003   -1.900135830366497E-012
  4.400000000000001E-003   -2.839159820003799E-012
  4.500000000000001E-003   -3.544589837354446E-012
  4.600000000000002E-003   -3.868723473639813E-012
  4.700000000000001E-003   -3.689042288149553E-012
  4.800000000000001E-003   -2.925853948157549E-012
  4.900000000000002E-003   -1.557205250625593E-012
  5.000000000000001E-003    3.708488250671540E-013
  5.100000000000001E-003    2.740247017439700E-012
  5.200000000000001E-003    5.364316383884044E-012
  5.300000000000002E-003    7.998993385484094E-012
  5.400000000000001E-003    1.036153963954907E-011
  5.500000000000001E-003    1.215557475823224E-011
  5.600000000000002E-003    1.310046827655084E-011
  5.700000000000001E-003    1.296249309321994E-011
  5.800000000000001E-003    1.158467747480034E-011
  5.900000000000002E-003    8.912160410756249E-012
  6.000000000000001E-003    5.009960867475495E-012
  6.100000000000001E-003    7.060795226376307E-014
  6.200000000000002E-003   -5.590172126871200E-012
  6.300000000000002E-003   -1.155043608771267E-011
  6.400000000000001E-003   -1.731119819720588E-011
  6.500000000000001E-003   -2.233603295306993E-011
  6.600000000000002E-003   -2.609815372693742E-011
  6.700000000000001E-003   -2.813097620144871E-011
  6.800000000000001E-003   -2.807753975504566E-011
  6.900000000000002E-003   -2.573381403141032E-011
  7.000000000000001E-003   -2.108118107678161E-011
  7.100000000000001E-003   -1.430403321126625E-011
  7.200000000000002E-003   -5.789595866040863E-012
  7.300000000000002E-003    3.891370841378203E-012
  7.400000000000001E-003    1.402259676134897E-011
  7.500000000000001E-003    2.379673042464587E-011
  7.600000000000002E-003    3.238212542686375E-011
  7.700000000000001E-003    3.899640516184174E-011
  7.800000000000001E-003    4.298019003408494E-011
  7.900000000000001E-003    4.386394626734127E-011
  8.000000000000002E-003    4.142104853383845E-011
  8.100000000000001E-003    3.570116306957253E-011
  8.200000000000001E-003    2.703958168957522E-011
  8.300000000000002E-003    1.604020686942270E-011
  8.400000000000001E-003    3.532414861504022E-012
  8.500000000000002E-003   -9.495447690407855E-012
  8.600000000000002E-003   -2.198066525797175E-011
  8.700000000000001E-003   -3.288151349219382E-011
  8.800000000000002E-003   -4.127460381402613E-011
  8.900000000000002E-003   -4.644470325976276E-011
  9.000000000000001E-003   -4.795783608895657E-011
  9.100000000000002E-003   -4.570965427682741E-011
  9.200000000000002E-003   -3.994312776158747E-011
  9.300000000000001E-003   -3.123241710078807E-011
  9.400000000000002E-003   -2.043309137813023E-011
  9.500000000000001E-003   -8.602243085361140E-012
  9.600000000000001E-003    3.104663292704199E-012
  9.700000000000002E-003    1.355062536962067E-011
  9.800000000000001E-003    2.173612673660970E-011
  9.900000000000001E-003    2.690811375507862E-011
  1.000000000000000E-002    2.864694979846917E-011
  1.010000000000000E-002    2.692122548263504E-011
  1.020000000000000E-002    2.210293604071146E-011
  1.030000000000000E-002    1.493942370614179E-011
  1.040000000000000E-002    6.482767811422401E-012
  1.050000000000000E-002   -2.018155700003732E-012
  1.060000000000000E-002   -9.253435701657185E-012
  1.070000000000000E-002   -1.400275953528089E-011
  1.080000000000000E-002   -1.528556201219705E-011
  1.090000000000000E-002   -1.249437928934332E-011
  1.100000000000000E-002   -5.495920845106113E-012
  1.110000000000000E-002    5.313196961991921E-012
  1.120000000000000E-002    1.900530821147573E-011
  1.130000000000000E-002    3.417914055666080E-011
  1.140000000000000E-002    4.907396718918339E-011
  1.150000000000000E-002    6.173260303446551E-011
  1.160000000000000E-002    7.019949405710465E-011
  1.170000000000000E-002    7.273587261328490E-011
  1.180000000000000E-002    6.803059911657979E-011
  1.190000000000000E-002    5.538441742105599E-011
  1.200000000000000E-002    3.484644139699398E-011
  1.210000000000000E-002    7.285179054488439E-012
  1.220000000000000E-002   -2.561821868690190E-011
  1.230000000000000E-002   -6.145975809935749E-011
  1.240000000000000E-002   -9.728257414843146E-011
  1.250000000000000E-002   -1.298160492129224E-010
  1.260000000000000E-002   -1.557652104074474E-010
  1.270000000000000E-002   -1.721253673168401E-010
  1.280000000000000E-002   -1.764925402378096E-010
  1.290000000000000E-002   -1.673390019597579E-010
  1.300000000000000E-002   -1.442243583813334E-010
  1.310000000000000E-002   -1.079173951282029E-010
  1.320000000000000E-002   -6.041082023075031E-011
  1.330000000000000E-002   -4.820755979740509E-012
  1.340000000000000E-002    5.482664302072030E-011
  1.350000000000000E-002    1.139077106450440E-010
  1.360000000000000E-002    1.675887712371244E-010
  1.370000000000000E-002    2.112555748099203E-010
  1.380000000000000E-002    2.409460670876977E-010
  1.390000000000000E-002    2.537447110070644E-010
  1.400000000000000E-002    2.480985804064932E-010
  1.410000000000000E-002    2.240206152530704E-010
  1.420000000000000E-002    1.831545297674411E-010
  1.430000000000000E-002    1.286879819724468E-010
  1.440000000000000E-002    6.511461561217019E-011
  1.450000000000000E-002   -2.139506198630940E-012
  1.460000000000000E-002   -6.719577276598224E-011
  1.470000000000000E-002   -1.242679833857252E-010
  1.480000000000000E-002   -1.682224420543863E-010
  1.490000000000000E-002   -1.950996896975665E-010
  1.500000000000000E-002   -2.025452493058383E-010
  1.510000000000000E-002   -1.901024278173457E-010
  1.520000000000000E-002   -1.593323111178752E-010
  1.530000000000000E-002   -1.137404981936964E-010
  1.540000000000000E-002   -5.850806668462621E-011
  1.550000000000000E-002   -4.340982348392917E-014
  1.560000000000000E-002    5.461023191826460E-011
  1.570000000000000E-002    9.846085939052783E-011
  1.580000000000000E-002    1.252852409455350E-010
  1.590000000000000E-002    1.303092381773456E-010
  1.600000000000000E-002    1.107831546005737E-010
  1.610000000000000E-002    6.639043377369535E-011
  1.620000000000000E-002   -5.582671759292405E-013
  1.630000000000000E-002   -8.517509537149170E-011
  1.640000000000000E-002   -1.802968244690731E-010
  1.650000000000000E-002   -2.770217238352402E-010
  1.660000000000000E-002   -3.654418849768955E-010
  1.670000000000000E-002   -4.355100569787184E-010
  1.680000000000000E-002   -4.779653495414184E-010
  1.690000000000000E-002   -4.852329444961071E-010
  1.700000000000000E-002   -4.522111098541605E-010
  1.710000000000000E-002   -3.768680279906734E-010
  1.720000000000000E-002   -2.605844132480303E-010
  1.730000000000000E-002   -1.082005116584339E-010
  1.740000000000000E-002    7.224618532612052E-011
  1.750000000000000E-002    2.700781002821983E-010
  1.760000000000000E-002    4.727854896865395E-010
  1.770000000000000E-002    6.670151571900020E-010
  1.780000000000000E-002    8.396507685952490E-010
  1.790000000000000E-002    9.788835785493854E-010
  1.800000000000000E-002    1.075170210882033E-009
  1.810000000000000E-002    1.121983384762841E-009
  1.820000000000000E-002    1.116278728128553E-009
  1.830000000000000E-002    1.058627113939566E-009
  1.840000000000000E-002    9.529963760355596E-010
  1.850000000000000E-002    8.061995422987003E-010
  1.860000000000000E-002    6.270641383310644E-010
  1.870000000000000E-002    4.254071355403595E-010