 -4.000000000000000E-002    0.000000000000000E+000
 -3.990000000000000E-002    0.000000000000000E+000
 -3.980000000000000E-002    0.000000000000000E+000
 -3.970000000000000E-002    0.000000000000000E+000
 -3.960000000000000E-002    0.000000000000000E+000
 -3.950000000000000E-002    0.000000000000000E+000
 -3.940000000000000E-002    0.000000000000000E+000
 -3.930000000000000E-002    0.000000000000000E+000
 -3.920000000000000E-002    0.000000000000000E+000
 -3.910000000000000E-002    0.000000000000000E+000
 -3.900000000000000E-002    0.000000000000000E+000
 -3.890000000000000E-002    0.000000000000000E+000
 -3.880000000000000E-002    0.000000000000000E+000
 -3.870000000000000E-002    0.000000000000000E+000
 -3.860000000000000E-002    0.000000000000000E+000
 -3.850000000000000E-002    0.000000000000000E+000
 -3.840000000000000E-002    0.000000000000000E+000
 -3.830000000000000E-002    0.000000000000000E+000
 -3.820000000000000E-002    0.000000000000000E+000
 -3.810000000000000E-002    0.000000000000000E+000
 -3.800000000000000E-002    0.000000000000000E+000
 -3.790000000000000E-002    0.000000000000000E+000
 -3.780000000000000E-002    0.000000000000000E+000
 -3.770000000000000E-002    0.000000000000000E+000
 -3.760000000000000E-002    0.000000000000000E+000
 -3.750000000000000E-002    0.000000000000000E+000
 -3.740000000000000E-002    0.000000000000000E+000
 -3.730000000000000E-002    0.000000000000000E+000
 -3.720000000000000E-002    0.000000000000000E+000
 -3.710000000000000E-002    0.000000000000000E+000
 -3.700000000000000E-002    0.000000000000000E+000
 -3.690000000000000E-002    0.000000000000000E+000
 -3.680000000000000E-002    0.000000000000000E+000
 -3.670000000000000E-002    0.000000000000000E+000
 -3.660000000000000E-002    0.000000000000000E+000
 -3.650000000000000E-002    0.000000000000000E+000
 -3.640000000000000E-002    0.000000000000000E+000
 -3.630000000000000E-002    0.000000000000000E+000
 -3.620000000000000E-002    0.000000000000000E+000
 -3.610000000000000E-002    0.000000000000000E+000
 -3.600000000000000E-002    0.000000000000000E+000
 -3.590000000000000E-002    0.000000000000000E+000
 -3.580000000000000E-002    0.000000000000000E+000
 -3.570000000000000E-002    0.000000000000000E+000
 -3.560000000000000E-002    0.000000000000000E+000
 -3.550000000000000E-002    0.000000000000000E+000
 -3.540000000000000E-002    0.000000000000000E+000
 -3.530000000000000E-002    0.000000000000000E+000
 -3.520000000000000E-002    0.000000000000000E+000
 -3.510000000000000E-002    0.000000000000000E+000
 -3.500000000000000E-002    0.000000000000000E+000
 -3.490000000000000E-002    0.000000000000000E+000
 -3.480000000000000E-002    0.000000000000000E+000
 -3.470000000000000E-002    0.000000000000000E+000
 -3.460000000000000E-002    0.000000000000000E+000
 -3.450000000000000E-002    0.000000000000000E+000
 -3.440000000000000E-002    0.000000000000000E+000
 -3.430000000000000E-002    0.000000000000000E+000
 -3.420000000000000E-002    0.000000000000000E+000
 -3.410000000000000E-002    0.000000000000000E+000
 -3.400000000000000E-002    0.000000000000000E+000
 -3.390000000000000E-002    0.000000000000000E+000
 -3.380000000000000E-002    0.000000000000000E+000
 -3.370000000000000E-002    0.000000000000000E+000
 -3.360000000000000E-002    0.000000000000000E+000
 -3.350000000000000E-002    0.000000000000000E+000
 -3.340000000000000E-002    0.000000000000000E+000
 -3.330000000000000E-002    0.000000000000000E+000
 -3.320000000000000E-002    0.000000000000000E+000
 -3.310000000000000E-002    0.000000000000000E+000
 -3.300000000000000E-002    0.000000000000000E+000
 -3.290000000000000E-002    0.000000000000000E+000
 -3.280000000000000E-002    0.000000000000000E+000
 -3.270000000000000E-002    0.000000000000000E+000
 -3.260000000000000E-002    0.000000000000000E+000
 -3.250000000000000E-002    0.000000000000000E+000
 -3.240000000000000E-002    0.000000000000000E+000
 -3.230000000000000E-002    0.000000000000000E+000
 -3.220000000000000E-002    0.000000000000000E+000
 -3.210000000000000E-002    0.000000000000000E+000
 -3.200000000000000E-002    0.000000000000000E+000
 -3.190000000000000E-002    0.000000000000000E+000
 -3.180000000000000E-002    0.000000000000000E+000
 -3.170000000000000E-002    0.000000000000000E+000
 -3.160000000000000E-002    0.000000000000000E+000
 -3.150000000000000E-002    0.000000000000000E+000
 -3.140000000000000E-002    0.000000000000000E+000
 -3.130000000000000E-002    0.000000000000000E+000
 -3.120000000000000E-002    0.000000000000000E+000
 -3.110000000000000E-002    0.000000000000000E+000
 -3.100000000000000E-002    0.000000000000000E+000
 -3.090000000000000E-002    0.000000000000000E+000
 -3.080000000000000E-002    0.000000000000000E+000
 -3.070000000000000E-002    0.000000000000000E+000
 -3.060000000000000E-002    0.000000000000000E+000
 -3.050000000000000E-002    0.000000000000000E+000
 -3.040000000000000E-002    0.000000000000000E+000
 -3.030000000000000E-002    0.000000000000000E+000
 -3.020000000000000E-002    0.000000000000000E+000
 -3.010000000000000E-002    0.000000000000000E+000
 -3.000000000000000E-002    0.000000000000000E+000
 -2.990000000000000E-002    0.000000000000000E+000
 -2.980000000000000E-002    0.000000000000000E+000
 -2.970000000000000E-002    0.000000000000000E+000
 -2.960000000000000E-002    0.000000000000000E+000
 -2.950000000000000E-002    0.000000000000000E+000
 -2.940000000000000E-002    0.000000000000000E+000
 -2.930000000000000E-002    0.000000000000000E+000
 -2.920000000000000E-002    0.000000000000000E+000
 -2.910000000000000E-002    0.000000000000000E+000
 -2.900000000000000E-002    0.000000000000000E+000
 -2.890000000000000E-002    0.000000000000000E+000
 -2.880000000000000E-002    0.000000000000000E+000
 -2.870000000000000E-002    0.000000000000000E+000
 -2.860000000000000E-002    0.000000000000000E+000
 -2.850000000000000E-002    5.307976233208333E-048
 -2.840000000000000E-002    1.061595246641667E-047
 -2.830000000000000E-002    1.592392869962500E-047
 -2.820000000000000E-002    1.592392869962500E-047
 -2.810000000000000E-002    1.061595246641667E-047
 -2.800000000000000E-002   -4.041473938991276E-047
 -2.790000000000000E-002   -1.477840993357799E-046
 -2.780000000000000E-002   -2.986589720456281E-046
 -2.770000000000000E-002   -5.741825405851267E-046
 -2.760000000000000E-002   -9.757300022571301E-046
 -2.750000000000000E-002   -1.449412808372826E-045
 -2.740000000000000E-002   -2.035070932450474E-045
 -2.730000000000000E-002   -2.575384498613265E-045
 -2.720000000000000E-002   -2.797487683797776E-045
 -2.710000000000000E-002   -2.312046324325194E-045
 -2.700000000000000E-002    8.969206985464626E-047
 -2.690000000000000E-002    4.280964615245694E-045
 -2.680000000000000E-002    1.118468336573613E-044
 -2.670000000000000E-002    2.120378045031326E-044
 -2.660000000000000E-002    3.586295950995617E-044
 -2.650000000000000E-002    5.338117072146797E-044
 -2.640000000000000E-002    7.257439256966651E-044
 -2.630000000000000E-002    9.063723375472551E-044
 -2.620000000000000E-002    1.010245684388791E-043
 -2.610000000000000E-002    9.314015776145450E-044
 -2.600000000000000E-002    5.518375631023662E-044
 -2.590000000000000E-002   -3.107529893189960E-044
 -2.580000000000000E-002   -1.848811850244418E-043
 -2.570000000000000E-002   -4.249943145497414E-043
 -2.560000000000000E-002   -7.633571751540540E-043
 -2.550000000000000E-002   -1.198666458726626E-042
 -2.540000000000000E-002   -1.704419396490361E-042
 -2.530000000000000E-002   -2.213130940260108E-042
 -2.520000000000000E-002   -2.605771149658147E-042
 -2.510000000000000E-002   -2.690729927154632E-042
 -2.500000000000000E-002   -2.203245452675590E-042
 -2.490000000000000E-002   -8.038612217429236E-043
 -2.480000000000000E-002    1.895760781544146E-042
 -2.470000000000000E-002    6.281239538485990E-042
 -2.460000000000000E-002    1.264140182371995E-041
 -2.450000000000000E-002    2.103221333532607E-041
 -2.440000000000000E-002    3.108534735519443E-041
 -2.430000000000000E-002    4.178524869636141E-041
 -2.420000000000000E-002    5.122069925773926E-041
 -2.410000000000000E-002    5.636430848266651E-041
 -2.400000000000000E-002    5.294406799077694E-041
 -2.390000000000000E-002    3.549753099752676E-041
 -2.380000000000000E-002   -2.272314507968404E-042
 -2.370000000000000E-002   -6.671184164628398E-041
 -2.360000000000000E-002   -1.628826427617982E-040
 -2.350000000000000E-002   -2.925934049727894E-040
 -2.340000000000000E-002   -4.517923694501869E-040
 -2.330000000000000E-002   -6.274636330658403E-040
 -2.320000000000000E-002   -7.943462183299153E-040
 -2.310000000000000E-002   -9.120553164614967E-040
 -2.300000000000000E-002   -9.234789850992702E-040
 -2.290000000000000E-002   -7.556005173803254E-040
 -2.280000000000000E-002   -3.241229067837876E-040
 -2.270000000000000E-002    4.566360304922314E-040
 -2.260000000000000E-002    1.657296342832380E-039
 -2.250000000000000E-002    3.309669487771165E-039
 -2.240000000000000E-002    5.376003339345445E-039
 -2.230000000000000E-002    7.713102427783707E-039
 -2.220000000000000E-002    1.003539114702934E-038
 -2.210000000000000E-002    1.188363078452017E-038
 -2.200000000000000E-002    1.260890385711914E-038
 -2.190000000000000E-002    1.138412270898469E-038
 -2.180000000000000E-002    7.257113408424686E-039
 -2.170000000000000E-002   -7.406600359094254E-040
 -2.160000000000000E-002   -1.341838528137407E-038
 -2.150000000000000E-002   -3.117837858584797E-038
 -2.140000000000000E-002   -5.370308365459517E-038
 -2.130000000000000E-002   -7.959915982483260E-038
 -2.120000000000000E-002   -1.060421918529415E-037
 -2.110000000000000E-002   -1.284898148205340E-037
 -2.100000000000000E-002   -1.405556873715723E-037
 -2.090000000000000E-002   -1.341573354246345E-037
 -2.080000000000000E-002   -1.000610504073890E-037
 -2.070000000000000E-002   -2.893963885714557E-038
 -2.060000000000000E-002    8.697477616837404E-038
 -2.050000000000000E-002    2.516272762212930E-037
 -2.040000000000000E-002    4.623558101882485E-037
 -2.030000000000000E-002    7.068194113282487E-037
 -2.020000000000000E-002    9.600488241704351E-037
 -2.010000000000000E-002    1.182221350494819E-036
 -2.000000000000000E-002    1.317942022168446E-036
 -1.990000000000000E-002    1.297943487461098E-036
 -1.980000000000000E-002    1.044145119714933E-036
 -1.970000000000000E-002    4.788852209178831E-037
 -1.960000000000000E-002   -4.612016416094450E-037
 -1.950000000000000E-002   -1.806787116787778E-036
 -1.940000000000000E-002   -3.533928845328348E-036
 -1.930000000000000E-002   -5.540753020065281E-036
 -1.920000000000000E-002   -7.626165962893903E-036
 -1.910000000000000E-002   -9.475349415222359E-036
 -1.900000000000000E-002   -1.065791861804133E-035
 -1.890000000000000E-002   -1.064525193210013E-035
 -1.880000000000000E-002   -8.853273409979304E-036
 -1.870000000000000E-002   -4.715524269735897E-036
 -1.860000000000000E-002    2.211625519868303E-036
 -1.850000000000000E-002    1.211450352434743E-035
 -1.840000000000000E-002    2.476774368681783E-035
 -1.830000000000000E-002    3.937716384592325E-035
 -1.820000000000000E-002    5.444564211901212E-035
 -1.810000000000000E-002    6.769572787206475E-035
 -1.800000000000000E-002    7.608857126071408E-035
 -1.790000000000000E-002    7.598049850267030E-035
 -1.780000000000000E-002    6.345387718408636E-035
 -1.770000000000000E-002    3.484586664575226E-035
 -1.760000000000000E-002   -1.252440681999342E-035
 -1.750000000000000E-002   -7.946319920879106E-035
 -1.740000000000000E-002   -1.639199386419604E-034
 -1.730000000000000E-002   -2.600404678259139E-034
 -1.720000000000000E-002   -3.574304278789159E-034
 -1.710000000000000E-002   -4.408454666437348E-034
 -1.700000000000000E-002   -4.905489127389052E-034
 -1.690000000000000E-002   -4.835709062483058E-034
 -1.680000000000000E-002   -3.960545592846622E-034
 -1.670000000000000E-002   -2.067739193843780E-034
 -1.660000000000000E-002    9.825046979054742E-035
 -1.650000000000000E-002    5.203264292589648E-034
 -1.640000000000000E-002    1.042402146835902E-033
 -1.630000000000000E-002    1.623937963456153E-033
 -1.620000000000000E-002    2.197419600307031E-033
 -1.610000000000000E-002    2.667780244373828E-033
 -1.600000000000000E-002    2.916055032092693E-033
 -1.590000000000000E-002    2.808454067027085E-033
 -1.580000000000000E-002    2.211647316902706E-033
 -1.570000000000000E-002    1.014369256073902E-033
 -1.560000000000000E-002   -8.455306414042832E-034
 -1.550000000000000E-002   -3.350715187744732E-033
 -1.540000000000000E-002   -6.374195745031699E-033
 -1.530000000000000E-002   -9.654321959701878E-033
 -1.520000000000000E-002   -1.278104477378052E-032
 -1.510000000000000E-002   -1.520024137749201E-032
 -1.500000000000000E-002   -1.624272385592387E-032
 -1.490000000000000E-002   -1.518326009019416E-032
 -1.480000000000000E-002   -1.133225276638733E-032
 -1.470000000000000E-002   -4.158574137711479E-033
 -1.460000000000000E-002    6.563508000429831E-033
 -1.450000000000000E-002    2.059700310672469E-032
 -1.440000000000000E-002    3.709519802957728E-032
 -1.430000000000000E-002    5.449217276211123E-032
 -1.420000000000000E-002    7.046274506545655E-032
 -1.410000000000000E-002    8.198517346436005E-032
 -1.400000000000000E-002    8.553671654657228E-032
 -1.390000000000000E-002    7.744289355341963E-032
 -1.380000000000000E-002    5.438523584092326E-032
 -1.370000000000000E-002    1.404943982777820E-032
 -1.360000000000000E-002   -4.413297307621969E-032
 -1.350000000000000E-002   -1.182285953308252E-031
 -1.340000000000000E-002   -2.031428855311560E-031
 -1.330000000000000E-002   -2.901956449500687E-031
 -1.320000000000000E-002   -3.670846409483183E-031
 -1.310000000000000E-002   -4.183877881722987E-031
 -1.300000000000000E-002   -4.267276475971717E-031
 -1.290000000000000E-002   -3.746659596341066E-031
 -1.280000000000000E-002   -2.473092415062113E-031
 -1.270000000000000E-002   -3.549070063786035E-032
 -1.260000000000000E-002    2.607423825148944E-031
 -1.250000000000000E-002    6.287523141856697E-031
 -1.240000000000000E-002    1.040594882994057E-030
 -1.230000000000000E-002    1.451610930355391E-030
 -1.220000000000000E-002    1.801007197640829E-030
 -1.210000000000000E-002    2.015051488142525E-030
 -1.200000000000000E-002    2.013336151882899E-030
 -1.190000000000000E-002    1.718264509151211E-030
 -1.180000000000000E-002    1.067486480234381E-030
 -1.170000000000000E-002    2.847394576302068E-032
 -1.160000000000000E-002   -1.386175882174496E-030
 -1.150000000000000E-002   -3.104719221507423E-030
 -1.140000000000000E-002   -4.986040206239352E-030
 -1.130000000000000E-002   -6.816043522565412E-030
 -1.120000000000000E-002   -8.313471148042925E-030
 -1.110000000000000E-002   -9.147523052432414E-030
 -1.100000000000000E-002   -8.968731149655809E-030
 -1.090000000000000E-002   -7.453080768438916E-030
 -1.080000000000000E-002   -4.357429857895164E-030
 -1.070000000000000E-002    4.180327532310249E-031
 -1.060000000000000E-002    6.766997403343382E-030
 -1.050000000000000E-002    1.432290401369642E-029
 -1.040000000000000E-002    2.242418422705587E-029
 -1.030000000000000E-002    3.011030835973925E-029
 -1.020000000000000E-002    3.615937894267186E-029
 -1.010000000000000E-002    3.917548516191380E-029
 -1.000000000000000E-002    3.772958246248542E-029
 -9.899999999999999E-003    3.055109935613733E-029
 -9.800000000000000E-003    1.675936696170043E-029
 -9.699999999999999E-003   -3.885362771884173E-030
 -9.599999999999999E-003   -3.074074660589210E-029
 -9.500000000000000E-003   -6.208849619540767E-029
 -9.399999999999999E-003   -9.503042870294583E-029
 -9.299999999999999E-003   -1.255177174666715E-028
 -9.200000000000000E-003   -1.485512525567015E-028
 -9.099999999999999E-003   -1.585787048162510E-028
 -8.999999999999999E-003   -1.500939019069915E-028
 -8.900000000000000E-003   -1.184173039643146E-028
 -8.799999999999999E-003   -6.060418025850668E-029
 -8.699999999999999E-003    2.360738428761187E-029
 -8.600000000000000E-003    1.309291673819387E-028
 -8.499999999999999E-003    2.538821638067029E-028
 -8.399999999999999E-003    3.805412575948544E-028
 -8.300000000000000E-003    4.948180625523891E-028
 -8.199999999999999E-003    5.774055290117742E-028
 -8.100000000000000E-003    6.074526710694968E-028
 -8.000000000000000E-003    5.649566464250666E-028
 -7.899999999999999E-003    4.337550577411268E-028
 -7.800000000000000E-003    2.048839072894021E-028
 -7.699999999999999E-003   -1.200545224291917E-028
 -7.599999999999999E-003   -5.259749886751740E-028
 -7.499999999999999E-003   -9.823784968669955E-028
 -7.399999999999999E-003   -1.442961771337129E-027
 -7.299999999999999E-003   -1.847270212854323E-027
 -7.199999999999999E-003   -2.124761665883936E-027
 -7.100000000000000E-003   -2.201422482659133E-027
 -6.999999999999999E-003   -2.008766644548498E-027
 -6.899999999999999E-003   -1.494673640558484E-027
 -6.800000000000000E-003   -6.351113601441424E-028
 -6.699999999999999E-003    5.546006858488872E-028
 -6.599999999999999E-003    2.010652208088177E-027
 -6.499999999999999E-003    3.615569922868494E-027
 -6.399999999999999E-003    5.198833509099097E-027
 -6.299999999999999E-003    6.544819129202294E-027
 -6.199999999999999E-003    7.409046994042828E-027
 -6.100000000000000E-003    7.542843201507340E-027
 -5.999999999999999E-003    6.725419175009002E-027
 -5.899999999999999E-003    4.801088839924113E-027
 -5.800000000000000E-003    1.718012291254641E-027
 -5.699999999999999E-003   -2.436331421106906E-027
 -5.599999999999999E-003   -7.408622960984631E-027
 -5.499999999999999E-003   -1.276813447042163E-026
 -5.399999999999999E-003   -1.791574303856561E-026
 -5.299999999999999E-003   -2.211788818220663E-026
 -5.199999999999999E-003   -2.456765357557277E-026
 -5.099999999999999E-003   -2.447209117780582E-026
 -4.999999999999999E-003   -2.116112574960970E-026
 -4.899999999999999E-003   -1.420925795883293E-026
 -4.799999999999999E-003   -3.557194157444447E-027
 -4.699999999999999E-003    1.038284526794136E-026
 -4.599999999999999E-003    2.665653051091855E-026
 -4.499999999999999E-003    4.375010028371305E-026
 -4.399999999999999E-003    5.964266993973625E-026
 -4.299999999999999E-003    7.193949022603248E-026
 -4.199999999999999E-003    7.808963600872325E-026
 -4.099999999999999E-003    7.568129437029136E-026
 -3.999999999999999E-003    6.279563452847204E-026
 -3.899999999999999E-003    3.838764615266322E-026
 -3.799999999999999E-003    2.650445828520515E-027
 -3.699999999999999E-003   -4.268935353052619E-026
 -3.599999999999999E-003   -9.420197067377776E-026
 -3.499999999999999E-003   -1.467651662053474E-025
 -3.399999999999999E-003   -1.938000739489583E-025
 -3.299999999999999E-003   -2.277585652113227E-025
 -3.199999999999999E-003   -2.408621795930529E-025
 -3.099999999999999E-003   -2.260593348310642E-025
 -2.999999999999999E-003   -1.781305388628796E-025
 -2.899999999999999E-003   -9.483422718259271E-026
 -2.799999999999999E-003    2.204649919327062E-026
 -2.699999999999999E-003    1.659178827999882E-025
 -2.599999999999999E-003    3.250180782559823E-025
 -2.499999999999999E-003    4.826418147286474E-025
 -2.399999999999999E-003    6.180627763913826E-025
 -2.299999999999999E-003    7.082069690349877E-025
 -2.199999999999999E-003    7.300456445628799E-025
 -2.099999999999999E-003    6.635755694636015E-025
 -1.999999999999999E-003    4.951450083304549E-025
 -1.899999999999999E-003    2.207813412522490E-025
 -1.799999999999999E-003   -1.509088275192855E-025
 -1.699999999999999E-003   -5.967441191563281E-025
 -1.599999999999999E-003   -1.078353701283326E-024
 -1.499999999999999E-003   -1.543355751439935E-024
 -1.399999999999999E-003   -1.928611246636958E-024
 -1.299999999999999E-003   -2.165634670409097E-024
 -1.199999999999999E-003   -2.187988354810670E-024
 -1.099999999999999E-003   -1.940190824941309E-024
 -9.999999999999989E-004   -1.387366233381183E-024
 -8.999999999999990E-004   -5.245853958137101E-025
 -7.999999999999990E-004    6.153578507321081E-025
 -6.999999999999989E-004    1.957086913773172E-024
 -5.999999999999990E-004    3.381995365728610E-024
 -4.999999999999989E-004    4.732875381879408E-024
 -3.999999999999989E-004    5.824466488051771E-024
 -2.999999999999989E-004    6.459965820208895E-024
 -1.999999999999989E-004    6.452805465141435E-024
 -9.999999999999892E-005    5.652178449946553E-024
  1.084202172485504E-018    3.969979670684938E-024
  1.000000000000011E-004    1.406124586428045E-024
  2.000000000000011E-004   -1.931272495079649E-024
  3.000000000000011E-004   -5.814528403601404E-024
  4.000000000000011E-004   -9.897217296337323E-024
  5.000000000000011E-004   -1.372981113770289E-023
  6.000000000000011E-004   -1.679149712311633E-023
  7.000000000000011E-004   -1.853782838851144E-023
  8.000000000000011E-004   -1.846181373301921E-023
  9.000000000000012E-004   -1.616388512934019E-023
  1.000000000000001E-003   -1.142407992413650E-023
  1.100000000000001E-003   -4.268063656872796E-024
  1.200000000000001E-003    4.982426778894115E-024
  1.300000000000001E-003    1.568423982467301E-023
  1.400000000000001E-003    2.688103712575753E-023
  1.500000000000001E-003    3.735124880691499E-023
  1.600000000000001E-003    4.569832787816532E-023
  1.700000000000001E-003    5.048126430863386E-023
  1.800000000000001E-003    5.037794903592414E-023
  1.900000000000001E-003    4.436842513039844E-023
  2.000000000000001E-003    3.191994091969331E-023
  2.100000000000001E-003    1.315178204781152E-023
  2.200000000000001E-003   -1.104423987285130E-023
  2.300000000000001E-003   -3.895129859676119E-023
  2.400000000000001E-003   -6.806327196259152E-023
  2.500000000000001E-003   -9.522229876358861E-023
  2.600000000000001E-003   -1.168621787752912E-022
  2.700000000000001E-003   -1.293495945590314E-022
  2.800000000000001E-003   -1.294016946272049E-022
  2.900000000000001E-003   -1.145450812331272E-022
  3.000000000000001E-003   -8.356920276508990E-023
  3.100000000000001E-003   -3.691861355514195E-023
  3.200000000000001E-003    2.303501414144772E-023
  3.300000000000001E-003    9.189739651435385E-023
  3.400000000000001E-003    1.633785063792811E-022
  3.500000000000001E-003    2.296698892523403E-022
  3.600000000000001E-003    2.820756825886753E-022
  3.700000000000001E-003    3.118706877589843E-022
  3.800000000000001E-003    3.113263620386994E-022
  3.900000000000001E-003    2.748140150671644E-022
  4.000000000000001E-003    1.998678829663301E-022
  4.100000000000001E-003    8.807324253612278E-023
  4.200000000000001E-003   -5.435993957658440E-023
  4.300000000000001E-003   -2.164658091884510E-022
  4.400000000000001E-003   -3.829328637794323E-022
  4.500000000000001E-003   -5.351081651216630E-022
  4.600000000000002E-003   -6.525866912967717E-022
  4.700000000000001E-003   -7.153047955352191E-022
  4.800000000000001E-003   -7.059813181350354E-022
  4.900000000000002E-003   -6.126788196056038E-022
  5.000000000000001E-003   -4.312011466985259E-022
  5.100000000000001E-003   -1.670101507261185E-022
  5.200000000000001E-003    1.636560203675228E-022
  5.300000000000002E-003    5.337437537408815E-022
  5.400000000000001E-003    9.066267231831846E-022
  5.500000000000001E-003    1.238716810923786E-021
  5.600000000000002E-003    1.483381511810646E-021
  5.700000000000001E-003    1.595937994412283E-021
  5.800000000000001E-003    1.539324073855014E-021
  5.900000000000002E-003    1.289891290287726E-021
  6.000000000000001E-003    8.426516193439227E-022
  6.100000000000001E-003    2.152517413615589E-022
  6.200000000000002E-003   -5.500290432748122E-022
  6.300000000000002E-003   -1.386853362303046E-021
  6.400000000000001E-003   -2.208368016026561E-021
  6.500000000000001E-003   -2.913828051540020E-021
  6.600000000000002E-003   -3.398068858802953E-021
  6.700000000000001E-003   -3.563211858970786E-021
  6.800000000000001E-003   -3.331612383532286E-021
  6.900000000000002E-003   -2.658736988572500E-021
  7.000000000000001E-003   -1.544427442388672E-021
  7.100000000000001E-003   -4.092841002355850E-023
  7.200000000000002E-003    1.743849224921870E-021
  7.300000000000002E-003    3.649065337441724E-021
  7.400000000000001E-003    5.470430666834419E-021
  7.500000000000001E-003    6.976510757190611E-021
  7.600000000000002E-003    7.931136931670858E-021
  7.700000000000001E-003    8.120370353517830E-021
  7.800000000000001E-003    7.381650365876105E-021
  7.900000000000001E-003    5.632086112661476E-021
  8.000000000000002E-003    2.892429493877438E-021
  8.100000000000001E-003   -6.968438294423127E-022
  8.200000000000001E-003   -4.870600612827813E-021
  8.300000000000002E-003   -9.247787996130405E-021
  8.400000000000001E-003   -1.335520673265899E-020
  8.500000000000002E-003   -1.666616432999307E-020
  8.600000000000002E-003   -1.865209049340302E-020
  8.700000000000001E-003   -1.884337245998826E-020
  8.800000000000002E-003   -1.689394855842937E-020
  8.900000000000002E-003   -1.264283537272407E-020
  9.000000000000001E-003   -6.164968703465957E-021
  9.100000000000002E-003    2.196327000740307E-021
  9.200000000000002E-003    1.182210024403982E-020
  9.300000000000001E-003    2.184087028460741E-020
  9.400000000000002E-003    3.118452860931075E-020
  9.500000000000001E-003    3.867617362447163E-020
  9.600000000000001E-003    4.314519022860516E-020
  9.700000000000002E-003    4.356101049398321E-020
  9.800000000000001E-003    3.917341390303059E-020
  9.900000000000001E-003    2.964452238874193E-020
  1.000000000000000E-002    1.515613673924306E-020
  1.010000000000000E-002   -3.523797726172527E-021
  1.020000000000000E-002   -2.502979613624437E-020
  1.030000000000000E-002   -4.745278294592205E-020
  1.040000000000000E-002   -6.846388581509066E-020
  1.050000000000000E-002   -8.550544686441956E-020
  1.060000000000000E-002   -9.603858949941771E-020
  1.070000000000000E-002   -9.782860380445546E-020
  1.080000000000000E-002   -8.924224663576019E-020
  1.090000000000000E-002   -6.952553724659251E-020
  1.100000000000000E-002   -3.902796516373633E-020
  1.110000000000000E-002    6.603531695545422E-022
  1.120000000000000E-002    4.668749916894217E-020
  1.130000000000000E-002    9.505497735298474E-020
  1.140000000000000E-002    1.408777238625745E-019
  1.150000000000000E-002    1.787824503746851E-019
  1.160000000000000E-002    2.034213961296562E-019
  1.170000000000000E-002    2.100623548599335E-019
  1.180000000000000E-002    1.952012783221197E-019
  1.190000000000000E-002    1.571332812882599E-019
  1.200000000000000E-002    9.641269036294317E-020
  1.210000000000000E-002    1.613478115579992E-020
  1.220000000000000E-002   -7.801861505632239E-020
  1.230000000000000E-002   -1.780098363553766E-019
  1.240000000000000E-002   -2.739682207166588E-019
  1.250000000000000E-002   -3.549907004755254E-019
  1.260000000000000E-002   -4.101735043775748E-019
  1.270000000000000E-002   -4.297955121181182E-019
  1.280000000000000E-002   -4.065459400705300E-019
  1.290000000000000E-002   -3.366685389603417E-019
  1.300000000000000E-002   -2.208848140011545E-019
  1.310000000000000E-002   -6.496371002236508E-020
  1.320000000000000E-002    1.201754909308970E-019
  1.330000000000000E-002    3.189050636030798E-019
  1.340000000000000E-002    5.119054207542804E-019
  1.350000000000000E-002    6.777267732126373E-019
  1.360000000000000E-002    7.948038311257844E-019
  1.370000000000000E-002    8.437674605231679E-019
  1.380000000000000E-002    8.098442906677707E-019
  1.390000000000000E-002    6.850949528978849E-019
  1.400000000000000E-002    4.702258046011153E-019
  1.410000000000000E-002    1.757174329225126E-019
  1.420000000000000E-002   -1.779474556723137E-019
  1.430000000000000E-002   -5.611062344417425E-019
  1.440000000000000E-002   -9.368447118755084E-019
  1.450000000000000E-002   -1.263974552646539E-018
  1.460000000000000E-002   -1.500881847465114E-018
  1.470000000000000E-002   -1.609948663581074E-018
  1.480000000000000E-002   -1.562147512556468E-018
  1.490000000000000E-002   -1.341334755058868E-018
  1.500000000000000E-002   -9.477374225754859E-019
  1.510000000000000E-002   -4.001475204348098E-019
  1.520000000000000E-002    2.635887509609075E-019
  1.530000000000000E-002    9.880695528371200E-019
  1.540000000000000E-002    1.703929475387956E-018
  1.550000000000000E-002    2.333418787643938E-018
  1.560000000000000E-002    2.797633819735198E-018
  1.570000000000000E-002    3.024838658572711E-018
  1.580000000000000E-002    2.959127768876077E-018
  1.590000000000000E-002    2.568540049272167E-018
  1.600000000000000E-002    1.851676316895600E-018
  1.610000000000000E-002    8.419107054614129E-019
  1.620000000000000E-002   -3.915780138179246E-019
  1.630000000000000E-002   -1.746485815824191E-018
  1.640000000000000E-002   -3.093974543902228E-018
  1.650000000000000E-002   -4.288982269549632E-018
  1.660000000000000E-002   -5.183632686366645E-018
  1.670000000000000E-002   -5.642709750977189E-018
  1.680000000000000E-002   -5.559805465729201E-018
  1.690000000000000E-002   -4.872495104509207E-018
  1.700000000000000E-002   -3.574783677208491E-018
  1.710000000000000E-002   -1.725133162814848E-018
  1.720000000000000E-002    5.513673948602743E-019
  1.730000000000000E-002    3.067683214237750E-018
  1.740000000000000E-002    5.586752437348661E-018
  1.750000000000000E-002    7.840308565336164E-018
  1.760000000000000E-002    9.553478500646166E-018
  1.770000000000000E-002    1.047327664757431E-017
  1.780000000000000E-002    1.039844434649797E-017
  1.790000000000000E-002    9.207620981785102E-018
  1.800000000000000E-002    6.882616921903240E-018
  1.810000000000000E-002    3.523673678411106E-018
  1.820000000000000E-002   -6.459475477422258E-019
  1.830000000000000E-002   -5.287906799145740E-018
  1.840000000000000E-002   -9.970012966996659E-018
  1.850000000000000E-002   -1.420017407913279E-017
  1.860000000000000E-002   -1.747106601886520E-017
  1.870000000000000E-002   -1.931213846694387E-017