 -4.000000000000000E-002    0.000000000000000E+000
 -3.990000000000000E-002    0.000000000000000E+000
 -3.980000000000000E-002    0.000000000000000E+000
 -3.970000000000000E-002    0.000000000000000E+000
 -3.960000000000000E-002    0.000000000000000E+000
 -3.950000000000000E-002    0.000000000000000E+000
 -3.940000000000000E-002    0.000000000000000E+000
 -3.930000000000000E-002   -3.110245690329753E-025
 -3.920000000000000E-002   -4.103675172282581E-024
 -3.910000000000000E-002   -2.818994438619153E-023
 -3.900000000000000E-002   -1.333174368408453E-022
 -3.890000000000000E-002   -4.833858480816340E-022
 -3.880000000000000E-002   -1.413459435900933E-021
 -3.870000000000000E-002   -3.395704509583017E-021
 -3.860000000000000E-002   -6.603096585760709E-021
 -3.850000000000000E-002   -9.466047934825841E-021
 -3.840000000000000E-002   -5.240040425746758E-021
 -3.830000000000000E-002    2.469808262391799E-020
 -3.820000000000000E-002    1.220421412955395E-019
 -3.810000000000000E-002    3.675994833321382E-019
 -3.800000000000000E-002    9.004205834870835E-019
 -3.790000000000000E-002    1.934477073661164E-018
 -3.780000000000000E-002    3.761911264167995E-018
 -3.770000000000000E-002    6.725427307868914E-018
 -3.760000000000000E-002    1.113652477018026E-017
 -3.750000000000000E-002    1.711364806218615E-017
 -3.740000000000000E-002    2.431853693677008E-017
 -3.730000000000000E-002    3.158407970420844E-017
 -3.720000000000000E-002    3.645606580443495E-017
 -3.710000000000000E-002    3.471566415853021E-017
 -3.700000000000000E-002    2.000667433638751E-017
 -3.690000000000000E-002   -1.624610178560063E-017
 -3.680000000000000E-002   -8.438756526132102E-017
 -3.670000000000000E-002   -1.952872055768797E-016
 -3.660000000000000E-002   -3.580600561042744E-016
 -3.650000000000000E-002   -5.766171378386073E-016
 -3.640000000000000E-002   -8.451026018518426E-016
 -3.630000000000000E-002   -1.142563962935527E-015
 -3.620000000000000E-002   -1.427570088496153E-015
 -3.610000000000000E-002   -1.633896033279969E-015
 -3.600000000000000E-002   -1.668762642654442E-015
 -3.590000000000000E-002   -1.415355786800508E-015
 -3.580000000000000E-002   -7.413425367377373E-016
 -3.570000000000000E-002    4.852565378788784E-016
 -3.560000000000000E-002    2.372275658574724E-015
 -3.550000000000000E-002    4.972385191982486E-015
 -3.540000000000000E-002    8.247205645242796E-015
 -3.530000000000000E-002    1.203083631145180E-014
 -3.520000000000000E-002    1.599898090602082E-014
 -3.510000000000000E-002    1.965139755360856E-014
 -3.500000000000000E-002    2.231611376170451E-014
 -3.490000000000000E-002    2.318336307179279E-014
 -3.480000000000000E-002    2.137506477794769E-014
 -3.470000000000000E-002    1.605184834277418E-014
 -3.460000000000000E-002    6.553962093037984E-015
 -3.450000000000000E-002   -7.434470052348106E-015
 -3.440000000000000E-002   -2.571586988353574E-014
 -3.430000000000000E-002   -4.742929566285081E-014
 -3.420000000000000E-002   -7.095026360754636E-014
 -3.410000000000000E-002   -9.387208840911578E-014
 -3.400000000000000E-002   -1.130977007340392E-013
 -3.390000000000000E-002   -1.250624254458024E-013
 -3.380000000000000E-002   -1.260939521365459E-013
 -3.370000000000000E-002   -1.128963690228792E-013
 -3.360000000000000E-002   -8.312211408458537E-014
 -3.350000000000000E-002   -3.597190796643228E-014
 -3.340000000000000E-002    2.725833763024591E-014
 -3.330000000000000E-002    1.027789826752829E-013
 -3.320000000000000E-002    1.841554108590311E-013
 -3.310000000000000E-002    2.624923199879084E-013
 -3.300000000000000E-002    3.270151416009886E-013
 -3.290000000000000E-002    3.660674686096903E-013
 -3.280000000000000E-002    3.684868230599941E-013
 -3.270000000000000E-002    3.252568827424154E-013
 -3.260000000000000E-002    2.312691211807745E-013
 -3.250000000000000E-002    8.697103532033435E-014
 -3.240000000000000E-002   -1.003580996758344E-013
 -3.230000000000000E-002   -3.159699392281661E-013
 -3.220000000000000E-002   -5.378837312425845E-013
 -3.210000000000000E-002   -7.381621483134916E-013
 -3.200000000000000E-002   -8.852814855880179E-013
 -3.190000000000000E-002   -9.475097965240047E-013
 -3.180000000000000E-002   -8.970485262982342E-013
 -3.170000000000000E-002   -7.145353089615738E-013
 -3.160000000000000E-002   -3.933736121349090E-013
 -3.150000000000000E-002    5.673019426633525E-014
 -3.140000000000000E-002    6.076554409337062E-013
 -3.130000000000000E-002    1.212745791690470E-012
 -3.120000000000000E-002    1.809080143386365E-012
 -3.110000000000000E-002    2.322291135065679E-012
 -3.100000000000000E-002    2.673773723605801E-012
 -3.090000000000000E-002    2.789777304547178E-012
 -3.080000000000000E-002    2.611532524681872E-012
 -3.070000000000000E-002    2.105277733070866E-012
 -3.060000000000000E-002    1.270862564440198E-012
 -3.050000000000000E-002    1.475742060187197E-013
 -3.040000000000000E-002   -1.184040638800206E-012
 -3.030000000000000E-002   -2.605255376041033E-012
 -3.020000000000000E-002   -3.967558762768002E-012
 -3.010000000000000E-002   -5.106151360249901E-012
 -3.000000000000000E-002   -5.857641149553325E-012
 -2.990000000000000E-002   -6.080357669416440E-012
 -2.980000000000000E-002   -5.675127348999582E-012
 -2.970000000000000E-002   -4.603976382302953E-012
 -2.960000000000000E-002   -2.904114249257732E-012
 -2.950000000000000E-002   -6.947694693036730E-013
 -2.940000000000000E-002    1.825004686664696E-012
 -2.930000000000000E-002    4.388569949024877E-012
 -2.920000000000000E-002    6.683899138022603E-012
 -2.910000000000000E-002    8.384411889607960E-012
 -2.900000000000000E-002    9.185903441585287E-012
 -2.890000000000000E-002    8.845960498588471E-012
 -2.880000000000000E-002    7.221525282983977E-012
 -2.870000000000000E-002    4.299964411334480E-012
 -2.860000000000000E-002    2.192327583758047E-013
 -2.850000000000000E-002   -4.726492682517483E-012
 -2.840000000000000E-002   -1.009803309206575E-011
 -2.830000000000000E-002   -1.533990909363763E-011
 -2.820000000000000E-002   -1.982520923109403E-011
 -2.810000000000000E-002   -2.291335451550513E-011
 -2.800000000000000E-002   -2.401575819139128E-011
 -2.790000000000000E-002   -2.266304270324781E-011
 -2.780000000000000E-002   -1.856680699239386E-011
 -2.770000000000000E-002   -1.166899720566299E-011
 -2.760000000000000E-002   -2.172744466546670E-012
 -2.750000000000000E-002    9.449865588486367E-012
 -2.740000000000000E-002    2.247548148886741E-011
 -2.730000000000000E-002    3.597251874029318E-011
 -2.720000000000000E-002    4.886679372159360E-011
 -2.710000000000000E-002    6.002459569090550E-011
 -2.700000000000000E-002    6.834612538161594E-011
 -2.690000000000000E-002    7.286099108432104E-011
 -2.680000000000000E-002    7.281703951313083E-011
 -2.670000000000000E-002    6.775434131813440E-011
 -2.660000000000000E-002    5.755742758226877E-011
 -2.650000000000000E-002    4.248090306842091E-011
 -2.640000000000000E-002    2.314592585136127E-011
 -2.630000000000000E-002    5.077021437493648E-013
 -2.620000000000000E-002   -2.420350683010478E-011
 -2.610000000000000E-002   -4.956319219921587E-011
 -2.600000000000000E-002   -7.404906201681960E-011
 -2.590000000000000E-002   -9.614608184706523E-011
 -2.580000000000000E-002   -1.144526080464368E-010
 -2.570000000000000E-002   -1.277805879027626E-010
 -2.560000000000000E-002   -1.352432950431704E-010
 -2.550000000000000E-002   -1.363249173039534E-010
 -2.540000000000000E-002   -1.309274532958067E-010
 -2.530000000000000E-002   -1.193911597213512E-010
 -2.520000000000000E-002   -1.024857857144636E-010
 -2.510000000000000E-002   -8.137083980326018E-011
 -2.500000000000000E-002   -5.752415525180874E-011
 -2.490000000000000E-002   -3.263954650165050E-011
 -2.480000000000000E-002   -8.496352053079688E-012
 -2.470000000000000E-002    1.319396434176365E-011
 -2.460000000000000E-002    3.095570081927000E-011
 -2.450000000000000E-002    4.371956407685040E-011
 -2.440000000000000E-002    5.098100741819986E-011
 -2.430000000000000E-002    5.292840475478034E-011
 -2.420000000000000E-002    5.052159353902893E-011
 -2.410000000000000E-002    4.550202749543374E-011
 -2.400000000000000E-002    4.031843371557221E-011
 -2.390000000000000E-002    3.795789330791238E-011
 -2.380000000000000E-002    4.168073110571136E-011
 -2.370000000000000E-002    5.466877127413630E-011
 -2.360000000000000E-002    7.960903390764572E-011
 -2.350000000000000E-002    1.182475515113031E-010
 -2.340000000000000E-002    1.709595054599566E-010
 -2.330000000000000E-002    2.363890606463220E-010
 -2.320000000000000E-002    3.112157069307518E-010
 -2.310000000000000E-002    3.900991960292359E-010
 -2.300000000000000E-002    4.658445758175761E-010
 -2.290000000000000E-002    5.298096260088021E-010
 -2.280000000000000E-002    5.725526248360952E-010
 -2.270000000000000E-002    5.846887192138228E-010
 -2.260000000000000E-002    5.578932462503355E-010
 -2.250000000000000E-002    4.859623659478821E-010
 -2.240000000000000E-002    3.658195100124575E-010
 -2.230000000000000E-002    1.983451712955955E-010
 -2.220000000000000E-002   -1.109129576645752E-011
 -2.210000000000000E-002   -2.525020120820677E-010
 -2.200000000000000E-002   -5.116259353740155E-010
 -2.190000000000000E-002   -7.707771130036186E-010
 -2.180000000000000E-002   -1.010168383850441E-009
 -2.170000000000000E-002   -1.209625520418811E-009
 -2.160000000000000E-002   -1.350549202964943E-009
 -2.150000000000000E-002   -1.417935379029942E-009
 -2.140000000000000E-002   -1.402235428173164E-009
 -2.130000000000000E-002   -1.300829002397995E-009
 -2.120000000000000E-002   -1.118900267040030E-009
 -2.110000000000000E-002   -8.695544598123495E-010
 -2.100000000000000E-002   -5.730793649725027E-010
 -2.090000000000000E-002   -2.553483872340149E-010
 -2.080000000000000E-002    5.454364165599786E-011
 -2.070000000000000E-002    3.272176954225541E-010
 -2.060000000000000E-002    5.362439597741018E-010
 -2.050000000000000E-002    6.613287753262471E-010
 -2.040000000000000E-002    6.910873074093196E-010
 -2.030000000000000E-002    6.250438548504159E-010
 -2.020000000000000E-002    4.745567121918403E-010
 -2.010000000000000E-002    2.624636129469995E-010
 -2.000000000000000E-002    2.136948332492076E-011
 -1.990000000000000E-002   -2.093487643169421E-010
 -1.980000000000000E-002   -3.875927136800276E-010
 -1.970000000000000E-002   -4.732759051127547E-010
 -1.960000000000000E-002   -4.332578569564150E-010
 -1.950000000000000E-002   -2.459322582085804E-010
 -1.940000000000000E-002    9.508671816271733E-011
 -1.930000000000000E-002    5.786739321644348E-010
 -1.920000000000000E-002    1.175678391046307E-009
 -1.910000000000000E-002    1.840386208533238E-009
 -1.900000000000000E-002    2.513957397816401E-009
 -1.890000000000000E-002    3.129604855190339E-009
 -1.880000000000000E-002    3.619070340500512E-009
 -1.870000000000000E-002    3.919770829534858E-009
 -1.860000000000000E-002    3.981868795794678E-009
 -1.850000000000000E-002    3.774474543012229E-009
 -1.840000000000000E-002    3.290234529046022E-009
 -1.830000000000000E-002    2.547689377615965E-009
 -1.820000000000000E-002    1.590994949214233E-009
 -1.810000000000000E-002    4.868745361520722E-010
 -1.800000000000000E-002   -6.810342759404714E-010
 -1.790000000000000E-002   -1.819968359662014E-009
 -1.780000000000000E-002   -2.837228439936514E-009
 -1.770000000000000E-002   -3.649836936432984E-009
 -1.760000000000000E-002   -4.193628365722734E-009
 -1.750000000000000E-002   -4.430736685879831E-009
 -1.740000000000000E-002   -4.354580806806958E-009
 -1.730000000000000E-002   -3.991664092568977E-009
 -1.720000000000000E-002   -3.399837928303496E-009
 -1.710000000000000E-002   -2.663044051789230E-009
 -1.700000000000000E-002   -1.882947067720742E-009
 -1.690000000000000E-002   -1.168226339171650E-009
 -1.680000000000000E-002   -6.225952509539920E-010
 -1.670000000000000E-002   -3.328018226324802E-010
 -1.660000000000000E-002   -3.579178636999328E-010
 -1.650000000000000E-002   -7.211446026591380E-010
 -1.640000000000000E-002   -1.405133761307390E-009
 -1.630000000000000E-002   -2.351483091692707E-009
 -1.620000000000000E-002   -3.464631627681480E-009
 -1.610000000000000E-002   -4.619920743060123E-009
 -1.600000000000000E-002   -5.675120510480305E-009
 -1.590000000000000E-002   -6.484332752477662E-009
 -1.580000000000000E-002   -6.912883937550925E-009
 -1.570000000000000E-002   -6.851677350788281E-009
 -1.560000000000000E-002   -6.229491167792080E-009
 -1.550000000000000E-002   -5.021873584249348E-009
 -1.540000000000000E-002   -3.255627444517192E-009
 -1.530000000000000E-002   -1.008307492612389E-009
 -1.520000000000000E-002    1.597329513981063E-009
 -1.510000000000000E-002    4.403455536890357E-009
 -1.500000000000000E-002    7.230925809663901E-009
 -1.490000000000000E-002    9.895307172751459E-009
 -1.480000000000000E-002    1.222357527115918E-008
 -1.470000000000000E-002    1.406978201942238E-008
 -1.460000000000000E-002    1.532808782745733E-008
 -1.450000000000000E-002    1.594180120608580E-008
 -1.440000000000000E-002    1.590749065375432E-008
 -1.430000000000000E-002    1.527371214725900E-008
 -1.420000000000000E-002    1.413447368922378E-008
 -1.410000000000000E-002    1.261808925062279E-008
 -1.400000000000000E-002    1.087257236478700E-008
 -1.390000000000000E-002    9.049066343088128E-009
 -1.380000000000000E-002    7.285037872316676E-009
 -1.370000000000000E-002    5.688996080818075E-009
 -1.360000000000000E-002    4.328355022712634E-009
 -1.350000000000000E-002    3.221763211236781E-009
 -1.340000000000000E-002    2.336786286947024E-009
 -1.330000000000000E-002    1.593312170419371E-009
 -1.320000000000000E-002    8.724884201752494E-010
 -1.310000000000000E-002    3.046757356022802E-011
 -1.300000000000000E-002   -1.084220930634782E-009
 -1.290000000000000E-002   -2.611215691728089E-009
 -1.280000000000000E-002   -4.658525792897227E-009
 -1.270000000000000E-002   -7.284163377083294E-009
 -1.260000000000000E-002   -1.048086155941984E-008
 -1.250000000000000E-002   -1.416525959097542E-008
 -1.240000000000000E-002   -1.817252341644941E-008
 -1.230000000000000E-002   -2.225690718119048E-008
 -1.220000000000000E-002   -2.609820968886150E-008
 -1.210000000000000E-002   -2.931358773465698E-008
 -1.200000000000000E-002   -3.147368822708144E-008
 -1.190000000000000E-002   -3.212169726905200E-008
 -1.180000000000000E-002   -3.079364703098031E-008
 -1.170000000000000E-002   -2.703814431130779E-008
 -1.160000000000000E-002   -2.043381314245686E-008
 -1.150000000000000E-002   -1.060277865791614E-008
 -1.140000000000000E-002    2.781016671436532E-009
 -1.130000000000000E-002    1.998960512934876E-008
 -1.120000000000000E-002    4.124526132681933E-008
 -1.110000000000000E-002    6.673097586406943E-008
 -1.100000000000000E-002    9.660655831256536E-008
 -1.090000000000000E-002    1.310290077852420E-007
 -1.080000000000000E-002    1.701756390463191E-007
 -1.070000000000000E-002    2.142677949836064E-007
 -1.060000000000000E-002    2.635932538891538E-007
 -1.050000000000000E-002    3.185250715528410E-007
 -1.040000000000000E-002    3.795351732893711E-007
 -1.030000000000000E-002    4.472007128102281E-007
 -1.020000000000000E-002    5.222028942958646E-007
 -1.010000000000000E-002    6.053173383447412E-007
 -1.000000000000000E-002    6.973971556239535E-007
 -9.899999999999999E-003    7.993487605924002E-007
 -9.800000000000000E-003    9.121037896951327E-007
 -9.699999999999999E-003    1.036588506271150E-006
 -9.599999999999999E-003    1.173694470009398E-006
 -9.500000000000000E-003    1.324251985989266E-006
 -9.399999999999999E-003    1.489012102574963E-006
 -9.299999999999999E-003    1.668635803957155E-006
 -9.200000000000000E-003    1.863696072121067E-006
 -9.099999999999999E-003    2.074690490279429E-006
 -8.999999999999999E-003    2.302066529115648E-006
 -8.900000000000000E-003    2.546256315387541E-006
 -8.799999999999999E-003    2.807719042161222E-006
 -8.699999999999999E-003    3.086988646264401E-006
 -8.600000000000000E-003    3.384720236608935E-006
 -8.499999999999999E-003    3.701734071210143E-006
 -8.399999999999999E-003    4.039049359074512E-006
 -8.300000000000000E-003    4.397906616738968E-006
 -8.199999999999999E-003    4.779776861973554E-006
 -8.100000000000000E-003    5.186351808186526E-006
 -8.000000000000000E-003    5.619520901600101E-006
 -7.899999999999999E-003    6.081332617924841E-006
 -7.800000000000000E-003    6.573946093912701E-006
 -7.699999999999999E-003    7.099578212835816E-006
 -7.599999999999999E-003    7.660447198904262E-006
 -7.499999999999999E-003    8.258725866739588E-006
 -7.399999999999999E-003    8.896502350785006E-006
 -7.299999999999999E-003    9.575759989925352E-006
 -7.199999999999999E-003    1.029837366852027E-005
 -7.100000000000000E-003    1.106613286639524E-005
 -6.999999999999999E-003    1.188077619091119E-005
 -6.899999999999999E-003    1.274405323226713E-005
 -6.800000000000000E-003    1.365779388241252E-005
 -6.699999999999999E-003    1.462398664666545E-005
 -6.599999999999999E-003    1.564486118487619E-005
 -6.499999999999999E-003    1.672295653688539E-005
 -6.399999999999999E-003    1.786118304128920E-005
 -6.299999999999999E-003    1.906286130034210E-005
 -6.199999999999999E-003    2.033174057555312E-005
 -6.100000000000000E-003    2.167199307697898E-005
 -5.999999999999999E-003    2.308818380453596E-005
 -5.899999999999999E-003    2.458521773497018E-005
 -5.800000000000000E-003    2.616828618423536E-005
 -5.699999999999999E-003    2.784278706215249E-005
 -5.599999999999999E-003    2.961426058697704E-005
 -5.499999999999999E-003    3.148833149901956E-005
 -5.399999999999999E-003    3.347066767776513E-005
 -5.299999999999999E-003    3.556695582673150E-005
 -5.199999999999999E-003    3.778291320069896E-005
 -5.099999999999999E-003    4.012431047736694E-005
 -4.999999999999999E-003    4.259704130872724E-005
 -4.899999999999999E-003    4.520719448871013E-005
 -4.799999999999999E-003    4.796114096405695E-005
 -4.699999999999999E-003    5.086564285012955E-005
 -4.599999999999999E-003    5.392793976006461E-005
 -4.499999999999999E-003    5.715583009722362E-005
 -4.399999999999999E-003    6.055774265181200E-005
 -4.299999999999999E-003    6.414277986602031E-005
 -4.199999999999999E-003    6.792073251954535E-005
 -4.099999999999999E-003    7.190205736192508E-005
 -3.999999999999999E-003    7.609786535750884E-005
 -3.899999999999999E-003    8.051985173236420E-005
 -3.799999999999999E-003    8.518024614633229E-005
 -3.699999999999999E-003    9.009172024586526E-005
 -3.599999999999999E-003    9.526735929479518E-005
 -3.499999999999999E-003    1.007206110668317E-004
 -3.399999999999999E-003    1.064652296552059E-004
 -3.299999999999999E-003    1.125153000755372E-004
 -3.199999999999999E-003    1.188852658380764E-004
 -3.099999999999999E-003    1.255899479294643E-004
 -2.999999999999999E-003    1.326446542255763E-004
 -2.899999999999999E-003    1.400652571321161E-004
 -2.799999999999999E-003    1.478682709732046E-004
 -2.699999999999999E-003    1.560710036216605E-004
 -2.599999999999999E-003    1.646916160176927E-004
 -2.499999999999999E-003    1.737492355130982E-004
 -2.399999999999999E-003    1.832640113101371E-004
 -2.299999999999999E-003    1.932571848747858E-004
 -2.199999999999999E-003    2.037511328331514E-004
 -2.099999999999999E-003    2.147693334283827E-004
 -1.999999999999999E-003    2.263364311864480E-004
 -1.899999999999999E-003    2.384781640549158E-004
 -1.799999999999999E-003    2.512213617583718E-004
 -1.699999999999999E-003    2.645939408954253E-004
 -1.599999999999999E-003    2.786248534663246E-004
 -1.499999999999999E-003    2.933440762063756E-004
 -1.399999999999999E-003    3.087826455320625E-004
 -1.299999999999999E-003    3.249726500224040E-004
 -1.199999999999999E-003    3.419472617564560E-004
 -1.099999999999999E-003    3.597408159239497E-004
 -9.999999999999989E-004    3.783888249530093E-004
 -8.999999999999990E-004    3.979281029542079E-004
 -7.999999999999990E-004    4.183967870372145E-004
 -6.999999999999989E-004    4.398343954326078E-004
 -5.999999999999990E-004    4.622820119980553E-004
 -4.999999999999989E-004    4.857822693392650E-004
 -3.999999999999989E-004    5.103794013386468E-004
 -2.999999999999989E-004    5.361193945481452E-004
 -1.999999999999989E-004    5.630498473772404E-004
 -9.999999999999892E-005    5.912201962611786E-004
  1.084202172485504E-018    6.206816516144725E-004
  1.000000000000011E-004    6.514872998095757E-004
  2.000000000000011E-004    6.836919998801346E-004
  3.000000000000011E-004    7.173524568389023E-004
  4.000000000000011E-004    7.525272720771414E-004
  5.000000000000011E-004    7.892769385502884E-004
  6.000000000000011E-004    8.276639433616762E-004
  7.000000000000011E-004    8.677526746369734E-004
  8.000000000000011E-004    9.096096229614519E-004
  9.000000000000012E-004    9.533031935114819E-004
  1.000000000000001E-003    9.989039553961868E-004
  1.100000000000001E-003    1.046484573031720E-003
  1.200000000000001E-003    1.096120121881307E-003
  1.300000000000001E-003    1.147887778016332E-003
  1.400000000000001E-003    1.201867146193760E-003
  1.500000000000001E-003    1.258140283410835E-003
  1.600000000000001E-003    1.316791766054807E-003
  1.700000000000001E-003    1.377908679064313E-003
  1.800000000000001E-003    1.441580861138745E-003
  1.900000000000001E-003    1.507900713365747E-003
  2.000000000000001E-003    1.576963399623363E-003
  2.100000000000001E-003    1.648866844933985E-003
  2.200000000000001E-003    1.723711627801650E-003
  2.300000000000001E-003    1.801601433005232E-003
  2.400000000000001E-003    1.882642596461502E-003
  2.500000000000001E-003    1.966944086612416E-003
  2.600000000000001E-003    2.054617868856742E-003
  2.700000000000001E-003    2.145778697705445E-003
  2.800000000000001E-003    2.240544032909678E-003
  2.900000000000001E-003    2.339034370958093E-003
  3.000000000000001E-003    2.441372663118390E-003
  3.100000000000001E-003    2.547685226149505E-003
  3.200000000000001E-003    2.658101002520450E-003
  3.300000000000001E-003    2.772752055311462E-003
  3.400000000000001E-003    2.891773431800472E-003
  3.500000000000001E-003    3.015303398592234E-003
  3.600000000000001E-003    3.143483366622130E-003
  3.700000000000001E-003    3.276458076565741E-003
  3.800000000000001E-003    3.414375224165004E-003
  3.900000000000001E-003    3.557386083180890E-003
  4.000000000000001E-003    3.705644953369216E-003
  4.100000000000001E-003    3.859309568783329E-003
  4.200000000000001E-003    4.018540937028039E-003
  4.300000000000001E-003    4.183503008406772E-003
  4.400000000000001E-003    4.354362460398172E-003
  4.500000000000001E-003    4.531289764469025E-003
  4.600000000000002E-003    4.714457283735931E-003
  4.700000000000001E-003    4.904041289782844E-003
  4.800000000000001E-003    5.100219927160933E-003
  4.900000000000002E-003    5.303174552056034E-003
  5.000000000000001E-003    5.513088581656756E-003
  5.100000000000001E-003    5.730148728532192E-003
  5.200000000000001E-003    5.954544062989237E-003
  5.300000000000002E-003    6.186466640901481E-003
  5.400000000000001E-003    6.426110179532667E-003
  5.500000000000001E-003    6.673672298937600E-003
  5.600000000000002E-003    6.929352125292157E-003
  5.700000000000001E-003    7.193352548780566E-003
  5.800000000000001E-003    7.465877997369712E-003
  5.900000000000002E-003    7.747135872604276E-003
  6.000000000000001E-003    8.037334777128854E-003
  6.100000000000001E-003    8.336686790479227E-003
  6.200000000000002E-003    8.645405192575558E-003
  6.300000000000002E-003    8.963705140447061E-003
  6.400000000000001E-003    9.291803125745384E-003
  6.500000000000001E-003    9.629916901343790E-003
  6.600000000000002E-003    9.978266337025673E-003
  6.700000000000001E-003    1.033707066711903E-002
  6.800000000000001E-003    1.070655042575283E-002
  6.900000000000002E-003    1.108692636820137E-002
  7.000000000000001E-003    1.147842035738498E-002
  7.100000000000001E-003    1.188125368775957E-002
  7.200000000000002E-003    1.229564786522835E-002
  7.300000000000002E-003    1.272182491550334E-002
  7.400000000000001E-003    1.316000474983633E-002
  7.500000000000001E-003    1.361040838958368E-002
  7.600000000000002E-003    1.407325428768722E-002
  7.700000000000001E-003    1.454876209410905E-002
  7.800000000000001E-003    1.503714875663683E-002
  7.900000000000001E-003    1.553862957372729E-002
  8.000000000000002E-003    1.605341776705314E-002
  8.100000000000001E-003    1.658172556675736E-002
  8.200000000000001E-003    1.712376057815161E-002
  8.300000000000002E-003    1.767972704137027E-002
  8.400000000000001E-003    1.824982757880549E-002
  8.500000000000002E-003    1.883425867580945E-002
  8.600000000000002E-003    1.943321441606021E-002
  8.700000000000001E-003    2.004688417536160E-002
  8.800000000000002E-003    2.067544990018811E-002
  8.900000000000002E-003    2.131909048472532E-002
  9.000000000000001E-003    2.197797809064388E-002
  9.100000000000002E-003    2.265227921291056E-002
  9.200000000000002E-003    2.334215482473727E-002
  9.300000000000001E-003    2.404775851307053E-002
  9.400000000000002E-003    2.476923448064469E-002
  9.500000000000001E-003    2.550672146534777E-002
  9.600000000000001E-003    2.626034889141887E-002
  9.700000000000002E-003    2.703023653017082E-002
  9.800000000000001E-003    2.781650042704474E-002
  9.900000000000001E-003    2.861924029720117E-002
  1.000000000000000E-002    2.943854728450717E-002
  1.010000000000000E-002    3.027450204021195E-002
  1.020000000000000E-002    3.112717536046617E-002
  1.030000000000000E-002    3.199662373110079E-002
  1.040000000000000E-002    3.288289364845721E-002
  1.050000000000000E-002    3.378601900663072E-002
  1.060000000000000E-002    3.470601708292971E-002
  1.070000000000000E-002    3.564289590114473E-002
  1.080000000000000E-002    3.659664707401430E-002
  1.090000000000000E-002    3.756724593467545E-002
  1.100000000000000E-002    3.855465464446981E-002
  1.110000000000000E-002    3.955881983296718E-002
  1.120000000000000E-002    4.057966918500917E-002
  1.130000000000000E-002    4.161711809774938E-002
  1.140000000000000E-002    4.267106411050588E-002
  1.150000000000000E-002    4.374138171850034E-002
  1.160000000000000E-002    4.482793185986558E-002
  1.170000000000000E-002    4.593055620684673E-002
  1.180000000000000E-002    4.704907336015633E-002
  1.190000000000000E-002    4.818328322245006E-002
  1.200000000000000E-002    4.933296656807300E-002
  1.210000000000000E-002    5.049788324443994E-002
  1.220000000000000E-002    5.167776739635102E-002
  1.230000000000000E-002    5.287233548051530E-002
  1.240000000000000E-002    5.408128038719414E-002
  1.250000000000000E-002    5.530427225708767E-002
  1.260000000000000E-002    5.654095866299061E-002
  1.270000000000000E-002    5.779095661910764E-002
  1.280000000000000E-002    5.905386932222135E-002
  1.290000000000000E-002    6.032926738548240E-002
  1.300000000000000E-002    6.161669979969105E-002
  1.310000000000000E-002    6.291569269001618E-002
  1.320000000000000E-002    6.422573844342551E-002
  1.330000000000000E-002    6.554630524067682E-002
  1.340000000000000E-002    6.687684042000490E-002
  1.350000000000000E-002    6.821675959404758E-002
  1.360000000000000E-002    6.956545314169754E-002
  1.370000000000000E-002    7.092228226872614E-002
  1.380000000000000E-002    7.228658067208749E-002
  1.390000000000000E-002    7.365765556635001E-002
  1.400000000000000E-002    7.503478801397861E-002
  1.410000000000000E-002    7.641722918865589E-002
  1.420000000000000E-002    7.780420086256459E-002
  1.430000000000000E-002    7.919490007467660E-002
  1.440000000000000E-002    8.058848750780255E-002
  1.450000000000000E-002    8.198410311032589E-002
  1.460000000000000E-002    8.338085591153402E-002
  1.470000000000000E-002    8.477782275393607E-002
  1.480000000000000E-002    8.617405835024765E-002
  1.490000000000000E-002    8.756858653574261E-002
  1.500000000000000E-002    8.896039510987441E-002
  1.510000000000000E-002    9.034845789788963E-002
  1.520000000000000E-002    9.173170741625344E-002
  1.530000000000000E-002    9.310905429897609E-002
  1.540000000000000E-002    9.447937824090764E-002
  1.550000000000000E-002    9.584153980129514E-002
  1.560000000000000E-002    9.719437046964101E-002
  1.570000000000000E-002    9.853666758588574E-002
  1.580000000000000E-002    9.986721059499418E-002
  1.590000000000000E-002    0.101184746262476     
  1.600000000000000E-002    0.102488007978370     
  1.610000000000000E-002    0.103775692090084     
  1.620000000000000E-002    0.105046484708585     
  1.630000000000000E-002    0.106299037549209     
  1.640000000000000E-002    0.107531983625043     
  1.650000000000000E-002    0.108743941008648     
  1.660000000000000E-002    0.109933500968316     
  1.670000000000000E-002    0.111099235607740     
  1.680000000000000E-002    0.112239695742587     
  1.690000000000000E-002    0.113353418588178     
  1.700000000000000E-002    0.114438916561098     
  1.710000000000000E-002    0.115494689494953     
  1.720000000000000E-002    0.116519230895193     
  1.730000000000000E-002    0.117511020205672     
  1.740000000000000E-002    0.118468512492228     
  1.750000000000000E-002    0.119390156466915     
  1.760000000000000E-002    0.120274402261218     
  1.770000000000000E-002    0.121119684510229     
  1.780000000000000E-002    0.121924427536828     
  1.790000000000000E-002    0.122687066366984     
  1.800000000000000E-002    0.123406008330345     
  1.810000000000000E-002    0.124079676452404     
  1.820000000000000E-002    0.124706489080298     
  1.830000000000000E-002    0.125284871136394     
  1.840000000000000E-002    0.125813228952407     
  1.850000000000000E-002    0.126290004449135     
  1.860000000000000E-002    0.126713614427782     
  1.870000000000000E-002    0.127082502356547     