 -4.000000000000000E-002    0.000000000000000E+000
 -3.990000000000000E-002    0.000000000000000E+000
 -3.980000000000000E-002   -1.719104544422292E-012
 -3.970000000000000E-002   -1.029392705384041E-011
 -3.960000000000000E-002   -3.717729861996912E-011
 -3.950000000000000E-002   -1.033805063908235E-010
 -3.940000000000000E-002   -2.419097286627623E-010
 -3.930000000000000E-002   -4.982108339887055E-010
 -3.920000000000000E-002   -9.276863882832522E-010
 -3.910000000000000E-002   -1.589854600868636E-009
 -3.900000000000000E-002   -2.539397694351765E-009
 -3.890000000000000E-002   -3.815069900281200E-009
 -3.880000000000000E-002   -5.428056410015688E-009
 -3.870000000000000E-002   -7.351759488034796E-009
 -3.860000000000000E-002   -9.515029125612153E-009
 -3.850000000000000E-002   -1.180052760356032E-008
 -3.840000000000000E-002   -1.404921474964239E-008
 -3.830000000000000E-002   -1.607101234465311E-008
 -3.820000000000000E-002   -1.766063951284157E-008
 -3.810000000000000E-002   -1.861666295251162E-008
 -3.800000000000000E-002   -1.876109103625253E-008
 -3.790000000000000E-002   -1.795655900969590E-008
 -3.780000000000000E-002   -1.611838189283094E-008
 -3.770000000000000E-002   -1.321942662022797E-008
 -3.760000000000000E-002   -9.286933297956069E-009
 -3.750000000000000E-002   -4.391720597191221E-009
 -3.740000000000000E-002    1.368381691702809E-009
 -3.730000000000000E-002    7.887855444835442E-009
 -3.720000000000000E-002    1.507192550058783E-008
 -3.710000000000000E-002    2.285029424655099E-008
 -3.700000000000000E-002    3.118296317050168E-008
 -3.690000000000000E-002    4.005617491097169E-008
 -3.680000000000000E-002    4.946807488276292E-008
 -3.670000000000000E-002    5.940562712174689E-008
 -3.660000000000000E-002    6.981604339600351E-008
 -3.650000000000000E-002    8.057732839863432E-008
 -3.640000000000000E-002    9.147321967109646E-008
 -3.630000000000000E-002    1.021776030761356E-007
 -3.620000000000000E-002    1.122524861919165E-007
 -3.610000000000000E-002    1.211617348138240E-007
 -3.600000000000000E-002    1.283004319076583E-007
 -3.590000000000000E-002    1.330373003215118E-007
 -3.580000000000000E-002    1.347652791975876E-007
 -3.570000000000000E-002    1.329537458516621E-007
 -3.560000000000000E-002    1.271952006215448E-007
 -3.550000000000000E-002    1.172397416215809E-007
 -3.540000000000000E-002    1.030121065823802E-007
 -3.530000000000000E-002    8.460876338935129E-008
 -3.520000000000000E-002    6.227550999175817E-008
 -3.510000000000000E-002    3.636937699135881E-008
 -3.500000000000000E-002    7.311396338184868E-009
 -3.490000000000000E-002   -2.446132070177127E-008
 -3.480000000000000E-002   -5.853512637245574E-008
 -3.470000000000000E-002   -9.454292092809629E-008
 -3.460000000000000E-002   -1.321650726156181E-007
 -3.450000000000000E-002   -1.711061008351235E-007
 -3.440000000000000E-002   -2.110492214399005E-007
 -3.430000000000000E-002   -2.515953259364805E-007
 -3.420000000000000E-002   -2.921965919724018E-007
 -3.410000000000000E-002   -3.320969272035967E-007
 -3.400000000000000E-002   -3.702923522479726E-007
 -3.390000000000000E-002   -4.055225617899999E-007
 -3.380000000000000E-002   -4.363009257992389E-007
 -3.370000000000000E-002   -4.609856153967818E-007
 -3.360000000000000E-002   -4.778874274803215E-007
 -3.350000000000000E-002   -4.854043685684777E-007
 -3.340000000000000E-002   -4.821669037946688E-007
 -3.330000000000000E-002   -4.671750608036310E-007
 -3.320000000000000E-002   -4.399069877587496E-007
 -3.310000000000000E-002   -4.003807376767143E-007
 -3.300000000000000E-002   -3.491563802739113E-007
 -3.290000000000000E-002   -2.872720680785873E-007
 -3.280000000000000E-002   -2.161174514275165E-007
 -3.270000000000000E-002   -1.372567336331163E-007
 -3.260000000000000E-002   -5.222171074564875E-008
 -3.250000000000000E-002    3.769805253364221E-008
 -3.240000000000000E-002    1.316390965590729E-007
 -3.230000000000000E-002    2.292931753816302E-007
 -3.220000000000000E-002    3.309595557328893E-007
 -3.210000000000000E-002    4.375066961063688E-007
 -3.200000000000000E-002    5.502409952457720E-007
 -3.190000000000000E-002    6.706944020299783E-007
 -3.180000000000000E-002    8.003538673984397E-007
 -3.170000000000000E-002    9.403663146590111E-007
 -3.160000000000000E-002    1.091258568051568E-006
 -3.150000000000000E-002    1.252713022742098E-006
 -3.140000000000000E-002    1.423435144269439E-006
 -3.130000000000000E-002    1.601140002840952E-006
 -3.120000000000000E-002    1.782668898861803E-006
 -3.110000000000000E-002    1.964233981976811E-006
 -3.100000000000000E-002    2.141768605158357E-006
 -3.090000000000000E-002    2.311347488019058E-006
 -3.080000000000000E-002    2.469629386221739E-006
 -3.070000000000000E-002    2.614268299071102E-006
 -3.060000000000000E-002    2.744242910827055E-006
 -3.050000000000000E-002    2.860058703754952E-006
 -3.040000000000000E-002    2.963794757172601E-006
 -3.030000000000000E-002    3.058983888927972E-006
 -3.020000000000000E-002    3.150337127770529E-006
 -3.010000000000000E-002    3.243343873451389E-006
 -3.000000000000000E-002    3.343794052781354E-006
 -2.990000000000000E-002    3.457286437527652E-006
 -2.980000000000000E-002    3.588781567944296E-006
 -2.970000000000000E-002    3.742262558572540E-006
 -2.960000000000000E-002    3.920551458485209E-006
 -2.950000000000000E-002    4.125303576207490E-006
 -2.940000000000000E-002    4.357192650328713E-006
 -2.930000000000000E-002    4.616260063451106E-006
 -2.920000000000000E-002    4.902388359295307E-006
 -2.910000000000000E-002    5.215839638824558E-006
 -2.900000000000000E-002    5.557784438912308E-006
 -2.890000000000000E-002    5.930755254286328E-006
 -2.880000000000000E-002    6.338954040994369E-006
 -2.870000000000000E-002    6.788379061064405E-006
 -2.860000000000000E-002    7.286736660685618E-006
 -2.850000000000000E-002    7.843156037297508E-006
 -2.840000000000000E-002    8.467731337674985E-006
 -2.830000000000000E-002    9.170950623521541E-006
 -2.820000000000000E-002    9.963087412663358E-006
 -2.810000000000000E-002    1.085362990384938E-005
 -2.800000000000000E-002    1.185082999083008E-005
 -2.790000000000000E-002    1.296142794673682E-005
 -2.780000000000000E-002    1.419060143937866E-005
 -2.770000000000000E-002    1.554213920596297E-005
 -2.760000000000000E-002    1.701883234776857E-005
 -2.750000000000000E-002    1.862302177155083E-005
 -2.740000000000000E-002    2.035724075738783E-005
 -2.730000000000000E-002    2.222486434108153E-005
 -2.720000000000000E-002    2.423067992444012E-005
 -2.710000000000000E-002    2.638129949304511E-005
 -2.700000000000000E-002    2.868535869155029E-005
 -2.690000000000000E-002    3.115346923579973E-005
 -2.680000000000000E-002    3.379793785482582E-005
 -2.670000000000000E-002    3.663228752181721E-005
 -2.660000000000000E-002    3.967062344810096E-005
 -2.650000000000000E-002    4.292696897371115E-005
 -2.640000000000000E-002    4.641463266253214E-005
 -2.630000000000000E-002    5.014570004013857E-005
 -2.620000000000000E-002    5.413077113885993E-005
 -2.610000000000000E-002    5.837890036468936E-005
 -2.600000000000000E-002    6.289783550166643E-005
 -2.590000000000000E-002    6.769449823128534E-005
 -2.580000000000000E-002    7.277564384382855E-005
 -2.570000000000000E-002    7.814862184123111E-005
 -2.560000000000000E-002    8.382215947089427E-005
 -2.550000000000000E-002    8.980702527646727E-005
 -2.540000000000000E-002    9.611649467818914E-005
 -2.530000000000000E-002    1.027666022023324E-004
 -2.520000000000000E-002    1.097760696968987E-004
 -2.510000000000000E-002    1.171659571896646E-004
 -2.500000000000000E-002    1.249591039092297E-004
 -2.490000000000000E-002    1.331793709880101E-004
 -2.480000000000000E-002    1.418508761051994E-004
 -2.470000000000000E-002    1.509972486147563E-004
 -2.460000000000000E-002    1.606410840465355E-004
 -2.450000000000000E-002    1.708036236033132E-004
 -2.440000000000000E-002    1.815047275129420E-004
 -2.430000000000000E-002    1.927632396926334E-004
 -2.420000000000000E-002    2.045975475529688E-004
 -2.410000000000000E-002    2.170264443601331E-004
 -2.400000000000000E-002    2.300700663851615E-004
 -2.390000000000000E-002    2.437508177743902E-004
 -2.380000000000000E-002    2.580942614651431E-004
 -2.370000000000000E-002    2.731297116396180E-004
 -2.360000000000000E-002    2.888904859911518E-004
 -2.350000000000000E-002    3.054139910744813E-004
 -2.340000000000000E-002    3.227412279440385E-004
 -2.330000000000000E-002    3.409162264426679E-004
 -2.320000000000000E-002    3.599852513637115E-004
 -2.310000000000000E-002    3.799958450039431E-004
 -2.300000000000000E-002    4.009960862519428E-004
 -2.290000000000000E-002    4.230339889326579E-004
 -2.280000000000000E-002    4.461571267033945E-004
 -2.270000000000000E-002    4.704127910022408E-004
 -2.260000000000000E-002    4.958483423745955E-004
 -2.250000000000000E-002    5.225120829844269E-004
 -2.240000000000000E-002    5.504542940622286E-004
 -2.230000000000000E-002    5.797283838514373E-004
 -2.220000000000000E-002    6.103920276025214E-004
 -2.210000000000000E-002    6.425083837796303E-004
 -2.200000000000000E-002    6.761466027341626E-004
 -2.190000000000000E-002    7.113824299745981E-004
 -2.180000000000000E-002    7.482978983614717E-004
 -2.170000000000000E-002    7.869811143181559E-004
 -2.160000000000000E-002    8.275251952710282E-004
 -2.150000000000000E-002    8.700273885622005E-004
 -2.140000000000000E-002    9.145877758736542E-004
 -2.130000000000000E-002    9.613081337705955E-004
 -2.120000000000000E-002    1.010291325164919E-003
 -2.110000000000000E-002    1.061640429379275E-003
 -2.100000000000000E-002    1.115458700334981E-003
 -2.090000000000000E-002    1.171850311854507E-003
 -2.080000000000000E-002    1.230920864911971E-003
 -2.070000000000000E-002    1.292778537037952E-003
 -2.060000000000000E-002    1.357535780236493E-003
 -2.050000000000000E-002    1.425310519361106E-003
 -2.040000000000000E-002    1.496227550719896E-003
 -2.030000000000000E-002    1.570419404542988E-003
 -2.020000000000000E-002    1.648027366908422E-003
 -2.010000000000000E-002    1.729201035661517E-003
 -2.000000000000000E-002    1.814098509494700E-003
 -1.990000000000000E-002    1.902885118857299E-003
 -1.980000000000000E-002    1.995732272367265E-003
 -1.970000000000000E-002    2.092816694509234E-003
 -1.960000000000000E-002    2.194318432429229E-003
 -1.950000000000000E-002    2.300420145166734E-003
 -1.940000000000000E-002    2.411306372819019E-003
 -1.930000000000000E-002    2.527163030773689E-003
 -1.920000000000000E-002    2.648178040943329E-003
 -1.910000000000000E-002    2.774541940148036E-003
 -1.900000000000000E-002    2.906449033025834E-003
 -1.890000000000000E-002    3.044099424634438E-003
 -1.880000000000000E-002    3.187700231183863E-003
 -1.870000000000000E-002    3.337467123632937E-003
 -1.860000000000000E-002    3.493626417635969E-003
 -1.850000000000000E-002    3.656415068782917E-003
 -1.840000000000000E-002    3.826081283487960E-003
 -1.830000000000000E-002    4.002885063057670E-003
 -1.820000000000000E-002    4.187095496171199E-003
 -1.810000000000000E-002    4.378992009636016E-003
 -1.800000000000000E-002    4.578860967754312E-003
 -1.790000000000000E-002    4.786994935392063E-003
 -1.780000000000000E-002    5.003691156399347E-003
 -1.770000000000000E-002    5.229250190151929E-003
 -1.760000000000000E-002    5.463975146124232E-003
 -1.750000000000000E-002    5.708172909837978E-003
 -1.740000000000000E-002    5.962152415876196E-003
 -1.730000000000000E-002    6.226227712908484E-003
 -1.720000000000000E-002    6.500717822661177E-003
 -1.710000000000000E-002    6.785949733632115E-003
 -1.700000000000000E-002    7.082259361639313E-003
 -1.690000000000000E-002    7.389994024924051E-003
 -1.680000000000000E-002    7.709510930011161E-003
 -1.670000000000000E-002    8.041180822079514E-003
 -1.660000000000000E-002    8.385386124598054E-003
 -1.650000000000000E-002    8.742520877760203E-003
 -1.640000000000000E-002    9.112989679874384E-003
 -1.630000000000000E-002    9.497205211908442E-003
 -1.620000000000000E-002    9.895588726889061E-003
 -1.610000000000000E-002    1.030856521473991E-002
 -1.600000000000000E-002    1.073656334677968E-002
 -1.590000000000000E-002    1.118001520090672E-002
 -1.580000000000000E-002    1.163935377738905E-002
 -1.570000000000000E-002    1.211501417401898E-002
 -1.560000000000000E-002    1.260743357155970E-002
 -1.550000000000000E-002    1.311705267002850E-002
 -1.540000000000000E-002    1.364431709541265E-002
 -1.530000000000000E-002    1.418967711359352E-002
 -1.520000000000000E-002    1.475359222230881E-002
 -1.510000000000000E-002    1.533653014575496E-002
 -1.500000000000000E-002    1.593896538412628E-002
 -1.490000000000000E-002    1.656138507592991E-002
 -1.480000000000000E-002    1.720428322838811E-002
 -1.470000000000000E-002    1.786816161125959E-002
 -1.460000000000000E-002    1.855352631806335E-002
 -1.450000000000000E-002    1.926088834035621E-002
 -1.440000000000000E-002    1.999075986438053E-002
 -1.430000000000000E-002    2.074365293761769E-002
 -1.420000000000000E-002    2.152007577031209E-002
 -1.410000000000000E-002    2.232053175758124E-002
 -1.400000000000000E-002    2.314552007039355E-002
 -1.390000000000000E-002    2.399553478054492E-002
 -1.380000000000000E-002    2.487106124243876E-002
 -1.370000000000000E-002    2.577258333194405E-002
 -1.360000000000000E-002    2.670057619128451E-002
 -1.350000000000000E-002    2.765551396467917E-002
 -1.340000000000000E-002    2.863786626637799E-002
 -1.330000000000000E-002    2.964809807276125E-002
 -1.320000000000000E-002    3.068667432532128E-002
 -1.310000000000000E-002    3.175405201177386E-002
 -1.300000000000000E-002    3.285068578598109E-002
 -1.290000000000000E-002    3.397701626270391E-002
 -1.280000000000000E-002    3.513348537572532E-002
 -1.270000000000000E-002    3.632051118622928E-002
 -1.260000000000000E-002    3.753850411699353E-002
 -1.250000000000000E-002    3.878785057135958E-002
 -1.240000000000000E-002    4.006892076933125E-002
 -1.230000000000000E-002    4.138205923378914E-002
 -1.220000000000000E-002    4.272758617961132E-002
 -1.210000000000000E-002    4.410579736728954E-002
 -1.200000000000000E-002    4.551696079877229E-002
 -1.190000000000000E-002    4.696131666288272E-002
 -1.180000000000000E-002    4.843907387517924E-002
 -1.170000000000000E-002    4.995041948153428E-002
 -1.160000000000000E-002    5.149550772722680E-002
 -1.150000000000000E-002    5.307446063056548E-002
 -1.140000000000000E-002    5.468737482367025E-002
 -1.130000000000000E-002    5.633431408318930E-002
 -1.120000000000000E-002    5.801530122704169E-002
 -1.110000000000000E-002    5.973032966457265E-002
 -1.100000000000000E-002    6.147934729481466E-002
 -1.090000000000000E-002    6.326226201489385E-002
 -1.080000000000000E-002    6.507893247021546E-002
 -1.070000000000000E-002    6.692917039521082E-002
 -1.060000000000000E-002    6.881272544631471E-002
 -1.050000000000000E-002    7.072930114192835E-002
 -1.040000000000000E-002    7.267854271414080E-002
 -1.030000000000000E-002    7.466002617067009E-002
 -1.020000000000000E-002    7.667326649899368E-002
 -1.010000000000000E-002    7.871771767029689E-002
 -1.000000000000000E-002    8.079276054241859E-002
 -9.899999999999999E-003    8.289771200943358E-002
 -9.800000000000000E-003    8.503181787507595E-002
 -9.699999999999999E-003    8.719425063980851E-002
 -9.599999999999999E-003    8.938411559348326E-002
 -9.500000000000000E-003    9.160043138778019E-002
 -9.399999999999999E-003    9.384214899190642E-002
 -9.299999999999999E-003    9.610813603775388E-002
 -9.200000000000000E-003    9.839716697890609E-002
 -9.099999999999999E-003    0.100707938863310     
 -8.999999999999999E-003    0.103039048320235     
 -8.900000000000000E-003    0.105389007259899     
 -8.799999999999999E-003    0.107756219225589     
 -8.699999999999999E-003    0.110138988135242     
 -8.600000000000000E-003    0.112535517492398     
 -8.499999999999999E-003    0.114943901741177     
 -8.399999999999999E-003    0.117362115231523     
 -8.300000000000000E-003    0.119788023782231     
 -8.199999999999999E-003    0.122219381909229     
 -8.100000000000000E-003    0.124653820401625     
 -8.000000000000000E-003    0.127088856116495     
 -7.899999999999999E-003    0.129521880262975     
 -7.800000000000000E-003    0.131950157764063     
 -7.699999999999999E-003    0.134370845441194     
 -7.599999999999999E-003    0.136780953185507     
 -7.499999999999999E-003    0.139177374844708     
 -7.399999999999999E-003    0.141556878312773     
 -7.299999999999999E-003    0.143916094651408     
 -7.199999999999999E-003    0.146251513383700     
 -7.100000000000000E-003    0.148559495138564     
 -6.999999999999999E-003    0.150836257215040     
 -6.899999999999999E-003    0.153077873082120     
 -6.800000000000000E-003    0.155280280707170     
 -6.699999999999999E-003    0.157439263089601     
 -6.599999999999999E-003    0.159550451491720     
 -6.499999999999999E-003    0.161609339789600     
 -6.399999999999999E-003    0.163611260496825     
 -6.299999999999999E-003    0.165551392464775     
 -6.199999999999999E-003    0.167424763559089     
 -6.100000000000000E-003    0.169226245823421     
 -5.999999999999999E-003    0.170950577685170     
 -5.899999999999999E-003    0.172592338529074     
 -5.800000000000000E-003    0.174145952001872     
 -5.699999999999999E-003    0.175605702205102     
 -5.599999999999999E-003    0.176965726226243     
 -5.499999999999999E-003    0.178220022313866     
 -5.399999999999999E-003    0.179362427521800     
 -5.299999999999999E-003    0.180386646202853     
 -5.199999999999999E-003    0.181286242340509     
 -5.099999999999999E-003    0.182054627696895     
 -4.999999999999999E-003    0.182685076588041     
 -4.899999999999999E-003    0.183170713584462     
 -4.799999999999999E-003    0.183504536712393     
 -4.699999999999999E-003    0.183679408684769     
 -4.599999999999999E-003    0.183688046426445     
 -4.499999999999999E-003    0.183523040799942     
 -4.399999999999999E-003    0.183176844876266     
 -4.299999999999999E-003    0.182641790945797     
 -4.199999999999999E-003    0.181910109538183     
 -4.099999999999999E-003    0.180973921692348     
 -3.999999999999999E-003    0.179825221014565     
 -3.899999999999999E-003    0.178455915204946     
 -3.799999999999999E-003    0.176857823691120     
 -3.699999999999999E-003    0.175022685825135     
 -3.599999999999999E-003    0.172942154170127     
 -3.499999999999999E-003    0.170607816943941     
 -3.399999999999999E-003    0.168011198086724     
 -3.299999999999999E-003    0.165143759004350     
 -3.199999999999999E-003    0.161996910659984     
 -3.099999999999999E-003    0.158562014623891     
 -2.999999999999999E-003    0.154830408682576     
 -2.899999999999999E-003    0.150793372466787     
 -2.799999999999999E-003    0.146442181179271     
 -2.699999999999999E-003    0.141768082511548     
 -2.599999999999999E-003    0.136762336505895     
 -2.499999999999999E-003    0.131416202169888     
 -2.399999999999999E-003    0.125720954722859     
 -2.299999999999999E-003    0.119667906872184     
 -2.199999999999999E-003    0.113248420587801     
 -2.099999999999999E-003    0.106453915134169     
 -1.999999999999999E-003    9.927588153310012E-002
 -1.899999999999999E-003    9.170589767382696E-002
 -1.799999999999999E-003    8.373564297348805E-002
 -1.699999999999999E-003    7.535690947351058E-002
 -1.599999999999999E-003    6.656161063938920E-002
 -1.499999999999999E-003    5.734180188478889E-002
 -1.399999999999999E-003    4.768968181404618E-002
 -1.299999999999999E-003    3.759761691202837E-002
 -1.199999999999999E-003    2.705813307308888E-002
 -1.099999999999999E-003    1.606394888020486E-002
 -9.999999999999989E-004    4.607993988415241E-003
 -8.999999999999990E-004   -7.316603175826736E-003
 -7.999999999999990E-004   -1.971646871701919E-002
 -6.999999999999989E-004   -3.259801810401768E-002
 -5.999999999999990E-004   -4.596735857368252E-002
 -4.999999999999989E-004   -5.983033421805934E-002
 -3.999999999999989E-004   -7.419248278068941E-002
 -2.999999999999989E-004   -8.905903433829691E-002
 -1.999999999999989E-004   -0.104434844424409     
 -9.999999999999892E-005   -0.120324456155434     
  1.084202172485504E-018   -0.136732042715968     
  1.000000000000011E-004   -0.153661371968127     
  2.000000000000011E-004   -0.171115781632909     
  3.000000000000011E-004   -0.189098248374942     
  4.000000000000011E-004   -0.207611271161307     
  5.000000000000011E-004   -0.226656932723072     
  6.000000000000011E-004   -0.246236821115439     
  7.000000000000011E-004   -0.266352081161457     
  8.000000000000011E-004   -0.287003400187014     
  9.000000000000012E-004   -0.308190857906182     
  1.000000000000001E-003   -0.329914129409858     
  1.100000000000001E-003   -0.352172278259958     
  1.200000000000001E-003   -0.374963848208291     
  1.300000000000001E-003   -0.398286799299277     
  1.400000000000001E-003   -0.422138496049714     
  1.500000000000001E-003   -0.446515704395511     
  1.600000000000001E-003   -0.471414549306756     
  1.700000000000001E-003   -0.496830587512674     
  1.800000000000001E-003   -0.522758670428876     
  1.900000000000001E-003   -0.549192972336550     
  2.000000000000001E-003   -0.576127083443154     
  2.100000000000001E-003   -0.603553780165090     
  2.200000000000001E-003   -0.631465277772119     
  2.300000000000001E-003   -0.659852994490628     
  2.400000000000001E-003   -0.688707734988985     
  2.500000000000001E-003   -0.718019551911491     
  2.600000000000001E-003   -0.747777734262049     
  2.700000000000001E-003   -0.777970903143275     
  2.800000000000001E-003   -0.808586928951017     
  2.900000000000001E-003   -0.839612924905164     
  3.000000000000001E-003   -0.871035260553780     
  3.100000000000001E-003   -0.902839661097198     
  3.200000000000001E-003   -0.935010896105786     
  3.300000000000001E-003   -0.967533100633166     
  3.400000000000001E-003    -1.00038972070418     
  3.500000000000001E-003    -1.03356318466022     
  3.600000000000001E-003    -1.06703529016000     
  3.700000000000001E-003    -1.10078715152849     
  3.800000000000001E-003    -1.13479891158805     
  3.900000000000001E-003    -1.16905017131602     
  4.000000000000001E-003    -1.20351958132943     
  4.100000000000001E-003    -1.23818524637547     
  4.200000000000001E-003    -1.27302435597917     
  4.300000000000001E-003    -1.30801347109079     
  4.400000000000001E-003    -1.34312849048991     
  4.500000000000001E-003    -1.37834436653487     
  4.600000000000002E-003    -1.41363560889310     
  4.700000000000001E-003    -1.44897591564683     
  4.800000000000001E-003    -1.48433838131828     
  4.900000000000002E-003    -1.51969545815959     
  5.000000000000001E-003    -1.55501880933692     
  5.100000000000001E-003    -1.59027956918268     
  5.200000000000001E-003    -1.62544825856124     
  5.300000000000002E-003    -1.66049469836917     
  5.400000000000001E-003    -1.69538832277736     
  5.500000000000001E-003    -1.73009784532061     
  5.600000000000002E-003    -1.76459149910293     
  5.700000000000001E-003    -1.79883699416882     
  5.800000000000001E-003    -1.83280175814226     
  5.900000000000002E-003    -1.86645240780000     
  6.000000000000001E-003    -1.89975542686254     
  6.100000000000001E-003    -1.93267670628910     
  6.200000000000002E-003    -1.96518203715311     
  6.300000000000002E-003    -1.99723663534916     
  6.400000000000001E-003    -2.02880566318110     
  6.500000000000001E-003    -2.05985368395986     
  6.600000000000002E-003    -2.09034529674056     
  6.700000000000001E-003    -2.12024477929652     
  6.800000000000001E-003    -2.14951641647778     
  6.900000000000002E-003    -2.17812430693303     
  7.000000000000001E-003    -2.20603229208944     
  7.100000000000001E-003    -2.23320431578948     
  7.200000000000002E-003    -2.25960429677477     
  7.300000000000002E-003    -2.28519609052280     
  7.400000000000001E-003    -2.30994370968184     
  7.500000000000001E-003    -2.33381122746717     
  7.600000000000002E-003    -2.35676295174904     
  7.700000000000001E-003    -2.37876332340265     
  7.800000000000001E-003    -2.39977706740756     
  7.900000000000001E-003    -2.41976913518740     
  8.000000000000002E-003    -2.43870477005423     
  8.100000000000001E-003    -2.45654972639976     
  8.200000000000001E-003    -2.47327024726504     
  8.300000000000002E-003    -2.48883267206698     
  8.400000000000001E-003    -2.50320429670210     
  8.500000000000002E-003    -2.51635282081098     
  8.600000000000002E-003    -2.52824638956424     
  8.700000000000001E-003    -2.53885407019606     
  8.800000000000002E-003    -2.54814541991346     
  8.900000000000002E-003    -2.55609090281129     
  9.000000000000001E-003    -2.56266130250548     
  9.100000000000002E-003    -2.56782877213876     
  9.200000000000002E-003    -2.57156618015083     
  9.300000000000001E-003    -2.57384726119632     
  9.400000000000002E-003    -2.57464658592943     
  9.500000000000001E-003    -2.57393997871547     
  9.600000000000001E-003    -2.57170402931248     
  9.700000000000002E-003    -2.56791647492750     
  9.800000000000001E-003    -2.56255643323070     
  9.900000000000001E-003    -2.55560404018959     
  1.000000000000000E-002    -2.54704061350209     
  1.010000000000000E-002    -2.53684867664053     
  1.020000000000000E-002    -2.52501189706700     
  1.030000000000000E-002    -2.51151552509892     
  1.040000000000000E-002    -2.49634642150896     
  1.050000000000000E-002    -2.47949211339536     
  1.060000000000000E-002    -2.46094209669516     
  1.070000000000000E-002    -2.44068706292403     
  1.080000000000000E-002    -2.41871935655561     
  1.090000000000000E-002    -2.39503265076196     
  1.100000000000000E-002    -2.36962217239811     
  1.110000000000000E-002    -2.34248470866095     
  1.120000000000000E-002    -2.31361879550813     
  1.130000000000000E-002    -2.28302427149865     
  1.140000000000000E-002    -2.25070286227078     
  1.150000000000000E-002    -2.21665761031935     
  1.160000000000000E-002    -2.18089354421350     
  1.170000000000000E-002    -2.14341709473735     
  1.180000000000000E-002    -2.10423650503877     
  1.190000000000000E-002    -2.06336163559405     
  1.200000000000000E-002    -2.02080411899872     
  1.210000000000000E-002    -1.97657729658133     
  1.220000000000000E-002    -1.93069616263029     
  1.230000000000000E-002    -1.88317737480709     
  1.240000000000000E-002    -1.83403939607740     
  1.250000000000000E-002    -1.78330235523452     
  1.260000000000000E-002    -1.73098799594657     
  1.270000000000000E-002    -1.67711987902910     
  1.280000000000000E-002    -1.62172308041839     
  1.290000000000000E-002    -1.56482433963716     
  1.300000000000000E-002    -1.50645223961034     
  1.310000000000000E-002    -1.44663681215154     
  1.320000000000000E-002    -1.38540965886429     
  1.330000000000000E-002    -1.32280419461931     
  1.340000000000000E-002    -1.25885515665137     
  1.350000000000000E-002    -1.19359896504642     
  1.360000000000000E-002    -1.12707351263385     
  1.370000000000000E-002    -1.05931814999930     
  1.380000000000000E-002   -0.990373794980113     
  1.390000000000000E-002   -0.920282757231725     
  1.400000000000000E-002   -0.849088781835407     
  1.410000000000000E-002   -0.776836877443747     
  1.420000000000000E-002   -0.703573377229410     
  1.430000000000000E-002   -0.629345920432676     
  1.440000000000000E-002   -0.554203337720999     
  1.450000000000000E-002   -0.478195737651697     
  1.460000000000000E-002   -0.401374193271452     
  1.470000000000000E-002   -0.323790964594498     
  1.480000000000000E-002   -0.245499289560768     
  1.490000000000000E-002   -0.166553453060103     
  1.500000000000000E-002   -8.700848936468168E-002
  1.510000000000000E-002   -6.920520334467505E-003
  1.520000000000000E-002    7.365372280406170E-002
  1.530000000000000E-002    0.154656570702191     
  1.540000000000000E-002    0.236029817673603     
  1.550000000000000E-002    0.317714488550411     
  1.560000000000000E-002    0.399651120530923     
  1.570000000000000E-002    0.481779666364041     
  1.580000000000000E-002    0.564039696697873     
  1.590000000000000E-002    0.646370227857203     
  1.600000000000000E-002    0.728710134488353     
  1.610000000000000E-002    0.810997906277293     
  1.620000000000000E-002    0.893171927247266     
  1.630000000000000E-002    0.975170456935206     
  1.640000000000000E-002     1.05693170505262     
  1.650000000000000E-002     1.13839376928231     
  1.660000000000000E-002     1.21949507903216     
  1.670000000000000E-002     1.30017403180363     
  1.680000000000000E-002     1.38036933253269     
  1.690000000000000E-002     1.46001976230489     
  1.700000000000000E-002     1.53906491663997     
  1.710000000000000E-002     1.61744438771398     
  1.720000000000000E-002     1.69509853974045     
  1.730000000000000E-002     1.77196819029135     
  1.740000000000000E-002     1.84799456606308     
  1.750000000000000E-002     1.92311982125866     
  1.760000000000000E-002     1.99728664726106     
  1.770000000000000E-002     2.07043881088146     
  1.780000000000000E-002     2.14252076369870     
  1.790000000000000E-002     2.21347771780540     
  1.800000000000000E-002     2.28325630198889     
  1.810000000000000E-002     2.35180391697983     
  1.820000000000000E-002     2.41906901274589     
  1.830000000000000E-002     2.48500135913354     
  1.840000000000000E-002     2.54955187919333     
  1.850000000000000E-002     2.61267295283020     
  1.860000000000000E-002     2.67431813587825     
  1.870000000000000E-002     2.73444254672829     