 -4.000000000000000E-002    0.000000000000000E+000
 -3.990000000000000E-002    0.000000000000000E+000
 -3.980000000000000E-002    0.000000000000000E+000
 -3.970000000000000E-002    0.000000000000000E+000
 -3.960000000000000E-002    0.000000000000000E+000
 -3.950000000000000E-002    0.000000000000000E+000
 -3.940000000000000E-002    0.000000000000000E+000
 -3.930000000000000E-002    0.000000000000000E+000
 -3.920000000000000E-002    0.000000000000000E+000
 -3.910000000000000E-002    0.000000000000000E+000
 -3.900000000000000E-002    0.000000000000000E+000
 -3.890000000000000E-002    0.000000000000000E+000
 -3.880000000000000E-002    0.000000000000000E+000
 -3.870000000000000E-002    0.000000000000000E+000
 -3.860000000000000E-002    0.000000000000000E+000
 -3.850000000000000E-002    0.000000000000000E+000
 -3.840000000000000E-002    0.000000000000000E+000
 -3.830000000000000E-002    0.000000000000000E+000
 -3.820000000000000E-002    0.000000000000000E+000
 -3.810000000000000E-002    0.000000000000000E+000
 -3.800000000000000E-002    0.000000000000000E+000
 -3.790000000000000E-002    0.000000000000000E+000
 -3.780000000000000E-002    0.000000000000000E+000
 -3.770000000000000E-002    0.000000000000000E+000
 -3.760000000000000E-002    0.000000000000000E+000
 -3.750000000000000E-002    0.000000000000000E+000
 -3.740000000000000E-002    0.000000000000000E+000
 -3.730000000000000E-002    0.000000000000000E+000
 -3.720000000000000E-002    0.000000000000000E+000
 -3.710000000000000E-002    0.000000000000000E+000
 -3.700000000000000E-002    0.000000000000000E+000
 -3.690000000000000E-002    0.000000000000000E+000
 -3.680000000000000E-002    0.000000000000000E+000
 -3.670000000000000E-002    0.000000000000000E+000
 -3.660000000000000E-002    0.000000000000000E+000
 -3.650000000000000E-002    0.000000000000000E+000
 -3.640000000000000E-002    0.000000000000000E+000
 -3.630000000000000E-002    0.000000000000000E+000
 -3.620000000000000E-002    0.000000000000000E+000
 -3.610000000000000E-002    0.000000000000000E+000
 -3.600000000000000E-002    0.000000000000000E+000
 -3.590000000000000E-002    0.000000000000000E+000
 -3.580000000000000E-002    0.000000000000000E+000
 -3.570000000000000E-002    0.000000000000000E+000
 -3.560000000000000E-002    0.000000000000000E+000
 -3.550000000000000E-002    0.000000000000000E+000
 -3.540000000000000E-002    0.000000000000000E+000
 -3.530000000000000E-002    0.000000000000000E+000
 -3.520000000000000E-002    0.000000000000000E+000
 -3.510000000000000E-002    0.000000000000000E+000
 -3.500000000000000E-002    0.000000000000000E+000
 -3.490000000000000E-002    0.000000000000000E+000
 -3.480000000000000E-002    0.000000000000000E+000
 -3.470000000000000E-002    0.000000000000000E+000
 -3.460000000000000E-002   -1.625160487887432E-046
 -3.450000000000000E-002   -4.635829143062914E-046
 -3.440000000000000E-002   -1.211328527380556E-045
 -3.430000000000000E-002   -2.870634083604479E-045
 -3.420000000000000E-002   -6.055368485134517E-045
 -3.410000000000000E-002   -1.173460818712126E-044
 -3.400000000000000E-002   -2.154709346777143E-044
 -3.390000000000000E-002   -3.632619181341892E-044
 -3.380000000000000E-002   -5.801114232501379E-044
 -3.370000000000000E-002   -8.506683758079769E-044
 -3.360000000000000E-002   -1.071591192957223E-043
 -3.350000000000000E-002   -1.058002802934275E-043
 -3.340000000000000E-002   -3.575613407516338E-044
 -3.330000000000000E-002    1.902973916859326E-043
 -3.320000000000000E-002    7.210047965056535E-043
 -3.310000000000000E-002    1.792950931697045E-042
 -3.300000000000000E-002    3.752811217951999E-042
 -3.290000000000000E-002    7.047448627318697E-042
 -3.280000000000000E-002    1.216235386287404E-041
 -3.270000000000000E-002    1.944645008421244E-041
 -3.260000000000000E-002    2.873421835684978E-041
 -3.250000000000000E-002    3.866766673010559E-041
 -3.240000000000000E-002    4.559632860038716E-041
 -3.230000000000000E-002    4.195413032211716E-041
 -3.220000000000000E-002    1.412137001642064E-041
 -3.210000000000000E-002   -6.002528572214500E-041
 -3.200000000000000E-002   -2.132580648887339E-040
 -3.190000000000000E-002   -4.896062897115563E-040
 -3.180000000000000E-002   -9.412825503697904E-040
 -3.170000000000000E-002   -1.618617416326682E-039
 -3.160000000000000E-002   -2.548459630517330E-039
 -3.150000000000000E-002   -3.695471313565117E-039
 -3.140000000000000E-002   -4.900642002083773E-039
 -3.130000000000000E-002   -5.793113135753264E-039
 -3.120000000000000E-002   -5.676448286547821E-039
 -3.110000000000000E-002   -3.400510650256516E-039
 -3.100000000000000E-002    2.753066042183937E-039
 -3.090000000000000E-002    1.511901822630435E-038
 -3.080000000000000E-002    3.654455120081354E-038
 -3.070000000000000E-002    7.000960745012198E-038
 -3.060000000000000E-002    1.178110334508528E-037
 -3.050000000000000E-002    1.801285494055927E-037
 -3.040000000000000E-002    2.528037887013170E-037
 -3.030000000000000E-002    3.242414003411008E-037
 -3.020000000000000E-002    3.715180404255128E-037
 -3.010000000000000E-002    3.561006298186956E-037
 -3.000000000000000E-002    2.200586784880450E-037
 -2.990000000000000E-002   -1.156813576035528E-037
 -2.980000000000000E-002   -7.486839920895041E-037
 -2.970000000000000E-002   -1.784748008281670E-036
 -2.960000000000000E-002   -3.316142845790564E-036
 -2.950000000000000E-002   -5.384221465979770E-036
 -2.940000000000000E-002   -7.923013000756493E-036
 -2.930000000000000E-002   -1.068262016671065E-035
 -2.920000000000000E-002   -1.313561069817814E-035
 -2.910000000000000E-002   -1.437663722519365E-035
 -2.900000000000000E-002   -1.303555464657953E-035
 -2.890000000000000E-002   -7.237075631407741E-036
 -2.880000000000000E-002    5.345631635495961E-036
 -2.870000000000000E-002    2.728244210620252E-035
 -2.860000000000000E-002    6.095311681811519E-035
 -2.850000000000000E-002    1.078214376493035E-034
 -2.840000000000000E-002    1.673681176745737E-034
 -2.830000000000000E-002    2.356794740982054E-034
 -2.820000000000000E-002    3.037681502299007E-034
 -2.810000000000000E-002    3.558206768881943E-034
 -2.800000000000000E-002    3.677236781274860E-034
 -2.790000000000000E-002    3.064067140608088E-034
 -2.780000000000000E-002    1.307323910494841E-034
 -2.770000000000000E-002   -2.051776402341478E-034
 -2.760000000000000E-002   -7.452248728008656E-034
 -2.750000000000000E-002   -1.520371611391952E-033
 -2.740000000000000E-002   -2.532939504124282E-033
 -2.730000000000000E-002   -3.736381320411902E-033
 -2.720000000000000E-002   -5.011852788909362E-033
 -2.710000000000000E-002   -6.144470194232374E-033
 -2.700000000000000E-002   -6.804063600380113E-033
 -2.690000000000000E-002   -6.537361442281930E-033
 -2.680000000000000E-002   -4.780536006202702E-033
 -2.670000000000000E-002   -9.023913453375583E-034
 -2.660000000000000E-002    5.711471980630058E-033
 -2.650000000000000E-002    1.552523469344604E-032
 -2.640000000000000E-002    2.866689525075727E-032
 -2.630000000000000E-002    4.469509497338113E-032
 -2.620000000000000E-002    6.233672850646253E-032
 -2.610000000000000E-002    7.922976156292062E-032
 -2.600000000000000E-002    9.172471775941963E-032
 -2.590000000000000E-002    9.481778434349979E-032
 -2.580000000000000E-002    8.230453694321829E-032
 -2.570000000000000E-002    4.725098829770458E-032
 -2.560000000000000E-002   -1.712809952195293E-032
 -2.550000000000000E-002   -1.161215828900978E-031
 -2.540000000000000E-002   -2.516982421017825E-031
 -2.530000000000000E-002   -4.202866421218387E-031
 -2.520000000000000E-002   -6.103560945316981E-031
 -2.510000000000000E-002   -8.001396331008565E-031
 -2.500000000000000E-002   -9.559956268412659E-031
 -2.490000000000000E-002   -1.032047108012880E-030
 -2.480000000000000E-002   -9.718395319379220E-031
 -2.470000000000000E-002   -7.127688873753469E-031
 -2.460000000000000E-002   -1.939162640361890E-031
 -2.450000000000000E-002    6.323710291748738E-031
 -2.440000000000000E-002    1.785315539990550E-030
 -2.430000000000000E-002    3.237854188394111E-030
 -2.420000000000000E-002    4.897907660667029E-030
 -2.410000000000000E-002    6.591644993806835E-030
 -2.400000000000000E-002    8.052666075082549E-030
 -2.390000000000000E-002    8.921881125999813E-030
 -2.380000000000000E-002    8.763296852213792E-030
 -2.370000000000000E-002    7.100615668864708E-030
 -2.360000000000000E-002    3.478251090513425E-030
 -2.350000000000000E-002   -2.452181068538209E-030
 -2.340000000000000E-002   -1.082275890597063E-029
 -2.330000000000000E-002   -2.142562879099909E-029
 -2.320000000000000E-002   -3.358918659379224E-029
 -2.310000000000000E-002   -4.607496834666844E-029
 -2.300000000000000E-002   -5.702212675800454E-029
 -2.290000000000000E-002   -6.397038914073657E-029
 -2.280000000000000E-002   -6.399292971183118E-029
 -2.270000000000000E-002   -5.396598963293539E-029
 -2.260000000000000E-002   -3.099089607175253E-029
 -2.250000000000000E-002    7.034590071096113E-030
 -2.240000000000000E-002    6.072498734288785E-029
 -2.230000000000000E-002    1.284580796760627E-028
 -2.220000000000000E-002    2.056666525567533E-028
 -2.210000000000000E-002    2.843048800125619E-028
 -2.200000000000000E-002    3.526512914249860E-028
 -2.190000000000000E-002    3.956230301343068E-028
 -2.180000000000000E-002    3.957653750980776E-028
 -2.170000000000000E-002    3.350383135525749E-028
 -2.160000000000000E-002    1.974417984929498E-028
 -2.150000000000000E-002   -2.759775814060688E-029
 -2.140000000000000E-002   -3.413133501954018E-028
 -2.130000000000000E-002   -7.315690391290088E-028
 -2.120000000000000E-002   -1.169317532328511E-027
 -2.110000000000000E-002   -1.606305799703174E-027
 -2.100000000000000E-002   -1.974897211653109E-027
 -2.090000000000000E-002   -2.190881597709783E-027
 -2.080000000000000E-002   -2.160014769824529E-027
 -2.070000000000000E-002   -1.788725423002413E-027
 -2.060000000000000E-002   -9.989329040004436E-028
 -2.050000000000000E-002    2.537494537480678E-028
 -2.040000000000000E-002    1.959971138907259E-027
 -2.030000000000000E-002    4.037188991559866E-027
 -2.020000000000000E-002    6.314064557167104E-027
 -2.010000000000000E-002    8.522617039770527E-027
 -2.000000000000000E-002    1.030229659754061E-026
 -1.990000000000000E-002    1.121985606730979E-026
 -1.980000000000000E-002    1.080788252170205E-026
 -1.970000000000000E-002    8.623036567940813E-027
 -1.960000000000000E-002    4.322365297754897E-027
 -1.950000000000000E-002   -2.247304209769088E-027
 -1.940000000000000E-002   -1.095575516101048E-026
 -1.930000000000000E-002   -2.130427226122168E-026
 -1.920000000000000E-002   -3.236505811310864E-026
 -1.910000000000000E-002   -4.276323456405195E-026
 -1.900000000000000E-002   -5.071948362145117E-026
 -1.890000000000000E-002   -5.416858467358331E-026
 -1.880000000000000E-002   -5.096310235939863E-026
 -1.870000000000000E-002   -3.916179748432608E-026
 -1.860000000000000E-002   -1.738952708957280E-026
 -1.850000000000000E-002    1.475994355484548E-026
 -1.840000000000000E-002    5.632313976682672E-026
 -1.830000000000000E-002    1.046281719050365E-025
 -1.820000000000000E-002    1.550895394659177E-025
 -1.810000000000000E-002    2.012123003932092E-025
 -1.800000000000000E-002    2.348764531363843E-025
 -1.790000000000000E-002    2.469545448827201E-025
 -1.780000000000000E-002    2.282845023819418E-025
 -1.770000000000000E-002    1.709749165028645E-025
 -1.760000000000000E-002    6.996353084330385E-026
 -1.750000000000000E-002   -7.531282235152073E-026
 -1.740000000000000E-002   -2.593417913138987E-025
 -1.730000000000000E-002   -4.693103165701729E-025
 -1.720000000000000E-002   -6.845209466314466E-025
 -1.710000000000000E-002   -8.767412270442879E-025
 -1.700000000000000E-002   -1.011735561826625E-024
 -1.690000000000000E-002   -1.052139784677590E-024
 -1.680000000000000E-002   -9.616956474484206E-025
 -1.670000000000000E-002   -7.106742020600047E-025
 -1.660000000000000E-002   -2.820934279097192E-025
 -1.650000000000000E-002    3.218998852782588E-025
 -1.640000000000000E-002    1.074332789904339E-024
 -1.630000000000000E-002    1.919406329226519E-024
 -1.620000000000000E-002    2.771274976852733E-024
 -1.610000000000000E-002    3.516627068113063E-024
 -1.600000000000000E-002    4.021859152981390E-024
 -1.590000000000000E-002    4.145233253591432E-024
 -1.580000000000000E-002    3.753822323699764E-024
 -1.570000000000000E-002    2.744326379530456E-024
 -1.560000000000000E-002    1.066019965722098E-024
 -1.550000000000000E-002   -1.256701750306890E-024
 -1.540000000000000E-002   -4.105415020056511E-024
 -1.530000000000000E-002   -7.256056722444036E-024
 -1.520000000000000E-002   -1.037833392795118E-023
 -1.510000000000000E-002   -1.304941716348896E-023
 -1.500000000000000E-002   -1.478415881267221E-023
 -1.490000000000000E-002   -1.508243554929273E-023
 -1.480000000000000E-002   -1.349204066935355E-023
 -1.470000000000000E-002   -9.682961740271922E-024
 -1.460000000000000E-002   -3.526178162740852E-024
 -1.450000000000000E-002    4.832444931211077E-024
 -1.440000000000000E-002    1.491453649616818E-023
 -1.430000000000000E-002    2.588016188519173E-023
 -1.420000000000000E-002    3.653913011971857E-023
 -1.410000000000000E-002    4.541225606766146E-023
 -1.400000000000000E-002    5.084795545044519E-023
 -1.390000000000000E-002    5.119359803673706E-023
 -1.380000000000000E-002    4.501353201580713E-023
 -1.370000000000000E-002    3.133714032723407E-023
 -1.360000000000000E-002    9.911936902183155E-024
 -1.350000000000000E-002   -1.857067650828641E-023
 -1.340000000000000E-002   -5.231422790446629E-023
 -1.330000000000000E-002   -8.835901605172782E-023
 -1.320000000000000E-002   -1.226617047368656E-022
 -1.310000000000000E-002   -1.503381185091879E-022
 -1.300000000000000E-002   -1.660796344881643E-022
 -1.290000000000000E-002   -1.647332617356618E-022
 -1.280000000000000E-002   -1.420111378222842E-022
 -1.270000000000000E-002   -9.526954731045752E-023
 -1.260000000000000E-002   -2.427310083426195E-023
 -1.250000000000000E-002    6.815968796567081E-023
 -1.240000000000000E-002    1.757435582747854E-022
 -1.230000000000000E-002    2.886586574777235E-022
 -1.220000000000000E-002    3.939226189547364E-022
 -1.210000000000000E-002    4.762634604977044E-022
 -1.200000000000000E-002    5.195040446410043E-022
 -1.190000000000000E-002    5.084045545133941E-022
 -1.180000000000000E-002    4.308373069953280E-022
 -1.170000000000000E-002    2.800939795608283E-022
 -1.160000000000000E-002    5.706060875207663E-023
 -1.150000000000000E-002   -2.280511080548209E-022
 -1.140000000000000E-002   -5.547446493646724E-022
 -1.130000000000000E-002   -8.923582856539228E-022
 -1.120000000000000E-002   -1.201504393010643E-021
 -1.110000000000000E-002   -1.436955621232107E-021
 -1.100000000000000E-002   -1.551949678511434E-021
 -1.090000000000000E-002   -1.503696897624262E-021
 -1.080000000000000E-002   -1.259669344153861E-021
 -1.070000000000000E-002   -8.040557041279196E-022
 -1.060000000000000E-002   -1.436015707906037E-022
 -1.050000000000000E-002    6.880427616348036E-022
 -1.040000000000000E-002    1.628355446100979E-021
 -1.030000000000000E-002    2.587143671097694E-021
 -1.020000000000000E-002    3.451473901442760E-021
 -1.010000000000000E-002    4.094545918491478E-021
 -1.000000000000000E-002    4.388277702835284E-021
 -9.899999999999999E-003    4.218844203479245E-021
 -9.800000000000000E-003    3.503878409963298E-021
 -9.699999999999999E-003    2.209549714346928E-021
 -9.599999999999999E-003    3.653613863138021E-022
 -9.500000000000000E-003   -1.925673518347358E-021
 -9.399999999999999E-003   -4.483740857311381E-021
 -9.299999999999999E-003   -7.057709431712404E-021
 -9.200000000000000E-003   -9.340586639738935E-021
 -9.099999999999999E-003   -1.099515292741574E-020
 -8.999999999999999E-003   -1.168875539112078E-020
 -8.900000000000000E-003   -1.113489078802168E-020
 -8.799999999999999E-003   -9.137860816233490E-021
 -8.699999999999999E-003   -5.635637295059135E-021
 -8.600000000000000E-003   -7.352771868310883E-022
 -8.499999999999999E-003    5.265015663828234E-021
 -8.399999999999999E-003    1.187263685381322E-020
 -8.300000000000000E-003    1.842040906809952E-020
 -8.199999999999999E-003    2.411174822690363E-020
 -8.100000000000000E-003    2.809080725292828E-020
 -8.000000000000000E-003    2.953405885977542E-020
 -7.899999999999999E-003    2.775643134202789E-020
 -7.800000000000000E-003    2.232197722988746E-020
 -7.699999999999999E-003    1.314648925777793E-020
 -7.599999999999999E-003    5.779385347268350E-022
 -7.499999999999999E-003   -1.455940121319003E-020
 -7.399999999999999E-003   -3.096969736053542E-020
 -7.299999999999999E-003   -4.694816708169617E-020
 -7.199999999999999E-003   -6.050528231006851E-020
 -7.100000000000000E-003   -6.954956080501338E-020
 -6.999999999999999E-003   -7.211816711720573E-020
 -6.899999999999999E-003   -6.663681744534651E-020
 -6.800000000000000E-003   -5.218324023338856E-020
 -6.699999999999999E-003   -2.872323002184069E-020
 -6.599999999999999E-003    2.714286468272256E-021
 -6.499999999999999E-003    3.995569530342908E-020
 -6.399999999999999E-003    7.972212095019848E-020
 -6.299999999999999E-003    1.178078191474160E-019
 -6.199999999999999E-003    1.494023368617761E-019
 -6.100000000000000E-003    1.695447134577709E-019
 -5.999999999999999E-003    1.736804322490827E-019
 -5.899999999999999E-003    1.582737718172772E-019
 -5.800000000000000E-003    1.214133446309263E-019
 -5.699999999999999E-003    6.333793827532011E-020
 -5.599999999999999E-003   -1.319391078208076E-020
 -5.499999999999999E-003   -1.027623825748726E-019
 -5.399999999999999E-003   -1.974306190830499E-019
 -5.299999999999999E-003   -2.872089264427849E-019
 -5.199999999999999E-003   -3.608417630412540E-019
 -5.099999999999999E-003   -4.068823533733860E-019
 -4.999999999999999E-003   -4.149807373119460E-019
 -4.899999999999999E-003   -3.772723423227400E-019
 -4.799999999999999E-003   -2.897232348048697E-019
 -4.699999999999999E-003   -1.532688904498012E-019
 -4.599999999999999E-003    2.542129872206151E-020
 -4.499999999999999E-003    2.337058040633890E-019
 -4.399999999999999E-003    4.533764631229409E-019
 -4.299999999999999E-003    6.617694006176518E-019
 -4.199999999999999E-003    8.335727299789008E-019
 -4.099999999999999E-003    9.432402126476968E-019
 -3.999999999999999E-003    9.678348536247698E-019
 -3.899999999999999E-003    8.900493872257544E-019
 -3.799999999999999E-003    7.010873594897211E-019
 -3.699999999999999E-003    4.030552353223960E-019
 -3.599999999999999E-003    1.051389448682209E-020
 -3.499999999999999E-003   -4.491201741184085E-019
 -3.399999999999999E-003   -9.365546301945234E-019
 -3.299999999999999E-003   -1.403088387459956E-018
 -3.199999999999999E-003   -1.794522341720256E-018
 -3.099999999999999E-003   -2.056298977062405E-018
 -2.999999999999999E-003   -2.139482945877457E-018
 -2.899999999999999E-003   -2.007039807866655E-018
 -2.799999999999999E-003   -1.639755864354254E-018
 -2.699999999999999E-003   -1.041079087163785E-018
 -2.599999999999999E-003   -2.401771153659977E-019
 -2.499999999999999E-003    7.073959369790976E-019
 -2.399999999999999E-003    1.721857864352612E-018
 -2.299999999999999E-003    2.704356360963328E-018
 -2.199999999999999E-003    3.544994798313605E-018
 -2.099999999999999E-003    4.133252744356734E-018
 -1.999999999999999E-003    4.369987143907827E-018
 -1.899999999999999E-003    4.179909986023971E-018
 -1.799999999999999E-003    3.523226723522407E-018
 -1.699999999999999E-003    2.405018472385534E-018
 -1.599999999999999E-003    8.810096723787834E-019
 -1.499999999999999E-003   -9.414273917144790E-019
 -1.399999999999999E-003   -2.907820114589687E-018
 -1.299999999999999E-003   -4.826955165586144E-018
 -1.199999999999999E-003   -6.486729969072789E-018
 -1.099999999999999E-003   -7.674484452438982E-018
 -9.999999999999989E-004   -8.200196391838594E-018
 -8.999999999999990E-004   -7.920357765516940E-018
 -7.999999999999990E-004   -6.759993885908610E-018
 -6.999999999999989E-004   -4.730130448556065E-018
 -5.999999999999990E-004   -1.938156817036767E-018
 -4.999999999999989E-004    1.411017735461863E-018
 -3.999999999999989E-004    5.024402012399587E-018
 -2.999999999999989E-004    8.541336944602916E-018
 -1.999999999999989E-004    1.156411239193454E-017
 -9.999999999999892E-005    1.369680480038980E-017
  1.084202172485504E-018    1.458913393690495E-017
  1.000000000000011E-004    1.398119794662866E-017
  2.000000000000011E-004    1.174426318954313E-017
  3.000000000000011E-004    7.912608011194686E-018
  4.000000000000011E-004    2.701702347744969E-018
  5.000000000000011E-004   -3.491102845798835E-018
  6.000000000000011E-004   -1.010579478105106E-017
  7.000000000000011E-004   -1.645939044011004E-017
  8.000000000000011E-004   -2.180450030918419E-017
  9.000000000000012E-004   -2.540290351116444E-017
  1.000000000000001E-003   -2.660807602317824E-017
  1.100000000000001E-003   -2.494891008207216E-017
  1.200000000000001E-003   -2.020564054614014E-017
  1.300000000000001E-003   -1.246872234765889E-017
  1.400000000000001E-003   -2.171948331400236E-018
  1.500000000000001E-003    9.907202146424686E-018
  1.600000000000001E-003    2.268443585674683E-017
  1.700000000000001E-003    3.484370385637618E-017
  1.800000000000001E-003    4.494752936159669E-017
  1.900000000000001E-003    5.157547467979936E-017
  2.000000000000001E-003    5.347965237603516E-017
  2.100000000000001E-003    4.974303387289075E-017
  2.200000000000001E-003    3.992399858618992E-017
  2.300000000000001E-003    2.417005234427227E-017
  2.400000000000001E-003    3.284511703027101E-018
  2.500000000000001E-003   -2.126705658667718E-017
  2.600000000000001E-003   -4.741925403377154E-017
  2.700000000000001E-003   -7.264066701707831E-017
  2.800000000000001E-003   -9.413441612606222E-017
  2.900000000000001E-003   -1.090932873563180E-016
  3.000000000000001E-003   -1.149899696661443E-016
  3.100000000000001E-003   -1.098769094379708E-016
  3.200000000000001E-003   -9.266599348868835E-017
  3.300000000000001E-003   -6.335664720655833E-017
  3.400000000000001E-003   -2.318232678778538E-017
  3.500000000000001E-003    2.535006619704893E-017
  3.600000000000001E-003    7.854540608586522E-017
  3.700000000000001E-003    1.317372199862188E-016
  3.800000000000001E-003    1.796307509964187E-016
  3.900000000000001E-003    2.167530437616438E-016
  4.000000000000001E-003    2.379777909592323E-016
  4.100000000000001E-003    2.390811189289070E-016
  4.200000000000001E-003    2.172760784838045E-016
  4.300000000000001E-003    1.716694586035592E-016
  4.400000000000001E-003    1.035856163352725E-016
  4.500000000000001E-003    1.670890912126327E-017
  4.600000000000002E-003   -8.299128159604313E-017
  4.700000000000001E-003   -1.875710306495197E-016
  4.800000000000001E-003   -2.876549239804930E-016
  4.900000000000002E-003   -3.731843361575114E-016
  5.000000000000001E-003   -4.343204113667333E-016
  5.100000000000001E-003   -4.624294280034702E-016
  5.200000000000001E-003   -4.510621752810114E-016
  5.300000000000002E-003   -3.968286671526466E-016
  5.400000000000001E-003   -3.000696770982937E-016
  5.500000000000001E-003   -1.652352504648130E-016
  5.600000000000002E-003   -8.998493227524981E-019
  5.700000000000001E-003    1.806276241871688E-016
  5.800000000000001E-003    3.641044759082117E-016
  5.900000000000002E-003    5.325309244044650E-016
  6.000000000000001E-003    6.686251524613235E-016
  6.100000000000001E-003    7.564824442941245E-016
  6.200000000000002E-003    7.832712612156351E-016
  6.300000000000002E-003    7.407999750818195E-016
  6.400000000000001E-003    6.267829799276494E-016
  6.500000000000001E-003    4.456470808138903E-016
  6.600000000000002E-003    2.087476526476109E-016
  6.700000000000001E-003   -6.608856991679381E-017
  6.800000000000001E-003   -3.557181226683744E-016
  6.900000000000002E-003   -6.334885223669665E-016
  7.000000000000001E-003   -8.715808560637813E-016
  7.100000000000001E-003   -1.043704784256020E-015
  7.200000000000002E-003   -1.127903702914197E-015
  7.300000000000002E-003   -1.109192891720421E-015
  7.400000000000001E-003   -9.817408212202092E-016
  7.500000000000001E-003   -7.503183475434842E-016
  7.600000000000002E-003   -4.307907981051415E-016
  7.700000000000001E-003   -4.949870164645205E-017
  7.800000000000001E-003    3.585205493085885E-016
  7.900000000000001E-003    7.524079995874280E-016
  8.000000000000002E-003    1.089264384353822E-015
  8.100000000000001E-003    1.328533711147481E-015
  8.200000000000001E-003    1.436588218715707E-015
  8.300000000000002E-003    1.391044907976451E-015
  8.400000000000001E-003    1.184323812450341E-015
  8.500000000000002E-003    8.259838353461106E-016
  8.600000000000002E-003    3.434500078362553E-016
  8.700000000000001E-003   -2.191236126664150E-016
  8.800000000000002E-003   -8.039404942147370E-016
  8.900000000000002E-003   -1.344481732493586E-015
  9.000000000000001E-003   -1.771937862007796E-015
  9.100000000000002E-003   -2.022620325335009E-015
  9.200000000000002E-003   -2.045665989743123E-015
  9.300000000000001E-003   -1.810230382374162E-015
  9.400000000000002E-003   -1.311327870295638E-015
  9.500000000000001E-003   -5.735276244177189E-016
  9.600000000000001E-003    3.481511815752632E-016
  9.700000000000002E-003    1.370570534258208E-015
  9.800000000000001E-003    2.388158915705745E-015
  9.900000000000001E-003    3.281744568256691E-015
  1.000000000000000E-002    3.929946794421010E-015
  1.010000000000000E-002    4.222212120178283E-015
  1.020000000000000E-002    4.072286612957004E-015
  1.030000000000000E-002    3.430726270745855E-015
  1.040000000000000E-002    2.295002762960236E-015
  1.050000000000000E-002    7.158262304769730E-016
  1.060000000000000E-002   -1.201431510741265E-015
  1.070000000000000E-002   -3.300942811902475E-015
  1.080000000000000E-002   -5.386482006406794E-015
  1.090000000000000E-002   -7.236964421276113E-015
  1.100000000000000E-002   -8.626458934780262E-015
  1.110000000000000E-002   -9.347102476835196E-015
  1.120000000000000E-002   -9.232847915722319E-015
  1.130000000000000E-002   -8.181668402105601E-015
  1.140000000000000E-002   -6.173736193156751E-015
  1.150000000000000E-002   -3.283232779196986E-015
  1.160000000000000E-002    3.181312350282618E-016
  1.170000000000000E-002    4.367157718373648E-015
  1.180000000000000E-002    8.525178355349955E-015
  1.190000000000000E-002    1.240347793977416E-014
  1.200000000000000E-002    1.559651641140116E-014
  1.210000000000000E-002    1.772036678732015E-014
  1.220000000000000E-002    1.845300436801075E-014
  1.230000000000000E-002    1.757252813345513E-014
  1.240000000000000E-002    1.498924233551480E-014
  1.250000000000000E-002    1.076773686116790E-014
  1.260000000000000E-002    5.135766618554910E-015
  1.270000000000000E-002   -1.522220490225116E-015
  1.280000000000000E-002   -8.687712417590990E-015
  1.290000000000000E-002   -1.574612237645379E-014
  1.300000000000000E-002   -2.203771924800807E-014
  1.310000000000000E-002   -2.691752595777546E-014
  1.320000000000000E-002   -2.981897765894037E-014
  1.330000000000000E-002   -3.031525487009610E-014
  1.340000000000000E-002   -2.817194095465962E-014
  1.350000000000000E-002   -2.338499823629863E-014
  1.360000000000000E-002   -1.619905333770114E-014
  1.370000000000000E-002   -7.102560982463130E-015
  1.380000000000000E-002    3.201477283898446E-015
  1.390000000000000E-002    1.384818940644442E-014
  1.400000000000000E-002    2.388338592093053E-014
  1.410000000000000E-002    3.235015757348092E-014
  1.420000000000000E-002    3.838180049533633E-014
  1.430000000000000E-002    4.129211425901578E-014
  1.440000000000000E-002    4.065381718297283E-014
  1.450000000000000E-002    3.635618386690702E-014
  1.460000000000000E-002    2.863469591363794E-014
  1.470000000000000E-002    1.806774311781407E-014
  1.480000000000000E-002    5.538598948398833E-015
  1.490000000000000E-002   -7.835897628603036E-015
  1.500000000000000E-002   -2.080457400845762E-014
  1.510000000000000E-002   -3.210078783976358E-014
  1.520000000000000E-002   -4.056983959743379E-014
  1.530000000000000E-002   -4.529226572775610E-014
  1.540000000000000E-002   -4.568995622622556E-014
  1.550000000000000E-002   -4.160291345131309E-014
  1.560000000000000E-002   -3.332681683798558E-014
  1.570000000000000E-002   -2.160507227845000E-014
  1.580000000000000E-002   -7.573271132616531E-015
  1.590000000000000E-002    7.340933591859111E-015
  1.600000000000000E-002    2.155475996542670E-014
  1.610000000000000E-002    3.349160790230575E-014
  1.620000000000000E-002    4.175141715286985E-014
  1.630000000000000E-002    4.527198513911704E-014
  1.640000000000000E-002    4.346383383381488E-014
  1.650000000000000E-002    3.630209882253138E-014
  1.660000000000000E-002    2.436306940270937E-014
  1.670000000000000E-002    8.797649237248720E-015
  1.680000000000000E-002   -8.759413275989436E-015
  1.690000000000000E-002   -2.633897780814107E-014
  1.700000000000000E-002   -4.183358949037365E-014
  1.710000000000000E-002   -5.322196411594924E-014
  1.720000000000000E-002   -5.879964704100708E-014
  1.730000000000000E-002   -5.739145369406608E-014
  1.740000000000000E-002   -4.852139111241236E-014
  1.750000000000000E-002   -3.251891577349313E-014
  1.760000000000000E-002   -1.054560101464170E-014
  1.770000000000000E-002    1.546636391051239E-014
  1.780000000000000E-002    4.296318981266600E-014
  1.790000000000000E-002    6.899669617322612E-014
  1.800000000000000E-002    9.051065493516438E-014
  1.810000000000000E-002    1.046603404975120E-013
  1.820000000000000E-002    1.091334714324583E-013
  1.830000000000000E-002    1.024393788869174E-013
  1.840000000000000E-002    8.413277462707618E-014
  1.850000000000000E-002    5.494512427217175E-014
  1.860000000000000E-002    1.680280625179932E-014
  1.870000000000000E-002   -2.727718851926376E-014