 -4.000000000000000E-002    0.000000000000000E+000
 -3.990000000000000E-002    0.000000000000000E+000
 -3.980000000000000E-002    0.000000000000000E+000
 -3.970000000000000E-002    0.000000000000000E+000
 -3.960000000000000E-002    0.000000000000000E+000
 -3.950000000000000E-002    0.000000000000000E+000
 -3.940000000000000E-002    0.000000000000000E+000
 -3.930000000000000E-002    0.000000000000000E+000
 -3.920000000000000E-002    0.000000000000000E+000
 -3.910000000000000E-002    0.000000000000000E+000
 -3.900000000000000E-002    0.000000000000000E+000
 -3.890000000000000E-002    0.000000000000000E+000
 -3.880000000000000E-002    0.000000000000000E+000
 -3.870000000000000E-002    0.000000000000000E+000
 -3.860000000000000E-002    0.000000000000000E+000
 -3.850000000000000E-002    0.000000000000000E+000
 -3.840000000000000E-002    0.000000000000000E+000
 -3.830000000000000E-002    0.000000000000000E+000
 -3.820000000000000E-002    0.000000000000000E+000
 -3.810000000000000E-002    0.000000000000000E+000
 -3.800000000000000E-002    0.000000000000000E+000
 -3.790000000000000E-002    0.000000000000000E+000
 -3.780000000000000E-002    0.000000000000000E+000
 -3.770000000000000E-002    0.000000000000000E+000
 -3.760000000000000E-002    0.000000000000000E+000
 -3.750000000000000E-002    0.000000000000000E+000
 -3.740000000000000E-002    0.000000000000000E+000
 -3.730000000000000E-002    0.000000000000000E+000
 -3.720000000000000E-002    0.000000000000000E+000
 -3.710000000000000E-002    0.000000000000000E+000
 -3.700000000000000E-002    0.000000000000000E+000
 -3.690000000000000E-002    0.000000000000000E+000
 -3.680000000000000E-002    0.000000000000000E+000
 -3.670000000000000E-002    0.000000000000000E+000
 -3.660000000000000E-002    0.000000000000000E+000
 -3.650000000000000E-002    0.000000000000000E+000
 -3.640000000000000E-002    0.000000000000000E+000
 -3.630000000000000E-002    0.000000000000000E+000
 -3.620000000000000E-002    0.000000000000000E+000
 -3.610000000000000E-002    0.000000000000000E+000
 -3.600000000000000E-002    0.000000000000000E+000
 -3.590000000000000E-002    0.000000000000000E+000
 -3.580000000000000E-002    0.000000000000000E+000
 -3.570000000000000E-002    0.000000000000000E+000
 -3.560000000000000E-002    0.000000000000000E+000
 -3.550000000000000E-002    1.510297373905662E-046
 -3.540000000000000E-002    3.431029349990396E-046
 -3.530000000000000E-002    9.749643519609149E-046
 -3.520000000000000E-002    2.225386193066369E-045
 -3.510000000000000E-002    5.063971489198878E-045
 -3.500000000000000E-002    1.099556501138504E-044
 -3.490000000000000E-002    2.243248223110436E-044
 -3.480000000000000E-002    4.275170753049564E-044
 -3.470000000000000E-002    7.768316244750659E-044
 -3.460000000000000E-002    1.328614263581287E-043
 -3.450000000000000E-002    2.099634628446506E-043
 -3.440000000000000E-002    2.987395657489953E-043
 -3.430000000000000E-002    3.541380525047757E-043
 -3.420000000000000E-002    2.619717434072704E-043
 -3.410000000000000E-002   -2.259920550533761E-043
 -3.400000000000000E-002   -1.595936602065197E-042
 -3.390000000000000E-002   -4.718074021234441E-042
 -3.380000000000000E-002   -1.101550987283606E-041
 -3.370000000000000E-002   -2.263017835845186E-041
 -3.360000000000000E-002   -4.245238813396026E-041
 -3.350000000000000E-002   -7.378789309038295E-041
 -3.340000000000000E-002   -1.192704588916455E-040
 -3.330000000000000E-002   -1.783794857265524E-040
 -3.320000000000000E-002   -2.426845925894634E-040
 -3.310000000000000E-002   -2.877305501904595E-040
 -3.300000000000000E-002   -2.605079372156361E-040
 -3.290000000000000E-002   -6.199040952218213E-041
 -3.280000000000000E-002    4.742903162044073E-040
 -3.270000000000000E-002    1.603623191356082E-039
 -3.260000000000000E-002    3.682206103339572E-039
 -3.250000000000000E-002    7.152657112508398E-039
 -3.240000000000000E-002    1.247468387575976E-038
 -3.230000000000000E-002    1.995951626366635E-038
 -3.220000000000000E-002    2.945407503988353E-038
 -3.210000000000000E-002    3.981394658951959E-038
 -3.200000000000000E-002    4.811232971434356E-038
 -3.190000000000000E-002    4.856871270990270E-038
 -3.180000000000000E-002    3.126430590375031E-038
 -3.170000000000000E-002   -1.913817964600494E-038
 -3.160000000000000E-002   -1.242161139481842E-037
 -3.150000000000000E-002   -3.113637510713528E-037
 -3.140000000000000E-002   -6.109259086754501E-037
 -3.130000000000000E-002   -1.049251919642297E-036
 -3.120000000000000E-002   -1.635686994020436E-036
 -3.110000000000000E-002   -2.341464023237865E-036
 -3.100000000000000E-002   -3.068996080320372E-036
 -3.090000000000000E-002   -3.611589823015618E-036
 -3.080000000000000E-002   -3.606560297105134E-036
 -3.070000000000000E-002   -2.489556342484113E-036
 -3.060000000000000E-002    5.351406805327317E-037
 -3.050000000000000E-002    6.484635131187417E-036
 -3.040000000000000E-002    1.651395338996383E-035
 -3.030000000000000E-002    3.171593949209781E-035
 -3.020000000000000E-002    5.275600338029522E-035
 -3.010000000000000E-002    7.929678482802841E-035
 -3.000000000000000E-002    1.091866954069367E-034
 -2.990000000000000E-002    1.374281543268582E-034
 -2.980000000000000E-002    1.550134443751855E-034
 -2.970000000000000E-002    1.478238449263143E-034
 -2.960000000000000E-002    9.593083506730975E-035
 -2.950000000000000E-002   -2.619250546070387E-035
 -2.940000000000000E-002   -2.478692517818327E-034
 -2.930000000000000E-002   -5.980111446982676E-034
 -2.920000000000000E-002   -1.097658447380468E-033
 -2.910000000000000E-002   -1.748571408228944E-033
 -2.900000000000000E-002   -2.517613009232846E-033
 -2.890000000000000E-002   -3.317481758568417E-033
 -2.880000000000000E-002   -3.985634458441503E-033
 -2.870000000000000E-002   -4.265012306037688E-033
 -2.860000000000000E-002   -3.792360638022642E-033
 -2.850000000000000E-002   -2.102307685373653E-033
 -2.840000000000000E-002    1.342495874092014E-033
 -2.830000000000000E-002    7.083609659077785E-033
 -2.820000000000000E-002    1.555034241915058E-032
 -2.810000000000000E-002    2.688682777934823E-032
 -2.800000000000000E-002    4.072210700320012E-032
 -2.790000000000000E-002    5.589478285271057E-032
 -2.780000000000000E-002    7.016125610782101E-032
 -2.770000000000000E-002    7.993894604746607E-032
 -2.760000000000000E-002    8.016152977766417E-032
 -2.750000000000000E-002    6.434860188974148E-032
 -2.740000000000000E-002    2.501172474243126E-032
 -2.730000000000000E-002   -4.547514443344466E-032
 -2.720000000000000E-002   -1.534296162919989E-031
 -2.710000000000000E-002   -3.017780318567813E-031
 -2.700000000000000E-002   -4.873668819336580E-031
 -2.690000000000000E-002   -6.978405032517516E-031
 -2.680000000000000E-002   -9.084451033271392E-031
 -2.670000000000000E-002   -1.079345124106730E-030
 -2.660000000000000E-002   -1.154276394321573E-030
 -2.650000000000000E-002   -1.061571274715048E-030
 -2.640000000000000E-002   -7.187175912722203E-031
 -2.630000000000000E-002   -4.158387936899751E-032
 -2.620000000000000E-002    1.040823820929212E-030
 -2.610000000000000E-002    2.565785344972478E-030
 -2.600000000000000E-002    4.511132170043433E-030
 -2.590000000000000E-002    6.766344260606149E-030
 -2.580000000000000E-002    9.104137180588981E-030
 -2.570000000000000E-002    1.115804175182555E-029
 -2.560000000000000E-002    1.241327346290525E-029
 -2.550000000000000E-002    1.221954046145735E-029
 -2.540000000000000E-002    9.834894015130717E-030
 -2.530000000000000E-002    4.508713676214381E-030
 -2.520000000000000E-002   -4.391060195420969E-030
 -2.510000000000000E-002   -1.720676557480323E-029
 -2.500000000000000E-002   -3.378430094818214E-029
 -2.490000000000000E-002   -5.324974565628947E-029
 -2.480000000000000E-002   -7.380041133654217E-029
 -2.470000000000000E-002   -9.255408514230139E-029
 -2.460000000000000E-002   -1.055109706040175E-028
 -2.450000000000000E-002   -1.076892599131397E-028
 -2.440000000000000E-002   -9.349368359268693E-029
 -2.430000000000000E-002   -5.736386355300827E-029
 -2.420000000000000E-002    5.277373543624684E-030
 -2.410000000000000E-002    9.679820936970331E-029
 -2.400000000000000E-002    2.159350183221766E-028
 -2.390000000000000E-002    3.563236026030916E-028
 -2.380000000000000E-002    5.052120474478599E-028
 -2.370000000000000E-002    6.426538078714667E-028
 -2.360000000000000E-002    7.415321788258079E-028
 -2.350000000000000E-002    7.687818333617701E-028
 -2.340000000000000E-002    6.881329718222894E-028
 -2.330000000000000E-002    4.645896756178362E-028
 -2.320000000000000E-002    7.065600104689105E-029
 -2.310000000000000E-002   -5.059622749679269E-028
 -2.300000000000000E-002   -1.253814488882511E-027
 -2.290000000000000E-002   -2.129364251660428E-027
 -2.280000000000000E-002   -3.050301225844725E-027
 -2.270000000000000E-002   -3.892293446844182E-027
 -2.260000000000000E-002   -4.491146329664071E-027
 -2.250000000000000E-002   -4.652268076855004E-027
 -2.240000000000000E-002   -4.168923112526316E-027
 -2.230000000000000E-002   -2.849937007340518E-027
 -2.220000000000000E-002   -5.562509893112212E-028
 -2.210000000000000E-002    2.755956150456801E-027
 -2.200000000000000E-002    6.989831737501628E-027
 -2.190000000000000E-002    1.186642038318054E-026
 -2.180000000000000E-002    1.689543582252685E-026
 -2.170000000000000E-002    2.136769748385670E-026
 -2.160000000000000E-002    2.437895093310612E-026
 -2.150000000000000E-002    2.489358503289077E-026
 -2.140000000000000E-002    2.185373626101993E-026
 -2.130000000000000E-002    1.433417652927394E-026
 -2.120000000000000E-002    1.736355609535265E-027
 -2.110000000000000E-002   -1.599375242408317E-026
 -2.100000000000000E-002   -3.814887868992859E-026
 -2.090000000000000E-002   -6.307881827571776E-026
 -2.080000000000000E-002   -8.808528075479069E-026
 -2.070000000000000E-002   -1.094380045942672E-025
 -2.060000000000000E-002   -1.225548282159263E-025
 -2.050000000000000E-002   -1.223784738621895E-025
 -2.040000000000000E-002   -1.039648179286344E-025
 -2.030000000000000E-002   -6.326997251001233E-026
 -2.020000000000000E-002    1.911352075999281E-027
 -2.010000000000000E-002    9.094406483612732E-026
 -2.000000000000000E-002    1.994163517293685E-025
 -1.990000000000000E-002    3.184334747499211E-025
 -1.980000000000000E-002    4.343296885859527E-025
 -1.970000000000000E-002    5.289894200994481E-025
 -1.960000000000000E-002    5.809434256304484E-025
 -1.950000000000000E-002    5.673469650027270E-025
 -1.940000000000000E-002    4.668521886923121E-025
 -1.930000000000000E-002    2.632571606940204E-025
 -1.920000000000000E-002   -5.034139190140999E-026
 -1.910000000000000E-002   -4.673325365048705E-025
 -1.900000000000000E-002   -9.639107593581433E-025
 -1.890000000000000E-002   -1.496651094530571E-024
 -1.880000000000000E-002   -2.002114972419815E-024
 -1.870000000000000E-002   -2.399221299090900E-024
 -1.860000000000000E-002   -2.594953917733804E-024
 -1.850000000000000E-002   -2.493676885736669E-024
 -1.840000000000000E-002   -2.009893222251261E-024
 -1.830000000000000E-002   -1.083727651595758E-024
 -1.820000000000000E-002    3.022099694182379E-025
 -1.810000000000000E-002    2.106554334150495E-024
 -1.800000000000000E-002    4.216021481952641E-024
 -1.790000000000000E-002    6.438218657863802E-024
 -1.780000000000000E-002    8.503333170665539E-024
 -1.770000000000000E-002    1.007725210394007E-023
 -1.760000000000000E-002    1.078781657181310E-023
 -1.750000000000000E-002    1.026459089479553E-023
 -1.740000000000000E-002    8.190705726603445E-024
 -1.730000000000000E-002    4.363202304786879E-024
 -1.720000000000000E-002   -1.243983953568981E-024
 -1.710000000000000E-002   -8.422407291126698E-024
 -1.700000000000000E-002   -1.668650152551056E-023
 -1.690000000000000E-002   -2.525640447708654E-023
 -1.680000000000000E-002   -3.307615921336528E-023
 -1.670000000000000E-002   -3.887524108310221E-023
 -1.660000000000000E-002   -4.127765918079559E-023
 -1.650000000000000E-002   -3.895748145515149E-023
 -1.640000000000000E-002   -3.083290940079013E-023
 -1.630000000000000E-002   -1.628337864582367E-023
 -1.620000000000000E-002    4.633416411610962E-024
 -1.610000000000000E-002    3.099430216949841E-023
 -1.600000000000000E-002    6.088718617159492E-023
 -1.590000000000000E-002    9.138628481845046E-023
 -1.580000000000000E-002    1.186570701265675E-022
 -1.570000000000000E-002    1.382129696450541E-022
 -1.560000000000000E-002    1.453312903191356E-022
 -1.550000000000000E-002    1.356160492897297E-022
 -1.540000000000000E-002    1.056723481752564E-022
 -1.530000000000000E-002    5.383180997773333E-023
 -1.520000000000000E-002   -1.915441069665697E-023
 -1.510000000000000E-002   -1.095568863501991E-022
 -1.500000000000000E-002   -2.103543901571063E-022
 -1.490000000000000E-002   -3.112731927229456E-022
 -1.480000000000000E-002   -3.992679466519372E-022
 -1.470000000000000E-002   -4.594969369541036E-022
 -1.460000000000000E-002   -4.767926925753970E-022
 -1.450000000000000E-002   -4.375622972487119E-022
 -1.440000000000000E-002   -3.319778885077246E-022
 -1.430000000000000E-002   -1.562427324710850E-022
 -1.420000000000000E-002    8.534639943140706E-023
 -1.410000000000000E-002    3.788654113140937E-022
 -1.400000000000000E-002    7.000940591694523E-022
 -1.390000000000000E-002    1.015020089079438E-021
 -1.380000000000000E-002    1.281747308454716E-021
 -1.370000000000000E-002    1.453910671643342E-021
 -1.360000000000000E-002    1.485530564335531E-021
 -1.350000000000000E-002    1.337031294410051E-021
 -1.340000000000000E-002    9.819290590411211E-022
 -1.330000000000000E-002    4.134856486427929E-022
 -1.320000000000000E-002   -3.495434749826319E-022
 -1.310000000000000E-002   -1.259031818564705E-021
 -1.300000000000000E-002   -2.236431027266788E-021
 -1.290000000000000E-002   -3.175363421005223E-021
 -1.280000000000000E-002   -3.948401464016787E-021
 -1.270000000000000E-002   -4.418161657682139E-021
 -1.260000000000000E-002   -4.452318275969420E-021
 -1.250000000000000E-002   -3.941536372962166E-021
 -1.240000000000000E-002   -2.818724850673524E-021
 -1.230000000000000E-002   -1.077457469840081E-021
 -1.220000000000000E-002    1.212976515872920E-021
 -1.210000000000000E-002    3.898583678618818E-021
 -1.200000000000000E-002    6.740279333144521E-021
 -1.190000000000000E-002    9.424116105912941E-021
 -1.180000000000000E-002    1.158325612639105E-020
 -1.170000000000000E-002    1.283156688309907E-020
 -1.160000000000000E-002    1.280723091056501E-020
 -1.150000000000000E-002    1.122311597534706E-020
 -1.140000000000000E-002    7.919095600699596E-021
 -1.130000000000000E-002    2.910183375957928E-021
 -1.120000000000000E-002   -3.576466477248002E-021
 -1.110000000000000E-002   -1.108275044546793E-020
 -1.100000000000000E-002   -1.892531592062147E-020
 -1.090000000000000E-002   -2.623037147224317E-020
 -1.080000000000000E-002   -3.199953466409409E-020
 -1.070000000000000E-002   -3.520520656828891E-020
 -1.060000000000000E-002   -3.490991931328131E-020
 -1.050000000000000E-002   -3.039997549943660E-020
 -1.040000000000000E-002   -2.131982025041572E-020
 -1.030000000000000E-002   -7.790758410429475E-021
 -1.020000000000000E-002    9.503943508157360E-021
 -1.010000000000000E-002    2.928499621220440E-020
 -1.000000000000000E-002    4.970880202952172E-020
 -9.899999999999999E-003    6.847455419298312E-020
 -9.800000000000000E-003    8.300896377320100E-020
 -9.699999999999999E-003    9.072175297701839E-020
 -9.599999999999999E-003    8.931493927052870E-020
 -9.500000000000000E-003    7.711892961102624E-020
 -9.399999999999999E-003    5.341972512270884E-020
 -9.299999999999999E-003    1.873560302607671E-020
 -9.200000000000000E-003   -2.500048590743991E-020
 -9.099999999999999E-003   -7.439352085349413E-020
 -8.999999999999999E-003   -1.247063502907997E-019
 -8.900000000000000E-003   -1.701649409432845E-019
 -8.799999999999999E-003   -2.044481237840029E-019
 -8.699999999999999E-003   -2.213380521765310E-019
 -8.600000000000000E-003   -2.154838261176597E-019
 -8.499999999999999E-003   -1.832075778540342E-019
 -8.399999999999999E-003   -1.232639333908016E-019
 -8.300000000000000E-003   -3.745262097063619E-020
 -8.199999999999999E-003    6.901740452317500E-020
 -8.100000000000000E-003    1.875027312740121E-019
 -8.000000000000000E-003    3.063057797489061E-019
 -7.899999999999999E-003    4.114903460936364E-019
 -7.800000000000000E-003    4.881161895199486E-019
 -7.699999999999999E-003    5.218216320746997E-019
 -7.599999999999999E-003    5.006306237512150E-019
 -7.499999999999999E-003    4.168088180137700E-019
 -7.399999999999999E-003    2.685574747768996E-019
 -7.299999999999999E-003    6.131461856593571E-020
 -7.199999999999999E-003   -1.915622281854797E-019
 -7.100000000000000E-003   -4.689234119705698E-019
 -6.999999999999999E-003   -7.428947383247941E-019
 -6.899999999999999E-003   -9.809265088278646E-019
 -6.800000000000000E-003   -1.148757047259591E-018
 -6.699999999999999E-003   -1.214103090052999E-018
 -6.599999999999999E-003   -1.150771855289378E-018
 -6.499999999999999E-003   -9.427868855262537E-019
 -6.399999999999999E-003   -5.880464468565157E-019
 -6.299999999999999E-003   -1.010085602755028E-019
 -6.199999999999999E-003    4.860791155846723E-019
 -6.100000000000000E-003    1.123795341940456E-018
 -5.999999999999999E-003    1.748250520019463E-018
 -5.899999999999999E-003    2.285921059195144E-018
 -5.800000000000000E-003    2.660411936296601E-018
 -5.699999999999999E-003    2.800691039480449E-018
 -5.599999999999999E-003    2.650091124902499E-018
 -5.499999999999999E-003    2.175173281810265E-018
 -5.399999999999999E-003    1.373412506557394E-018
 -5.299999999999999E-003    2.786342630231835E-019
 -5.199999999999999E-003   -1.036783023469537E-018
 -5.099999999999999E-003   -2.463712893190935E-018
 -4.999999999999999E-003   -3.862530940257354E-018
 -4.899999999999999E-003   -5.073803699187562E-018
 -4.799999999999999E-003   -5.932915790229287E-018
 -4.699999999999999E-003   -6.287590910918786E-018
 -4.599999999999999E-003   -6.016791942109382E-018
 -4.499999999999999E-003   -5.049077489846848E-018
 -4.399999999999999E-003   -3.378273948809743E-018
 -4.299999999999999E-003   -1.074290900924648E-018
 -4.199999999999999E-003    1.712866355692074E-018
 -4.099999999999999E-003    4.757357841356762E-018
 -3.999999999999999E-003    7.770809663119014E-018
 -3.899999999999999E-003    1.042451751198283E-017
 -3.799999999999999E-003    1.237939033919469E-017
 -3.699999999999999E-003    1.332144495144059E-017
 -3.599999999999999E-003    1.299972659493411E-017
 -3.499999999999999E-003    1.126279905842009E-017
 -3.399999999999999E-003    8.089570949705215E-018
 -3.299999999999999E-003    3.610245428779224E-018
 -3.199999999999999E-003   -1.886321179411301E-018
 -3.099999999999999E-003   -7.961561230568290E-018
 -2.999999999999999E-003   -1.405373905341829E-017
 -2.899999999999999E-003   -1.952160580434144E-017
 -2.799999999999999E-003   -2.370274184077133E-017
 -2.699999999999999E-003   -2.598218352148130E-017
 -2.599999999999999E-003   -2.586521552541424E-017
 -2.499999999999999E-003   -2.304690378631915E-017
 -2.399999999999999E-003   -1.747033663072499E-017
 -2.299999999999999E-003   -9.365677608102171E-018
 -2.199999999999999E-003    7.368019289821415E-019
 -2.099999999999999E-003    1.202455486690090E-017
 -1.999999999999999E-003    2.345361782294644E-017
 -1.899999999999999E-003    3.383122993444785E-017
 -1.799999999999999E-003    4.192539148436169E-017
 -1.699999999999999E-003    4.659288239981121E-017
 -1.599999999999999E-003    4.691421202273750E-017
 -1.499999999999999E-003    4.232163945783936E-017
 -1.399999999999999E-003    3.270546266955314E-017
 -1.299999999999999E-003    1.848417645210911E-017
 -1.199999999999999E-003    6.262107002649721E-019
 -1.099999999999999E-003   -1.938529960178026E-017
 -9.999999999999989E-004   -3.964818346192428E-017
 -8.999999999999990E-004   -5.799471043501450E-017
 -7.999999999999990E-004   -7.219351339707581E-017
 -6.999999999999989E-004   -8.018422782202938E-017
 -5.999999999999990E-004   -8.032360871427898E-017
 -4.999999999999989E-004   -7.161784565620790E-017
 -3.999999999999989E-004   -5.391412940932526E-017
 -2.999999999999989E-004   -2.802551414105665E-017
 -1.999999999999989E-004    4.232875562323885E-018
 -9.999999999999892E-005    4.011164762859620E-017
  1.084202172485504E-018    7.610488875840623E-017
  1.000000000000011E-004    1.082327356645086E-016
  2.000000000000011E-004    1.324119135276331E-016
  3.000000000000011E-004    1.448856032073563E-016
  4.000000000000011E-004    1.426741131045985E-016
  5.000000000000011E-004    1.240009432225076E-016
  6.000000000000011E-004    8.864521787244611E-017
  7.000000000000011E-004    3.817376179929228E-017
  8.000000000000011E-004   -2.398753804655643E-017
  9.000000000000012E-004   -9.267151181729064E-017
  1.000000000000001E-003   -1.612880673987323E-016
  1.100000000000001E-003   -2.223358651647218E-016
  1.200000000000001E-003   -2.680776810737156E-016
  1.300000000000001E-003   -2.913298874985279E-016
  1.400000000000001E-003   -2.862975474929592E-016
  1.500000000000001E-003   -2.493737625382586E-016
  1.600000000000001E-003   -1.798152977654997E-016
  1.700000000000001E-003   -8.020801324410667E-017
  1.800000000000001E-003    4.335276511999665E-017
  1.900000000000001E-003    1.814222144865301E-016
  2.000000000000001E-003    3.217331492686422E-016
  2.100000000000001E-003    4.500824336200603E-016
  2.200000000000001E-003    5.515312581507291E-016
  2.300000000000001E-003    6.118361326167805E-016
  2.400000000000001E-003    6.189926225078568E-016
  2.500000000000001E-003    5.647493486545647E-016
  2.600000000000001E-003    4.459342107143201E-016
  2.700000000000001E-003    2.654347055493972E-016
  2.800000000000001E-003    3.269064386338198E-017
  2.900000000000001E-003   -2.364109924560794E-016
  3.000000000000001E-003   -5.203010869699593E-016
  3.100000000000001E-003   -7.931581062461046E-016
  3.200000000000001E-003   -1.026937288206503E-015
  3.300000000000001E-003   -1.193870602763391E-015
  3.400000000000001E-003   -1.269240906088669E-015
  3.500000000000001E-003   -1.234187766491487E-015
  3.600000000000001E-003   -1.078266740439198E-015
  3.700000000000001E-003   -8.014781684530356E-016
  3.800000000000001E-003   -4.155007110001030E-016
  3.900000000000001E-003    5.608526824001791E-017
  4.000000000000001E-003    5.787230876457650E-016
  4.100000000000001E-003    1.108995015964789E-015
  4.200000000000001E-003    1.597849967686326E-015
  4.300000000000001E-003    1.994748815496762E-015
  4.400000000000001E-003    2.252418233564486E-015
  4.500000000000001E-003    2.331805527249432E-015
  4.600000000000002E-003    2.206762083497398E-015
  4.700000000000001E-003    1.867960109256363E-015
  4.800000000000001E-003    1.325564646223073E-015
  4.900000000000002E-003    6.102608368875787E-016
  5.000000000000001E-003   -2.276460516691106E-016
  5.100000000000001E-003   -1.121172187718874E-015
  5.200000000000001E-003   -1.991558588226198E-015
  5.300000000000002E-003   -2.754851344953627E-015
  5.400000000000001E-003   -3.329671092531019E-015
  5.500000000000001E-003   -3.645503044511597E-015
  5.600000000000002E-003   -3.650726677811148E-015
  5.700000000000001E-003   -3.319535095387481E-015
  5.800000000000001E-003   -2.656924130148250E-015
  5.900000000000002E-003   -1.701041676174028E-015
  6.000000000000001E-003   -5.223816192971052E-016
  6.100000000000001E-003    7.804118388556358E-016
  6.200000000000002E-003    2.088048105333787E-015
  6.300000000000002E-003    3.270955078707215E-015
  6.400000000000001E-003    4.201717387878524E-015
  6.500000000000001E-003    4.768497919178433E-015
  6.600000000000002E-003    4.888133643067258E-015
  6.700000000000001E-003    4.517483961619859E-015
  6.800000000000001E-003    3.661657736189564E-015
  6.900000000000002E-003    2.377913558678314E-015
  7.000000000000001E-003    7.743747397838411E-016
  7.100000000000001E-003   -9.968535367049593E-016
  7.200000000000002E-003   -2.752005733696661E-015
  7.300000000000002E-003   -4.292669160140069E-015
  7.400000000000001E-003   -5.426150260133144E-015
  7.500000000000001E-003   -5.987341125648753E-015
  7.600000000000002E-003   -5.859880187152547E-015
  7.700000000000001E-003   -4.994223462570011E-015
  7.800000000000001E-003   -3.420316359766115E-015
  7.900000000000001E-003   -1.252884801484443E-015
  8.000000000000002E-003    1.312057242745766E-015
  8.100000000000001E-003    4.010076085087249E-015
  8.200000000000001E-003    6.530234128826649E-015
  8.300000000000002E-003    8.544677518160576E-015
  8.400000000000001E-003    9.743520242414377E-015
  8.500000000000002E-003    9.871835788061186E-015
  8.600000000000002E-003    8.764957161405181E-015
  8.700000000000001E-003    6.378026783160961E-015
  8.800000000000002E-003    2.805928836140454E-015
  8.900000000000002E-003   -1.709714775165132E-015
  9.000000000000001E-003   -6.788710971348135E-015
  9.100000000000002E-003   -1.193655611845317E-014
  9.200000000000002E-003   -1.658398571368938E-014
  9.300000000000001E-003   -2.013941201481118E-014
  9.400000000000002E-003   -2.205002623797414E-014
  9.500000000000001E-003   -2.186608382400142E-014
  9.600000000000001E-003   -1.930186910317817E-014
  9.700000000000002E-003   -1.428643330714934E-014
  9.800000000000001E-003   -6.997627730334825E-015
  9.900000000000001E-003    2.126118464063070E-015
  1.000000000000000E-002    1.239995271689072E-014
  1.010000000000000E-002    2.293412404695449E-014
  1.020000000000000E-002    3.270149963151060E-014
  1.030000000000000E-002    4.062687624121794E-014
  1.040000000000000E-002    4.569112683190769E-014
  1.050000000000000E-002    4.704094706071539E-014
  1.060000000000000E-002    4.409345996388941E-014
  1.070000000000000E-002    3.662431622062044E-014
  1.080000000000000E-002    2.482856320089368E-014
  1.090000000000000E-002    9.345262550752441E-015
  1.100000000000000E-002   -8.760211204041655E-015
  1.110000000000000E-002   -2.805855703856503E-014
  1.120000000000000E-002   -4.686158547418819E-014
  1.130000000000000E-002   -6.336313450565955E-014
  1.140000000000000E-002   -7.580493926366582E-014
  1.150000000000000E-002   -8.265296889825580E-014
  1.160000000000000E-002   -8.276710502606238E-014
  1.170000000000000E-002   -7.554659112893011E-014
  1.180000000000000E-002   -6.103429110948388E-014
  1.190000000000000E-002   -3.996577583120340E-014
  1.200000000000000E-002   -1.375370441271219E-014
  1.210000000000000E-002    1.559620284883808E-014
  1.220000000000000E-002    4.563462936474546E-014
  1.230000000000000E-002    7.367343391459663E-014
  1.240000000000000E-002    9.702947827399113E-014
  1.250000000000000E-002    1.132854896973160E-013
  1.260000000000000E-002    1.205428891638834E-013
  1.270000000000000E-002    1.176404654037955E-013
  1.280000000000000E-002    1.043139282791323E-013
  1.290000000000000E-002    8.127623636166502E-014
  1.300000000000000E-002    5.020500551632013E-014
  1.310000000000000E-002    1.363191228695674E-014
  1.320000000000000E-002   -2.526078245272417E-014
  1.330000000000000E-002   -6.292174670713076E-014
  1.340000000000000E-002   -9.576639480768671E-014
  1.350000000000000E-002   -1.205351242899852E-013
  1.360000000000000E-002   -1.346385875858859E-013
  1.370000000000000E-002   -1.364530428016411E-013
  1.380000000000000E-002   -1.255317809675957E-013
  1.390000000000000E-002   -1.027054750705019E-013
  1.400000000000000E-002   -7.005415287452498E-014
  1.410000000000000E-002   -3.074589989289420E-014
  1.420000000000000E-002    1.124831390679691E-014
  1.430000000000000E-002    5.154096229882469E-014
  1.440000000000000E-002    8.577996816259319E-014
  1.450000000000000E-002    1.101216563917258E-013
  1.460000000000000E-002    1.216752330597242E-013
  1.470000000000000E-002    1.188684773847288E-013
  1.480000000000000E-002    1.016903140490767E-013
  1.490000000000000E-002    7.177588148238119E-014
  1.500000000000000E-002    3.231482464567489E-014
  1.510000000000000E-002   -1.221856670265505E-014
  1.520000000000000E-002   -5.649560629687015E-014
  1.530000000000000E-002   -9.488678622824245E-014
  1.540000000000000E-002   -1.220865826327852E-013
  1.550000000000000E-002   -1.337451906683013E-013
  1.560000000000000E-002   -1.270381175463286E-013
  1.570000000000000E-002   -1.011065400820737E-013
  1.580000000000000E-002   -5.731036771901063E-014
  1.590000000000000E-002    7.469693093726323E-016
  1.600000000000000E-002    6.744192155462854E-014
  1.610000000000000E-002    1.355960881744812E-013
  1.620000000000000E-002    1.971505301777440E-013
  1.630000000000000E-002    2.439910814526623E-013
  1.640000000000000E-002    2.688468629993191E-013
  1.650000000000000E-002    2.661691958040928E-013
  1.660000000000000E-002    2.328953064721158E-013
  1.670000000000000E-002    1.690054436539949E-013
  1.680000000000000E-002    7.779820764224109E-014
  1.690000000000000E-002   -3.416664221434022E-014
  1.700000000000000E-002   -1.574765386016513E-013
  1.710000000000000E-002   -2.806084985862618E-013
  1.720000000000000E-002   -3.909520872075910E-013
  1.730000000000000E-002   -4.760257067519108E-013
  1.740000000000000E-002   -5.247728345725467E-013
  1.750000000000000E-002   -5.288096268123467E-013
  1.760000000000000E-002   -4.834894764460666E-013
  1.770000000000000E-002   -3.886640255579988E-013
  1.780000000000000E-002   -2.490396334238087E-013
  1.790000000000000E-002   -7.406764237488978E-014
  1.800000000000000E-002    1.226521290875821E-013
  1.810000000000000E-002    3.244240493213850E-013
  1.820000000000000E-002    5.128870436954342E-013
  1.830000000000000E-002    6.697007438988993E-013
  1.840000000000000E-002    7.783333096625020E-013
  1.850000000000000E-002    8.257747776475767E-013
  1.860000000000000E-002    8.039999890454224E-013
  1.870000000000000E-002    7.110228588673262E-013