 -4.000000000000000E-002    0.000000000000000E+000
 -3.990000000000000E-002    0.000000000000000E+000
 -3.980000000000000E-002    0.000000000000000E+000
 -3.970000000000000E-002    0.000000000000000E+000
 -3.960000000000000E-002    0.000000000000000E+000
 -3.950000000000000E-002    0.000000000000000E+000
 -3.940000000000000E-002    0.000000000000000E+000
 -3.930000000000000E-002    0.000000000000000E+000
 -3.920000000000000E-002    0.000000000000000E+000
 -3.910000000000000E-002    0.000000000000000E+000
 -3.900000000000000E-002    0.000000000000000E+000
 -3.890000000000000E-002    0.000000000000000E+000
 -3.880000000000000E-002    0.000000000000000E+000
 -3.870000000000000E-002    0.000000000000000E+000
 -3.860000000000000E-002    0.000000000000000E+000
 -3.850000000000000E-002    0.000000000000000E+000
 -3.840000000000000E-002    0.000000000000000E+000
 -3.830000000000000E-002    0.000000000000000E+000
 -3.820000000000000E-002    0.000000000000000E+000
 -3.810000000000000E-002    0.000000000000000E+000
 -3.800000000000000E-002    0.000000000000000E+000
 -3.790000000000000E-002    0.000000000000000E+000
 -3.780000000000000E-002    0.000000000000000E+000
 -3.770000000000000E-002    0.000000000000000E+000
 -3.760000000000000E-002    0.000000000000000E+000
 -3.750000000000000E-002    0.000000000000000E+000
 -3.740000000000000E-002    0.000000000000000E+000
 -3.730000000000000E-002    0.000000000000000E+000
 -3.720000000000000E-002    0.000000000000000E+000
 -3.710000000000000E-002    0.000000000000000E+000
 -3.700000000000000E-002    0.000000000000000E+000
 -3.690000000000000E-002    0.000000000000000E+000
 -3.680000000000000E-002    0.000000000000000E+000
 -3.670000000000000E-002    0.000000000000000E+000
 -3.660000000000000E-002    0.000000000000000E+000
 -3.650000000000000E-002    0.000000000000000E+000
 -3.640000000000000E-002    0.000000000000000E+000
 -3.630000000000000E-002    0.000000000000000E+000
 -3.620000000000000E-002    0.000000000000000E+000
 -3.610000000000000E-002    0.000000000000000E+000
 -3.600000000000000E-002    0.000000000000000E+000
 -3.590000000000000E-002    0.000000000000000E+000
 -3.580000000000000E-002    0.000000000000000E+000
 -3.570000000000000E-002    0.000000000000000E+000
 -3.560000000000000E-002    0.000000000000000E+000
 -3.550000000000000E-002    0.000000000000000E+000
 -3.540000000000000E-002    0.000000000000000E+000
 -3.530000000000000E-002    0.000000000000000E+000
 -3.520000000000000E-002    0.000000000000000E+000
 -3.510000000000000E-002    0.000000000000000E+000
 -3.500000000000000E-002    0.000000000000000E+000
 -3.490000000000000E-002    0.000000000000000E+000
 -3.480000000000000E-002    0.000000000000000E+000
 -3.470000000000000E-002    0.000000000000000E+000
 -3.460000000000000E-002    0.000000000000000E+000
 -3.450000000000000E-002    0.000000000000000E+000
 -3.440000000000000E-002    0.000000000000000E+000
 -3.430000000000000E-002    0.000000000000000E+000
 -3.420000000000000E-002    0.000000000000000E+000
 -3.410000000000000E-002    0.000000000000000E+000
 -3.400000000000000E-002    0.000000000000000E+000
 -3.390000000000000E-002    0.000000000000000E+000
 -3.380000000000000E-002    0.000000000000000E+000
 -3.370000000000000E-002    0.000000000000000E+000
 -3.360000000000000E-002    0.000000000000000E+000
 -3.350000000000000E-002    0.000000000000000E+000
 -3.340000000000000E-002    0.000000000000000E+000
 -3.330000000000000E-002    0.000000000000000E+000
 -3.320000000000000E-002    0.000000000000000E+000
 -3.310000000000000E-002    0.000000000000000E+000
 -3.300000000000000E-002    0.000000000000000E+000
 -3.290000000000000E-002    0.000000000000000E+000
 -3.280000000000000E-002    0.000000000000000E+000
 -3.270000000000000E-002    0.000000000000000E+000
 -3.260000000000000E-002    0.000000000000000E+000
 -3.250000000000000E-002    0.000000000000000E+000
 -3.240000000000000E-002    0.000000000000000E+000
 -3.230000000000000E-002    0.000000000000000E+000
 -3.220000000000000E-002    0.000000000000000E+000
 -3.210000000000000E-002    0.000000000000000E+000
 -3.200000000000000E-002    0.000000000000000E+000
 -3.190000000000000E-002    0.000000000000000E+000
 -3.180000000000000E-002    0.000000000000000E+000
 -3.170000000000000E-002    0.000000000000000E+000
 -3.160000000000000E-002    0.000000000000000E+000
 -3.150000000000000E-002    0.000000000000000E+000
 -3.140000000000000E-002    0.000000000000000E+000
 -3.130000000000000E-002    0.000000000000000E+000
 -3.120000000000000E-002    0.000000000000000E+000
 -3.110000000000000E-002    0.000000000000000E+000
 -3.100000000000000E-002    0.000000000000000E+000
 -3.090000000000000E-002    0.000000000000000E+000
 -3.080000000000000E-002    0.000000000000000E+000
 -3.070000000000000E-002    0.000000000000000E+000
 -3.060000000000000E-002    0.000000000000000E+000
 -3.050000000000000E-002    0.000000000000000E+000
 -3.040000000000000E-002    0.000000000000000E+000
 -3.030000000000000E-002    0.000000000000000E+000
 -3.020000000000000E-002    0.000000000000000E+000
 -3.010000000000000E-002    0.000000000000000E+000
 -3.000000000000000E-002    0.000000000000000E+000
 -2.990000000000000E-002    0.000000000000000E+000
 -2.980000000000000E-002    0.000000000000000E+000
 -2.970000000000000E-002    0.000000000000000E+000
 -2.960000000000000E-002    0.000000000000000E+000
 -2.950000000000000E-002    0.000000000000000E+000
 -2.940000000000000E-002    0.000000000000000E+000
 -2.930000000000000E-002    0.000000000000000E+000
 -2.920000000000000E-002    0.000000000000000E+000
 -2.910000000000000E-002    0.000000000000000E+000
 -2.900000000000000E-002    0.000000000000000E+000
 -2.890000000000000E-002    0.000000000000000E+000
 -2.880000000000000E-002    0.000000000000000E+000
 -2.870000000000000E-002    0.000000000000000E+000
 -2.860000000000000E-002    0.000000000000000E+000
 -2.850000000000000E-002    0.000000000000000E+000
 -2.840000000000000E-002    0.000000000000000E+000
 -2.830000000000000E-002    0.000000000000000E+000
 -2.820000000000000E-002    0.000000000000000E+000
 -2.810000000000000E-002    0.000000000000000E+000
 -2.800000000000000E-002    0.000000000000000E+000
 -2.790000000000000E-002    0.000000000000000E+000
 -2.780000000000000E-002    0.000000000000000E+000
 -2.770000000000000E-002    0.000000000000000E+000
 -2.760000000000000E-002    0.000000000000000E+000
 -2.750000000000000E-002    0.000000000000000E+000
 -2.740000000000000E-002    0.000000000000000E+000
 -2.730000000000000E-002    0.000000000000000E+000
 -2.720000000000000E-002    0.000000000000000E+000
 -2.710000000000000E-002    0.000000000000000E+000
 -2.700000000000000E-002    0.000000000000000E+000
 -2.690000000000000E-002    0.000000000000000E+000
 -2.680000000000000E-002    0.000000000000000E+000
 -2.670000000000000E-002    0.000000000000000E+000
 -2.660000000000000E-002    0.000000000000000E+000
 -2.650000000000000E-002    0.000000000000000E+000
 -2.640000000000000E-002    0.000000000000000E+000
 -2.630000000000000E-002    0.000000000000000E+000
 -2.620000000000000E-002    0.000000000000000E+000
 -2.610000000000000E-002    0.000000000000000E+000
 -2.600000000000000E-002    0.000000000000000E+000
 -2.590000000000000E-002    0.000000000000000E+000
 -2.580000000000000E-002    0.000000000000000E+000
 -2.570000000000000E-002    0.000000000000000E+000
 -2.560000000000000E-002    0.000000000000000E+000
 -2.550000000000000E-002    0.000000000000000E+000
 -2.540000000000000E-002    0.000000000000000E+000
 -2.530000000000000E-002    0.000000000000000E+000
 -2.520000000000000E-002    0.000000000000000E+000
 -2.510000000000000E-002    0.000000000000000E+000
 -2.500000000000000E-002    0.000000000000000E+000
 -2.490000000000000E-002    0.000000000000000E+000
 -2.480000000000000E-002    0.000000000000000E+000
 -2.470000000000000E-002    0.000000000000000E+000
 -2.460000000000000E-002    0.000000000000000E+000
 -2.450000000000000E-002    0.000000000000000E+000
 -2.440000000000000E-002    0.000000000000000E+000
 -2.430000000000000E-002    0.000000000000000E+000
 -2.420000000000000E-002    0.000000000000000E+000
 -2.410000000000000E-002    0.000000000000000E+000
 -2.400000000000000E-002    0.000000000000000E+000
 -2.390000000000000E-002    0.000000000000000E+000
 -2.380000000000000E-002    0.000000000000000E+000
 -2.370000000000000E-002    0.000000000000000E+000
 -2.360000000000000E-002    0.000000000000000E+000
 -2.350000000000000E-002    0.000000000000000E+000
 -2.340000000000000E-002    0.000000000000000E+000
 -2.330000000000000E-002    0.000000000000000E+000
 -2.320000000000000E-002    0.000000000000000E+000
 -2.310000000000000E-002    0.000000000000000E+000
 -2.300000000000000E-002    0.000000000000000E+000
 -2.290000000000000E-002    0.000000000000000E+000
 -2.280000000000000E-002    0.000000000000000E+000
 -2.270000000000000E-002    0.000000000000000E+000
 -2.260000000000000E-002    0.000000000000000E+000
 -2.250000000000000E-002    0.000000000000000E+000
 -2.240000000000000E-002    0.000000000000000E+000
 -2.230000000000000E-002    0.000000000000000E+000
 -2.220000000000000E-002    0.000000000000000E+000
 -2.210000000000000E-002    0.000000000000000E+000
 -2.200000000000000E-002    0.000000000000000E+000
 -2.190000000000000E-002    0.000000000000000E+000
 -2.180000000000000E-002    0.000000000000000E+000
 -2.170000000000000E-002    0.000000000000000E+000
 -2.160000000000000E-002    0.000000000000000E+000
 -2.150000000000000E-002    0.000000000000000E+000
 -2.140000000000000E-002    0.000000000000000E+000
 -2.130000000000000E-002    0.000000000000000E+000
 -2.120000000000000E-002    0.000000000000000E+000
 -2.110000000000000E-002    0.000000000000000E+000
 -2.100000000000000E-002    0.000000000000000E+000
 -2.090000000000000E-002    0.000000000000000E+000
 -2.080000000000000E-002    0.000000000000000E+000
 -2.070000000000000E-002    0.000000000000000E+000
 -2.060000000000000E-002    0.000000000000000E+000
 -2.050000000000000E-002    0.000000000000000E+000
 -2.040000000000000E-002    0.000000000000000E+000
 -2.030000000000000E-002    0.000000000000000E+000
 -2.020000000000000E-002    0.000000000000000E+000
 -2.010000000000000E-002    0.000000000000000E+000
 -2.000000000000000E-002    0.000000000000000E+000
 -1.990000000000000E-002    0.000000000000000E+000
 -1.980000000000000E-002    0.000000000000000E+000
 -1.970000000000000E-002    0.000000000000000E+000
 -1.960000000000000E-002    0.000000000000000E+000
 -1.950000000000000E-002    0.000000000000000E+000
 -1.940000000000000E-002    0.000000000000000E+000
 -1.930000000000000E-002    0.000000000000000E+000
 -1.920000000000000E-002    0.000000000000000E+000
 -1.910000000000000E-002    0.000000000000000E+000
 -1.900000000000000E-002    0.000000000000000E+000
 -1.890000000000000E-002    0.000000000000000E+000
 -1.880000000000000E-002    0.000000000000000E+000
 -1.870000000000000E-002    0.000000000000000E+000
 -1.860000000000000E-002    0.000000000000000E+000
 -1.850000000000000E-002    0.000000000000000E+000
 -1.840000000000000E-002    0.000000000000000E+000
 -1.830000000000000E-002    0.000000000000000E+000
 -1.820000000000000E-002    0.000000000000000E+000
 -1.810000000000000E-002    0.000000000000000E+000
 -1.800000000000000E-002    0.000000000000000E+000
 -1.790000000000000E-002    0.000000000000000E+000
 -1.780000000000000E-002    0.000000000000000E+000
 -1.770000000000000E-002    0.000000000000000E+000
 -1.760000000000000E-002    0.000000000000000E+000
 -1.750000000000000E-002    0.000000000000000E+000
 -1.740000000000000E-002    0.000000000000000E+000
 -1.730000000000000E-002    0.000000000000000E+000
 -1.720000000000000E-002    0.000000000000000E+000
 -1.710000000000000E-002    0.000000000000000E+000
 -1.700000000000000E-002    0.000000000000000E+000
 -1.690000000000000E-002    0.000000000000000E+000
 -1.680000000000000E-002    0.000000000000000E+000
 -1.670000000000000E-002    0.000000000000000E+000
 -1.660000000000000E-002    0.000000000000000E+000
 -1.650000000000000E-002    0.000000000000000E+000
 -1.640000000000000E-002    0.000000000000000E+000
 -1.630000000000000E-002    0.000000000000000E+000
 -1.620000000000000E-002    0.000000000000000E+000
 -1.610000000000000E-002    0.000000000000000E+000
 -1.600000000000000E-002    0.000000000000000E+000
 -1.590000000000000E-002    0.000000000000000E+000
 -1.580000000000000E-002    0.000000000000000E+000
 -1.570000000000000E-002    0.000000000000000E+000
 -1.560000000000000E-002    0.000000000000000E+000
 -1.550000000000000E-002    0.000000000000000E+000
 -1.540000000000000E-002    0.000000000000000E+000
 -1.530000000000000E-002    0.000000000000000E+000
 -1.520000000000000E-002    0.000000000000000E+000
 -1.510000000000000E-002    0.000000000000000E+000
 -1.500000000000000E-002    0.000000000000000E+000
 -1.490000000000000E-002    0.000000000000000E+000
 -1.480000000000000E-002    0.000000000000000E+000
 -1.470000000000000E-002    0.000000000000000E+000
 -1.460000000000000E-002    0.000000000000000E+000
 -1.450000000000000E-002    0.000000000000000E+000
 -1.440000000000000E-002    0.000000000000000E+000
 -1.430000000000000E-002    0.000000000000000E+000
 -1.420000000000000E-002    0.000000000000000E+000
 -1.410000000000000E-002    0.000000000000000E+000
 -1.400000000000000E-002    0.000000000000000E+000
 -1.390000000000000E-002    0.000000000000000E+000
 -1.380000000000000E-002    0.000000000000000E+000
 -1.370000000000000E-002    0.000000000000000E+000
 -1.360000000000000E-002    0.000000000000000E+000
 -1.350000000000000E-002    0.000000000000000E+000
 -1.340000000000000E-002    0.000000000000000E+000
 -1.330000000000000E-002    0.000000000000000E+000
 -1.320000000000000E-002    0.000000000000000E+000
 -1.310000000000000E-002    0.000000000000000E+000
 -1.300000000000000E-002    0.000000000000000E+000
 -1.290000000000000E-002    0.000000000000000E+000
 -1.280000000000000E-002    0.000000000000000E+000
 -1.270000000000000E-002    0.000000000000000E+000
 -1.260000000000000E-002    0.000000000000000E+000
 -1.250000000000000E-002    0.000000000000000E+000
 -1.240000000000000E-002    0.000000000000000E+000
 -1.230000000000000E-002    0.000000000000000E+000
 -1.220000000000000E-002    0.000000000000000E+000
 -1.210000000000000E-002    0.000000000000000E+000
 -1.200000000000000E-002    0.000000000000000E+000
 -1.190000000000000E-002    0.000000000000000E+000
 -1.180000000000000E-002    0.000000000000000E+000
 -1.170000000000000E-002    0.000000000000000E+000
 -1.160000000000000E-002    0.000000000000000E+000
 -1.150000000000000E-002    0.000000000000000E+000
 -1.140000000000000E-002    0.000000000000000E+000
 -1.130000000000000E-002    0.000000000000000E+000
 -1.120000000000000E-002    0.000000000000000E+000
 -1.110000000000000E-002    0.000000000000000E+000
 -1.100000000000000E-002    0.000000000000000E+000
 -1.090000000000000E-002    0.000000000000000E+000
 -1.080000000000000E-002    0.000000000000000E+000
 -1.070000000000000E-002    0.000000000000000E+000
 -1.060000000000000E-002    0.000000000000000E+000
 -1.050000000000000E-002    0.000000000000000E+000
 -1.040000000000000E-002    0.000000000000000E+000
 -1.030000000000000E-002    0.000000000000000E+000
 -1.020000000000000E-002    0.000000000000000E+000
 -1.010000000000000E-002    0.000000000000000E+000
 -1.000000000000000E-002    0.000000000000000E+000
 -9.899999999999999E-003    0.000000000000000E+000
 -9.800000000000000E-003    0.000000000000000E+000
 -9.699999999999999E-003    0.000000000000000E+000
 -9.599999999999999E-003    0.000000000000000E+000
 -9.500000000000000E-003    0.000000000000000E+000
 -9.399999999999999E-003    0.000000000000000E+000
 -9.299999999999999E-003    0.000000000000000E+000
 -9.200000000000000E-003    0.000000000000000E+000
 -9.099999999999999E-003    0.000000000000000E+000
 -8.999999999999999E-003    0.000000000000000E+000
 -8.900000000000000E-003    0.000000000000000E+000
 -8.799999999999999E-003    0.000000000000000E+000
 -8.699999999999999E-003    0.000000000000000E+000
 -8.600000000000000E-003    0.000000000000000E+000
 -8.499999999999999E-003    0.000000000000000E+000
 -8.399999999999999E-003    0.000000000000000E+000
 -8.300000000000000E-003    0.000000000000000E+000
 -8.199999999999999E-003    0.000000000000000E+000
 -8.100000000000000E-003    0.000000000000000E+000
 -8.000000000000000E-003    0.000000000000000E+000
 -7.899999999999999E-003    0.000000000000000E+000
 -7.800000000000000E-003    0.000000000000000E+000
 -7.699999999999999E-003    0.000000000000000E+000
 -7.599999999999999E-003    0.000000000000000E+000
 -7.499999999999999E-003    0.000000000000000E+000
 -7.399999999999999E-003    0.000000000000000E+000
 -7.299999999999999E-003    0.000000000000000E+000
 -7.199999999999999E-003    0.000000000000000E+000
 -7.100000000000000E-003    0.000000000000000E+000
 -6.999999999999999E-003    0.000000000000000E+000
 -6.899999999999999E-003    0.000000000000000E+000
 -6.800000000000000E-003    0.000000000000000E+000
 -6.699999999999999E-003    0.000000000000000E+000
 -6.599999999999999E-003    0.000000000000000E+000
 -6.499999999999999E-003    0.000000000000000E+000
 -6.399999999999999E-003    0.000000000000000E+000
 -6.299999999999999E-003    0.000000000000000E+000
 -6.199999999999999E-003    0.000000000000000E+000
 -6.100000000000000E-003    0.000000000000000E+000
 -5.999999999999999E-003    0.000000000000000E+000
 -5.899999999999999E-003    0.000000000000000E+000
 -5.800000000000000E-003    0.000000000000000E+000
 -5.699999999999999E-003    0.000000000000000E+000
 -5.599999999999999E-003    0.000000000000000E+000
 -5.499999999999999E-003    0.000000000000000E+000
 -5.399999999999999E-003    0.000000000000000E+000
 -5.299999999999999E-003    0.000000000000000E+000
 -5.199999999999999E-003    0.000000000000000E+000
 -5.099999999999999E-003    0.000000000000000E+000
 -4.999999999999999E-003    0.000000000000000E+000
 -4.899999999999999E-003    0.000000000000000E+000
 -4.799999999999999E-003    0.000000000000000E+000
 -4.699999999999999E-003    0.000000000000000E+000
 -4.599999999999999E-003    0.000000000000000E+000
 -4.499999999999999E-003    0.000000000000000E+000
 -4.399999999999999E-003    0.000000000000000E+000
 -4.299999999999999E-003    0.000000000000000E+000
 -4.199999999999999E-003    0.000000000000000E+000
 -4.099999999999999E-003    0.000000000000000E+000
 -3.999999999999999E-003    0.000000000000000E+000
 -3.899999999999999E-003    0.000000000000000E+000
 -3.799999999999999E-003    0.000000000000000E+000
 -3.699999999999999E-003    0.000000000000000E+000
 -3.599999999999999E-003    0.000000000000000E+000
 -3.499999999999999E-003    0.000000000000000E+000
 -3.399999999999999E-003    0.000000000000000E+000
 -3.299999999999999E-003    0.000000000000000E+000
 -3.199999999999999E-003    0.000000000000000E+000
 -3.099999999999999E-003    0.000000000000000E+000
 -2.999999999999999E-003    0.000000000000000E+000
 -2.899999999999999E-003    0.000000000000000E+000
 -2.799999999999999E-003   -7.098914250471858E-048
 -2.699999999999999E-003   -1.012591525379014E-047
 -2.599999999999999E-003   -1.244549934918910E-047
 -2.499999999999999E-003   -1.476508344458807E-047
 -2.399999999999999E-003   -9.985753289515172E-048
 -2.299999999999999E-003   -8.874728775932572E-048
 -2.199999999999999E-003   -9.390685417299914E-050
 -2.099999999999999E-003    1.235757315422910E-047
 -1.999999999999999E-003    3.948639417601364E-047
 -1.899999999999999E-003    7.599601122600901E-047
 -1.799999999999999E-003    1.085689524147446E-046
 -1.699999999999999E-003    1.069705787113012E-046
 -1.599999999999999E-003    1.172935550726740E-046
 -1.499999999999999E-003    9.316184556137103E-047
 -1.399999999999999E-003    7.011945031749525E-047
 -1.299999999999999E-003    6.915638313341079E-047
 -1.199999999999999E-003    3.809925711718322E-047
 -1.099999999999999E-003    4.398016589776711E-046
 -9.999999999999989E-004    8.156546627723464E-046
 -8.999999999999990E-004    1.234229511296294E-045
 -7.999999999999990E-004    1.499844060233633E-045
 -6.999999999999989E-004    1.728790908576503E-045
 -5.999999999999990E-004    1.961905202587783E-045
 -4.999999999999989E-004    1.594621281099588E-045
 -3.999999999999989E-004    2.707984419104394E-046
 -2.999999999999989E-004   -1.419608461390677E-045
 -1.999999999999989E-004   -4.146550888977128E-045
 -9.999999999999892E-005   -6.982063764970200E-045
  1.084202172485504E-018   -1.071468483650371E-044
  1.000000000000011E-004   -1.460859129443230E-044
  2.000000000000011E-004   -1.766248617521837E-044
  3.000000000000011E-004   -1.979827904910905E-044
  4.000000000000011E-004   -2.037142062302533E-044
  5.000000000000011E-004   -1.744563158744743E-044
  6.000000000000011E-004   -1.149517317687940E-044
  7.000000000000011E-004   -1.800120684014576E-045
  8.000000000000011E-004    1.155120385816762E-044
  9.000000000000012E-004    2.989481599269102E-044
  1.000000000000001E-003    5.108960994922450E-044
  1.100000000000001E-003    7.372957235372891E-044
  1.200000000000001E-003    9.573599200377943E-044
  1.300000000000001E-003    1.132357477599488E-043
  1.400000000000001E-003    1.224776490344399E-043
  1.500000000000001E-003    1.178868070120687E-043
  1.600000000000001E-003    9.462888284140931E-044
  1.700000000000001E-003    4.883457787406931E-044
  1.800000000000001E-003   -2.273712101863293E-044
  1.900000000000001E-003   -1.219197006102802E-043
  2.000000000000001E-003   -2.443500021123391E-043
  2.100000000000001E-003   -3.814937841383230E-043
  2.200000000000001E-003   -5.217007770041650E-043
  2.300000000000001E-003   -6.451892950171323E-043
  2.400000000000001E-003   -7.282411650032268E-043
  2.500000000000001E-003   -7.436710080924860E-043
  2.600000000000001E-003   -6.604933908269085E-043
  2.700000000000001E-003   -4.516168656159138E-043
  2.800000000000001E-003   -9.642453974860364E-044
  2.900000000000001E-003    4.131544791787644E-043
  3.000000000000001E-003    1.067126061967739E-042
  3.100000000000001E-003    1.830426612774472E-042
  3.200000000000001E-003    2.639551837498264E-042
  3.300000000000001E-003    3.399938226107484E-042
  3.400000000000001E-003    3.987821192034506E-042
  3.500000000000001E-003    4.253295281968758E-042
  3.600000000000001E-003    4.037681126170591E-042
  3.700000000000001E-003    3.185905309501723E-042
  3.800000000000001E-003    1.572728342514605E-042
  3.900000000000001E-003   -8.686506326318802E-043
  4.000000000000001E-003   -4.115194278989918E-042
  4.100000000000001E-003   -8.023272366599036E-042
  4.200000000000001E-003   -1.230587295885243E-041
  4.300000000000001E-003   -1.651697638150713E-041
  4.400000000000001E-003   -2.005500606802273E-041
  4.500000000000001E-003   -2.218957772699794E-041
  4.600000000000002E-003   -2.211512913006612E-041
  4.700000000000001E-003   -1.903406350417505E-041
  4.800000000000001E-003   -1.226908775862282E-041
  4.900000000000002E-003   -1.401140119090067E-042
  5.000000000000001E-003    1.358050656234876E-041
  5.100000000000001E-003    3.213161803905749E-041
  5.200000000000001E-003    5.303125487144096E-041
  5.300000000000002E-003    7.430294000012339E-041
  5.400000000000001E-003    9.322444273062476E-041
  5.500000000000001E-003    1.064323660248630E-040
  5.600000000000002E-003    1.101568734631142E-040
  5.700000000000001E-003    1.005908972151310E-040
  5.800000000000001E-003    7.439329643091458E-041
  5.900000000000002E-003    2.930481592178453E-041
  6.000000000000001E-003   -3.518021445468655E-041
  6.100000000000001E-003   -1.171416378125687E-040
  6.200000000000002E-003   -2.116717628791768E-040
  6.300000000000002E-003   -3.105245967203256E-040
  6.400000000000001E-003   -4.020958616356839E-040
  6.500000000000001E-003   -4.718580703831689E-040
  6.600000000000002E-003   -5.033326862074304E-040
  6.700000000000001E-003   -4.796458745282834E-040
  6.800000000000001E-003   -3.856554724444879E-040
  6.900000000000002E-003   -2.105398352790768E-040
  7.000000000000001E-003    4.934438715242943E-041
  7.100000000000001E-003    3.876411872489386E-040
  7.200000000000002E-003    7.855951604192740E-040
  7.300000000000002E-003    1.210550620741832E-039
  7.400000000000001E-003    1.615814990028888E-039
  7.500000000000001E-003    1.942370401976304E-039
  7.600000000000002E-003    2.122761697853751E-039
  7.700000000000001E-003    2.087349776387059E-039
  7.800000000000001E-003    1.772821574155755E-039
  7.900000000000001E-003    1.132519372029256E-039
  8.000000000000002E-003    1.477794688306791E-040
  8.100000000000001E-003   -1.160940311132011E-039
  8.200000000000001E-003   -2.724688603185971E-039
  8.300000000000002E-003   -4.420207244230991E-039
  8.400000000000001E-003   -6.069539181996197E-039
  8.500000000000002E-003   -7.446758249586240E-039
  8.600000000000002E-003   -8.293078261797075E-039
  8.700000000000001E-003   -8.340854509472614E-039
  8.800000000000002E-003   -7.345920606010931E-039
  8.900000000000002E-003   -5.126451364736843E-039
  9.000000000000001E-003   -1.605110165836838E-039
  9.100000000000002E-003    3.150186309110591E-039
  9.200000000000002E-003    8.892691813631830E-039
  9.300000000000001E-003    1.517701214197449E-038
  9.400000000000002E-003    2.135967571966922E-038
  9.500000000000001E-003    2.662589852180159E-038
  9.600000000000001E-003    3.004651031129268E-038
  9.700000000000002E-003    3.066607803016410E-038
  9.800000000000001E-003    2.761941998788334E-038
  9.900000000000001E-003    2.026904505574351E-038
  1.000000000000000E-002    8.351153231783463E-039
  1.010000000000000E-002   -7.886713970294161E-039
  1.020000000000000E-002   -2.757696288035272E-038
  1.030000000000000E-002   -4.917457553577813E-038
  1.040000000000000E-002   -7.047272428104044E-038
  1.050000000000000E-002   -8.870922894457533E-038
  1.060000000000000E-002   -1.007743263513342E-037
  1.070000000000000E-002   -1.035196366683585E-037
  1.080000000000000E-002   -9.415436822095498E-038
  1.090000000000000E-002   -7.069964139182912E-038
  1.100000000000000E-002   -3.245593523957974E-038
  1.110000000000000E-002    1.957463103520403E-038
  1.120000000000000E-002    8.237926297027925E-038
  1.130000000000000E-002    1.508088305090402E-037
  1.140000000000000E-002    2.176999863940623E-037
  1.150000000000000E-002    2.742922064227948E-037
  1.160000000000000E-002    3.109599225666827E-037
  1.170000000000000E-002    3.182418583407520E-037
  1.180000000000000E-002    2.881061285743924E-037
  1.190000000000000E-002    2.153407346633113E-037
  1.200000000000000E-002    9.891557154739685E-038
  1.210000000000000E-002   -5.687349613155150E-038
  1.220000000000000E-002   -2.416855243676629E-037
  1.230000000000000E-002   -4.390416547538298E-037
  1.240000000000000E-002   -6.270229351390706E-037
  1.250000000000000E-002   -7.798582651609699E-037
  1.260000000000000E-002   -8.704014302602477E-037
  1.270000000000000E-002   -8.733770718661046E-037
  1.280000000000000E-002   -7.691378770574285E-037
  1.290000000000000E-002   -5.475437609321272E-037
  1.300000000000000E-002   -2.114601484333899E-037
  1.310000000000000E-002    2.206926181292774E-037
  1.320000000000000E-002    7.139159076240141E-037
  1.330000000000000E-002    1.217636141870037E-036
  1.340000000000000E-002    1.669068999666696E-036
  1.350000000000000E-002    1.999034900798527E-036
  1.360000000000000E-002    2.139979388616579E-036
  1.370000000000000E-002    2.035590680729004E-036
  1.380000000000000E-002    1.651025645469711E-036
  1.390000000000000E-002    9.824320732488499E-037
  1.400000000000000E-002    6.424078954209669E-038
  1.410000000000000E-002   -1.027343221990909E-036
  1.420000000000000E-002   -2.176058869109349E-036
  1.430000000000000E-002   -3.233495790739641E-036
  1.440000000000000E-002   -4.033507619264085E-036
  1.450000000000000E-002   -4.412568005427777E-036
  1.460000000000000E-002   -4.234488371626161E-036
  1.470000000000000E-002   -3.416873355829302E-036
  1.480000000000000E-002   -1.955781535959029E-036
  1.490000000000000E-002    5.556340080505663E-038
  1.500000000000000E-002    2.418318256312373E-036
  1.510000000000000E-002    4.833672022620024E-036
  1.520000000000000E-002    6.925308640865445E-036
  1.530000000000000E-002    8.279528429719911E-036
  1.540000000000000E-002    8.501402357829519E-036
  1.550000000000000E-002    7.282471296396274E-036
  1.560000000000000E-002    4.472547075247711E-036
  1.570000000000000E-002    1.455895918673227E-037
  1.580000000000000E-002   -5.352170416536144E-036
  1.590000000000000E-002   -1.138407581898621E-035
  1.600000000000000E-002   -1.704582016258147E-035
  1.610000000000000E-002   -2.123683081121523E-035
  1.620000000000000E-002   -2.278250521135752E-035
  1.630000000000000E-002   -2.060247971706977E-035
  1.640000000000000E-002   -1.391164906514101E-035
  1.650000000000000E-002   -2.432096540327832E-036
  1.660000000000000E-002    1.341365809926825E-035
  1.670000000000000E-002    3.236299496626862E-035
  1.680000000000000E-002    5.226365246038699E-035
  1.690000000000000E-002    7.014717862892655E-035
  1.700000000000000E-002    8.244912160112223E-035
  1.710000000000000E-002    8.538401209799759E-035
  1.720000000000000E-002    7.546237360717805E-035
  1.730000000000000E-002    5.011230637691374E-035
  1.740000000000000E-002    8.342259280081812E-036
  1.750000000000000E-002   -4.864205815827473E-035
  1.760000000000000E-002   -1.169708443439597E-034
  1.770000000000000E-002   -1.899041943159921E-034
  1.780000000000000E-002   -2.579900699771180E-034
  1.790000000000000E-002   -3.096641952613424E-034
  1.800000000000000E-002   -3.323273110672498E-034
  1.810000000000000E-002   -3.138751426644601E-034
  1.820000000000000E-002   -2.445853822896590E-034
  1.830000000000000E-002   -1.191880857697207E-034
  1.840000000000000E-002    6.112617930027243E-035
  1.850000000000000E-002    2.870626373932082E-034
  1.860000000000000E-002    5.402745489470980E-034
  1.870000000000000E-002    7.934296451267672E-034