 -4.000000000000000E-002    0.000000000000000E+000
 -3.990000000000000E-002    0.000000000000000E+000
 -3.980000000000000E-002    0.000000000000000E+000
 -3.970000000000000E-002    0.000000000000000E+000
 -3.960000000000000E-002    0.000000000000000E+000
 -3.950000000000000E-002    0.000000000000000E+000
 -3.940000000000000E-002    0.000000000000000E+000
 -3.930000000000000E-002    0.000000000000000E+000
 -3.920000000000000E-002    0.000000000000000E+000
 -3.910000000000000E-002    0.000000000000000E+000
 -3.900000000000000E-002    0.000000000000000E+000
 -3.890000000000000E-002    0.000000000000000E+000
 -3.880000000000000E-002    0.000000000000000E+000
 -3.870000000000000E-002    0.000000000000000E+000
 -3.860000000000000E-002    0.000000000000000E+000
 -3.850000000000000E-002    0.000000000000000E+000
 -3.840000000000000E-002    0.000000000000000E+000
 -3.830000000000000E-002    0.000000000000000E+000
 -3.820000000000000E-002    0.000000000000000E+000
 -3.810000000000000E-002    0.000000000000000E+000
 -3.800000000000000E-002    0.000000000000000E+000
 -3.790000000000000E-002    0.000000000000000E+000
 -3.780000000000000E-002    0.000000000000000E+000
 -3.770000000000000E-002    0.000000000000000E+000
 -3.760000000000000E-002    0.000000000000000E+000
 -3.750000000000000E-002    0.000000000000000E+000
 -3.740000000000000E-002    0.000000000000000E+000
 -3.730000000000000E-002    0.000000000000000E+000
 -3.720000000000000E-002    0.000000000000000E+000
 -3.710000000000000E-002    0.000000000000000E+000
 -3.700000000000000E-002    0.000000000000000E+000
 -3.690000000000000E-002    0.000000000000000E+000
 -3.680000000000000E-002    0.000000000000000E+000
 -3.670000000000000E-002    0.000000000000000E+000
 -3.660000000000000E-002    0.000000000000000E+000
 -3.650000000000000E-002    0.000000000000000E+000
 -3.640000000000000E-002    0.000000000000000E+000
 -3.630000000000000E-002    0.000000000000000E+000
 -3.620000000000000E-002    0.000000000000000E+000
 -3.610000000000000E-002    0.000000000000000E+000
 -3.600000000000000E-002    0.000000000000000E+000
 -3.590000000000000E-002    0.000000000000000E+000
 -3.580000000000000E-002    0.000000000000000E+000
 -3.570000000000000E-002    0.000000000000000E+000
 -3.560000000000000E-002    0.000000000000000E+000
 -3.550000000000000E-002    0.000000000000000E+000
 -3.540000000000000E-002    0.000000000000000E+000
 -3.530000000000000E-002    0.000000000000000E+000
 -3.520000000000000E-002    0.000000000000000E+000
 -3.510000000000000E-002    0.000000000000000E+000
 -3.500000000000000E-002    0.000000000000000E+000
 -3.490000000000000E-002    0.000000000000000E+000
 -3.480000000000000E-002    0.000000000000000E+000
 -3.470000000000000E-002    0.000000000000000E+000
 -3.460000000000000E-002    0.000000000000000E+000
 -3.450000000000000E-002    0.000000000000000E+000
 -3.440000000000000E-002    0.000000000000000E+000
 -3.430000000000000E-002    0.000000000000000E+000
 -3.420000000000000E-002    0.000000000000000E+000
 -3.410000000000000E-002    0.000000000000000E+000
 -3.400000000000000E-002    0.000000000000000E+000
 -3.390000000000000E-002    0.000000000000000E+000
 -3.380000000000000E-002    0.000000000000000E+000
 -3.370000000000000E-002    0.000000000000000E+000
 -3.360000000000000E-002    0.000000000000000E+000
 -3.350000000000000E-002    0.000000000000000E+000
 -3.340000000000000E-002    0.000000000000000E+000
 -3.330000000000000E-002    0.000000000000000E+000
 -3.320000000000000E-002    0.000000000000000E+000
 -3.310000000000000E-002    0.000000000000000E+000
 -3.300000000000000E-002    0.000000000000000E+000
 -3.290000000000000E-002    0.000000000000000E+000
 -3.280000000000000E-002    0.000000000000000E+000
 -3.270000000000000E-002    0.000000000000000E+000
 -3.260000000000000E-002    0.000000000000000E+000
 -3.250000000000000E-002    0.000000000000000E+000
 -3.240000000000000E-002    0.000000000000000E+000
 -3.230000000000000E-002    0.000000000000000E+000
 -3.220000000000000E-002    0.000000000000000E+000
 -3.210000000000000E-002    0.000000000000000E+000
 -3.200000000000000E-002    0.000000000000000E+000
 -3.190000000000000E-002    0.000000000000000E+000
 -3.180000000000000E-002    0.000000000000000E+000
 -3.170000000000000E-002    0.000000000000000E+000
 -3.160000000000000E-002    0.000000000000000E+000
 -3.150000000000000E-002    0.000000000000000E+000
 -3.140000000000000E-002    0.000000000000000E+000
 -3.130000000000000E-002    0.000000000000000E+000
 -3.120000000000000E-002    0.000000000000000E+000
 -3.110000000000000E-002    0.000000000000000E+000
 -3.100000000000000E-002    0.000000000000000E+000
 -3.090000000000000E-002    0.000000000000000E+000
 -3.080000000000000E-002    0.000000000000000E+000
 -3.070000000000000E-002    0.000000000000000E+000
 -3.060000000000000E-002    0.000000000000000E+000
 -3.050000000000000E-002    0.000000000000000E+000
 -3.040000000000000E-002    0.000000000000000E+000
 -3.030000000000000E-002    0.000000000000000E+000
 -3.020000000000000E-002    0.000000000000000E+000
 -3.010000000000000E-002    0.000000000000000E+000
 -3.000000000000000E-002    0.000000000000000E+000
 -2.990000000000000E-002    0.000000000000000E+000
 -2.980000000000000E-002    0.000000000000000E+000
 -2.970000000000000E-002    0.000000000000000E+000
 -2.960000000000000E-002    0.000000000000000E+000
 -2.950000000000000E-002    0.000000000000000E+000
 -2.940000000000000E-002    0.000000000000000E+000
 -2.930000000000000E-002    0.000000000000000E+000
 -2.920000000000000E-002    0.000000000000000E+000
 -2.910000000000000E-002    0.000000000000000E+000
 -2.900000000000000E-002    0.000000000000000E+000
 -2.890000000000000E-002    0.000000000000000E+000
 -2.880000000000000E-002    0.000000000000000E+000
 -2.870000000000000E-002    0.000000000000000E+000
 -2.860000000000000E-002    0.000000000000000E+000
 -2.850000000000000E-002    0.000000000000000E+000
 -2.840000000000000E-002    0.000000000000000E+000
 -2.830000000000000E-002    0.000000000000000E+000
 -2.820000000000000E-002    0.000000000000000E+000
 -2.810000000000000E-002    0.000000000000000E+000
 -2.800000000000000E-002    0.000000000000000E+000
 -2.790000000000000E-002    0.000000000000000E+000
 -2.780000000000000E-002    0.000000000000000E+000
 -2.770000000000000E-002    0.000000000000000E+000
 -2.760000000000000E-002    0.000000000000000E+000
 -2.750000000000000E-002    0.000000000000000E+000
 -2.740000000000000E-002    0.000000000000000E+000
 -2.730000000000000E-002    0.000000000000000E+000
 -2.720000000000000E-002    0.000000000000000E+000
 -2.710000000000000E-002    0.000000000000000E+000
 -2.700000000000000E-002    0.000000000000000E+000
 -2.690000000000000E-002    0.000000000000000E+000
 -2.680000000000000E-002    0.000000000000000E+000
 -2.670000000000000E-002    0.000000000000000E+000
 -2.660000000000000E-002    0.000000000000000E+000
 -2.650000000000000E-002    0.000000000000000E+000
 -2.640000000000000E-002    0.000000000000000E+000
 -2.630000000000000E-002    0.000000000000000E+000
 -2.620000000000000E-002    0.000000000000000E+000
 -2.610000000000000E-002    0.000000000000000E+000
 -2.600000000000000E-002    0.000000000000000E+000
 -2.590000000000000E-002    0.000000000000000E+000
 -2.580000000000000E-002    0.000000000000000E+000
 -2.570000000000000E-002    0.000000000000000E+000
 -2.560000000000000E-002    0.000000000000000E+000
 -2.550000000000000E-002    0.000000000000000E+000
 -2.540000000000000E-002    0.000000000000000E+000
 -2.530000000000000E-002    0.000000000000000E+000
 -2.520000000000000E-002    0.000000000000000E+000
 -2.510000000000000E-002    0.000000000000000E+000
 -2.500000000000000E-002    0.000000000000000E+000
 -2.490000000000000E-002    0.000000000000000E+000
 -2.480000000000000E-002    0.000000000000000E+000
 -2.470000000000000E-002    0.000000000000000E+000
 -2.460000000000000E-002    0.000000000000000E+000
 -2.450000000000000E-002    0.000000000000000E+000
 -2.440000000000000E-002    0.000000000000000E+000
 -2.430000000000000E-002    0.000000000000000E+000
 -2.420000000000000E-002    0.000000000000000E+000
 -2.410000000000000E-002    0.000000000000000E+000
 -2.400000000000000E-002    0.000000000000000E+000
 -2.390000000000000E-002    0.000000000000000E+000
 -2.380000000000000E-002    0.000000000000000E+000
 -2.370000000000000E-002    0.000000000000000E+000
 -2.360000000000000E-002    0.000000000000000E+000
 -2.350000000000000E-002    0.000000000000000E+000
 -2.340000000000000E-002    0.000000000000000E+000
 -2.330000000000000E-002    0.000000000000000E+000
 -2.320000000000000E-002    0.000000000000000E+000
 -2.310000000000000E-002    0.000000000000000E+000
 -2.300000000000000E-002    0.000000000000000E+000
 -2.290000000000000E-002    0.000000000000000E+000
 -2.280000000000000E-002    0.000000000000000E+000
 -2.270000000000000E-002    0.000000000000000E+000
 -2.260000000000000E-002    0.000000000000000E+000
 -2.250000000000000E-002    0.000000000000000E+000
 -2.240000000000000E-002    0.000000000000000E+000
 -2.230000000000000E-002    0.000000000000000E+000
 -2.220000000000000E-002    0.000000000000000E+000
 -2.210000000000000E-002    0.000000000000000E+000
 -2.200000000000000E-002    0.000000000000000E+000
 -2.190000000000000E-002    0.000000000000000E+000
 -2.180000000000000E-002    0.000000000000000E+000
 -2.170000000000000E-002    0.000000000000000E+000
 -2.160000000000000E-002    0.000000000000000E+000
 -2.150000000000000E-002    0.000000000000000E+000
 -2.140000000000000E-002    0.000000000000000E+000
 -2.130000000000000E-002    0.000000000000000E+000
 -2.120000000000000E-002    0.000000000000000E+000
 -2.110000000000000E-002    0.000000000000000E+000
 -2.100000000000000E-002    0.000000000000000E+000
 -2.090000000000000E-002    0.000000000000000E+000
 -2.080000000000000E-002    0.000000000000000E+000
 -2.070000000000000E-002    0.000000000000000E+000
 -2.060000000000000E-002    0.000000000000000E+000
 -2.050000000000000E-002    0.000000000000000E+000
 -2.040000000000000E-002    0.000000000000000E+000
 -2.030000000000000E-002    0.000000000000000E+000
 -2.020000000000000E-002    0.000000000000000E+000
 -2.010000000000000E-002    0.000000000000000E+000
 -2.000000000000000E-002    0.000000000000000E+000
 -1.990000000000000E-002    0.000000000000000E+000
 -1.980000000000000E-002    0.000000000000000E+000
 -1.970000000000000E-002    0.000000000000000E+000
 -1.960000000000000E-002    0.000000000000000E+000
 -1.950000000000000E-002    0.000000000000000E+000
 -1.940000000000000E-002    0.000000000000000E+000
 -1.930000000000000E-002    0.000000000000000E+000
 -1.920000000000000E-002    0.000000000000000E+000
 -1.910000000000000E-002    0.000000000000000E+000
 -1.900000000000000E-002    0.000000000000000E+000
 -1.890000000000000E-002    0.000000000000000E+000
 -1.880000000000000E-002    0.000000000000000E+000
 -1.870000000000000E-002    0.000000000000000E+000
 -1.860000000000000E-002    0.000000000000000E+000
 -1.850000000000000E-002    0.000000000000000E+000
 -1.840000000000000E-002    0.000000000000000E+000
 -1.830000000000000E-002    0.000000000000000E+000
 -1.820000000000000E-002    0.000000000000000E+000
 -1.810000000000000E-002    0.000000000000000E+000
 -1.800000000000000E-002    0.000000000000000E+000
 -1.790000000000000E-002    0.000000000000000E+000
 -1.780000000000000E-002    0.000000000000000E+000
 -1.770000000000000E-002    0.000000000000000E+000
 -1.760000000000000E-002    0.000000000000000E+000
 -1.750000000000000E-002    0.000000000000000E+000
 -1.740000000000000E-002    0.000000000000000E+000
 -1.730000000000000E-002    0.000000000000000E+000
 -1.720000000000000E-002    0.000000000000000E+000
 -1.710000000000000E-002    0.000000000000000E+000
 -1.700000000000000E-002    0.000000000000000E+000
 -1.690000000000000E-002    0.000000000000000E+000
 -1.680000000000000E-002    0.000000000000000E+000
 -1.670000000000000E-002    0.000000000000000E+000
 -1.660000000000000E-002    0.000000000000000E+000
 -1.650000000000000E-002    0.000000000000000E+000
 -1.640000000000000E-002    0.000000000000000E+000
 -1.630000000000000E-002    0.000000000000000E+000
 -1.620000000000000E-002    0.000000000000000E+000
 -1.610000000000000E-002    0.000000000000000E+000
 -1.600000000000000E-002    0.000000000000000E+000
 -1.590000000000000E-002    0.000000000000000E+000
 -1.580000000000000E-002    0.000000000000000E+000
 -1.570000000000000E-002    0.000000000000000E+000
 -1.560000000000000E-002    0.000000000000000E+000
 -1.550000000000000E-002    0.000000000000000E+000
 -1.540000000000000E-002    0.000000000000000E+000
 -1.530000000000000E-002    0.000000000000000E+000
 -1.520000000000000E-002    0.000000000000000E+000
 -1.510000000000000E-002    0.000000000000000E+000
 -1.500000000000000E-002    0.000000000000000E+000
 -1.490000000000000E-002    0.000000000000000E+000
 -1.480000000000000E-002    0.000000000000000E+000
 -1.470000000000000E-002    0.000000000000000E+000
 -1.460000000000000E-002    0.000000000000000E+000
 -1.450000000000000E-002    0.000000000000000E+000
 -1.440000000000000E-002    0.000000000000000E+000
 -1.430000000000000E-002    0.000000000000000E+000
 -1.420000000000000E-002    0.000000000000000E+000
 -1.410000000000000E-002    0.000000000000000E+000
 -1.400000000000000E-002    0.000000000000000E+000
 -1.390000000000000E-002    0.000000000000000E+000
 -1.380000000000000E-002    0.000000000000000E+000
 -1.370000000000000E-002    0.000000000000000E+000
 -1.360000000000000E-002    0.000000000000000E+000
 -1.350000000000000E-002    0.000000000000000E+000
 -1.340000000000000E-002    0.000000000000000E+000
 -1.330000000000000E-002    0.000000000000000E+000
 -1.320000000000000E-002    0.000000000000000E+000
 -1.310000000000000E-002    0.000000000000000E+000
 -1.300000000000000E-002    0.000000000000000E+000
 -1.290000000000000E-002    0.000000000000000E+000
 -1.280000000000000E-002    0.000000000000000E+000
 -1.270000000000000E-002    0.000000000000000E+000
 -1.260000000000000E-002    0.000000000000000E+000
 -1.250000000000000E-002    0.000000000000000E+000
 -1.240000000000000E-002    0.000000000000000E+000
 -1.230000000000000E-002    0.000000000000000E+000
 -1.220000000000000E-002    0.000000000000000E+000
 -1.210000000000000E-002    0.000000000000000E+000
 -1.200000000000000E-002    0.000000000000000E+000
 -1.190000000000000E-002    0.000000000000000E+000
 -1.180000000000000E-002    0.000000000000000E+000
 -1.170000000000000E-002    0.000000000000000E+000
 -1.160000000000000E-002    0.000000000000000E+000
 -1.150000000000000E-002    0.000000000000000E+000
 -1.140000000000000E-002    0.000000000000000E+000
 -1.130000000000000E-002    0.000000000000000E+000
 -1.120000000000000E-002    0.000000000000000E+000
 -1.110000000000000E-002    3.590010244341892E-048
 -1.100000000000000E-002    3.590010244341892E-048
 -1.090000000000000E-002    3.590010244341892E-048
 -1.080000000000000E-002    3.590010244341892E-048
 -1.070000000000000E-002    0.000000000000000E+000
 -1.060000000000000E-002   -4.813877352821402E-048
 -1.050000000000000E-002    1.289257632108187E-047
 -1.040000000000000E-002    1.338942786398949E-047
 -1.030000000000000E-002    1.511014651537661E-047
 -1.020000000000000E-002    1.683086516676374E-047
 -1.010000000000000E-002   -2.744880100094289E-048
 -1.000000000000000E-002   -2.999749739854372E-047
 -9.899999999999999E-003   -4.756086787206794E-047
 -9.800000000000000E-003   -6.203107964415788E-047
 -9.699999999999999E-003   -5.031198833887947E-047
 -9.599999999999999E-003   -7.430418864114850E-047
 -9.500000000000000E-003   -1.985079711501705E-047
 -9.399999999999999E-003    1.252877800769985E-047
 -9.299999999999999E-003    4.500885208044704E-047
 -9.200000000000000E-003    1.480541138593768E-046
 -9.099999999999999E-003    2.024974410414487E-046
 -8.999999999999999E-003    3.014628711091533E-046
 -8.900000000000000E-003    4.299454598092094E-046
 -8.799999999999999E-003    6.930573516058744E-046
 -8.699999999999999E-003    5.055253655534490E-046
 -8.600000000000000E-003    4.365532516930774E-046
 -8.499999999999999E-003    3.629029636847525E-046
 -8.399999999999999E-003   -7.957985787866884E-047
 -8.300000000000000E-003   -5.277534718537627E-046
 -8.199999999999999E-003   -5.281826399921423E-046
 -8.100000000000000E-003   -9.912284272682391E-046
 -8.000000000000000E-003   -1.548993604113510E-045
 -7.899999999999999E-003   -2.263896756355269E-045
 -7.800000000000000E-003   -3.155037132569913E-045
 -7.699999999999999E-003   -4.822818378925041E-045
 -7.599999999999999E-003   -5.660036343161222E-045
 -7.499999999999999E-003   -6.725496859090451E-045
 -7.399999999999999E-003   -7.266958780033730E-045
 -7.299999999999999E-003   -7.110943848651280E-045
 -7.199999999999999E-003   -6.018291984090960E-045
 -7.100000000000000E-003   -2.479096014275666E-045
 -6.999999999999999E-003    3.271879508093470E-045
 -6.899999999999999E-003    1.067200010807664E-044
 -6.800000000000000E-003    2.019430406654699E-044
 -6.699999999999999E-003    3.104887242486040E-044
 -6.599999999999999E-003    4.298389895916809E-044
 -6.499999999999999E-003    5.409329270522633E-044
 -6.399999999999999E-003    6.268131071767162E-044
 -6.299999999999999E-003    6.551841944773847E-044
 -6.199999999999999E-003    6.012220315156612E-044
 -6.100000000000000E-003    4.283257074411182E-044
 -5.999999999999999E-003    1.107045933482484E-044
 -5.899999999999999E-003   -3.629147511879642E-044
 -5.800000000000000E-003   -9.960392162097618E-044
 -5.699999999999999E-003   -1.778231979540850E-043
 -5.599999999999999E-003   -2.646064668506008E-043
 -5.499999999999999E-003   -3.514135859117231E-043
 -5.399999999999999E-003   -4.266809357984334E-043
 -5.299999999999999E-003   -4.734766760267755E-043
 -5.199999999999999E-003   -4.729211419529120E-043
 -5.099999999999999E-003   -4.041103552857099E-043
 -4.999999999999999E-003   -2.471259413881463E-043
 -4.899999999999999E-003    1.458411109587171E-044
 -4.799999999999999E-003    3.894612180126559E-043
 -4.699999999999999E-003    8.723870430274084E-043
 -4.599999999999999E-003    1.443231594022065E-042
 -4.499999999999999E-003    2.057648353565015E-042
 -4.399999999999999E-003    2.649007971023211E-042
 -4.299999999999999E-003    3.124534855146534E-042
 -4.199999999999999E-003    3.368578767075531E-042
 -4.099999999999999E-003    3.250047798741603E-042
 -3.999999999999999E-003    2.630906039005426E-042
 -3.899999999999999E-003    1.388910767968584E-042
 -3.799999999999999E-003   -5.654787143639136E-043
 -3.699999999999999E-003   -3.260909779437152E-042
 -3.599999999999999E-003   -6.635121596999257E-042
 -3.499999999999999E-003   -1.050784173178798E-041
 -3.399999999999999E-003   -1.455781598199255E-041
 -3.299999999999999E-003   -1.830806474968527E-041
 -3.199999999999999E-003   -2.113221878034008E-041
 -3.099999999999999E-003   -2.227337423604155E-041
 -2.999999999999999E-003   -2.090146649406672E-041
 -2.899999999999999E-003   -1.619006002510105E-041
 -2.799999999999999E-003   -7.430738376829689E-042
 -2.699999999999999E-003    5.825138437816735E-042
 -2.599999999999999E-003    2.360838512123987E-041
 -2.499999999999999E-003    4.536212183648090E-041
 -2.399999999999999E-003    6.979057568368852E-041
 -2.299999999999999E-003    9.474406114174367E-041
 -2.199999999999999E-003    1.171726327298656E-040
 -2.099999999999999E-003    1.331835616050742E-040
 -1.999999999999999E-003    1.382272271068383E-040
 -1.899999999999999E-003    1.274377162105269E-040
 -1.799999999999999E-003    9.614288848205172E-041
 -1.699999999999999E-003    4.054289863763778E-041
 -1.599999999999999E-003   -4.148090134788527E-041
 -1.499999999999999E-003   -1.494679444323563E-040
 -1.399999999999999E-003   -2.794857362954214E-040
 -1.299999999999999E-003   -4.233509871198059E-040
 -1.199999999999999E-003   -5.681090967852185E-040
 -1.099999999999999E-003   -6.959277496480311E-040
 -9.999999999999989E-004   -7.845726355485275E-040
 -8.999999999999990E-004   -8.085975419073283E-040
 -7.999999999999990E-004   -7.413665703749839E-040
 -6.999999999999989E-004   -5.579442372713099E-040
 -5.999999999999990E-004   -2.387843512238567E-040
 -4.999999999999989E-004    2.259391010094476E-040
 -3.999999999999989E-004    8.316917658815047E-040
 -2.999999999999989E-004    1.555087269022426E-039
 -1.999999999999989E-004    2.350144927401956E-039
 -9.999999999999892E-005    3.146011351066481E-039
  1.084202172485504E-018    3.846926306929891E-039
  1.000000000000011E-004    4.335184994143604E-039
  2.000000000000011E-004    4.477762655053277E-039
  3.000000000000011E-004    4.137020351606865E-039
  4.000000000000011E-004    3.185578227342761E-039
  5.000000000000011E-004    1.524954243478613E-039
  6.000000000000011E-004   -8.929887751391775E-040
  7.000000000000011E-004   -4.043414057635338E-039
  8.000000000000011E-004   -7.806990788643557E-039
  9.000000000000012E-004   -1.195236468816724E-038
  1.000000000000001E-003   -1.612597167542792E-038
  1.100000000000001E-003   -1.985275602896128E-038
  1.200000000000001E-003   -2.255123190068518E-038
  1.300000000000001E-003   -2.356575656012957E-038
  1.400000000000001E-003   -2.221775729052455E-038
  1.500000000000001E-003   -1.787614197529360E-038
  1.600000000000001E-003   -1.004482031102682E-038
  1.700000000000001E-003    1.537101327402508E-039
  1.800000000000001E-003    1.678994221063383E-038
  1.900000000000001E-003    3.519309001342989E-038
  2.000000000000001E-003    5.570254240945108E-038
  2.100000000000001E-003    7.670119082603390E-038
  2.200000000000001E-003    9.599756345379873E-038
  2.300000000000001E-003    1.108881223878544E-037
  2.400000000000001E-003    1.182959140735427E-037
  2.500000000000001E-003    1.149938045938899E-037
  2.600000000000001E-003    9.791362313659273E-038
  2.700000000000001E-003    6.453372191549078E-038
  2.800000000000001E-003    1.332676607571127E-038
  2.900000000000001E-003   -5.576278155493688E-038
  3.000000000000001E-003   -1.408541793258766E-037
  3.100000000000001E-003   -2.377331030556618E-037
  3.200000000000001E-003   -3.395847259514947E-037
  3.300000000000001E-003   -4.369254947419467E-037
  3.400000000000001E-003   -5.178012732418699E-037
  3.500000000000001E-003   -5.683113798255922E-037
  3.600000000000001E-003   -5.735018859627141E-037
  3.700000000000001E-003   -5.186441226790623E-037
  3.800000000000001E-003   -3.908799792699863E-037
  3.900000000000001E-003   -1.811711681721168E-037
  4.000000000000001E-003    1.135625604451287E-037
  4.100000000000001E-003    4.882842894533139E-037
  4.200000000000001E-003    9.278822198839508E-037
  4.300000000000001E-003    1.405679354039850E-036
  4.400000000000001E-003    1.882713583239277E-036
  4.500000000000001E-003    2.308094777869744E-036
  4.600000000000002E-003    2.620732607812500E-036
  4.700000000000001E-003    2.752672067404715E-036
  4.800000000000001E-003    2.634175326277318E-036
  4.900000000000002E-003    2.200552297719845E-036
  5.000000000000001E-003    1.400555152241617E-036
  5.100000000000001E-003    2.059288616076313E-037
  5.200000000000001E-003   -1.378528141107215E-036
  5.300000000000002E-003   -3.305311319205240E-036
  5.400000000000001E-003   -5.476104168367879E-036
  5.500000000000001E-003   -7.736561515016358E-036
  5.600000000000002E-003   -9.875436487753972E-036
  5.700000000000001E-003   -1.162948262231291E-035
  5.800000000000001E-003   -1.269540424510971E-035
  5.900000000000002E-003   -1.274977333194650E-035
  6.000000000000001E-003   -1.147725022161902E-035
  6.100000000000001E-003   -8.606662303853870E-036
  6.200000000000002E-003   -3.953521578389055E-036
  6.300000000000002E-003    2.533619366376603E-036
  6.400000000000001E-003    1.072675846353597E-035
  6.500000000000001E-003    2.027699821559592E-035
  6.600000000000002E-003    3.058411623322461E-035
  6.700000000000001E-003    4.078385455110005E-035
  6.800000000000001E-003    4.975985189604893E-035
  6.900000000000002E-003    5.618656060317992E-035
  7.000000000000001E-003    5.860809640318709E-035
  7.100000000000001E-003    5.555545238212350E-035
  7.200000000000002E-003    4.570126346458287E-035
  7.300000000000002E-003    2.804649679349388E-035
  7.400000000000001E-003    2.128597401873248E-036
  7.500000000000001E-003   -3.176548205588688E-035
  7.600000000000002E-003   -7.240304802363945E-035
  7.700000000000001E-003   -1.174535223881290E-034
  7.800000000000001E-003   -1.634104298574835E-034
  7.900000000000001E-003   -2.056189141010956E-034
  8.000000000000002E-003   -2.384378929677732E-034
  8.100000000000001E-003   -2.555596296854707E-034
  8.200000000000001E-003   -2.504993297615989E-034
  8.300000000000002E-003   -2.172509341082827E-034
  8.400000000000001E-003   -1.510867508032681E-034
  8.500000000000002E-003   -4.945452509103621E-035
  8.600000000000002E-003    8.709850359341342E-035
  8.700000000000001E-003    2.540709238920783E-034
  8.800000000000002E-003    4.423360396576180E-034
  8.900000000000002E-003    6.377862937687178E-034
  9.000000000000001E-003    8.214241491423501E-034
  9.100000000000002E-003    9.700218204582596E-034
  9.200000000000002E-003    1.057444319727716E-033
  9.300000000000001E-003    1.056678019577634E-033
  9.400000000000002E-003    9.425479104290493E-034
  9.500000000000001E-003    6.950154131706783E-034
  9.600000000000001E-003    3.028581039452842E-034
  9.700000000000002E-003   -2.325741201693642E-034
  9.800000000000001E-003   -8.939215768332819E-034
  9.900000000000001E-003   -1.645177085922360E-033
  1.000000000000000E-002   -2.430366029107548E-033
  1.010000000000000E-002   -3.174071561557219E-033
  1.020000000000000E-002   -3.784267698305833E-033
  1.030000000000000E-002   -4.157789602659160E-033
  1.040000000000000E-002   -4.188579042647145E-033
  1.050000000000000E-002   -3.778546885389342E-033
  1.060000000000000E-002   -2.850572325059857E-033
  1.070000000000000E-002   -1.362787510077301E-033
  1.080000000000000E-002    6.771109052598179E-034
  1.090000000000000E-002    3.199101905388902E-033
  1.100000000000000E-002    6.061501207129455E-033
  1.110000000000000E-002    9.046996194126293E-033
  1.120000000000000E-002    1.186599332488339E-032
  1.130000000000000E-002    1.416886428249095E-032
  1.140000000000000E-002    1.556816810293074E-032
  1.150000000000000E-002    1.567101487336850E-032
  1.160000000000000E-002    1.412075193413741E-032
  1.170000000000000E-002    1.064577498691724E-032
  1.180000000000000E-002    5.111939123295159E-033
  1.190000000000000E-002   -2.426270472558462E-033
  1.200000000000000E-002   -1.168188142244817E-032
  1.210000000000000E-002   -2.210565705552612E-032
  1.220000000000000E-002   -3.287743737561235E-032
  1.230000000000000E-002   -4.292513460929015E-032
  1.240000000000000E-002   -5.097639779980335E-032
  1.250000000000000E-002   -5.564590425721327E-032
  1.260000000000000E-002   -5.555766416452062E-032
  1.270000000000000E-002   -4.949799687034278E-032
  1.280000000000000E-002   -3.659002630487477E-032
  1.290000000000000E-002   -1.647595306817216E-032
  1.300000000000000E-002    1.051110419926015E-032
  1.310000000000000E-002    4.320736227789167E-032
  1.320000000000000E-002    7.953450756966554E-032
  1.330000000000000E-002    1.164949456232545E-031
  1.340000000000000E-002    1.502670287389562E-031
  1.350000000000000E-002    1.764148193510188E-031
  1.360000000000000E-002    1.902181278897445E-031
  1.370000000000000E-002    1.871162264618210E-031
  1.380000000000000E-002    1.632453940176693E-031
  1.390000000000000E-002    1.160334456294934E-031
  1.400000000000000E-002    4.480033213623844E-032
  1.410000000000000E-002   -4.869977160557343E-032
  1.420000000000000E-002   -1.598704491704119E-031
  1.430000000000000E-002   -2.810755334133713E-031
  1.440000000000000E-002   -4.017270658144037E-031
  1.450000000000000E-002   -5.087181901091977E-031
  1.460000000000000E-002   -5.872384472190136E-031
  1.470000000000000E-002   -6.219733334282582E-031
  1.480000000000000E-002   -5.986510030185202E-031
  1.490000000000000E-002   -5.058482318436992E-031
  1.500000000000000E-002   -3.369201457252012E-031
  1.510000000000000E-002   -9.186923391882111E-032
  1.520000000000000E-002    2.210656946460619E-031
  1.530000000000000E-002    5.843441328599883E-031
  1.540000000000000E-002    9.708238840523427E-031
  1.550000000000000E-002    1.344443451197704E-030
  1.560000000000000E-002    1.662043633847059E-030
  1.570000000000000E-002    1.876398528185974E-030
  1.580000000000000E-002    1.940405214513798E-030
  1.590000000000000E-002    1.812245341422272E-030
  1.600000000000000E-002    1.461174579955091E-030
  1.610000000000000E-002    8.734508244693285E-031
  1.620000000000000E-002    5.777028317610712E-032
  1.630000000000000E-002   -9.504935171334983E-031
  1.640000000000000E-002   -2.086996772836240E-030
  1.650000000000000E-002   -3.258792837932575E-030
  1.660000000000000E-002   -4.347925103043446E-030
  1.670000000000000E-002   -5.218586877356716E-030
  1.680000000000000E-002   -5.727886811944420E-030
  1.690000000000000E-002   -5.739838440229007E-030
  1.700000000000000E-002   -5.141781377856577E-030
  1.710000000000000E-002   -3.861942481941173E-030
  1.720000000000000E-002   -1.886456992443738E-030
  1.730000000000000E-002    7.261444983390983E-031
  1.740000000000000E-002    3.835189782843144E-030
  1.750000000000000E-002    7.214998359759140E-030
  1.760000000000000E-002    1.056074341844528E-029
  1.770000000000000E-002    1.350436711126712E-029
  1.780000000000000E-002    1.564098277168104E-029
  1.790000000000000E-002    1.656520252260561E-029
  1.800000000000000E-002    1.591550403125466E-029
  1.810000000000000E-002    1.342346739303328E-029
  1.820000000000000E-002    8.963473168028108E-030
  1.830000000000000E-002    2.597415036245717E-030
  1.840000000000000E-002   -5.391681105925153E-030
  1.850000000000000E-002   -1.448328567089112E-029
  1.860000000000000E-002   -2.392586212589193E-029
  1.870000000000000E-002   -3.277041428834697E-029