 -4.000000000000000E-002    0.000000000000000E+000
 -3.990000000000000E-002    0.000000000000000E+000
 -3.980000000000000E-002    0.000000000000000E+000
 -3.970000000000000E-002    0.000000000000000E+000
 -3.960000000000000E-002    2.830920371412320E-017
 -3.950000000000000E-002    2.530291239106182E-016
 -3.940000000000000E-002    1.248944763767806E-015
 -3.930000000000000E-002    4.487193064363723E-015
 -3.920000000000000E-002    1.307137234896330E-014
 -3.910000000000000E-002    3.264731215907177E-014
 -3.900000000000000E-002    7.226232490974563E-014
 -3.890000000000000E-002    1.447620081332424E-013
 -3.880000000000000E-002    2.661325440706361E-013
 -3.870000000000000E-002    4.530924391435099E-013
 -3.860000000000000E-002    7.182890882770927E-013
 -3.850000000000000E-002    1.062735855010736E-012
 -3.840000000000000E-002    1.465672234661364E-012
 -3.830000000000000E-002    1.872824762027069E-012
 -3.820000000000000E-002    2.184991297743366E-012
 -3.810000000000000E-002    2.249793756310647E-012
 -3.800000000000000E-002    1.860100896056585E-012
 -3.790000000000000E-002    7.627599287119987E-013
 -3.780000000000000E-002   -1.319349932704313E-012
 -3.770000000000000E-002   -4.650440604256894E-012
 -3.760000000000000E-002   -9.430998686203629E-012
 -3.750000000000000E-002   -1.573696293085050E-011
 -3.740000000000000E-002   -2.345610265801334E-011
 -3.730000000000000E-002   -3.223175205492298E-011
 -3.720000000000000E-002   -4.142593696734749E-011
 -3.710000000000000E-002   -5.011416902687220E-011
 -3.700000000000000E-002   -5.712223751744863E-011
 -3.690000000000000E-002   -6.111092806084353E-011
 -3.680000000000000E-002   -6.070821864024940E-011
 -3.670000000000000E-002   -5.468038244737802E-011
 -3.660000000000000E-002   -4.212506079372103E-011
 -3.650000000000000E-002   -2.266185672051647E-011
 -3.640000000000000E-002    3.408973058066756E-012
 -3.630000000000000E-002    3.501040774133894E-011
 -3.620000000000000E-002    7.028211920094908E-011
 -3.610000000000000E-002    1.066818402024474E-010
 -3.600000000000000E-002    1.411995819695459E-010
 -3.590000000000000E-002    1.706731527392384E-010
 -3.580000000000000E-002    1.921757952250138E-010
 -3.570000000000000E-002    2.034305481607337E-010
 -3.560000000000000E-002    2.031945356371518E-010
 -3.550000000000000E-002    1.915516865072153E-010
 -3.540000000000000E-002    1.700565157742397E-010
 -3.530000000000000E-002    1.416853306571831E-010
 -3.520000000000000E-002    1.105734973063999E-010
 -3.510000000000000E-002    8.154597683722606E-011
 -3.500000000000000E-002    5.947996556998802E-011
 -3.490000000000000E-002    4.856798434822105E-011
 -3.480000000000000E-002    5.157351326263589E-011
 -3.470000000000000E-002    6.918344661424665E-011
 -3.460000000000000E-002    9.956054664805715E-011
 -3.450000000000000E-002    1.381826711218260E-010
 -3.440000000000000E-002    1.780246294919852E-010
 -3.430000000000000E-002    2.100964019249766E-010
 -3.420000000000000E-002    2.243040001788622E-010
 -3.410000000000000E-002    2.105513485751047E-010
 -3.400000000000000E-002    1.599621847165854E-010
 -3.390000000000000E-002    6.607551514990134E-011
 -3.380000000000000E-002   -7.413839572233689E-011
 -3.370000000000000E-002   -2.595805403711994E-010
 -3.360000000000000E-002   -4.847467118835562E-010
 -3.350000000000000E-002   -7.399241488541390E-010
 -3.340000000000000E-002   -1.011851361841943E-009
 -3.330000000000000E-002   -1.284768870137864E-009
 -3.320000000000000E-002   -1.541734262653873E-009
 -3.310000000000000E-002   -1.766038778961354E-009
 -3.300000000000000E-002   -1.942546802923029E-009
 -3.290000000000000E-002   -2.058794373275467E-009
 -3.280000000000000E-002   -2.105718216072075E-009
 -3.270000000000000E-002   -2.077947176591327E-009
 -3.260000000000000E-002   -1.973651978784919E-009
 -3.250000000000000E-002   -1.794026165002392E-009
 -3.240000000000000E-002   -1.542519379045639E-009
 -3.230000000000000E-002   -1.223989811157017E-009
 -3.220000000000000E-002   -8.439435067197687E-010
 -3.210000000000000E-002   -4.080075289417421E-010
 -3.200000000000000E-002    7.826689452066638E-011
 -3.190000000000000E-002    6.092500726137708E-010
 -3.180000000000000E-002    1.178782068475484E-009
 -3.170000000000000E-002    1.779554916884179E-009
 -3.160000000000000E-002    2.402505907275459E-009
 -3.150000000000000E-002    3.036421673966348E-009
 -3.140000000000000E-002    3.667924806090118E-009
 -3.130000000000000E-002    4.281951106692418E-009
 -3.120000000000000E-002    4.862732760356670E-009
 -3.110000000000000E-002    5.395181625416002E-009
 -3.100000000000000E-002    5.866453685663840E-009
 -3.090000000000000E-002    6.267392313290386E-009
 -3.080000000000000E-002    6.593486549553186E-009
 -3.070000000000000E-002    6.845014629379969E-009
 -3.060000000000000E-002    7.026117581988806E-009
 -3.050000000000000E-002    7.142692287008337E-009
 -3.040000000000000E-002    7.199207915115518E-009
 -3.030000000000000E-002    7.194753487868618E-009
 -3.020000000000000E-002    7.118852849466531E-009
 -3.010000000000000E-002    6.947741695901814E-009
 -3.000000000000000E-002    6.641880839470529E-009
 -2.990000000000000E-002    6.145455421101680E-009
 -2.980000000000000E-002    5.388455482794185E-009
 -2.970000000000000E-002    4.291656065411439E-009
 -2.960000000000000E-002    2.774453421945566E-009
 -2.950000000000000E-002    7.650795360915227E-010
 -2.940000000000000E-002   -1.787714341167265E-009
 -2.930000000000000E-002   -4.902764374862981E-009
 -2.920000000000000E-002   -8.555914897668802E-009
 -2.910000000000000E-002   -1.267232411959088E-008
 -2.900000000000000E-002   -1.712310156168426E-008
 -2.890000000000000E-002   -2.172737290047735E-008
 -2.880000000000000E-002   -2.626028031122384E-008
 -2.870000000000000E-002   -3.046680465047545E-008
 -2.860000000000000E-002   -3.408047980637137E-008
 -2.850000000000000E-002   -3.684540300309194E-008
 -2.840000000000000E-002   -3.853931971102491E-008
 -2.830000000000000E-002   -3.899521252330567E-008
 -2.820000000000000E-002   -3.811877181797607E-008
 -2.810000000000000E-002   -3.589935798596790E-008
 -2.800000000000000E-002   -3.241269516661927E-008
 -2.790000000000000E-002   -2.781436487289846E-008
 -2.780000000000000E-002   -2.232429092908224E-008
 -2.770000000000000E-002   -1.620350048963029E-008
 -2.760000000000000E-002   -9.725527811875579E-009
 -2.750000000000000E-002   -3.145662931968994E-009
 -2.740000000000000E-002    3.328216557351490E-009
 -2.730000000000000E-002    9.559483611012229E-009
 -2.720000000000000E-002    1.549783749017549E-008
 -2.710000000000000E-002    2.118315813539929E-008
 -2.700000000000000E-002    2.673682356323087E-008
 -2.690000000000000E-002    3.234071793956144E-008
 -2.680000000000000E-002    3.820574483395260E-008
 -2.670000000000000E-002    4.453302609445285E-008
 -2.660000000000000E-002    5.147223381817312E-008
 -2.650000000000000E-002    5.908205268291073E-008
 -2.640000000000000E-002    6.729795092696655E-008
 -2.630000000000000E-002    7.591182229911469E-008
 -2.620000000000000E-002    8.456703254037244E-008
 -2.610000000000000E-002    9.277068312299481E-008
 -2.600000000000000E-002    9.992304106582346E-008
 -2.590000000000000E-002    1.053620567753813E-007
 -2.580000000000000E-002    1.084189806662267E-007
 -2.570000000000000E-002    1.084797126624679E-007
 -2.560000000000000E-002    1.050454754787384E-007
 -2.550000000000000E-002    9.778632822804832E-008
 -2.540000000000000E-002    8.658152519329967E-008
 -2.530000000000000E-002    7.154208062416569E-008
 -2.520000000000000E-002    5.301268932559853E-008
 -2.510000000000000E-002    3.155244747612318E-008
 -2.500000000000000E-002    7.896166314684961E-009
 -2.490000000000000E-002   -1.709977089678120E-008
 -2.480000000000000E-002   -4.252119256706400E-008
 -2.470000000000000E-002   -6.746273086531429E-008
 -2.460000000000000E-002   -9.108992718335512E-008
 -2.450000000000000E-002   -1.126901155899231E-007
 -2.440000000000000E-002   -1.317065696263454E-007
 -2.430000000000000E-002   -1.477523747999052E-007
 -2.420000000000000E-002   -1.606027062738951E-007
 -2.410000000000000E-002   -1.701667061871210E-007
 -2.400000000000000E-002   -1.764426030239153E-007
 -2.390000000000000E-002   -1.794613903758997E-007
 -2.380000000000000E-002   -1.792257743019312E-007
 -2.370000000000000E-002   -1.756516688644195E-007
 -2.360000000000000E-002   -1.685189421810314E-007
 -2.350000000000000E-002   -1.574372476430652E-007
 -2.340000000000000E-002   -1.418307965850889E-007
 -2.330000000000000E-002   -1.209439477400471E-007
 -2.320000000000000E-002   -9.386695303737652E-008
 -2.310000000000000E-002   -5.957911377747445E-008
 -2.300000000000000E-002   -1.700471241397534E-008
 -2.290000000000000E-002    3.492415936628593E-008
 -2.280000000000000E-002    9.720463749910835E-008
 -2.270000000000000E-002    1.707060949888794E-007
 -2.260000000000000E-002    2.561249561684518E-007
 -2.250000000000000E-002    3.539553357705883E-007
 -2.240000000000000E-002    4.644784329051861E-007
 -2.230000000000000E-002    5.877705281448810E-007
 -2.220000000000000E-002    7.237291910570397E-007
 -2.210000000000000E-002    8.721138449055619E-007
 -2.200000000000000E-002    1.032597785579424E-006
 -2.190000000000000E-002    1.204826261060497E-006
 -2.180000000000000E-002    1.388475122199004E-006
 -2.170000000000000E-002    1.583308236650623E-006
 -2.160000000000000E-002    1.789225577346576E-006
 -2.150000000000000E-002    2.006303236941035E-006
 -2.140000000000000E-002    2.234821155422849E-006
 -2.130000000000000E-002    2.475279629352630E-006
 -2.120000000000000E-002    2.728402368737663E-006
 -2.110000000000000E-002    2.995131551484110E-006
 -2.100000000000000E-002    3.276611667459252E-006
 -2.090000000000000E-002    3.574168038328123E-006
 -2.080000000000000E-002    3.889280804115183E-006
 -2.070000000000000E-002    4.223555732760276E-006
 -2.060000000000000E-002    4.578695416943334E-006
 -2.050000000000000E-002    4.956473117918116E-006
 -2.040000000000000E-002    5.358708875122234E-006
 -2.030000000000000E-002    5.787251791375818E-006
 -2.020000000000000E-002    6.243969159387093E-006
 -2.010000000000000E-002    6.730743765398339E-006
 -2.000000000000000E-002    7.249479302055413E-006
 -1.990000000000000E-002    7.802113241033987E-006
 -1.980000000000000E-002    8.390641514338830E-006
 -1.970000000000000E-002    9.017147613248468E-006
 -1.960000000000000E-002    9.683834540753840E-006
 -1.950000000000000E-002    1.039306223501623E-005
 -1.940000000000000E-002    1.114738012788443E-005
 -1.930000000000000E-002    1.194955777661572E-005
 -1.920000000000000E-002    1.280260021902404E-005
 -1.910000000000000E-002    1.370975898091777E-005
 -1.900000000000000E-002    1.467452098202097E-005
 -1.890000000000000E-002    1.570059238294509E-005
 -1.880000000000000E-002    1.679185913019564E-005
 -1.870000000000000E-002    1.795234616852957E-005
 -1.860000000000000E-002    1.918617001479356E-005
 -1.850000000000000E-002    2.049748857082307E-005
 -1.840000000000000E-002    2.189046258261224E-005
 -1.830000000000000E-002    2.336923413943611E-005
 -1.820000000000000E-002    2.493791618668697E-005
 -1.810000000000000E-002    2.660061529217165E-005
 -1.800000000000000E-002    2.836148194249505E-005
 -1.790000000000000E-002    3.022476792672996E-005
 -1.780000000000000E-002    3.219492488775856E-005
 -1.770000000000000E-002    3.427670572583708E-005
 -1.760000000000000E-002    3.647527475837970E-005
 -1.750000000000000E-002    3.879630013253223E-005
 -1.740000000000000E-002    4.124604857649374E-005
 -1.730000000000000E-002    4.383144477996291E-005
 -1.720000000000000E-002    4.656010833883720E-005
 -1.710000000000000E-002    4.944034456114511E-005
 -1.700000000000000E-002    5.248111462141829E-005
 -1.690000000000000E-002    5.569196812872618E-005
 -1.680000000000000E-002    5.908296472750466E-005
 -1.670000000000000E-002    6.266458720119382E-005
 -1.660000000000000E-002    6.644762297999690E-005
 -1.650000000000000E-002    7.044311106988898E-005
 -1.640000000000000E-002    7.466227895462993E-005
 -1.630000000000000E-002    7.911650447067333E-005
 -1.620000000000000E-002    8.381736542249286E-005
 -1.610000000000000E-002    8.877665915701892E-005
 -1.600000000000000E-002    9.400650516273979E-005
 -1.590000000000000E-002    9.951944824816478E-005
 -1.580000000000000E-002    1.053286001996040E-004
 -1.570000000000000E-002    1.114477543262747E-004
 -1.560000000000000E-002    1.178915125826895E-004
 -1.550000000000000E-002    1.246753674133768E-004
 -1.540000000000000E-002    1.318157816155606E-004
 -1.530000000000000E-002    1.393301937318247E-004
 -1.520000000000000E-002    1.472370198191494E-004
 -1.510000000000000E-002    1.555556190493624E-004
 -1.500000000000000E-002    1.643062235605894E-004
 -1.490000000000000E-002    1.735098222005977E-004
 -1.480000000000000E-002    1.831881373489712E-004
 -1.470000000000000E-002    1.933634593908825E-004
 -1.460000000000000E-002    2.040587119248782E-004
 -1.450000000000000E-002    2.152973790329802E-004
 -1.440000000000000E-002    2.271034872218852E-004
 -1.430000000000000E-002    2.395017269599275E-004
 -1.420000000000000E-002    2.525175431929995E-004
 -1.410000000000000E-002    2.661772780193691E-004
 -1.400000000000000E-002    2.805082854666112E-004
 -1.390000000000000E-002    2.955391251494198E-004
 -1.380000000000000E-002    3.112997495293901E-004
 -1.370000000000000E-002    3.278216212414749E-004
 -1.360000000000000E-002    3.451378845960382E-004
 -1.350000000000000E-002    3.632834817488906E-004
 -1.340000000000000E-002    3.822952331846962E-004
 -1.330000000000000E-002    4.022118357938559E-004
 -1.320000000000000E-002    4.230740111988592E-004
 -1.310000000000000E-002    4.449244441533285E-004
 -1.300000000000000E-002    4.678078162997836E-004
 -1.290000000000000E-002    4.917707126642842E-004
 -1.280000000000000E-002    5.168617122010019E-004
 -1.270000000000000E-002    5.431313455257728E-004
 -1.260000000000000E-002    5.706320240371325E-004
 -1.250000000000000E-002    5.994180873602952E-004
 -1.240000000000000E-002    6.295458438177664E-004
 -1.230000000000000E-002    6.610734895589822E-004
 -1.220000000000000E-002    6.940612475465706E-004
 -1.210000000000000E-002    7.285713660264083E-004
 -1.200000000000000E-002    7.646681139891407E-004
 -1.190000000000000E-002    8.024179449323101E-004
 -1.180000000000000E-002    8.418895942607471E-004
 -1.170000000000000E-002    8.831538687250982E-004
 -1.160000000000000E-002    9.262841690593448E-004
 -1.150000000000000E-002    9.713563213865542E-004
 -1.140000000000000E-002    1.018448786758320E-003
 -1.130000000000000E-002    1.067642733941022E-003
 -1.120000000000000E-002    1.119022185053888E-003
 -1.110000000000000E-002    1.172674115576873E-003
 -1.100000000000000E-002    1.228688356709975E-003
 -1.090000000000000E-002    1.287157913982760E-003
 -1.080000000000000E-002    1.348178808044306E-003
 -1.070000000000000E-002    1.411850103054063E-003
 -1.060000000000000E-002    1.478273987035672E-003
 -1.050000000000000E-002    1.547555439616184E-003
 -1.040000000000000E-002    1.619802672748386E-003
 -1.030000000000000E-002    1.695126551460600E-003
 -1.020000000000000E-002    1.773640966123689E-003
 -1.010000000000000E-002    1.855462650238672E-003
 -1.000000000000000E-002    1.940711252408651E-003
 -9.899999999999999E-003    2.029509508780063E-003
 -9.800000000000000E-003    2.121983436583566E-003
 -9.699999999999999E-003    2.218262145693149E-003
 -9.599999999999999E-003    2.318478222362187E-003
 -9.500000000000000E-003    2.422768222719970E-003
 -9.399999999999999E-003    2.531272365055641E-003
 -9.299999999999999E-003    2.644134670330066E-003
 -9.200000000000000E-003    2.761503753159973E-003
 -9.099999999999999E-003    2.883532229677723E-003
 -8.999999999999999E-003    3.010376657455763E-003
 -8.900000000000000E-003    3.142197847541185E-003
 -8.799999999999999E-003    3.279160288727228E-003
 -8.699999999999999E-003    3.421432732374028E-003
 -8.600000000000000E-003    3.569187306291342E-003
 -8.499999999999999E-003    3.722599490289433E-003
 -8.399999999999999E-003    3.881848045182648E-003
 -8.300000000000000E-003    4.047115370593529E-003
 -8.199999999999999E-003    4.218586905817747E-003
 -8.100000000000000E-003    4.396451936476109E-003
 -8.000000000000000E-003    4.580903292732494E-003
 -7.899999999999999E-003    4.772137247545439E-003
 -7.800000000000000E-003    4.970354890434653E-003
 -7.699999999999999E-003    5.175761567396045E-003
 -7.599999999999999E-003    5.388566823723735E-003
 -7.499999999999999E-003    5.608985491316214E-003
 -7.399999999999999E-003    5.837236862819162E-003
 -7.299999999999999E-003    6.073545175465731E-003
 -7.199999999999999E-003    6.318139862171593E-003
 -7.100000000000000E-003    6.571253967615180E-003
 -6.999999999999999E-003    6.833126018978227E-003
 -6.899999999999999E-003    7.103996147495945E-003
 -6.800000000000000E-003    7.384110282274947E-003
 -6.699999999999999E-003    7.673716288619529E-003
 -6.599999999999999E-003    7.973064554361128E-003
 -6.499999999999999E-003    8.282409060115209E-003
 -6.399999999999999E-003    8.602005442897452E-003
 -6.299999999999999E-003    8.932113412684243E-003
 -6.199999999999999E-003    9.272994042107496E-003
 -6.100000000000000E-003    9.624913140332463E-003
 -5.999999999999999E-003    9.988138839858355E-003
 -5.899999999999999E-003    1.036294464850957E-002
 -5.800000000000000E-003    1.074960639000496E-002
 -5.699999999999999E-003    1.114840505529148E-002
 -5.599999999999999E-003    1.155962577637200E-002
 -5.499999999999999E-003    1.198355749090563E-002
 -5.399999999999999E-003    1.242049355671209E-002
 -5.299999999999999E-003    1.287072983691198E-002
 -5.199999999999999E-003    1.333456544225170E-002
 -5.099999999999999E-003    1.381230324155408E-002
 -4.999999999999999E-003    1.430424613875558E-002
 -4.899999999999999E-003    1.481070038398059E-002
 -4.799999999999999E-003    1.533197035976714E-002
 -4.699999999999999E-003    1.586836473670131E-002
 -4.599999999999999E-003    1.642019083342468E-002
 -4.499999999999999E-003    1.698775577985306E-002
 -4.399999999999999E-003    1.757136918106775E-002
 -4.299999999999999E-003    1.817133951345783E-002
 -4.199999999999999E-003    1.878797948971656E-002
 -4.099999999999999E-003    1.942159979122622E-002
 -3.999999999999999E-003    2.007251355620206E-002
 -3.899999999999999E-003    2.074103381389710E-002
 -3.799999999999999E-003    2.142747504424017E-002
 -3.699999999999999E-003    2.213215125860715E-002
 -3.599999999999999E-003    2.285537617016683E-002
 -3.499999999999999E-003    2.359746198966048E-002
 -3.399999999999999E-003    2.435872037275913E-002
 -3.299999999999999E-003    2.513945690552100E-002
 -3.199999999999999E-003    2.593997444085817E-002
 -3.099999999999999E-003    2.676057094075390E-002
 -2.999999999999999E-003    2.760154363682890E-002
 -2.899999999999999E-003    2.846317917388246E-002
 -2.799999999999999E-003    2.934576149311618E-002
 -2.699999999999999E-003    3.024956817022774E-002
 -2.599999999999999E-003    3.117487067799562E-002
 -2.499999999999999E-003    3.212193746708495E-002
 -2.399999999999999E-003    3.309102828347536E-002
 -2.299999999999999E-003    3.408240010226125E-002
 -2.199999999999999E-003    3.509630268908473E-002
 -2.099999999999999E-003    3.613298253749597E-002
 -1.999999999999999E-003    3.719267195613217E-002
 -1.899999999999999E-003    3.827560431885681E-002
 -1.799999999999999E-003    3.938200141424512E-002
 -1.699999999999999E-003    4.051207485537946E-002
 -1.599999999999999E-003    4.166602904203201E-002
 -1.499999999999999E-003    4.284405372620086E-002
 -1.399999999999999E-003    4.404632995242760E-002
 -1.299999999999999E-003    4.527302100320173E-002
 -1.199999999999999E-003    4.652428024738079E-002
 -1.099999999999999E-003    4.780025102255864E-002
 -9.999999999999989E-004    4.910105725863698E-002
 -8.999999999999990E-004    5.042681260221648E-002
 -7.999999999999990E-004    5.177760998389795E-002
 -6.999999999999989E-004    5.315353751256598E-002
 -5.999999999999990E-004    5.455466163081333E-002
 -4.999999999999989E-004    5.598104215021005E-002
 -3.999999999999989E-004    5.743271652396543E-002
 -2.999999999999989E-004    5.890971387656315E-002
 -1.999999999999989E-004    6.041204241079761E-002
 -9.999999999999892E-005    6.193969693561620E-002
  1.084202172485504E-018    6.349265256746038E-002
  1.000000000000011E-004    6.507086463410214E-002
  2.000000000000011E-004    6.667427408989493E-002
  3.000000000000011E-004    6.830278717623918E-002
  4.000000000000011E-004    6.995630684326848E-002
  5.000000000000011E-004    7.163469554078747E-002
  6.000000000000011E-004    7.333780854893333E-002
  7.000000000000011E-004    7.506547055242783E-002
  8.000000000000011E-004    7.681748251849181E-002
  9.000000000000012E-004    7.859362245010823E-002
  1.000000000000001E-003    8.039365456261598E-002
  1.100000000000001E-003    8.221730753037131E-002
  1.200000000000001E-003    8.406429468803400E-002
  1.300000000000001E-003    8.593430525861036E-002
  1.400000000000001E-003    8.782699939366065E-002
  1.500000000000001E-003    8.974202455021821E-002
  1.600000000000001E-003    9.167899927986832E-002
  1.700000000000001E-003    9.363751604004412E-002
  1.800000000000001E-003    9.561713650167056E-002
  1.900000000000001E-003    9.761740557294588E-002
  2.000000000000001E-003    9.963783370299945E-002
  2.100000000000001E-003    0.101677901488013     
  2.200000000000001E-003    0.103737063215104     
  2.300000000000001E-003    0.105814740158932     
  2.400000000000001E-003    0.107910323852208     
  2.500000000000001E-003    0.110023185303584     
  2.600000000000001E-003    0.112152664255604     
  2.700000000000001E-003    0.114298074228669     
  2.800000000000001E-003    0.116458674575364     
  2.900000000000001E-003    0.118633739752444     
  3.000000000000001E-003    0.120822483561795     
  3.100000000000001E-003    0.123024112765019     
  3.200000000000001E-003    0.125237788714903     
  3.300000000000001E-003    0.127462651058031     
  3.400000000000001E-003    0.129697826803206     
  3.500000000000001E-003    0.131942382188833     
  3.600000000000001E-003    0.134195381200301     
  3.700000000000001E-003    0.136455854672634     
  3.800000000000001E-003    0.138722791506406     
  3.900000000000001E-003    0.140995140855889     
  4.000000000000001E-003    0.143271845892204     
  4.100000000000001E-003    0.145551802499671     
  4.200000000000001E-003    0.147833888657641     
  4.300000000000001E-003    0.150116938844432     
  4.400000000000001E-003    0.152399751883108     
  4.500000000000001E-003    0.154681127254129     
  4.600000000000002E-003    0.156959805191785     
  4.700000000000001E-003    0.159234515369756     
  4.800000000000001E-003    0.161503966847971     
  4.900000000000002E-003    0.163766821121720     
  5.000000000000001E-003    0.166021725714778     
  5.100000000000001E-003    0.168267306665521     
  5.200000000000001E-003    0.170502140030594     
  5.300000000000002E-003    0.172724799938904     
  5.400000000000001E-003    0.174933819794769     
  5.500000000000001E-003    0.177127698686576     
  5.600000000000002E-003    0.179304930222695     
  5.700000000000001E-003    0.181463948787484     
  5.800000000000001E-003    0.183603187603734     
  5.900000000000002E-003    0.185721031379070     
  6.000000000000001E-003    0.187815849599625     
  6.100000000000001E-003    0.189885984915520     
  6.200000000000002E-003    0.191929766502243     
  6.300000000000002E-003    0.193945483778920     
  6.400000000000001E-003    0.195931393111935     
  6.500000000000001E-003    0.197885746260157     
  6.600000000000002E-003    0.199806780263510     
  6.700000000000001E-003    0.201692687135648     
  6.800000000000001E-003    0.203541660047657     
  6.900000000000002E-003    0.205351854472395     
  7.000000000000001E-003    0.207121392888864     
  7.100000000000001E-003    0.208848408121743     
  7.200000000000002E-003    0.210530979118459     
  7.300000000000002E-003    0.212167174905335     
  7.400000000000001E-003    0.213755041167941     
  7.500000000000001E-003    0.215292593677334     
  7.600000000000002E-003    0.216777836483691     
  7.700000000000001E-003    0.218208744650439     
  7.800000000000001E-003    0.219583282813317     
  7.900000000000001E-003    0.220899379158100     
  8.000000000000002E-003    0.222154943589625     
  8.100000000000001E-003    0.223347871297491     
  8.200000000000001E-003    0.224476044062259     
  8.300000000000002E-003    0.225537299700420     
  8.400000000000001E-003    0.226529491242509     
  8.500000000000002E-003    0.227450414325489     
  8.600000000000002E-003    0.228297871350273     
  8.700000000000001E-003    0.229069630842361     
  8.800000000000002E-003    0.229763448352365     
  8.900000000000002E-003    0.230377057604693     
  9.000000000000001E-003    0.230908150103576     
  9.100000000000002E-003    0.231354426376875     
  9.200000000000002E-003    0.231713537586780     
  9.300000000000001E-003    0.231983133863899     
  9.400000000000002E-003    0.232160827226274     
  9.500000000000001E-003    0.232244212009942     
  9.600000000000001E-003    0.232230863408654     
  9.700000000000002E-003    0.232118311720430     
  9.800000000000001E-003    0.231904074546994     
  9.900000000000001E-003    0.231585662056003     
  1.000000000000000E-002    0.231160536469813     
  1.010000000000000E-002    0.230626136909440     
  1.020000000000000E-002    0.229979893051840     
  1.030000000000000E-002    0.229219210652498     
  1.040000000000000E-002    0.228341455381471     
  1.050000000000000E-002    0.227343974399265     
  1.060000000000000E-002    0.226224094553435     
  1.070000000000000E-002    0.224979095564148     
  1.080000000000000E-002    0.223606244091715     
  1.090000000000000E-002    0.222102757408423     
  1.100000000000000E-002    0.220465861911383     
  1.110000000000000E-002    0.218692716182246     
  1.120000000000000E-002    0.216780469176487     
  1.130000000000000E-002    0.214726225876780     
  1.140000000000000E-002    0.212527056085277     
  1.150000000000000E-002    0.210180018368784     
  1.160000000000000E-002    0.207682116568906     
  1.170000000000000E-002    0.205030334384029     
  1.180000000000000E-002    0.202221617294142     
  1.190000000000000E-002    0.199252883098459     
  1.200000000000000E-002    0.196121019273294     
  1.210000000000000E-002    0.192822877683306     
  1.220000000000000E-002    0.189355284564735     
  1.230000000000000E-002    0.185715019972249     
  1.240000000000000E-002    0.181898853007603     
  1.250000000000000E-002    0.177903498170260     
  1.260000000000000E-002    0.173725653094622     
  1.270000000000000E-002    0.169361989322482     
  1.280000000000000E-002    0.164809136962576     
  1.290000000000000E-002    0.160063692425600     
  1.300000000000000E-002    0.155122228003534     
  1.310000000000000E-002    0.149981287601068     
  1.320000000000000E-002    0.144637387282077     
  1.330000000000000E-002    0.139087011710328     
  1.340000000000000E-002    0.133326620261388     
  1.350000000000000E-002    0.127352649394531     
  1.360000000000000E-002    0.121161502355907     
  1.370000000000000E-002    0.114749584481290     
  1.380000000000000E-002    0.108113262767308     
  1.390000000000000E-002    0.101248906563158     
  1.400000000000000E-002    9.415286291838995E-002
  1.410000000000000E-002    8.682147307404862E-002
  1.420000000000000E-002    7.925107512013617E-002
  1.430000000000000E-002    7.143799880248007E-002
  1.440000000000000E-002    6.337858424152973E-002
  1.450000000000000E-002    5.506916699271185E-002
  1.460000000000000E-002    4.650608974506213E-002
  1.470000000000000E-002    3.768570425034994E-002
  1.480000000000000E-002    2.860438148613182E-002
  1.490000000000000E-002    1.925849948469318E-002
  1.500000000000000E-002    9.644469557938545E-003
  1.510000000000000E-002   -2.412730074637394E-004
  1.520000000000000E-002   -1.040227300576426E-002
  1.530000000000000E-002   -2.084203714092550E-002
  1.540000000000000E-002   -3.156401642015150E-002
  1.550000000000000E-002   -4.257161871270152E-002
  1.560000000000000E-002   -5.386819405547596E-002
  1.570000000000000E-002   -6.545703999776097E-002
  1.580000000000000E-002   -7.734135946047244E-002
  1.590000000000000E-002   -8.952430853682337E-002
  1.600000000000000E-002   -0.102008929702744     
  1.610000000000000E-002   -0.114798175992617     
  1.620000000000000E-002   -0.127894909162489     
  1.630000000000000E-002   -0.141301875804668     
  1.640000000000000E-002   -0.155021711849219     
  1.650000000000000E-002   -0.169056891957015     
  1.660000000000000E-002   -0.183409802918111     
  1.670000000000000E-002   -0.198082698333816     
  1.680000000000000E-002   -0.213077646714668     
  1.690000000000000E-002   -0.228396565100913     
  1.700000000000000E-002   -0.244041239904294     
  1.710000000000000E-002   -0.260013233351291     
  1.720000000000000E-002   -0.276313964458923     
  1.730000000000000E-002   -0.292944619674113     
  1.740000000000000E-002   -0.309906197073585     
  1.750000000000000E-002   -0.327199456439364     
  1.760000000000000E-002   -0.344824933093889     
  1.770000000000000E-002   -0.362782925674135     
  1.780000000000000E-002   -0.381073431982173     
  1.790000000000000E-002   -0.399696257755180     
  1.800000000000000E-002   -0.418650901758541     
  1.810000000000000E-002   -0.437936539429361     
  1.820000000000000E-002   -0.457552074140482     
  1.830000000000000E-002   -0.477496083666861     
  1.840000000000000E-002   -0.497766883143696     
  1.850000000000000E-002   -0.518362374772322     
  1.860000000000000E-002   -0.539280217456473     
  1.870000000000000E-002   -0.560517656391586     