 -4.000000000000000E-002    0.000000000000000E+000
 -3.990000000000000E-002    0.000000000000000E+000
 -3.980000000000000E-002    0.000000000000000E+000
 -3.970000000000000E-002    0.000000000000000E+000
 -3.960000000000000E-002    0.000000000000000E+000
 -3.950000000000000E-002    0.000000000000000E+000
 -3.940000000000000E-002    0.000000000000000E+000
 -3.930000000000000E-002    0.000000000000000E+000
 -3.920000000000000E-002    0.000000000000000E+000
 -3.910000000000000E-002    0.000000000000000E+000
 -3.900000000000000E-002    0.000000000000000E+000
 -3.890000000000000E-002    0.000000000000000E+000
 -3.880000000000000E-002    0.000000000000000E+000
 -3.870000000000000E-002    0.000000000000000E+000
 -3.860000000000000E-002    0.000000000000000E+000
 -3.850000000000000E-002    0.000000000000000E+000
 -3.840000000000000E-002    0.000000000000000E+000
 -3.830000000000000E-002    0.000000000000000E+000
 -3.820000000000000E-002    0.000000000000000E+000
 -3.810000000000000E-002    0.000000000000000E+000
 -3.800000000000000E-002    0.000000000000000E+000
 -3.790000000000000E-002    0.000000000000000E+000
 -3.780000000000000E-002    0.000000000000000E+000
 -3.770000000000000E-002    0.000000000000000E+000
 -3.760000000000000E-002    0.000000000000000E+000
 -3.750000000000000E-002    0.000000000000000E+000
 -3.740000000000000E-002    0.000000000000000E+000
 -3.730000000000000E-002    0.000000000000000E+000
 -3.720000000000000E-002    0.000000000000000E+000
 -3.710000000000000E-002    0.000000000000000E+000
 -3.700000000000000E-002    0.000000000000000E+000
 -3.690000000000000E-002    0.000000000000000E+000
 -3.680000000000000E-002    0.000000000000000E+000
 -3.670000000000000E-002    0.000000000000000E+000
 -3.660000000000000E-002    0.000000000000000E+000
 -3.650000000000000E-002    0.000000000000000E+000
 -3.640000000000000E-002    0.000000000000000E+000
 -3.630000000000000E-002   -4.141811925917972E-048
 -3.620000000000000E-002   -3.692631813939294E-047
 -3.610000000000000E-002   -1.185455611592681E-046
 -3.600000000000000E-002   -3.176573623194068E-046
 -3.590000000000000E-002   -7.924138925248911E-046
 -3.580000000000000E-002   -1.851135887224287E-045
 -3.570000000000000E-002   -3.988524449875906E-045
 -3.560000000000000E-002   -8.249931973031742E-045
 -3.550000000000000E-002   -1.481935923679238E-044
 -3.540000000000000E-002   -2.540245254335736E-044
 -3.530000000000000E-002   -4.006636715354823E-044
 -3.520000000000000E-002   -5.234504537441584E-044
 -3.510000000000000E-002   -4.184206013361067E-044
 -3.500000000000000E-002    4.542943093854617E-044
 -3.490000000000000E-002    3.338285076697628E-043
 -3.480000000000000E-002    1.074188962906219E-042
 -3.470000000000000E-002    2.746032146951602E-042
 -3.460000000000000E-002    6.180090116775404E-042
 -3.450000000000000E-002    1.271337880380502E-041
 -3.440000000000000E-002    2.428172104606704E-041
 -3.430000000000000E-002    4.330847049801370E-041
 -3.420000000000000E-002    7.207233625729792E-041
 -3.410000000000000E-002    1.109869518736818E-040
 -3.400000000000000E-002    1.549342887239222E-040
 -3.390000000000000E-002    1.864127607371814E-040
 -3.380000000000000E-002    1.640327175403566E-040
 -3.370000000000000E-002    5.029539969762363E-042
 -3.360000000000000E-002   -4.385097964464160E-040
 -3.350000000000000E-002   -1.407290932110887E-039
 -3.340000000000000E-002   -3.258499720289567E-039
 -3.330000000000000E-002   -6.468332080247339E-039
 -3.320000000000000E-002   -1.158184550406465E-038
 -3.310000000000000E-002   -1.905918628392825E-038
 -3.300000000000000E-002   -2.894452053909406E-038
 -3.290000000000000E-002   -4.026362406075820E-038
 -3.280000000000000E-002   -5.004933032972626E-038
 -3.270000000000000E-002   -5.192035031088447E-038
 -3.260000000000000E-002   -3.422727562602833E-038
 -3.250000000000000E-002    2.203196814629413E-038
 -3.240000000000000E-002    1.449937250976734E-037
 -3.230000000000000E-002    3.723631916452365E-037
 -3.220000000000000E-002    7.487577799801198E-037
 -3.210000000000000E-002    1.317372976111770E-036
 -3.200000000000000E-002    2.102549658365887E-036
 -3.190000000000000E-002    3.079293211644440E-036
 -3.180000000000000E-002    4.126076062262562E-036
 -3.170000000000000E-002    4.959073015577914E-036
 -3.160000000000000E-002    5.050278393862923E-036
 -3.150000000000000E-002    3.539764022578412E-036
 -3.140000000000000E-002   -8.354201479356409E-037
 -3.130000000000000E-002   -9.756214950317639E-036
 -3.120000000000000E-002   -2.521998070011660E-035
 -3.110000000000000E-002   -4.923992433844731E-035
 -3.100000000000000E-002   -8.324561753507203E-035
 -3.090000000000000E-002   -1.270811299791410E-034
 -3.080000000000000E-002   -1.775212631846264E-034
 -3.070000000000000E-002   -2.262947206054737E-034
 -3.060000000000000E-002   -2.577348949316958E-034
 -3.050000000000000E-002   -2.463908093900979E-034
 -3.040000000000000E-002   -1.552306506626649E-034
 -3.030000000000000E-002    6.455181040851926E-035
 -3.020000000000000E-002    4.707008148469312E-034
 -3.010000000000000E-002    1.122231182355396E-033
 -3.000000000000000E-002    2.064932063649241E-033
 -2.990000000000000E-002    3.308214797901888E-033
 -2.980000000000000E-002    4.792260646654512E-033
 -2.970000000000000E-002    6.346084029342665E-033
 -2.960000000000000E-002    7.639910396605321E-033
 -2.950000000000000E-002    8.139311472899303E-033
 -2.940000000000000E-002    7.073770069870713E-033
 -2.930000000000000E-002    3.438338281157224E-033
 -2.920000000000000E-002   -3.947108218720137E-033
 -2.910000000000000E-002   -1.629237039958119E-032
 -2.900000000000000E-002   -3.457622150638166E-032
 -2.890000000000000E-002   -5.914790193179302E-032
 -2.880000000000000E-002   -8.918424402104632E-032
 -2.870000000000000E-002   -1.220245909060687E-031
 -2.860000000000000E-002   -1.524488058329279E-031
 -2.850000000000000E-002   -1.720212492940586E-031
 -2.840000000000000E-002   -1.686917839189543E-031
 -2.830000000000000E-002   -1.269155531189679E-031
 -2.820000000000000E-002   -2.861199168308234E-032
 -2.810000000000000E-002    1.446898692496956E-031
 -2.800000000000000E-002    4.082051801026970E-031
 -2.790000000000000E-002    7.685519818219340E-031
 -2.780000000000000E-002    1.216758378303238E-030
 -2.770000000000000E-002    1.720037223982424E-030
 -2.760000000000000E-002    2.213264770874780E-030
 -2.750000000000000E-002    2.591734968933599E-030
 -2.740000000000000E-002    2.707450827060343E-030
 -2.730000000000000E-002    2.371848449055463E-030
 -2.720000000000000E-002    1.368261193555134E-030
 -2.710000000000000E-002   -5.225827770936105E-031
 -2.700000000000000E-002   -3.481435173201937E-030
 -2.690000000000000E-002   -7.592782369817103E-030
 -2.680000000000000E-002   -1.277221218969031E-029
 -2.670000000000000E-002   -1.868451860461798E-029
 -2.660000000000000E-002   -2.466311894564768E-029
 -2.650000000000000E-002   -2.964697296191608E-029
 -2.640000000000000E-002   -3.215671587140763E-029
 -2.630000000000000E-002   -3.033600807527905E-029
 -2.620000000000000E-002   -2.208572717710177E-029
 -2.610000000000000E-002   -5.315841862793409E-030
 -2.600000000000000E-002    2.166920342324409E-029
 -2.590000000000000E-002    5.965239092475559E-029
 -2.580000000000000E-002    1.078792020837800E-028
 -2.570000000000000E-002    1.633848155117824E-028
 -2.560000000000000E-002    2.203712957562666E-028
 -2.550000000000000E-002    2.697730035686817E-028
 -2.540000000000000E-002    2.991834584197927E-028
 -2.530000000000000E-002    2.933375851494692E-028
 -2.520000000000000E-002    2.353389841464951E-028
 -2.510000000000000E-002    1.087805003967454E-028
 -2.500000000000000E-002   -9.918095886659712E-029
 -2.490000000000000E-002   -3.938747463124486E-028
 -2.480000000000000E-002   -7.685642667156595E-028
 -2.470000000000000E-002   -1.199799691100894E-027
 -2.460000000000000E-002   -1.643437603627826E-027
 -2.450000000000000E-002   -2.032328749887986E-027
 -2.440000000000000E-002   -2.276846582374968E-027
 -2.430000000000000E-002   -2.269476211443844E-027
 -2.420000000000000E-002   -1.894535401572385E-027
 -2.410000000000000E-002   -1.043702623037194E-027
 -2.400000000000000E-002    3.626672166693299E-028
 -2.390000000000000E-002    2.349454417200005E-027
 -2.380000000000000E-002    4.858191730654131E-027
 -2.370000000000000E-002    7.719685005779039E-027
 -2.360000000000000E-002    1.063294796087713E-026
 -2.350000000000000E-002    1.315670839246472E-026
 -2.340000000000000E-002    1.472032419944746E-026
 -2.330000000000000E-002    1.466061699209041E-026
 -2.320000000000000E-002    1.228958214865345E-026
 -2.310000000000000E-002    6.994871950097999E-027
 -2.300000000000000E-002   -1.629666891247673E-027
 -2.290000000000000E-002   -1.363222523404930E-026
 -2.280000000000000E-002   -2.854599999045778E-026
 -2.270000000000000E-002   -4.525027390300860E-026
 -2.260000000000000E-002   -6.187957107584689E-026
 -2.250000000000000E-002   -7.581513125016759E-026
 -2.240000000000000E-002   -8.379340082499004E-026
 -2.230000000000000E-002   -8.216110726341134E-026
 -2.220000000000000E-002   -6.729459744851656E-026
 -2.210000000000000E-002   -3.618160867281936E-026
 -2.200000000000000E-002    1.286311754681065E-026
 -2.190000000000000E-002    7.940970179225842E-026
 -2.180000000000000E-002    1.601490771810054E-025
 -2.170000000000000E-002    2.482831819300167E-025
 -2.160000000000000E-002    3.332250424037641E-025
 -2.150000000000000E-002    4.007747255094173E-025
 -2.140000000000000E-002    4.339250058785935E-025
 -2.130000000000000E-002    4.144094298284917E-025
 -2.120000000000000E-002    3.250316562127223E-025
 -2.110000000000000E-002    1.527064544803374E-025
 -2.100000000000000E-002   -1.079934079357555E-025
 -2.090000000000000E-002   -4.511450536607737E-025
 -2.080000000000000E-002   -8.561536298905895E-025
 -2.070000000000000E-002   -1.285446440875375E-024
 -2.060000000000000E-002   -1.683906584645616E-024
 -2.050000000000000E-002   -1.980762813478055E-024
 -2.040000000000000E-002   -2.094532644214078E-024
 -2.030000000000000E-002   -1.941360924489436E-024
 -2.020000000000000E-002   -1.446701923849701E-024
 -2.010000000000000E-002   -5.597641299285251E-025
 -2.000000000000000E-002    7.304830550320147E-025
 -1.990000000000000E-002    2.379595867856360E-024
 -1.980000000000000E-002    4.274690295079224E-024
 -1.970000000000000E-002    6.227108003805861E-024
 -1.960000000000000E-002    7.973743072000120E-024
 -1.950000000000000E-002    9.189796764525797E-024
 -1.940000000000000E-002    9.514958226621360E-024
 -1.930000000000000E-002    8.593692738986738E-024
 -1.920000000000000E-002    6.128452943911794E-024
 -1.910000000000000E-002    1.942331525995087E-024
 -1.900000000000000E-002   -3.954870195139730E-024
 -1.890000000000000E-002   -1.130566335446370E-023
 -1.880000000000000E-002   -1.955951532939933E-023
 -1.870000000000000E-002   -2.785480424483939E-023
 -1.860000000000000E-002   -3.503954630021058E-023
 -1.850000000000000E-002   -3.974042741847048E-023
 -1.840000000000000E-002   -4.048569664675937E-023
 -1.830000000000000E-002   -3.588148244480363E-023
 -1.820000000000000E-002   -2.483322984319925E-023
 -1.810000000000000E-002   -6.794885582085785E-024
 -1.800000000000000E-002    1.798093280429618E-023
 -1.790000000000000E-002    4.822702104699206E-023
 -1.780000000000000E-002    8.152108911956504E-023
 -1.770000000000000E-002    1.142637738016453E-022
 -1.760000000000000E-002    1.418145224747256E-022
 -1.750000000000000E-002    1.588143357233386E-022
 -1.740000000000000E-002    1.597066009624724E-022
 -1.730000000000000E-002    1.394428092375940E-022
 -1.720000000000000E-002    9.432982102970082E-023
 -1.710000000000000E-002    2.294289829771955E-023
 -1.700000000000000E-002   -7.300308044041754E-023
 -1.690000000000000E-002   -1.879573070555265E-022
 -1.680000000000000E-002   -3.121591961258011E-022
 -1.670000000000000E-002   -4.317324210194866E-022
 -1.660000000000000E-002   -5.293693091447394E-022
 -1.650000000000000E-002   -5.856812926051274E-022
 -1.640000000000000E-002   -5.812206564643501E-022
 -1.630000000000000E-002   -4.990877423581391E-022
 -1.620000000000000E-002   -3.279329343982220E-022
 -1.610000000000000E-002   -6.505502024855524E-023
 -1.600000000000000E-002    2.807990486486110E-022
 -1.590000000000000E-002    6.873965657497712E-022
 -1.580000000000000E-002    1.118231372309712E-021
 -1.570000000000000E-002    1.523437028139457E-021
 -1.560000000000000E-002    1.842744366313374E-021
 -1.550000000000000E-002    2.010641762299621E-021
 -1.540000000000000E-002    1.963641649356020E-021
 -1.530000000000000E-002    1.649246230227905E-021
 -1.520000000000000E-002    1.035865146968954E-021
 -1.510000000000000E-002    1.226135904418235E-022
 -1.500000000000000E-002   -1.052351121800605E-021
 -1.490000000000000E-002   -2.406452571346508E-021
 -1.480000000000000E-002   -3.811771966348467E-021
 -1.470000000000000E-002   -5.099869732811328E-021
 -1.460000000000000E-002   -6.073206757417259E-021
 -1.450000000000000E-002   -6.523366563958996E-021
 -1.440000000000000E-002   -6.255425916383585E-021
 -1.430000000000000E-002   -5.116836834990311E-021
 -1.420000000000000E-002   -3.028170521651834E-021
 -1.410000000000000E-002   -1.215896486073039E-023
 -1.400000000000000E-002    3.783205471563204E-021
 -1.390000000000000E-002    8.072030819219643E-021
 -1.380000000000000E-002    1.243261419527125E-020
 -1.370000000000000E-002    1.632765581245431E-020
 -1.360000000000000E-002    1.914445412166251E-020
 -1.350000000000000E-002    2.025479130698434E-020
 -1.340000000000000E-002    1.909156582763195E-020
 -1.330000000000000E-002    1.523634799714984E-020
 -1.320000000000000E-002    8.509193008438342E-021
 -1.310000000000000E-002   -9.503174293508137E-022
 -1.300000000000000E-002   -1.262334283859956E-020
 -1.290000000000000E-002   -2.558612750410561E-020
 -1.280000000000000E-002   -3.852980679091996E-020
 -1.270000000000000E-002   -4.983389038938719E-020
 -1.260000000000000E-002   -5.769667050388322E-020
 -1.250000000000000E-002   -6.031923949585012E-020
 -1.240000000000000E-002   -5.613217656276320E-020
 -1.230000000000000E-002   -4.404599022067776E-020
 -1.220000000000000E-002   -2.369901256416130E-020
 -1.210000000000000E-002    4.329210925536483E-021
 -1.200000000000000E-002    3.837387105296156E-020
 -1.190000000000000E-002    7.564407360068914E-020
 -1.180000000000000E-002    1.123136659679640E-019
 -1.170000000000000E-002    1.437618287984685E-019
 -1.160000000000000E-002    1.649665942605280E-019
 -1.150000000000000E-002    1.710360173777413E-019
 -1.140000000000000E-002    1.578407893286942E-019
 -1.130000000000000E-002    1.226916707977423E-019
 -1.120000000000000E-002    6.498695453176200E-020
 -1.110000000000000E-002   -1.325710374662023E-020
 -1.100000000000000E-002   -1.070842311301239E-019
 -1.090000000000000E-002   -2.085691308971107E-019
 -1.080000000000000E-002   -3.071478753195885E-019
 -1.070000000000000E-002   -3.903432792177943E-019
 -1.060000000000000E-002   -4.448792163585525E-019
 -1.050000000000000E-002   -4.581281340374549E-019
 -1.040000000000000E-002   -4.197833918984366E-019
 -1.030000000000000E-002   -3.235973096362662E-019
 -1.020000000000000E-002   -1.689848854376300E-019
 -1.010000000000000E-002    3.773121765544743E-020
 -1.000000000000000E-002    2.826609501601533E-019
 -9.899999999999999E-003    5.444726442305051E-019
 -9.800000000000000E-003    7.954488145962463E-019
 -9.699999999999999E-003    1.003531230095199E-018
 -9.599999999999999E-003    1.135305306747122E-018
 -9.500000000000000E-003    1.159748682064671E-018
 -9.399999999999999E-003    1.052440307170336E-018
 -9.299999999999999E-003    7.998108327270631E-019
 -9.200000000000000E-003    4.029261221942338E-019
 -9.099999999999999E-003   -1.197459975994607E-019
 -8.999999999999999E-003   -7.311198666801603E-019
 -8.900000000000000E-003   -1.376276735235857E-018
 -8.799999999999999E-003   -1.985543645876291E-018
 -8.699999999999999E-003   -2.479938803910803E-018
 -8.600000000000000E-003   -2.778784502438848E-018
 -8.499999999999999E-003   -2.808986332915071E-018
 -8.399999999999999E-003   -2.515184565208980E-018
 -8.300000000000000E-003   -1.869725507729004E-018
 -8.199999999999999E-003   -8.812248870294819E-019
 -8.100000000000000E-003    3.995640918381423E-019
 -8.000000000000000E-003    1.877784989445034E-018
 -7.899999999999999E-003    3.417377202408548E-018
 -7.800000000000000E-003    4.849399012894661E-018
 -7.699999999999999E-003    5.985790304123391E-018
 -7.599999999999999E-003    6.637944081661390E-018
 -7.499999999999999E-003    6.638769740232951E-018
 -7.399999999999999E-003    5.866277616323157E-018
 -7.299999999999999E-003    4.266177447967694E-018
 -7.199999999999999E-003    1.870647142393445E-018
 -7.100000000000000E-003   -1.189622812727375E-018
 -6.999999999999999E-003   -4.682732985947615E-018
 -6.899999999999999E-003   -8.284210703483365E-018
 -6.800000000000000E-003   -1.159798089161156E-017
 -6.699999999999999E-003   -1.418940465272805E-017
 -6.599999999999999E-003   -1.562865539101145E-017
 -6.499999999999999E-003   -1.554120076460448E-017
 -6.399999999999999E-003   -1.366075517655785E-017
 -6.299999999999999E-003   -9.879000282270689E-018
 -6.199999999999999E-003   -4.285755487465231E-018
 -6.100000000000000E-003    2.806677449338662E-018
 -5.999999999999999E-003    1.086050721613602E-017
 -5.899999999999999E-003    1.913475457513539E-017
 -5.800000000000000E-003    2.673458022522534E-017
 -5.699999999999999E-003    3.268652070584017E-017
 -5.599999999999999E-003    3.603536451295178E-017
 -5.499999999999999E-003    3.595519506758201E-017
 -5.399999999999999E-003    3.186429491052544E-017
 -5.299999999999999E-003    2.353146601787859E-017
 -5.199999999999999E-003    1.116029851868622E-017
 -5.099999999999999E-003   -4.561749314752005E-018
 -4.999999999999999E-003   -2.246070636044192E-017
 -4.899999999999999E-003   -4.092761558841899E-017
 -4.799999999999999E-003   -5.802710401020037E-017
 -4.699999999999999E-003   -7.165980432908402E-017
 -4.599999999999999E-003   -7.976892041805564E-017
 -4.499999999999999E-003   -8.057465352139518E-017
 -4.399999999999999E-003   -7.281462837070667E-017
 -4.299999999999999E-003   -5.596436654477355E-017
 -4.199999999999999E-003   -3.041012200060264E-017
 -4.099999999999999E-003    2.452466698941129E-018
 -3.999999999999999E-003    4.021616931641639E-017
 -3.899999999999999E-003    7.957125895154860E-017
 -3.799999999999999E-003    1.165305488521753E-016
 -3.699999999999999E-003    1.467627662794447E-016
 -3.599999999999999E-003    1.660135263039069E-016
 -3.499999999999999E-003    1.705803295233332E-016
 -3.399999999999999E-003    1.577970990493246E-016
 -3.299999999999999E-003    1.264762403550059E-016
 -3.199999999999999E-003    7.725341596580100E-017
 -3.099999999999999E-003    1.278295664936219E-017
 -2.999999999999999E-003   -6.225897244350701E-017
 -2.899999999999999E-003   -1.413913735425872E-016
 -2.799999999999999E-003   -2.167731181037042E-016
 -2.699999999999999E-003   -2.798589330508135E-016
 -2.599999999999999E-003   -3.222246737773765E-016
 -2.499999999999999E-003   -3.364952949188108E-016
 -2.399999999999999E-003   -3.172885927677552E-016
 -2.299999999999999E-003   -2.620736734605754E-016
 -2.199999999999999E-003   -1.718386641085857E-016
 -2.099999999999999E-003   -5.146846384548252E-017
 -1.999999999999999E-003    9.024863944162479E-017
 -1.899999999999999E-003    2.410371932308968E-016
 -1.799999999999999E-003    3.859861497097261E-016
 -1.699999999999999E-003    5.088026256115184E-016
 -1.599999999999999E-003    5.933861312941435E-016
 -1.499999999999999E-003    6.255958793682591E-016
 -1.399999999999999E-003    5.950450456116542E-016
 -1.299999999999999E-003    4.967311184747584E-016
 -1.199999999999999E-003    3.323030680596516E-016
 -1.099999999999999E-003    1.107790059419490E-016
 -9.999999999999989E-004   -1.514373728267252E-016
 -8.999999999999990E-004   -4.313376442091026E-016
 -7.999999999999990E-004   -7.009094710346999E-016
 -6.999999999999989E-004   -9.294942667569730E-016
 -5.999999999999990E-004   -1.086748377971818E-015
 -4.999999999999989E-004   -1.145969162010651E-015
 -3.999999999999989E-004   -1.087475943224403E-015
 -2.999999999999989E-004   -9.016889490947676E-016
 -1.999999999999989E-004   -5.915343772581311E-016
 -9.999999999999892E-005   -1.738267624229725E-016
  1.084202172485504E-018    3.206564470738239E-016
  1.000000000000011E-004    8.485911355606925E-016
  2.000000000000011E-004    1.357061112140240E-015
  3.000000000000011E-004    1.787940316435261E-015
  4.000000000000011E-004    2.083425317084297E-015
  5.000000000000011E-004    2.192281316508971E-015
  6.000000000000011E-004    2.076231858271492E-015
  7.000000000000011E-004    1.715831406972772E-015
  8.000000000000011E-004    1.115128024188525E-015
  9.000000000000012E-004    3.044615905536099E-016
  1.000000000000001E-003   -6.591475492279502E-016
  1.100000000000001E-003   -1.694380668902702E-015
  1.200000000000001E-003   -2.700890386639236E-015
  1.300000000000001E-003   -3.567285826336187E-015
  1.400000000000001E-003   -4.181355015177534E-015
  1.500000000000001E-003   -4.441746019755649E-015
  1.600000000000001E-003   -4.270079275386476E-015
  1.700000000000001E-003   -3.622279358008297E-015
  1.800000000000001E-003   -2.497843731682392E-015
  1.900000000000001E-003   -9.458119750275180E-016
  2.000000000000001E-003    9.336165956044613E-016
  2.100000000000001E-003    2.992551741631301E-015
  2.200000000000001E-003    5.044270733453065E-015
  2.300000000000001E-003    6.877248901945571E-015
  2.400000000000001E-003    8.273583211298475E-015
  2.500000000000001E-003    9.030476634613369E-015
  2.600000000000001E-003    8.982965791584032E-015
  2.700000000000001E-003    8.025715075212039E-015
  2.800000000000001E-003    6.131524949951983E-015
  2.900000000000001E-003    3.364239645280569E-015
  3.000000000000001E-003   -1.159721515796223E-016
  3.100000000000001E-003   -4.056465005100086E-015
  3.200000000000001E-003   -8.125841239899700E-015
  3.300000000000001E-003   -1.193738543638095E-014
  3.400000000000001E-003   -1.508102666485701E-014
  3.500000000000001E-003   -1.716162724346399E-014
  3.600000000000001E-003   -1.784048684718040E-014
  3.700000000000001E-003   -1.687622472048082E-014
  3.800000000000001E-003   -1.416082758845197E-014
  3.900000000000001E-003   -9.746601723625825E-015
  4.000000000000001E-003   -3.860206357169011E-015
  4.100000000000001E-003    3.099206596981180E-015
  4.200000000000001E-003    1.057945618315298E-014
  4.300000000000001E-003    1.791250657987792E-014
  4.400000000000001E-003    2.436767938341550E-014
  4.500000000000001E-003    2.921736759827782E-014
  4.600000000000002E-003    3.181006045069407E-014
  4.700000000000001E-003    3.164408642864454E-014
  4.800000000000001E-003    2.843467170475398E-014
  4.900000000000002E-003    2.216671301103302E-014
  5.000000000000001E-003    1.312625075253443E-014
  5.100000000000001E-003    1.905009181340860E-015
  5.200000000000001E-003   -1.062553530121900E-014
  5.300000000000002E-003   -2.337134991132246E-014
  5.400000000000001E-003   -3.510198338900005E-014
  5.500000000000001E-003   -4.456008437741422E-014
  5.600000000000002E-003   -5.058567314714023E-014
  5.700000000000001E-003   -5.224405954870481E-014
  5.800000000000001E-003   -4.894465018527987E-014
  5.900000000000002E-003   -4.053737458070443E-014
  6.000000000000001E-003   -2.737432839669855E-014
  6.100000000000001E-003   -1.032637041822325E-014
  6.200000000000002E-003    9.251990497876224E-015
  6.300000000000002E-003    2.961149961385759E-014
  6.400000000000001E-003    4.874752698434091E-014
  6.500000000000001E-003    6.458097358882690E-014
  6.600000000000002E-003    7.516638848580223E-014
  6.700000000000001E-003    7.890856635112078E-014
  6.800000000000001E-003    7.476589368979837E-014
  6.900000000000002E-003    6.241765064531404E-014
  7.000000000000001E-003    4.237373881575297E-014
  7.100000000000001E-003    1.600893255506539E-014
  7.200000000000002E-003   -1.449029445434844E-014
  7.300000000000002E-003   -4.627044061881403E-014
  7.400000000000001E-003   -7.604202172631060E-014
  7.500000000000001E-003   -1.003821630491067E-013
  7.600000000000002E-003   -1.160846897391912E-013
  7.700000000000001E-003   -1.205259070953876E-013
  7.800000000000001E-003   -1.120091258014426E-013
  7.900000000000001E-003   -9.004897354886946E-014
  8.000000000000002E-003   -5.555859268463778E-014
  8.100000000000001E-003   -1.090897005101539E-014
  8.200000000000001E-003    4.016029857668883E-014
  8.300000000000002E-003    9.278604136257392E-014
  8.400000000000001E-003    1.413739189839852E-013
  8.500000000000002E-003    1.801132341877916E-013
  8.600000000000002E-003    2.035733123921719E-013
  8.700000000000001E-003    2.073275897569046E-013
  8.800000000000002E-003    1.885422709778339E-013
  8.900000000000002E-003    1.464635515912407E-013
  9.000000000000001E-003    8.274012175742777E-014
  9.100000000000002E-003    1.528662015233499E-015
  9.200000000000002E-003   -9.065342425134904E-014
  9.300000000000001E-003   -1.853408396749344E-013
  9.400000000000002E-003   -2.727851592584397E-013
  9.500000000000001E-003   -3.428298006889007E-013
  9.600000000000001E-003   -3.859269787307719E-013
  9.700000000000002E-003   -3.942058172681014E-013
  9.800000000000001E-003   -3.624857864554407E-013
  9.900000000000001E-003   -2.891233902108241E-013
  1.000000000000000E-002   -1.765858600541536E-013
  1.010000000000000E-002   -3.166237435721722E-014
  1.020000000000000E-002    1.347485952300680E-013
  1.030000000000000E-002    3.082993171887088E-013
  1.040000000000000E-002    4.722799548515591E-013
  1.050000000000000E-002    6.090658591285255E-013
  1.060000000000000E-002    7.018138815577060E-013
  1.070000000000000E-002    7.362591395897805E-013
  1.080000000000000E-002    7.024377670662701E-013
  1.090000000000000E-002    5.961511630252636E-013
  1.100000000000000E-002    4.199949757830352E-013
  1.110000000000000E-002    1.838033032456368E-013
  1.120000000000000E-002   -9.559666289905686E-014
  1.130000000000000E-002   -3.953631321534635E-013
  1.140000000000000E-002   -6.883245246674117E-013
  1.150000000000000E-002   -9.452681501190450E-013
  1.160000000000000E-002   -1.137658432164151E-012
  1.170000000000000E-002   -1.240549637842954E-012
  1.180000000000000E-002   -1.235415711587445E-012
  1.190000000000000E-002   -1.112601755621956E-012
  1.200000000000000E-002   -8.731122382822170E-013
  1.210000000000000E-002   -5.294936170171777E-013
  1.220000000000000E-002   -1.056375208533840E-013
  1.230000000000000E-002    3.645736159282141E-013
  1.240000000000000E-002    8.397461670379593E-013
  1.250000000000000E-002    1.274429747606154E-012
  1.260000000000000E-002    1.623282924879080E-012
  1.270000000000000E-002    1.845590339308332E-012
  1.280000000000000E-002    1.909704586009541E-012
  1.290000000000000E-002    1.796955837484171E-012
  1.300000000000000E-002    1.504585961450816E-012
  1.310000000000000E-002    1.047328023146827E-012
  1.320000000000000E-002    4.573547627826716E-013
  1.330000000000000E-002   -2.175347434294417E-013
  1.340000000000000E-002   -9.174532202081905E-013
  1.350000000000000E-002   -1.575471474153063E-012
  1.360000000000000E-002   -2.123782899909158E-012
  1.370000000000000E-002   -2.500451027077020E-012
  1.380000000000000E-002   -2.656099739816579E-012
  1.390000000000000E-002   -2.559859657187336E-012
  1.400000000000000E-002   -2.203903954496211E-012
  1.410000000000000E-002   -1.605998269324849E-012
  1.420000000000000E-002   -8.096444792164011E-013
  1.430000000000000E-002    1.183862042904899E-013
  1.440000000000000E-002    1.093086766475646E-012
  1.450000000000000E-002    2.018501257473386E-012
  1.460000000000000E-002    2.796695679635533E-012
  1.470000000000000E-002    3.337626194730388E-012
  1.480000000000000E-002    3.568962728938278E-012
  1.490000000000000E-002    3.444854795826491E-012
  1.500000000000000E-002    2.952657471084196E-012
  1.510000000000000E-002    2.116766142023637E-012
  1.520000000000000E-002    9.989400617228402E-013
  1.530000000000000E-002   -3.051934484895526E-013
  1.540000000000000E-002   -1.673392452915654E-012
  1.550000000000000E-002   -2.967359684906113E-012
  1.560000000000000E-002   -4.045778224074224E-012
  1.570000000000000E-002   -4.778677334361477E-012
  1.580000000000000E-002   -5.061753410051432E-012
  1.590000000000000E-002   -4.829169762688568E-012
  1.600000000000000E-002   -4.063400616314825E-012
  1.610000000000000E-002   -2.800876123730720E-012
  1.620000000000000E-002   -1.132519403404916E-012
  1.630000000000000E-002    8.012762515910801E-013
  1.640000000000000E-002    2.821151296532953E-012
  1.650000000000000E-002    4.724113973973864E-012
  1.660000000000000E-002    6.302511476580318E-012
  1.670000000000000E-002    7.364976031638074E-012
  1.680000000000000E-002    7.757362062818524E-012
  1.690000000000000E-002    7.381528322400419E-012
  1.700000000000000E-002    6.209883474672386E-012
  1.710000000000000E-002    4.293885128686665E-012
  1.720000000000000E-002    1.765152067383783E-012
  1.730000000000000E-002   -1.171485905683839E-012
  1.740000000000000E-002   -4.252919527797327E-012
  1.750000000000000E-002   -7.179767835965983E-012
  1.760000000000000E-002   -9.643772355381283E-012
  1.770000000000000E-002   -1.135821657864576E-011
  1.780000000000000E-002   -1.208852168262342E-011
  1.790000000000000E-002   -1.167994062852262E-011
  1.800000000000000E-002   -1.007934296956311E-011
  1.810000000000000E-002   -7.348442885244101E-012
  1.820000000000000E-002   -3.666509528926141E-012
  1.830000000000000E-002    6.785054976037082E-013
  1.840000000000000E-002    5.310384333216558E-012
  1.850000000000000E-002    9.795409763895231E-012
  1.860000000000000E-002    1.368115786372232E-011
  1.870000000000000E-002    1.654002642874122E-011