 -4.000000000000000E-002    0.000000000000000E+000
 -3.990000000000000E-002    0.000000000000000E+000
 -3.980000000000000E-002    0.000000000000000E+000
 -3.970000000000000E-002    0.000000000000000E+000
 -3.960000000000000E-002    0.000000000000000E+000
 -3.950000000000000E-002    0.000000000000000E+000
 -3.940000000000000E-002    0.000000000000000E+000
 -3.930000000000000E-002    0.000000000000000E+000
 -3.920000000000000E-002    0.000000000000000E+000
 -3.910000000000000E-002    0.000000000000000E+000
 -3.900000000000000E-002    0.000000000000000E+000
 -3.890000000000000E-002    0.000000000000000E+000
 -3.880000000000000E-002    0.000000000000000E+000
 -3.870000000000000E-002    0.000000000000000E+000
 -3.860000000000000E-002    0.000000000000000E+000
 -3.850000000000000E-002    0.000000000000000E+000
 -3.840000000000000E-002    0.000000000000000E+000
 -3.830000000000000E-002    0.000000000000000E+000
 -3.820000000000000E-002    0.000000000000000E+000
 -3.810000000000000E-002    0.000000000000000E+000
 -3.800000000000000E-002    0.000000000000000E+000
 -3.790000000000000E-002    0.000000000000000E+000
 -3.780000000000000E-002    0.000000000000000E+000
 -3.770000000000000E-002    0.000000000000000E+000
 -3.760000000000000E-002    0.000000000000000E+000
 -3.750000000000000E-002    0.000000000000000E+000
 -3.740000000000000E-002    0.000000000000000E+000
 -3.730000000000000E-002    0.000000000000000E+000
 -3.720000000000000E-002    0.000000000000000E+000
 -3.710000000000000E-002    0.000000000000000E+000
 -3.700000000000000E-002    0.000000000000000E+000
 -3.690000000000000E-002    0.000000000000000E+000
 -3.680000000000000E-002    0.000000000000000E+000
 -3.670000000000000E-002    0.000000000000000E+000
 -3.660000000000000E-002    0.000000000000000E+000
 -3.650000000000000E-002    0.000000000000000E+000
 -3.640000000000000E-002    0.000000000000000E+000
 -3.630000000000000E-002    0.000000000000000E+000
 -3.620000000000000E-002    0.000000000000000E+000
 -3.610000000000000E-002    0.000000000000000E+000
 -3.600000000000000E-002    0.000000000000000E+000
 -3.590000000000000E-002    0.000000000000000E+000
 -3.580000000000000E-002    0.000000000000000E+000
 -3.570000000000000E-002    0.000000000000000E+000
 -3.560000000000000E-002    0.000000000000000E+000
 -3.550000000000000E-002    0.000000000000000E+000
 -3.540000000000000E-002    0.000000000000000E+000
 -3.530000000000000E-002    0.000000000000000E+000
 -3.520000000000000E-002    0.000000000000000E+000
 -3.510000000000000E-002    0.000000000000000E+000
 -3.500000000000000E-002    0.000000000000000E+000
 -3.490000000000000E-002    0.000000000000000E+000
 -3.480000000000000E-002    0.000000000000000E+000
 -3.470000000000000E-002    0.000000000000000E+000
 -3.460000000000000E-002    0.000000000000000E+000
 -3.450000000000000E-002    0.000000000000000E+000
 -3.440000000000000E-002    0.000000000000000E+000
 -3.430000000000000E-002    0.000000000000000E+000
 -3.420000000000000E-002    0.000000000000000E+000
 -3.410000000000000E-002    0.000000000000000E+000
 -3.400000000000000E-002    0.000000000000000E+000
 -3.390000000000000E-002    0.000000000000000E+000
 -3.380000000000000E-002    0.000000000000000E+000
 -3.370000000000000E-002    0.000000000000000E+000
 -3.360000000000000E-002    0.000000000000000E+000
 -3.350000000000000E-002    0.000000000000000E+000
 -3.340000000000000E-002    0.000000000000000E+000
 -3.330000000000000E-002    0.000000000000000E+000
 -3.320000000000000E-002    0.000000000000000E+000
 -3.310000000000000E-002    0.000000000000000E+000
 -3.300000000000000E-002    0.000000000000000E+000
 -3.290000000000000E-002    0.000000000000000E+000
 -3.280000000000000E-002    0.000000000000000E+000
 -3.270000000000000E-002    0.000000000000000E+000
 -3.260000000000000E-002    0.000000000000000E+000
 -3.250000000000000E-002    0.000000000000000E+000
 -3.240000000000000E-002    0.000000000000000E+000
 -3.230000000000000E-002    0.000000000000000E+000
 -3.220000000000000E-002    0.000000000000000E+000
 -3.210000000000000E-002    0.000000000000000E+000
 -3.200000000000000E-002    0.000000000000000E+000
 -3.190000000000000E-002    0.000000000000000E+000
 -3.180000000000000E-002    0.000000000000000E+000
 -3.170000000000000E-002    0.000000000000000E+000
 -3.160000000000000E-002    0.000000000000000E+000
 -3.150000000000000E-002    0.000000000000000E+000
 -3.140000000000000E-002    0.000000000000000E+000
 -3.130000000000000E-002    0.000000000000000E+000
 -3.120000000000000E-002    0.000000000000000E+000
 -3.110000000000000E-002    0.000000000000000E+000
 -3.100000000000000E-002    0.000000000000000E+000
 -3.090000000000000E-002    0.000000000000000E+000
 -3.080000000000000E-002    0.000000000000000E+000
 -3.070000000000000E-002    0.000000000000000E+000
 -3.060000000000000E-002    0.000000000000000E+000
 -3.050000000000000E-002    0.000000000000000E+000
 -3.040000000000000E-002    0.000000000000000E+000
 -3.030000000000000E-002    0.000000000000000E+000
 -3.020000000000000E-002    0.000000000000000E+000
 -3.010000000000000E-002    0.000000000000000E+000
 -3.000000000000000E-002    0.000000000000000E+000
 -2.990000000000000E-002    0.000000000000000E+000
 -2.980000000000000E-002    0.000000000000000E+000
 -2.970000000000000E-002    0.000000000000000E+000
 -2.960000000000000E-002    0.000000000000000E+000
 -2.950000000000000E-002    0.000000000000000E+000
 -2.940000000000000E-002    0.000000000000000E+000
 -2.930000000000000E-002    0.000000000000000E+000
 -2.920000000000000E-002    0.000000000000000E+000
 -2.910000000000000E-002    0.000000000000000E+000
 -2.900000000000000E-002    0.000000000000000E+000
 -2.890000000000000E-002    0.000000000000000E+000
 -2.880000000000000E-002    0.000000000000000E+000
 -2.870000000000000E-002    0.000000000000000E+000
 -2.860000000000000E-002    0.000000000000000E+000
 -2.850000000000000E-002    0.000000000000000E+000
 -2.840000000000000E-002    0.000000000000000E+000
 -2.830000000000000E-002    0.000000000000000E+000
 -2.820000000000000E-002    0.000000000000000E+000
 -2.810000000000000E-002    0.000000000000000E+000
 -2.800000000000000E-002    0.000000000000000E+000
 -2.790000000000000E-002    0.000000000000000E+000
 -2.780000000000000E-002    0.000000000000000E+000
 -2.770000000000000E-002    0.000000000000000E+000
 -2.760000000000000E-002    0.000000000000000E+000
 -2.750000000000000E-002    0.000000000000000E+000
 -2.740000000000000E-002    0.000000000000000E+000
 -2.730000000000000E-002    0.000000000000000E+000
 -2.720000000000000E-002    0.000000000000000E+000
 -2.710000000000000E-002    0.000000000000000E+000
 -2.700000000000000E-002    0.000000000000000E+000
 -2.690000000000000E-002    0.000000000000000E+000
 -2.680000000000000E-002    0.000000000000000E+000
 -2.670000000000000E-002    0.000000000000000E+000
 -2.660000000000000E-002    0.000000000000000E+000
 -2.650000000000000E-002    0.000000000000000E+000
 -2.640000000000000E-002    0.000000000000000E+000
 -2.630000000000000E-002    0.000000000000000E+000
 -2.620000000000000E-002    0.000000000000000E+000
 -2.610000000000000E-002    0.000000000000000E+000
 -2.600000000000000E-002    0.000000000000000E+000
 -2.590000000000000E-002    0.000000000000000E+000
 -2.580000000000000E-002    0.000000000000000E+000
 -2.570000000000000E-002    0.000000000000000E+000
 -2.560000000000000E-002    0.000000000000000E+000
 -2.550000000000000E-002    0.000000000000000E+000
 -2.540000000000000E-002    0.000000000000000E+000
 -2.530000000000000E-002    0.000000000000000E+000
 -2.520000000000000E-002    0.000000000000000E+000
 -2.510000000000000E-002    0.000000000000000E+000
 -2.500000000000000E-002    0.000000000000000E+000
 -2.490000000000000E-002    0.000000000000000E+000
 -2.480000000000000E-002    0.000000000000000E+000
 -2.470000000000000E-002    0.000000000000000E+000
 -2.460000000000000E-002    0.000000000000000E+000
 -2.450000000000000E-002    0.000000000000000E+000
 -2.440000000000000E-002    0.000000000000000E+000
 -2.430000000000000E-002    0.000000000000000E+000
 -2.420000000000000E-002    0.000000000000000E+000
 -2.410000000000000E-002    0.000000000000000E+000
 -2.400000000000000E-002    0.000000000000000E+000
 -2.390000000000000E-002    0.000000000000000E+000
 -2.380000000000000E-002    0.000000000000000E+000
 -2.370000000000000E-002    0.000000000000000E+000
 -2.360000000000000E-002    0.000000000000000E+000
 -2.350000000000000E-002    0.000000000000000E+000
 -2.340000000000000E-002    0.000000000000000E+000
 -2.330000000000000E-002    0.000000000000000E+000
 -2.320000000000000E-002    0.000000000000000E+000
 -2.310000000000000E-002    0.000000000000000E+000
 -2.300000000000000E-002    0.000000000000000E+000
 -2.290000000000000E-002    0.000000000000000E+000
 -2.280000000000000E-002    0.000000000000000E+000
 -2.270000000000000E-002    0.000000000000000E+000
 -2.260000000000000E-002    0.000000000000000E+000
 -2.250000000000000E-002    0.000000000000000E+000
 -2.240000000000000E-002    0.000000000000000E+000
 -2.230000000000000E-002    0.000000000000000E+000
 -2.220000000000000E-002    0.000000000000000E+000
 -2.210000000000000E-002    0.000000000000000E+000
 -2.200000000000000E-002    0.000000000000000E+000
 -2.190000000000000E-002    0.000000000000000E+000
 -2.180000000000000E-002    0.000000000000000E+000
 -2.170000000000000E-002    0.000000000000000E+000
 -2.160000000000000E-002    0.000000000000000E+000
 -2.150000000000000E-002    0.000000000000000E+000
 -2.140000000000000E-002    0.000000000000000E+000
 -2.130000000000000E-002    0.000000000000000E+000
 -2.120000000000000E-002    0.000000000000000E+000
 -2.110000000000000E-002    0.000000000000000E+000
 -2.100000000000000E-002    0.000000000000000E+000
 -2.090000000000000E-002    0.000000000000000E+000
 -2.080000000000000E-002    0.000000000000000E+000
 -2.070000000000000E-002    0.000000000000000E+000
 -2.060000000000000E-002    0.000000000000000E+000
 -2.050000000000000E-002    0.000000000000000E+000
 -2.040000000000000E-002    0.000000000000000E+000
 -2.030000000000000E-002    0.000000000000000E+000
 -2.020000000000000E-002    0.000000000000000E+000
 -2.010000000000000E-002    0.000000000000000E+000
 -2.000000000000000E-002    0.000000000000000E+000
 -1.990000000000000E-002    0.000000000000000E+000
 -1.980000000000000E-002    0.000000000000000E+000
 -1.970000000000000E-002    0.000000000000000E+000
 -1.960000000000000E-002    0.000000000000000E+000
 -1.950000000000000E-002    0.000000000000000E+000
 -1.940000000000000E-002    0.000000000000000E+000
 -1.930000000000000E-002    0.000000000000000E+000
 -1.920000000000000E-002    0.000000000000000E+000
 -1.910000000000000E-002    0.000000000000000E+000
 -1.900000000000000E-002    0.000000000000000E+000
 -1.890000000000000E-002    0.000000000000000E+000
 -1.880000000000000E-002    0.000000000000000E+000
 -1.870000000000000E-002    0.000000000000000E+000
 -1.860000000000000E-002    0.000000000000000E+000
 -1.850000000000000E-002    0.000000000000000E+000
 -1.840000000000000E-002    0.000000000000000E+000
 -1.830000000000000E-002    0.000000000000000E+000
 -1.820000000000000E-002    0.000000000000000E+000
 -1.810000000000000E-002    0.000000000000000E+000
 -1.800000000000000E-002    0.000000000000000E+000
 -1.790000000000000E-002    0.000000000000000E+000
 -1.780000000000000E-002    0.000000000000000E+000
 -1.770000000000000E-002    0.000000000000000E+000
 -1.760000000000000E-002    0.000000000000000E+000
 -1.750000000000000E-002    0.000000000000000E+000
 -1.740000000000000E-002    0.000000000000000E+000
 -1.730000000000000E-002    0.000000000000000E+000
 -1.720000000000000E-002    0.000000000000000E+000
 -1.710000000000000E-002    0.000000000000000E+000
 -1.700000000000000E-002    0.000000000000000E+000
 -1.690000000000000E-002    0.000000000000000E+000
 -1.680000000000000E-002    0.000000000000000E+000
 -1.670000000000000E-002    0.000000000000000E+000
 -1.660000000000000E-002    0.000000000000000E+000
 -1.650000000000000E-002    0.000000000000000E+000
 -1.640000000000000E-002    0.000000000000000E+000
 -1.630000000000000E-002    0.000000000000000E+000
 -1.620000000000000E-002    0.000000000000000E+000
 -1.610000000000000E-002    0.000000000000000E+000
 -1.600000000000000E-002    0.000000000000000E+000
 -1.590000000000000E-002    0.000000000000000E+000
 -1.580000000000000E-002    0.000000000000000E+000
 -1.570000000000000E-002    0.000000000000000E+000
 -1.560000000000000E-002    0.000000000000000E+000
 -1.550000000000000E-002    0.000000000000000E+000
 -1.540000000000000E-002    0.000000000000000E+000
 -1.530000000000000E-002    0.000000000000000E+000
 -1.520000000000000E-002    0.000000000000000E+000
 -1.510000000000000E-002    0.000000000000000E+000
 -1.500000000000000E-002    0.000000000000000E+000
 -1.490000000000000E-002    0.000000000000000E+000
 -1.480000000000000E-002    0.000000000000000E+000
 -1.470000000000000E-002    0.000000000000000E+000
 -1.460000000000000E-002    0.000000000000000E+000
 -1.450000000000000E-002    0.000000000000000E+000
 -1.440000000000000E-002    0.000000000000000E+000
 -1.430000000000000E-002    0.000000000000000E+000
 -1.420000000000000E-002    0.000000000000000E+000
 -1.410000000000000E-002    0.000000000000000E+000
 -1.400000000000000E-002    0.000000000000000E+000
 -1.390000000000000E-002    0.000000000000000E+000
 -1.380000000000000E-002    0.000000000000000E+000
 -1.370000000000000E-002    0.000000000000000E+000
 -1.360000000000000E-002    0.000000000000000E+000
 -1.350000000000000E-002    0.000000000000000E+000
 -1.340000000000000E-002    0.000000000000000E+000
 -1.330000000000000E-002    0.000000000000000E+000
 -1.320000000000000E-002    0.000000000000000E+000
 -1.310000000000000E-002    0.000000000000000E+000
 -1.300000000000000E-002    0.000000000000000E+000
 -1.290000000000000E-002    0.000000000000000E+000
 -1.280000000000000E-002    0.000000000000000E+000
 -1.270000000000000E-002    0.000000000000000E+000
 -1.260000000000000E-002    0.000000000000000E+000
 -1.250000000000000E-002    0.000000000000000E+000
 -1.240000000000000E-002    0.000000000000000E+000
 -1.230000000000000E-002    0.000000000000000E+000
 -1.220000000000000E-002    0.000000000000000E+000
 -1.210000000000000E-002    0.000000000000000E+000
 -1.200000000000000E-002    0.000000000000000E+000
 -1.190000000000000E-002    0.000000000000000E+000
 -1.180000000000000E-002    0.000000000000000E+000
 -1.170000000000000E-002    0.000000000000000E+000
 -1.160000000000000E-002    0.000000000000000E+000
 -1.150000000000000E-002    0.000000000000000E+000
 -1.140000000000000E-002    0.000000000000000E+000
 -1.130000000000000E-002    0.000000000000000E+000
 -1.120000000000000E-002    0.000000000000000E+000
 -1.110000000000000E-002    0.000000000000000E+000
 -1.100000000000000E-002    0.000000000000000E+000
 -1.090000000000000E-002    0.000000000000000E+000
 -1.080000000000000E-002    0.000000000000000E+000
 -1.070000000000000E-002    0.000000000000000E+000
 -1.060000000000000E-002    0.000000000000000E+000
 -1.050000000000000E-002    0.000000000000000E+000
 -1.040000000000000E-002    0.000000000000000E+000
 -1.030000000000000E-002    0.000000000000000E+000
 -1.020000000000000E-002    0.000000000000000E+000
 -1.010000000000000E-002    0.000000000000000E+000
 -1.000000000000000E-002    0.000000000000000E+000
 -9.899999999999999E-003    0.000000000000000E+000
 -9.800000000000000E-003    0.000000000000000E+000
 -9.699999999999999E-003    0.000000000000000E+000
 -9.599999999999999E-003    0.000000000000000E+000
 -9.500000000000000E-003    0.000000000000000E+000
 -9.399999999999999E-003    0.000000000000000E+000
 -9.299999999999999E-003    0.000000000000000E+000
 -9.200000000000000E-003   -3.039252812784774E-048
 -9.099999999999999E-003   -6.078505625569548E-048
 -8.999999999999999E-003   -1.015386733464049E-047
 -8.900000000000000E-003   -1.422922904371143E-047
 -8.799999999999999E-003   -1.422922904371143E-047
 -8.699999999999999E-003   -1.118997623092666E-047
 -8.600000000000000E-003   -4.075361709070943E-048
 -8.499999999999999E-003    6.078505625569548E-048
 -8.399999999999999E-003    4.241238695430717E-047
 -8.300000000000000E-003    1.049262822771419E-046
 -8.199999999999999E-003    1.620952849566869E-046
 -8.100000000000000E-003    2.413689399212582E-046
 -8.000000000000000E-003    3.145640892602598E-046
 -7.899999999999999E-003    3.555007189795948E-046
 -7.800000000000000E-003    3.684876128262667E-046
 -7.699999999999999E-003    3.042693269408120E-046
 -7.599999999999999E-003    9.112463769535620E-047
 -7.499999999999999E-003   -2.366488663224411E-046
 -7.399999999999999E-003   -6.709121481951928E-046
 -7.299999999999999E-003   -1.101025481702111E-045
 -7.199999999999999E-003   -1.573054166449332E-045
 -7.100000000000000E-003   -2.135354619012420E-045
 -6.999999999999999E-003   -2.535440413732647E-045
 -6.899999999999999E-003   -2.783327261150551E-045
 -6.800000000000000E-003   -2.646333252397267E-045
 -6.699999999999999E-003   -2.613534365832815E-045
 -6.599999999999999E-003   -2.056202190758349E-045
 -6.499999999999999E-003   -7.034310530663902E-046
 -6.399999999999999E-003    1.071601957689217E-045
 -6.299999999999999E-003    3.297353761794368E-045
 -6.199999999999999E-003    6.596792007287788E-045
 -6.100000000000000E-003    1.051954822545702E-044
 -5.999999999999999E-003    1.444885763911039E-044
 -5.899999999999999E-003    1.835087528351080E-044
 -5.800000000000000E-003    2.124852677300497E-044
 -5.699999999999999E-003    2.233259033675940E-044
 -5.599999999999999E-003    2.015280377887393E-044
 -5.499999999999999E-003    1.422404835364106E-044
 -5.399999999999999E-003    4.186497125684736E-045
 -5.299999999999999E-003   -1.075461975159039E-044
 -5.199999999999999E-003   -3.030733222659563E-044
 -5.099999999999999E-003   -5.271149329840931E-044
 -4.999999999999999E-003   -7.705147236484672E-044
 -4.899999999999999E-003   -9.930253308664825E-044
 -4.799999999999999E-003   -1.159420151997369E-043
 -4.699999999999999E-003   -1.218233504415800E-043
 -4.599999999999999E-003   -1.113583180828498E-043
 -4.499999999999999E-003   -7.919989527319274E-044
 -4.399999999999999E-003   -2.055198120599683E-044
 -4.299999999999999E-003    6.594249016381558E-044
 -4.199999999999999E-003    1.782106213820766E-043
 -4.099999999999999E-003    3.107945623556762E-043
 -3.999999999999999E-003    4.533215185792121E-043
 -3.899999999999999E-003    5.868465219067900E-043
 -3.799999999999999E-003    6.897022869937957E-043
 -3.699999999999999E-003    7.322958580258638E-043
 -3.599999999999999E-003    6.846431343246649E-043
 -3.499999999999999E-003    5.161164306518822E-043
 -3.399999999999999E-003    2.033430214480713E-043
 -3.299999999999999E-003   -2.650413535027588E-043
 -3.199999999999999E-003   -8.842477597574570E-043
 -3.099999999999999E-003   -1.624470084995605E-042
 -2.999999999999999E-003   -2.427469207417779E-042
 -2.899999999999999E-003   -3.200992483770979E-042
 -2.799999999999999E-003   -3.823385736927919E-042
 -2.699999999999999E-003   -4.146380376385015E-042
 -2.599999999999999E-003   -4.006964822938705E-042
 -2.499999999999999E-003   -3.246537475352276E-042
 -2.399999999999999E-003   -1.732718533795631E-042
 -2.299999999999999E-003    6.103099511404094E-043
 -2.199999999999999E-003    3.769916810574565E-042
 -2.099999999999999E-003    7.612976260448153E-042
 -1.999999999999999E-003    1.186358659871791E-041
 -1.899999999999999E-003    1.608379996028303E-041
 -1.799999999999999E-003    1.967706759361955E-041
 -1.699999999999999E-003    2.191697094046379E-041
 -1.599999999999999E-003    2.199405090690096E-041
 -1.499999999999999E-003    1.910292595219345E-041
 -1.399999999999999E-003    1.255278166256807E-041
 -1.299999999999999E-003    1.902093674645292E-042
 -1.199999999999999E-003   -1.289015799646347E-041
 -1.099999999999999E-003   -3.131855045221198E-041
 -9.999999999999989E-004   -5.220782714865592E-041
 -8.999999999999990E-004   -7.363710692391924E-041
 -7.999999999999990E-004   -9.294152949068688E-041
 -6.999999999999989E-004   -1.068138336379519E-040
 -5.999999999999990E-004   -1.115266176284541E-040
 -4.999999999999989E-004   -1.032874871102421E-040
 -3.999999999999989E-004   -7.871839617699325E-041
 -2.999999999999989E-004   -3.544709211660747E-041
 -1.999999999999989E-004    2.724637833970023E-041
 -9.999999999999892E-005    1.077904161543865E-040
  1.084202172485504E-018    2.017689771012546E-040
  1.000000000000011E-004    3.015774416031297E-040
  2.000000000000011E-004    3.963708199620640E-040
  3.000000000000011E-004    4.724339652202392E-040
  4.000000000000011E-004    5.140339404527986E-040
  5.000000000000011E-004    5.048051196833673E-040
  6.000000000000011E-004    4.296475847278204E-040
  7.000000000000011E-004    2.770428453495519E-040
  8.000000000000011E-004    4.162179233212579E-041
  9.000000000000012E-004   -2.732818575782516E-040
  1.000000000000001E-003   -6.534185078389246E-040
  1.100000000000001E-003   -1.072148102740865E-039
  1.200000000000001E-003   -1.490096065889490E-039
  1.300000000000001E-003   -1.856316715651165E-039
  1.400000000000001E-003   -2.111245412577303E-039
  1.500000000000001E-003   -2.191566772685143E-039
  1.600000000000001E-003   -2.036914954065991E-039
  1.700000000000001E-003   -1.598058068910410E-039
  1.800000000000001E-003   -8.459462143983165E-040
  1.900000000000001E-003    2.193024332191708E-040
  2.000000000000001E-003    1.560606758240165E-039
  2.100000000000001E-003    3.098613706704855E-039
  2.200000000000001E-003    4.710171732972282E-039
  2.300000000000001E-003    6.231727608703446E-039
  2.400000000000001E-003    7.468436423658627E-039
  2.500000000000001E-003    8.209229472536301E-039
  2.600000000000001E-003    8.247392196058615E-039
  2.700000000000001E-003    7.405350888745641E-039
  2.800000000000001E-003    5.561576123965992E-039
  2.900000000000001E-003    2.676707440517348E-039
  3.000000000000001E-003   -1.184489330578338E-039
  3.100000000000001E-003   -5.838932091033484E-039
  3.200000000000001E-003   -1.098210882046233E-038
  3.300000000000001E-003   -1.619855813855621E-038
  3.400000000000001E-003   -2.098713552878838E-038
  3.500000000000001E-003   -2.480041637972361E-038
  3.600000000000001E-003   -2.709555040483566E-038
  3.700000000000001E-003   -2.739167393436734E-038
  3.800000000000001E-003   -2.532719331616864E-038
  3.900000000000001E-003   -2.070902089126760E-038
  4.000000000000001E-003   -1.354567212215947E-038
  4.100000000000001E-003   -4.057363292608658E-039
  4.200000000000001E-003    7.341205937621443E-039
  4.300000000000001E-003    2.008551946098245E-038
  4.400000000000001E-003    3.352842154782636E-038
  4.500000000000001E-003    4.701898567704553E-038
  4.600000000000002E-003    5.997719221973974E-038
  4.700000000000001E-003    7.194456701619675E-038
  4.800000000000001E-003    8.258995047366505E-038
  4.900000000000002E-003    9.165263438752585E-038
  5.000000000000001E-003    9.881235793734605E-038
  5.100000000000001E-003    1.034890026938668E-037
  5.200000000000001E-003    1.045912982580984E-037
  5.300000000000002E-003    1.002552321052536E-037
  5.400000000000001E-003    8.763278704349462E-038
  5.500000000000001E-003    6.281025548982474E-038
  5.600000000000002E-003    2.094491349270202E-038
  5.700000000000001E-003   -4.329317783384143E-038
  5.800000000000001E-003   -1.349067724631519E-037
  5.900000000000002E-003   -2.573564853735790E-037
  6.000000000000001E-003   -4.109786126862239E-037
  6.100000000000001E-003   -5.911501383559541E-037
  6.200000000000002E-003   -7.864088464606271E-037
  6.300000000000002E-003   -9.768365326880471E-037
  6.400000000000001E-003   -1.133098375157481E-036
  6.500000000000001E-003   -1.216590689099645E-036
  6.600000000000002E-003   -1.181154875231224E-036
  6.700000000000001E-003   -9.767537263845480E-037
  6.800000000000001E-003   -5.553562070011701E-037
  6.900000000000002E-003    1.209697515955515E-037
  7.000000000000001E-003    1.070097769326972E-036
  7.100000000000001E-003    2.278773488467918E-036
  7.200000000000002E-003    3.691656028258245E-036
  7.300000000000002E-003    5.202133332570989E-036
  7.400000000000001E-003    6.646944519139643E-036
  7.500000000000001E-003    7.806849678736292E-036
  7.600000000000002E-003    8.415522956328443E-036
  7.700000000000001E-003    8.178461676352756E-036
  7.800000000000001E-003    6.802929645915278E-036
  7.900000000000001E-003    4.038736080292821E-036
  8.000000000000002E-003   -2.719412244932574E-037
  8.100000000000001E-003   -6.139383849387339E-036
  8.200000000000001E-003   -1.337155301038624E-035
  8.300000000000002E-003   -2.152734298270319E-035
  8.400000000000001E-003   -2.988708327673872E-035
  8.500000000000002E-003   -3.745020501620426E-035
  8.600000000000002E-003   -4.296973848046804E-035
  8.700000000000001E-003   -4.503138924570902E-035
  8.800000000000002E-003   -4.218166201322426E-035
  8.900000000000002E-003   -3.310422995847277E-035
  9.000000000000001E-003   -1.683710353274966E-035
  9.100000000000002E-003    6.984785326003573E-036
  9.200000000000002E-003    3.788526824614963E-035
  9.300000000000001E-003    7.433239050976230E-035
  9.400000000000002E-003    1.135914737231313E-034
  9.500000000000001E-003    1.516861771867791E-034
  9.600000000000001E-003    1.835072243245428E-034
  9.700000000000002E-003    2.031008540505765E-034
  9.800000000000001E-003    2.041560040550685E-034
  9.900000000000001E-003    1.806892865664960E-034
  1.000000000000000E-002    1.279004724105741E-034
  1.010000000000000E-002    4.314158411161237E-035
  1.020000000000000E-002   -7.308993305931853E-035
  1.030000000000000E-002   -2.162527914403342E-034
  1.040000000000000E-002   -3.771011037606242E-034
  1.050000000000000E-002   -5.414160657630132E-034
  1.060000000000000E-002   -6.902800380204646E-034
  1.070000000000000E-002   -8.010194701167812E-034
  1.080000000000000E-002   -8.488937764676945E-034
  1.090000000000000E-002   -8.095365634798256E-034
  1.100000000000000E-002   -6.620617713200161E-034
  1.110000000000000E-002   -3.926385034996639E-034
  1.120000000000000E-002    1.776008487504814E-036
  1.130000000000000E-002    5.099642150358740E-034
  1.140000000000000E-002    1.103743459816867E-033
  1.150000000000000E-002    1.736577927932176E-033
  1.160000000000000E-002    2.344049636089249E-033
  1.170000000000000E-002    2.846650156336588E-033
  1.180000000000000E-002    3.155193540377689E-033
  1.190000000000000E-002    3.178910431537373E-033
  1.200000000000000E-002    2.835965377807163E-033
  1.210000000000000E-002    2.065775542136423E-033
  1.220000000000000E-002    8.421120946475311E-034
  1.230000000000000E-002   -8.143979846574232E-034
  1.240000000000000E-002   -2.826062175257317E-033
  1.250000000000000E-002   -5.052052323099105E-033
  1.260000000000000E-002   -7.288322640287706E-033
  1.270000000000000E-002   -9.275112873719763E-033
  1.280000000000000E-002   -1.071313194482351E-032
  1.290000000000000E-002   -1.128874992931932E-032
  1.300000000000000E-002   -1.070751588486487E-032
  1.310000000000000E-002   -8.734136075040738E-033
  1.320000000000000E-002   -5.235757851399947E-033
  1.330000000000000E-002   -2.242376264824876E-034
  1.340000000000000E-002    6.107963041292834E-033
  1.350000000000000E-002    1.336417199798896E-032
  1.360000000000000E-002    2.093814993702608E-032
  1.370000000000000E-002    2.803226290767607E-032
  1.380000000000000E-002    3.370291888783626E-032
  1.390000000000000E-002    3.693472234070633E-032
  1.400000000000000E-002    3.674170524961406E-032
  1.410000000000000E-002    3.229029781391318E-032
  1.420000000000000E-002    2.303488030368378E-032
  1.430000000000000E-002    8.852850005961411E-033
  1.440000000000000E-002   -9.836830685933013E-033
  1.450000000000000E-002   -3.198977049316021E-032
  1.460000000000000E-002   -5.590528838028395E-032
  1.470000000000000E-002   -7.926508682326351E-032
  1.480000000000000E-002   -9.925368426216542E-032
  1.490000000000000E-002   -1.127661159624086E-031
  1.500000000000000E-002   -1.166993314452996E-031
  1.510000000000000E-002   -1.083129850613859E-031
  1.520000000000000E-002   -8.563369284656420E-032
  1.530000000000000E-002   -4.786561770949455E-032
  1.540000000000000E-002    4.239371488832539E-033
  1.550000000000000E-002    6.810484384397336E-032
  1.560000000000000E-002    1.392004171500448E-031
  1.570000000000000E-002    2.111094764779581E-031
  1.580000000000000E-002    2.758318946050493E-031
  1.590000000000000E-002    3.243404623961403E-031
  1.600000000000000E-002    3.473848350014693E-031
  1.610000000000000E-002    3.365059003940255E-031
  1.620000000000000E-002    2.851905319360161E-031
  1.630000000000000E-002    1.900639174926064E-031
  1.640000000000000E-002    5.198985608473952E-032
  1.650000000000000E-002   -1.230703955849265E-031
  1.660000000000000E-002   -3.235945741999832E-031
  1.670000000000000E-002   -5.325739373839278E-031
  1.680000000000000E-002   -7.282374488082989E-031
  1.690000000000000E-002   -8.854864205418169E-031
  1.700000000000000E-002   -9.780314984118848E-031
  1.710000000000000E-002   -9.811396556669855E-031
  1.720000000000000E-002   -8.748073743533127E-031
  1.730000000000000E-002   -6.470870792136669E-031
  1.740000000000000E-002   -2.972156108906986E-031
  1.750000000000000E-002    1.618606157636267E-031
  1.760000000000000E-002    7.019867996130059E-031
  1.770000000000000E-002    1.279722353446513E-030
  1.780000000000000E-002    1.838003588001940E-030
  1.790000000000000E-002    2.309726515665493E-030
  1.800000000000000E-002    2.623252559295047E-030
  1.810000000000000E-002    2.709611891525791E-030
  1.820000000000000E-002    2.510938311426410E-030
  1.830000000000000E-002    1.989423791294640E-030
  1.840000000000000E-002    1.135873088798219E-030
  1.850000000000000E-002   -2.321331876458145E-032
  1.860000000000000E-002   -1.421156656238997E-030
  1.870000000000000E-002   -2.950277889933934E-030