 -4.000000000000000E-002    0.000000000000000E+000
 -3.990000000000000E-002    0.000000000000000E+000
 -3.980000000000000E-002    0.000000000000000E+000
 -3.970000000000000E-002    0.000000000000000E+000
 -3.960000000000000E-002    0.000000000000000E+000
 -3.950000000000000E-002    0.000000000000000E+000
 -3.940000000000000E-002    0.000000000000000E+000
 -3.930000000000000E-002    0.000000000000000E+000
 -3.920000000000000E-002    0.000000000000000E+000
 -3.910000000000000E-002    0.000000000000000E+000
 -3.900000000000000E-002    0.000000000000000E+000
 -3.890000000000000E-002    0.000000000000000E+000
 -3.880000000000000E-002    0.000000000000000E+000
 -3.870000000000000E-002    0.000000000000000E+000
 -3.860000000000000E-002    0.000000000000000E+000
 -3.850000000000000E-002    0.000000000000000E+000
 -3.840000000000000E-002    0.000000000000000E+000
 -3.830000000000000E-002    0.000000000000000E+000
 -3.820000000000000E-002    0.000000000000000E+000
 -3.810000000000000E-002    0.000000000000000E+000
 -3.800000000000000E-002    0.000000000000000E+000
 -3.790000000000000E-002    0.000000000000000E+000
 -3.780000000000000E-002    0.000000000000000E+000
 -3.770000000000000E-002    0.000000000000000E+000
 -3.760000000000000E-002    0.000000000000000E+000
 -3.750000000000000E-002    0.000000000000000E+000
 -3.740000000000000E-002    0.000000000000000E+000
 -3.730000000000000E-002    0.000000000000000E+000
 -3.720000000000000E-002    0.000000000000000E+000
 -3.710000000000000E-002    0.000000000000000E+000
 -3.700000000000000E-002    0.000000000000000E+000
 -3.690000000000000E-002    0.000000000000000E+000
 -3.680000000000000E-002    0.000000000000000E+000
 -3.670000000000000E-002    0.000000000000000E+000
 -3.660000000000000E-002    0.000000000000000E+000
 -3.650000000000000E-002    0.000000000000000E+000
 -3.640000000000000E-002    0.000000000000000E+000
 -3.630000000000000E-002    0.000000000000000E+000
 -3.620000000000000E-002    0.000000000000000E+000
 -3.610000000000000E-002    0.000000000000000E+000
 -3.600000000000000E-002    0.000000000000000E+000
 -3.590000000000000E-002    0.000000000000000E+000
 -3.580000000000000E-002    0.000000000000000E+000
 -3.570000000000000E-002    0.000000000000000E+000
 -3.560000000000000E-002    0.000000000000000E+000
 -3.550000000000000E-002    0.000000000000000E+000
 -3.540000000000000E-002    0.000000000000000E+000
 -3.530000000000000E-002    0.000000000000000E+000
 -3.520000000000000E-002    0.000000000000000E+000
 -3.510000000000000E-002    0.000000000000000E+000
 -3.500000000000000E-002    0.000000000000000E+000
 -3.490000000000000E-002    0.000000000000000E+000
 -3.480000000000000E-002    0.000000000000000E+000
 -3.470000000000000E-002    0.000000000000000E+000
 -3.460000000000000E-002    0.000000000000000E+000
 -3.450000000000000E-002    0.000000000000000E+000
 -3.440000000000000E-002    0.000000000000000E+000
 -3.430000000000000E-002    0.000000000000000E+000
 -3.420000000000000E-002    0.000000000000000E+000
 -3.410000000000000E-002    0.000000000000000E+000
 -3.400000000000000E-002    0.000000000000000E+000
 -3.390000000000000E-002    0.000000000000000E+000
 -3.380000000000000E-002    0.000000000000000E+000
 -3.370000000000000E-002    0.000000000000000E+000
 -3.360000000000000E-002    0.000000000000000E+000
 -3.350000000000000E-002    0.000000000000000E+000
 -3.340000000000000E-002    0.000000000000000E+000
 -3.330000000000000E-002    0.000000000000000E+000
 -3.320000000000000E-002    0.000000000000000E+000
 -3.310000000000000E-002    0.000000000000000E+000
 -3.300000000000000E-002    0.000000000000000E+000
 -3.290000000000000E-002    0.000000000000000E+000
 -3.280000000000000E-002    0.000000000000000E+000
 -3.270000000000000E-002    0.000000000000000E+000
 -3.260000000000000E-002    0.000000000000000E+000
 -3.250000000000000E-002    0.000000000000000E+000
 -3.240000000000000E-002    0.000000000000000E+000
 -3.230000000000000E-002    0.000000000000000E+000
 -3.220000000000000E-002    0.000000000000000E+000
 -3.210000000000000E-002    0.000000000000000E+000
 -3.200000000000000E-002    0.000000000000000E+000
 -3.190000000000000E-002    0.000000000000000E+000
 -3.180000000000000E-002    0.000000000000000E+000
 -3.170000000000000E-002    0.000000000000000E+000
 -3.160000000000000E-002    0.000000000000000E+000
 -3.150000000000000E-002    0.000000000000000E+000
 -3.140000000000000E-002    0.000000000000000E+000
 -3.130000000000000E-002    0.000000000000000E+000
 -3.120000000000000E-002    0.000000000000000E+000
 -3.110000000000000E-002    0.000000000000000E+000
 -3.100000000000000E-002    0.000000000000000E+000
 -3.090000000000000E-002    0.000000000000000E+000
 -3.080000000000000E-002    0.000000000000000E+000
 -3.070000000000000E-002    0.000000000000000E+000
 -3.060000000000000E-002    0.000000000000000E+000
 -3.050000000000000E-002    0.000000000000000E+000
 -3.040000000000000E-002    0.000000000000000E+000
 -3.030000000000000E-002    0.000000000000000E+000
 -3.020000000000000E-002    0.000000000000000E+000
 -3.010000000000000E-002    0.000000000000000E+000
 -3.000000000000000E-002    0.000000000000000E+000
 -2.990000000000000E-002    0.000000000000000E+000
 -2.980000000000000E-002    0.000000000000000E+000
 -2.970000000000000E-002    0.000000000000000E+000
 -2.960000000000000E-002    0.000000000000000E+000
 -2.950000000000000E-002    0.000000000000000E+000
 -2.940000000000000E-002    0.000000000000000E+000
 -2.930000000000000E-002    0.000000000000000E+000
 -2.920000000000000E-002    0.000000000000000E+000
 -2.910000000000000E-002    0.000000000000000E+000
 -2.900000000000000E-002    0.000000000000000E+000
 -2.890000000000000E-002    0.000000000000000E+000
 -2.880000000000000E-002    0.000000000000000E+000
 -2.870000000000000E-002    0.000000000000000E+000
 -2.860000000000000E-002    0.000000000000000E+000
 -2.850000000000000E-002    0.000000000000000E+000
 -2.840000000000000E-002    0.000000000000000E+000
 -2.830000000000000E-002    0.000000000000000E+000
 -2.820000000000000E-002    0.000000000000000E+000
 -2.810000000000000E-002    0.000000000000000E+000
 -2.800000000000000E-002    0.000000000000000E+000
 -2.790000000000000E-002    0.000000000000000E+000
 -2.780000000000000E-002    0.000000000000000E+000
 -2.770000000000000E-002    0.000000000000000E+000
 -2.760000000000000E-002    0.000000000000000E+000
 -2.750000000000000E-002    0.000000000000000E+000
 -2.740000000000000E-002    0.000000000000000E+000
 -2.730000000000000E-002    0.000000000000000E+000
 -2.720000000000000E-002    0.000000000000000E+000
 -2.710000000000000E-002    0.000000000000000E+000
 -2.700000000000000E-002    0.000000000000000E+000
 -2.690000000000000E-002    0.000000000000000E+000
 -2.680000000000000E-002    0.000000000000000E+000
 -2.670000000000000E-002    0.000000000000000E+000
 -2.660000000000000E-002    0.000000000000000E+000
 -2.650000000000000E-002    0.000000000000000E+000
 -2.640000000000000E-002    0.000000000000000E+000
 -2.630000000000000E-002    0.000000000000000E+000
 -2.620000000000000E-002    0.000000000000000E+000
 -2.610000000000000E-002    0.000000000000000E+000
 -2.600000000000000E-002    0.000000000000000E+000
 -2.590000000000000E-002    0.000000000000000E+000
 -2.580000000000000E-002    0.000000000000000E+000
 -2.570000000000000E-002    0.000000000000000E+000
 -2.560000000000000E-002    0.000000000000000E+000
 -2.550000000000000E-002    0.000000000000000E+000
 -2.540000000000000E-002    0.000000000000000E+000
 -2.530000000000000E-002    0.000000000000000E+000
 -2.520000000000000E-002    0.000000000000000E+000
 -2.510000000000000E-002    0.000000000000000E+000
 -2.500000000000000E-002    0.000000000000000E+000
 -2.490000000000000E-002    0.000000000000000E+000
 -2.480000000000000E-002    0.000000000000000E+000
 -2.470000000000000E-002    0.000000000000000E+000
 -2.460000000000000E-002    0.000000000000000E+000
 -2.450000000000000E-002    0.000000000000000E+000
 -2.440000000000000E-002    0.000000000000000E+000
 -2.430000000000000E-002    0.000000000000000E+000
 -2.420000000000000E-002    0.000000000000000E+000
 -2.410000000000000E-002    0.000000000000000E+000
 -2.400000000000000E-002    0.000000000000000E+000
 -2.390000000000000E-002    0.000000000000000E+000
 -2.380000000000000E-002    0.000000000000000E+000
 -2.370000000000000E-002    0.000000000000000E+000
 -2.360000000000000E-002    0.000000000000000E+000
 -2.350000000000000E-002    0.000000000000000E+000
 -2.340000000000000E-002    0.000000000000000E+000
 -2.330000000000000E-002    0.000000000000000E+000
 -2.320000000000000E-002    0.000000000000000E+000
 -2.310000000000000E-002    0.000000000000000E+000
 -2.300000000000000E-002    0.000000000000000E+000
 -2.290000000000000E-002    0.000000000000000E+000
 -2.280000000000000E-002    0.000000000000000E+000
 -2.270000000000000E-002    0.000000000000000E+000
 -2.260000000000000E-002    0.000000000000000E+000
 -2.250000000000000E-002    0.000000000000000E+000
 -2.240000000000000E-002    0.000000000000000E+000
 -2.230000000000000E-002    0.000000000000000E+000
 -2.220000000000000E-002    0.000000000000000E+000
 -2.210000000000000E-002    0.000000000000000E+000
 -2.200000000000000E-002    0.000000000000000E+000
 -2.190000000000000E-002    0.000000000000000E+000
 -2.180000000000000E-002    0.000000000000000E+000
 -2.170000000000000E-002    0.000000000000000E+000
 -2.160000000000000E-002    0.000000000000000E+000
 -2.150000000000000E-002    0.000000000000000E+000
 -2.140000000000000E-002    0.000000000000000E+000
 -2.130000000000000E-002    0.000000000000000E+000
 -2.120000000000000E-002    0.000000000000000E+000
 -2.110000000000000E-002    0.000000000000000E+000
 -2.100000000000000E-002    0.000000000000000E+000
 -2.090000000000000E-002    0.000000000000000E+000
 -2.080000000000000E-002    0.000000000000000E+000
 -2.070000000000000E-002    0.000000000000000E+000
 -2.060000000000000E-002    0.000000000000000E+000
 -2.050000000000000E-002    0.000000000000000E+000
 -2.040000000000000E-002    0.000000000000000E+000
 -2.030000000000000E-002    0.000000000000000E+000
 -2.020000000000000E-002    0.000000000000000E+000
 -2.010000000000000E-002    0.000000000000000E+000
 -2.000000000000000E-002    0.000000000000000E+000
 -1.990000000000000E-002    0.000000000000000E+000
 -1.980000000000000E-002    0.000000000000000E+000
 -1.970000000000000E-002    0.000000000000000E+000
 -1.960000000000000E-002    0.000000000000000E+000
 -1.950000000000000E-002    0.000000000000000E+000
 -1.940000000000000E-002    0.000000000000000E+000
 -1.930000000000000E-002    0.000000000000000E+000
 -1.920000000000000E-002    0.000000000000000E+000
 -1.910000000000000E-002    0.000000000000000E+000
 -1.900000000000000E-002    0.000000000000000E+000
 -1.890000000000000E-002    0.000000000000000E+000
 -1.880000000000000E-002    0.000000000000000E+000
 -1.870000000000000E-002    0.000000000000000E+000
 -1.860000000000000E-002    0.000000000000000E+000
 -1.850000000000000E-002    0.000000000000000E+000
 -1.840000000000000E-002    0.000000000000000E+000
 -1.830000000000000E-002    0.000000000000000E+000
 -1.820000000000000E-002    0.000000000000000E+000
 -1.810000000000000E-002    0.000000000000000E+000
 -1.800000000000000E-002    0.000000000000000E+000
 -1.790000000000000E-002    0.000000000000000E+000
 -1.780000000000000E-002    0.000000000000000E+000
 -1.770000000000000E-002    0.000000000000000E+000
 -1.760000000000000E-002    0.000000000000000E+000
 -1.750000000000000E-002    0.000000000000000E+000
 -1.740000000000000E-002    0.000000000000000E+000
 -1.730000000000000E-002    0.000000000000000E+000
 -1.720000000000000E-002    0.000000000000000E+000
 -1.710000000000000E-002    0.000000000000000E+000
 -1.700000000000000E-002    0.000000000000000E+000
 -1.690000000000000E-002    0.000000000000000E+000
 -1.680000000000000E-002    0.000000000000000E+000
 -1.670000000000000E-002    0.000000000000000E+000
 -1.660000000000000E-002    0.000000000000000E+000
 -1.650000000000000E-002    0.000000000000000E+000
 -1.640000000000000E-002    0.000000000000000E+000
 -1.630000000000000E-002    0.000000000000000E+000
 -1.620000000000000E-002    0.000000000000000E+000
 -1.610000000000000E-002    0.000000000000000E+000
 -1.600000000000000E-002    0.000000000000000E+000
 -1.590000000000000E-002    0.000000000000000E+000
 -1.580000000000000E-002    0.000000000000000E+000
 -1.570000000000000E-002    0.000000000000000E+000
 -1.560000000000000E-002    0.000000000000000E+000
 -1.550000000000000E-002    0.000000000000000E+000
 -1.540000000000000E-002    0.000000000000000E+000
 -1.530000000000000E-002    0.000000000000000E+000
 -1.520000000000000E-002    0.000000000000000E+000
 -1.510000000000000E-002    0.000000000000000E+000
 -1.500000000000000E-002    0.000000000000000E+000
 -1.490000000000000E-002    0.000000000000000E+000
 -1.480000000000000E-002    0.000000000000000E+000
 -1.470000000000000E-002    0.000000000000000E+000
 -1.460000000000000E-002    0.000000000000000E+000
 -1.450000000000000E-002    0.000000000000000E+000
 -1.440000000000000E-002    0.000000000000000E+000
 -1.430000000000000E-002    0.000000000000000E+000
 -1.420000000000000E-002    0.000000000000000E+000
 -1.410000000000000E-002    0.000000000000000E+000
 -1.400000000000000E-002    0.000000000000000E+000
 -1.390000000000000E-002    0.000000000000000E+000
 -1.380000000000000E-002    0.000000000000000E+000
 -1.370000000000000E-002    0.000000000000000E+000
 -1.360000000000000E-002    0.000000000000000E+000
 -1.350000000000000E-002    0.000000000000000E+000
 -1.340000000000000E-002    0.000000000000000E+000
 -1.330000000000000E-002    0.000000000000000E+000
 -1.320000000000000E-002    0.000000000000000E+000
 -1.310000000000000E-002    0.000000000000000E+000
 -1.300000000000000E-002    0.000000000000000E+000
 -1.290000000000000E-002    0.000000000000000E+000
 -1.280000000000000E-002    0.000000000000000E+000
 -1.270000000000000E-002   -4.064117519239238E-048
 -1.260000000000000E-002   -3.907227909098053E-047
 -1.250000000000000E-002   -7.408044066272182E-047
 -1.240000000000000E-002   -1.131527197537023E-046
 -1.230000000000000E-002   -1.481608813254436E-046
 -1.220000000000000E-002   -1.777194307920649E-046
 -1.210000000000000E-002   -1.736553132728257E-046
 -1.200000000000000E-002   -1.305189166626059E-046
 -1.190000000000000E-002   -4.424612344216637E-047
 -1.180000000000000E-002    8.267604677935659E-047
 -1.170000000000000E-002    2.486704960918601E-046
 -1.160000000000000E-002    4.717500530478554E-046
 -1.150000000000000E-002    7.228332899639858E-046
 -1.140000000000000E-002    9.953468413082590E-046
 -1.130000000000000E-002    1.230544472037106E-045
 -1.120000000000000E-002    1.381309697511042E-045
 -1.110000000000000E-002    1.252911024881695E-045
 -1.100000000000000E-002    9.294539631648457E-046
 -1.090000000000000E-002    3.198756884797516E-047
 -1.080000000000000E-002   -8.222873179027388E-046
 -1.070000000000000E-002   -2.116457089372265E-045
 -1.060000000000000E-002   -3.744491126317864E-045
 -1.050000000000000E-002   -5.898040284978785E-045
 -1.040000000000000E-002   -7.836600061579332E-045
 -1.030000000000000E-002   -1.023675113276676E-044
 -1.020000000000000E-002   -1.122086093205145E-044
 -1.010000000000000E-002   -1.109469945371626E-044
 -1.000000000000000E-002   -8.795840224592265E-045
 -9.899999999999999E-003   -4.322444637090422E-045
 -9.800000000000000E-003    2.107805421407406E-045
 -9.699999999999999E-003    1.190083226588525E-044
 -9.599999999999999E-003    2.399591791782472E-044
 -9.500000000000000E-003    3.753039257934467E-044
 -9.399999999999999E-003    5.152680300457329E-044
 -9.299999999999999E-003    6.349671840397892E-044
 -9.200000000000000E-003    7.012059297950399E-044
 -9.099999999999999E-003    6.809597939427681E-044
 -8.999999999999999E-003    5.446427417062089E-044
 -8.900000000000000E-003    2.574447993551652E-044
 -8.799999999999999E-003   -2.071458613593429E-044
 -8.699999999999999E-003   -8.417492156293906E-044
 -8.600000000000000E-003   -1.625591816043212E-043
 -8.499999999999999E-003   -2.503107706053915E-043
 -8.399999999999999E-003   -3.367722442701216E-043
 -8.300000000000000E-003   -4.072815504998692E-043
 -8.199999999999999E-003   -4.427633364961280E-043
 -8.100000000000000E-003   -4.226159479704052E-043
 -8.000000000000000E-003   -3.250050392242994E-043
 -7.899999999999999E-003   -1.320474466834347E-043
 -7.800000000000000E-003    1.680006541349071E-043
 -7.699999999999999E-003    5.731450684813862E-043
 -7.599999999999999E-003    1.065008463163898E-042
 -7.499999999999999E-003    1.603388661232307E-042
 -7.399999999999999E-003    2.121610501828443E-042
 -7.299999999999999E-003    2.529076268060948E-042
 -7.199999999999999E-003    2.712997407397707E-042
 -7.100000000000000E-003    2.547322756015333E-042
 -6.999999999999999E-003    1.907952841822832E-042
 -6.899999999999999E-003    6.929620789564280E-043
 -6.800000000000000E-003   -1.152209054402642E-042
 -6.699999999999999E-003   -3.606585149984355E-042
 -6.599999999999999E-003   -6.545381512906742E-042
 -6.499999999999999E-003   -9.714219229171577E-042
 -6.399999999999999E-003   -1.271594553662075E-041
 -6.299999999999999E-003   -1.501422741308389E-041
 -6.199999999999999E-003   -1.595795946235016E-041
 -6.100000000000000E-003   -1.483670332364149E-041
 -5.999999999999999E-003   -1.096401892852580E-041
 -5.899999999999999E-003   -3.793807990711729E-042
 -5.800000000000000E-003    6.935631343483145E-042
 -5.699999999999999E-003    2.104736952859107E-041
 -5.599999999999999E-003    3.777646228685663E-041
 -5.499999999999999E-003    5.564743067034123E-041
 -5.399999999999999E-003    7.241655202524733E-041
 -5.299999999999999E-003    8.510456091757468E-041
 -5.199999999999999E-003    9.015340599794041E-041
 -5.099999999999999E-003    8.373623441357348E-041
 -4.999999999999999E-003    6.222845885975849E-041
 -4.899999999999999E-003    2.283430734574364E-041
 -4.799999999999999E-003   -3.567103415319794E-041
 -4.699999999999999E-003   -1.121443576619797E-040
 -4.599999999999999E-003   -2.023244499941430E-040
 -4.499999999999999E-003   -2.982621278476685E-040
 -4.399999999999999E-003   -3.880788210718745E-040
 -4.299999999999999E-003   -4.562183365557362E-040
 -4.199999999999999E-003   -4.843435710183427E-040
 -4.099999999999999E-003   -4.529784254053106E-040
 -3.999999999999999E-003   -3.439384743080659E-040
 -3.899999999999999E-003   -1.434823022768193E-040
 -3.799999999999999E-003    1.540154743928188E-040
 -3.699999999999999E-003    5.422212656129869E-040
 -3.599999999999999E-003    9.993243659139737E-040
 -3.499999999999999E-003    1.485487561201375E-039
 -3.399999999999999E-003    1.941985047677795E-039
 -3.299999999999999E-003    2.292772739347172E-039
 -3.199999999999999E-003    2.449134410802411E-039
 -3.099999999999999E-003    2.317833601375836E-039
 -2.999999999999999E-003    1.812840537420534E-039
 -2.899999999999999E-003    8.702098922178773E-040
 -2.799999999999999E-003   -5.349320336690178E-040
 -2.699999999999999E-003   -2.370995269169720E-039
 -2.599999999999999E-003   -4.534495117400566E-039
 -2.499999999999999E-003   -6.839480174254327E-039
 -2.399999999999999E-003   -9.015026815454383E-039
 -2.299999999999999E-003   -1.071394331308113E-038
 -2.199999999999999E-003   -1.153528967719535E-038
 -2.099999999999999E-003   -1.106221783038297E-038
 -1.999999999999999E-003   -8.914954206170538E-039
 -1.899999999999999E-003   -4.816508422717671E-039
 -1.799999999999999E-003    1.333955718816313E-039
 -1.699999999999999E-003    9.387911829787129E-039
 -1.599999999999999E-003    1.888488396722876E-038
 -1.499999999999999E-003    2.901282142150303E-038
 -1.399999999999999E-003    3.860465515854286E-038
 -1.299999999999999E-003    4.618336434458569E-038
 -1.199999999999999E-003    5.006505259320428E-038
 -1.099999999999999E-003    4.852433072058799E-038
 -9.999999999999989E-004    4.001888087204201E-038
 -8.999999999999990E-004    2.346059567559737E-038
 -7.999999999999990E-004   -1.489924883646453E-039
 -6.999999999999989E-004   -3.413951380830486E-038
 -5.999999999999990E-004   -7.253244212633437E-038
 -4.999999999999989E-004   -1.133236439012890E-037
 -3.999999999999989E-004   -1.518052979678339E-037
 -2.999999999999989E-004   -1.821310469348370E-037
 -1.999999999999989E-004   -1.977675946255521E-037
 -9.999999999999892E-005   -1.921807351074610E-037
  1.084202172485504E-018   -1.597314788760908E-037
  1.000000000000011E-004   -9.672047634420702E-038
  2.000000000000011E-004   -2.479132514745841E-039
  3.000000000000011E-004    1.196324777931938E-037
  4.000000000000011E-004    2.614897434224012E-037
  5.000000000000011E-004    4.099132109928589E-037
  6.000000000000011E-004    5.469985584700137E-037
  7.000000000000011E-004    6.512068915263000E-037
  8.000000000000011E-004    6.992870498961526E-037
  9.000000000000012E-004    6.690052352328207E-037
  1.000000000000001E-003    5.425322852875041E-037
  1.100000000000001E-003    3.102000126610723E-037
  1.200000000000001E-003   -2.580281854935569E-038
  1.300000000000001E-003   -4.483445548681996E-037
  1.400000000000001E-003   -9.234995787612171E-037
  1.500000000000001E-003   -1.400565146545386E-036
  1.600000000000001E-003   -1.814497125145437E-036
  1.700000000000001E-003   -2.091124498711941E-036
  1.800000000000001E-003   -2.155204413058057E-036
  1.900000000000001E-003   -1.940980049585672E-036
  2.000000000000001E-003   -1.404430660682445E-036
  2.100000000000001E-003   -5.359105474803036E-037
  2.200000000000001E-003    6.285803111301011E-037
  2.300000000000001E-003    1.999575022060032E-036
  2.400000000000001E-003    3.431973722931119E-036
  2.500000000000001E-003    4.730559849033467E-036
  2.600000000000001E-003    5.664694861049949E-036
  2.700000000000001E-003    5.992770015254055E-036
  2.800000000000001E-003    5.495708382571416E-036
  2.900000000000001E-003    4.017219287504669E-036
  3.000000000000001E-003    1.506791068329671E-036
  3.100000000000001E-003   -1.940269237148488E-036
  3.200000000000001E-003   -6.052740637947528E-036
  3.300000000000001E-003   -1.037106295681382E-035
  3.400000000000001E-003   -1.425999824790809E-035
  3.500000000000001E-003   -1.695239619204338E-035
  3.600000000000001E-003   -1.762724662782439E-035
  3.700000000000001E-003   -1.552104447289423E-035
  3.800000000000001E-003   -1.006615514476349E-035
  3.900000000000001E-003   -1.043772310795543E-036
  4.000000000000001E-003    1.126707772811688E-035
  4.100000000000001E-003    2.596837515005456E-035
  4.200000000000001E-003    4.147717011230062E-035
  4.300000000000001E-003    5.554276567398696E-035
  4.400000000000001E-003    6.537142957921531E-035
  4.500000000000001E-003    6.787491015074694E-035
  4.600000000000002E-003    6.004584811231166E-035
  4.700000000000001E-003    3.944541824437447E-035
  4.800000000000001E-003    4.767138786591218E-036
  4.900000000000002E-003   -4.358185058121704E-035
  5.000000000000001E-003   -1.029623183633423E-034
  5.100000000000001E-003   -1.681438803339714E-034
  5.200000000000001E-003   -2.312099040881391E-034
  5.300000000000002E-003   -2.818259012520643E-034
  5.400000000000001E-003   -3.079501610572148E-034
  5.500000000000001E-003   -2.970264761572706E-034
  5.600000000000002E-003   -2.376428961865128E-034
  5.700000000000001E-003   -1.215678386502599E-034
  5.800000000000001E-003    5.400612484913321E-035
  5.900000000000002E-003    2.842637943508009E-034
  6.000000000000001E-003    5.549405598947003E-034
  6.100000000000001E-003    8.412423958958567E-034
  6.200000000000002E-003    1.107901448671522E-033
  6.300000000000002E-003    1.310716964736934E-033
  6.400000000000001E-003    1.399833278550870E-033
  6.500000000000001E-003    1.324843112505103E-033
  6.600000000000002E-003    1.041578883833742E-033
  6.700000000000001E-003    5.201805572225449E-034
  6.800000000000001E-003   -2.462731188870668E-034
  6.900000000000002E-003   -1.233575512402433E-033
  7.000000000000001E-003   -2.379897857949758E-033
  7.100000000000001E-003   -3.582383164113430E-033
  7.200000000000002E-003   -4.698231060998841E-033
  7.300000000000002E-003   -5.551478622483635E-033
  7.400000000000001E-003   -5.946281710790120E-033
  7.500000000000001E-003   -5.686862876721859E-033
  7.600000000000002E-003   -4.603452306610676E-033
  7.700000000000001E-003   -2.582547602541404E-033
  7.800000000000001E-003    4.012401348003568E-034
  7.900000000000001E-003    4.255497888960086E-033
  8.000000000000002E-003    8.747014061014961E-033
  8.100000000000001E-003    1.349044319102915E-032
  8.200000000000001E-003    1.795348731142671E-032
  8.300000000000002E-003    2.148266269641134E-032
  8.400000000000001E-003    2.335220747475460E-032
  8.500000000000002E-003    2.283636384244303E-032
  8.600000000000002E-003    1.930232147822981E-032
  8.700000000000001E-003    1.231763438776582E-032
  8.800000000000002E-003    1.762360437496744E-033
  8.900000000000002E-003   -1.206717258016331E-032
  9.000000000000001E-003   -2.837861293895377E-032
  9.100000000000002E-003   -4.584463103284730E-032
  9.200000000000002E-003   -6.262106409442531E-032
  9.300000000000001E-003   -7.643540502152289E-032
  9.400000000000002E-003   -8.475363782022010E-032
  9.500000000000001E-003   -8.502549892350931E-032
  9.600000000000001E-003   -7.499840477484766E-032
  9.700000000000002E-003   -5.307882246178957E-032
  9.800000000000001E-003   -1.870828822270163E-032
  9.900000000000001E-003    2.728928698333957E-032
  1.000000000000000E-002    8.244012597699948E-032
  1.010000000000000E-002    1.424876155143902E-031
  1.020000000000000E-002    2.014455205735541E-031
  1.030000000000000E-002    2.518795766396503E-031
  1.040000000000000E-002    2.854416516659889E-031
  1.050000000000000E-002    2.936554147202330E-031
  1.060000000000000E-002    2.689206388716468E-031
  1.070000000000000E-002    2.056679509726437E-031
  1.080000000000000E-002    1.015592838510081E-031
  1.090000000000000E-002   -4.140261189554672E-032
  1.100000000000000E-002   -2.160152013384356E-031
  1.110000000000000E-002   -4.094369485867029E-031
  1.120000000000000E-002   -6.033264863276567E-031
  1.130000000000000E-002   -7.746875422724727E-031
  1.140000000000000E-002   -8.974907555542597E-031
  1.150000000000000E-002   -9.450657524705692E-031
  1.160000000000000E-002   -8.931598402160266E-031
  1.170000000000000E-002   -7.234528190858323E-031
  1.180000000000000E-002   -4.272099614534112E-031
  1.190000000000000E-002   -8.661405907046478E-033
  1.200000000000000E-002    5.123690575452922E-031
  1.210000000000000E-002    1.099087533360537E-030
  1.220000000000000E-002    1.698070107901898E-030
  1.230000000000000E-002    2.241689222205207E-030
  1.240000000000000E-002    2.652825331681214E-030
  1.250000000000000E-002    2.851833791523152E-030
  1.260000000000000E-002    2.765452112050606E-030
  1.270000000000000E-002    2.337027665521819E-030
  1.280000000000000E-002    1.537133566311299E-030
  1.290000000000000E-002    3.733875910071690E-031
  1.300000000000000E-002   -1.101900417383533E-030
  1.310000000000000E-002   -2.787668827740432E-030
  1.320000000000000E-002   -4.534943052697751E-030
  1.330000000000000E-002   -6.153593423023233E-030
  1.340000000000000E-002   -7.425536485531984E-030
  1.350000000000000E-002   -8.124260414729807E-030
  1.360000000000000E-002   -8.039745201239940E-030
  1.370000000000000E-002   -7.007003697444281E-030
  1.380000000000000E-002   -4.935631025615188E-030
  1.390000000000000E-002   -1.837041165472400E-030
  1.400000000000000E-002    2.154380655812283E-030
  1.410000000000000E-002    6.770082558082319E-030
  1.420000000000000E-002    1.160963977817452E-029
  1.430000000000000E-002    1.615921288189374E-029
  1.440000000000000E-002    1.982749069466162E-029
  1.450000000000000E-002    2.199862170556403E-029
  1.460000000000000E-002    2.209948337039101E-029
  1.470000000000000E-002    1.967636203838899E-029
  1.480000000000000E-002    1.447390071876798E-029
  1.490000000000000E-002    6.507387570020270E-030
  1.500000000000000E-002   -3.881640524507356E-030
  1.510000000000000E-002   -1.599668293244450E-029
  1.520000000000000E-002   -2.879351997701138E-029
  1.530000000000000E-002   -4.093014546256738E-029
  1.540000000000000E-002   -5.086241943459275E-029
  1.550000000000000E-002   -5.698358237580123E-029
  1.560000000000000E-002   -5.780018083304760E-029
  1.570000000000000E-002   -5.213102043361881E-029
  1.580000000000000E-002   -3.931023370885741E-029
  1.590000000000000E-002   -1.937113796799214E-029
  1.600000000000000E-002    6.814954693917419E-030
  1.610000000000000E-002    3.747069347911189E-029
  1.620000000000000E-002    6.993797355842693E-029
  1.630000000000000E-002    1.008125460751843E-028
  1.640000000000000E-002    1.261940627966487E-028
  1.650000000000000E-002    1.420452049754075E-028
  1.660000000000000E-002    1.446390954345881E-028
  1.670000000000000E-002    1.310595397231014E-028
  1.680000000000000E-002    9.970511565845287E-029
  1.690000000000000E-002    5.073787839265040E-029
  1.700000000000000E-002   -1.358766782072851E-029
  1.710000000000000E-002   -8.877832845857359E-029
  1.720000000000000E-002   -1.681922434306449E-028
  1.730000000000000E-002   -2.434011968795904E-028
  1.740000000000000E-002   -3.048353675313557E-028
  1.750000000000000E-002   -3.426895190975925E-028
  1.760000000000000E-002   -3.480335721683264E-028
  1.770000000000000E-002   -3.140353550109112E-028
  1.780000000000000E-002   -2.371714453543847E-028
  1.790000000000000E-002   -1.182796821404558E-028
  1.800000000000000E-002    3.670308936026021E-029
  1.810000000000000E-002    2.164664822019454E-028
  1.820000000000000E-002    4.046380011869709E-028
  1.830000000000000E-002    5.807550194884210E-028
  1.840000000000000E-002    7.219093193950225E-028
  1.850000000000000E-002    8.049956772122298E-028
  1.860000000000000E-002    8.094121016809867E-028
  1.870000000000000E-002    7.199751404982528E-028