 -4.000000000000000E-002    0.000000000000000E+000
 -3.990000000000000E-002    0.000000000000000E+000
 -3.980000000000000E-002    0.000000000000000E+000
 -3.970000000000000E-002    0.000000000000000E+000
 -3.960000000000000E-002    0.000000000000000E+000
 -3.950000000000000E-002    0.000000000000000E+000
 -3.940000000000000E-002   -1.951837449587405E-022
 -3.930000000000000E-002   -2.425997227904109E-021
 -3.920000000000000E-002   -1.609235290410806E-020
 -3.910000000000000E-002   -7.551164913121168E-020
 -3.900000000000000E-002   -2.804763341811210E-019
 -3.890000000000000E-002   -8.752359856262189E-019
 -3.880000000000000E-002   -2.378807064508395E-018
 -3.870000000000000E-002   -5.765003138674197E-018
 -3.860000000000000E-002   -1.265703038964307E-017
 -3.850000000000000E-002   -2.544454784162941E-017
 -3.840000000000000E-002   -4.715306000044276E-017
 -3.830000000000000E-002   -8.081010107369508E-017
 -3.820000000000000E-002   -1.279884847193790E-016
 -3.810000000000000E-002   -1.862077208839647E-016
 -3.800000000000000E-002   -2.449954967973300E-016
 -3.790000000000000E-002   -2.807038860169096E-016
 -3.780000000000000E-002   -2.506746316041711E-016
 -3.770000000000000E-002   -8.804235975777520E-017
 -3.760000000000000E-002    3.007203057418662E-016
 -3.750000000000000E-002    1.032638031477068E-015
 -3.740000000000000E-002    2.236079720795072E-015
 -3.730000000000000E-002    4.026349280480873E-015
 -3.720000000000000E-002    6.466759010630240E-015
 -3.710000000000000E-002    9.515094826759119E-015
 -3.700000000000000E-002    1.295881203008999E-014
 -3.690000000000000E-002    1.634680324827938E-014
 -3.680000000000000E-002    1.893068368430386E-014
 -3.670000000000000E-002    1.963331785851129E-014
 -3.660000000000000E-002    1.706562359959199E-014
 -3.650000000000000E-002    9.613035458378713E-015
 -3.640000000000000E-002   -4.390817289906321E-015
 -3.630000000000000E-002   -2.639486879034315E-014
 -3.620000000000000E-002   -5.727213964838267E-014
 -3.610000000000000E-002   -9.689803719083071E-014
 -3.600000000000000E-002   -1.437138856478610E-013
 -3.590000000000000E-002   -1.943463902274749E-013
 -3.580000000000000E-002   -2.433712023443585E-013
 -3.570000000000000E-002   -2.833165761770795E-013
 -3.560000000000000E-002   -3.049964925624359E-013
 -3.550000000000000E-002   -2.982379873856364E-013
 -3.540000000000000E-002   -2.530227890279954E-013
 -3.530000000000000E-002   -1.610012753266524E-013
 -3.520000000000000E-002   -1.726082199614421E-014
 -3.510000000000000E-002    1.778475560342447E-013
 -3.500000000000000E-002    4.170911594348238E-013
 -3.490000000000000E-002    6.852595615541793E-013
 -3.480000000000000E-002    9.589135240633014E-013
 -3.470000000000000E-002    1.207260652356325E-012
 -3.460000000000000E-002    1.394343542525996E-012
 -3.450000000000000E-002    1.482572535555086E-012
 -3.440000000000000E-002    1.437437704644843E-012
 -3.430000000000000E-002    1.233011757840085E-012
 -3.420000000000000E-002    8.576370084422267E-013
 -3.410000000000000E-002    3.190092359620490E-013
 -3.400000000000000E-002   -3.522285861829077E-013
 -3.390000000000000E-002   -1.101261317607560E-012
 -3.380000000000000E-002   -1.850980526384267E-012
 -3.370000000000000E-002   -2.507414283785647E-012
 -3.360000000000000E-002   -2.968738494637312E-012
 -3.350000000000000E-002   -3.137388566935480E-012
 -3.340000000000000E-002   -2.934239819396276E-012
 -3.330000000000000E-002   -2.313311858596715E-012
 -3.320000000000000E-002   -1.275058055489780E-012
 -3.310000000000000E-002    1.238907229844106E-013
 -3.300000000000000E-002    1.766584402157089E-012
 -3.290000000000000E-002    3.478886002208515E-012
 -3.280000000000000E-002    5.040860629197325E-012
 -3.270000000000000E-002    6.206443376479874E-012
 -3.260000000000000E-002    6.730281327245932E-012
 -3.250000000000000E-002    6.399465158305733E-012
 -3.240000000000000E-002    5.066812026592305E-012
 -3.230000000000000E-002    2.681579645175046E-012
 -3.220000000000000E-002   -6.868484526303263E-013
 -3.210000000000000E-002   -4.836545332076795E-012
 -3.200000000000000E-002   -9.435314788719381E-012
 -3.190000000000000E-002   -1.403964919712220E-011
 -3.180000000000000E-002   -1.813050665103289E-011
 -3.170000000000000E-002   -2.116381201024866E-011
 -3.160000000000000E-002   -2.263141589945668E-011
 -3.150000000000000E-002   -2.212626032660501E-011
 -3.140000000000000E-002   -1.940411874428209E-011
 -3.130000000000000E-002   -1.443369493732943E-011
 -3.120000000000000E-002   -7.427321918193988E-012
 -3.110000000000000E-002    1.154055656242843E-012
 -3.100000000000000E-002    1.062536737330621E-011
 -3.090000000000000E-002    2.013192020279736E-011
 -3.080000000000000E-002    2.873067648778068E-011
 -3.070000000000000E-002    3.549140121396271E-011
 -3.060000000000000E-002    3.960747126820106E-011
 -3.050000000000000E-002    4.050390882884947E-011
 -3.040000000000000E-002    3.792917226155898E-011
 -3.030000000000000E-002    3.201799123526945E-011
 -3.020000000000000E-002    2.331462756011785E-011
 -3.010000000000000E-002    1.274998913282790E-011
 -3.000000000000000E-002    1.570753351038318E-012
 -2.990000000000000E-002   -8.775673417474350E-012
 -2.980000000000000E-002   -1.679100352623614E-011
 -2.970000000000000E-002   -2.109659792708318E-011
 -2.960000000000000E-002   -2.060708406833939E-011
 -2.950000000000000E-002   -1.468789538497143E-011
 -2.940000000000000E-002   -3.278142979230400E-012
 -2.930000000000000E-002    1.303700246488971E-011
 -2.920000000000000E-002    3.301553447975834E-011
 -2.910000000000000E-002    5.481437486802517E-011
 -2.900000000000000E-002    7.610985402707793E-011
 -2.890000000000000E-002    9.427408431172266E-011
 -2.880000000000000E-002    1.065927020683224E-010
 -2.870000000000000E-002    1.105049259797768E-010
 -2.860000000000000E-002    1.038446771088153E-010
 -2.850000000000000E-002    8.506155524391455E-011
 -2.840000000000000E-002    5.340259966262116E-011
 -2.830000000000000E-002    9.039757236848724E-012
 -2.820000000000000E-002   -4.686660324341906E-011
 -2.810000000000000E-002   -1.121723916784318E-010
 -2.800000000000000E-002   -1.838213116846003E-010
 -2.790000000000000E-002   -2.579773361707649E-010
 -2.780000000000000E-002   -3.302092144569931E-010
 -2.770000000000000E-002   -3.957162673038409E-010
 -2.760000000000000E-002   -4.495842440942838E-010
 -2.750000000000000E-002   -4.870607433098202E-010
 -2.740000000000000E-002   -5.038400050205384E-010
 -2.730000000000000E-002   -4.963475236001234E-010
 -2.720000000000000E-002   -4.620138362631755E-010
 -2.710000000000000E-002   -3.995258759977661E-010
 -2.700000000000000E-002   -3.090404685421649E-010
 -2.690000000000000E-002   -1.923418507832991E-010
 -2.680000000000000E-002   -5.292163103014659E-011
 -2.670000000000000E-002    1.040411847673812E-010
 -2.660000000000000E-002    2.718222133719309E-010
 -2.650000000000000E-002    4.424315180877570E-010
 -2.640000000000000E-002    6.070378385540428E-010
 -2.630000000000000E-002    7.565296986757829E-010
 -2.620000000000000E-002    8.821874361331555E-010
 -2.610000000000000E-002    9.764212849713815E-010
 -2.600000000000000E-002    1.033510919967798E-009
 -2.590000000000000E-002    1.050267327329423E-009
 -2.580000000000000E-002    1.026529179547509E-009
 -2.570000000000000E-002    9.654081342042065E-010
 -2.560000000000000E-002    8.732099027037473E-010
 -2.550000000000000E-002    7.589854849462303E-010
 -2.540000000000000E-002    6.337032767623106E-010
 -2.530000000000000E-002    5.090796044074700E-010
 -2.520000000000000E-002    3.961550107606537E-010
 -2.510000000000000E-002    3.037514260988156E-010
 -2.500000000000000E-002    2.369843208504389E-010
 -2.490000000000000E-002    1.960264006823371E-010
 -2.480000000000000E-002    1.753207691827366E-010
 -2.470000000000000E-002    1.634170740557194E-010
 -2.460000000000000E-002    1.435537156706515E-010
 -2.450000000000000E-002    9.503410851379363E-011
 -2.440000000000000E-002   -4.645872501045200E-012
 -2.430000000000000E-002   -1.770650651988513E-010
 -2.420000000000000E-002   -4.397792427096777E-010
 -2.410000000000000E-002   -8.031835324420871E-010
 -2.400000000000000E-002   -1.267708607421656E-009
 -2.390000000000000E-002   -1.821739816361418E-009
 -2.380000000000000E-002   -2.440614133982371E-009
 -2.370000000000000E-002   -3.086966265816254E-009
 -2.360000000000000E-002   -3.712572484318134E-009
 -2.350000000000000E-002   -4.261678990153648E-009
 -2.340000000000000E-002   -4.675622647488710E-009
 -2.330000000000000E-002   -4.898379792782956E-009
 -2.320000000000000E-002   -4.882524215158037E-009
 -2.310000000000000E-002   -4.594967054330699E-009
 -2.300000000000000E-002   -4.021811230673207E-009
 -2.290000000000000E-002   -3.171682106610246E-009
 -2.280000000000000E-002   -2.077005849438021E-009
 -2.270000000000000E-002   -7.928950835201903E-010
 -2.260000000000000E-002    6.064565695241475E-010
 -2.250000000000000E-002    2.033693727603313E-009
 -2.240000000000000E-002    3.396063659628485E-009
 -2.230000000000000E-002    4.604308085762830E-009
 -2.220000000000000E-002    5.581776918947372E-009
 -2.210000000000000E-002    6.272738989931033E-009
 -2.200000000000000E-002    6.648895903110241E-009
 -2.190000000000000E-002    6.713219570103471E-009
 -2.180000000000000E-002    6.500478236609004E-009
 -2.170000000000000E-002    6.074153560661406E-009
 -2.160000000000000E-002    5.519854502694602E-009
 -2.150000000000000E-002    4.935736242400639E-009
 -2.140000000000000E-002    4.420834589431075E-009
 -2.130000000000000E-002    4.062526554905424E-009
 -2.120000000000000E-002    3.924519952255422E-009
 -2.110000000000000E-002    4.036818825743813E-009
 -2.100000000000000E-002    4.388977347419569E-009
 -2.090000000000000E-002    4.927671981368839E-009
 -2.080000000000000E-002    5.559190351592077E-009
 -2.070000000000000E-002    6.156909366112493E-009
 -2.060000000000000E-002    6.573270705988251E-009
 -2.050000000000000E-002    6.655205045590373E-009
 -2.040000000000000E-002    6.261506392571056E-009
 -2.030000000000000E-002    5.280333585882612E-009
 -2.020000000000000E-002    3.644896490704695E-009
 -2.010000000000000E-002    1.345465938416803E-009
 -2.000000000000000E-002   -1.563836418218960E-009
 -1.990000000000000E-002   -4.964530155180693E-009
 -1.980000000000000E-002   -8.679956393306976E-009
 -1.970000000000000E-002   -1.248784274409687E-008
 -1.960000000000000E-002   -1.613822560108653E-008
 -1.950000000000000E-002   -1.937507945389214E-008
 -1.940000000000000E-002   -2.195951450823760E-008
 -1.930000000000000E-002   -2.369216108452875E-008
 -1.920000000000000E-002   -2.443235654733121E-008
 -1.910000000000000E-002   -2.411202618537190E-008
 -1.900000000000000E-002   -2.274265787347726E-008
 -1.890000000000000E-002   -2.041447833687575E-008
 -1.880000000000000E-002   -1.728776148023778E-008
 -1.870000000000000E-002   -1.357708048891704E-008
 -1.860000000000000E-002   -9.530055914036770E-009
 -1.850000000000000E-002   -5.402839889999413E-009
 -1.840000000000000E-002   -1.434918593723080E-009
 -1.830000000000000E-002    2.174019589984388E-009
 -1.820000000000000E-002    5.282643989918047E-009
 -1.810000000000000E-002    7.819884251630377E-009
 -1.800000000000000E-002    9.788840718772498E-009
 -1.790000000000000E-002    1.126222049157393E-008
 -1.780000000000000E-002    1.236977283495062E-008
 -1.770000000000000E-002    1.327905594294833E-008
 -1.760000000000000E-002    1.417168217216311E-008
 -1.750000000000000E-002    1.521766495809294E-008
 -1.740000000000000E-002    1.655078110168192E-008
 -1.730000000000000E-002    1.824775966001203E-008
 -1.720000000000000E-002    2.031375453986082E-008
 -1.710000000000000E-002    2.267590191408530E-008
 -1.700000000000000E-002    2.518592788560059E-008
 -1.690000000000000E-002    2.763183608602568E-008
 -1.680000000000000E-002    2.975775226707389E-008
 -1.670000000000000E-002    3.129017606612572E-008
 -1.660000000000000E-002    3.196823355508515E-008
 -1.650000000000000E-002    3.157512881076616E-008
 -1.640000000000000E-002    2.996790237772384E-008
 -1.630000000000000E-002    2.710278693617849E-008
 -1.620000000000000E-002    2.305393178060776E-008
 -1.610000000000000E-002    1.802391498907681E-008
 -1.600000000000000E-002    1.234529108522773E-008
 -1.590000000000000E-002    6.473249211666895E-009
 -1.580000000000000E-002    9.702693434098674E-010
 -1.570000000000000E-002   -3.515647428395374E-009
 -1.560000000000000E-002   -6.277128449802610E-009
 -1.550000000000000E-002   -6.575600801158770E-009
 -1.540000000000000E-002   -3.669147465222333E-009
 -1.530000000000000E-002    3.162170916357229E-009
 -1.520000000000000E-002    1.459537626860850E-008
 -1.510000000000000E-002    3.124935403866386E-008
 -1.500000000000000E-002    5.367611961663051E-008
 -1.490000000000000E-002    8.235887924894756E-008
 -1.480000000000000E-002    1.177163337721660E-007
 -1.470000000000000E-002    1.601128117732810E-007
 -1.460000000000000E-002    2.098727872618171E-007
 -1.450000000000000E-002    2.672986384196313E-007
 -1.440000000000000E-002    3.326901677551707E-007
 -1.430000000000000E-002    4.063642654013267E-007
 -1.420000000000000E-002    4.886735745434326E-007
 -1.410000000000000E-002    5.800228281418222E-007
 -1.400000000000000E-002    6.808816398777309E-007
 -1.390000000000000E-002    7.917930366344732E-007
 -1.380000000000000E-002    9.133773262666981E-007
 -1.370000000000000E-002    1.046330830654460E-006
 -1.360000000000000E-002    1.191419541448404E-006
 -1.350000000000000E-002    1.349468663371093E-006
 -1.340000000000000E-002    1.521347668556845E-006
 -1.330000000000000E-002    1.707953208627863E-006
 -1.320000000000000E-002    1.910191327832971E-006
 -1.310000000000000E-002    2.128959630411017E-006
 -1.300000000000000E-002    2.365133323865506E-006
 -1.290000000000000E-002    2.619554084748225E-006
 -1.280000000000000E-002    2.893027950262570E-006
 -1.270000000000000E-002    3.186328936487409E-006
 -1.260000000000000E-002    3.500212137640723E-006
 -1.250000000000000E-002    3.835434893087701E-006
 -1.240000000000000E-002    4.192786865347068E-006
 -1.230000000000000E-002    4.573124798508090E-006
 -1.220000000000000E-002    4.977410609124798E-006
 -1.210000000000000E-002    5.406750113449265E-006
 -1.200000000000000E-002    5.862427677264547E-006
 -1.190000000000000E-002    6.345934241651754E-006
 -1.180000000000000E-002    6.858984232347004E-006
 -1.170000000000000E-002    7.403519865583972E-006
 -1.160000000000000E-002    7.981700783344701E-006
 -1.150000000000000E-002    8.595884123943502E-006
 -1.140000000000000E-002    9.248585527758561E-006
 -1.130000000000000E-002    9.942438052979050E-006
 -1.120000000000000E-002    1.068014585161721E-005
 -1.110000000000000E-002    1.146443668219819E-005
 -1.100000000000000E-002    1.229802317599802E-005
 -1.090000000000000E-002    1.318357710759190E-005
 -1.080000000000000E-002    1.412372029275293E-005
 -1.070000000000000E-002    1.512103016710681E-005
 -1.060000000000000E-002    1.617807593499692E-005
 -1.050000000000000E-002    1.729745745926169E-005
 -1.040000000000000E-002    1.848187452051281E-005
 -1.030000000000000E-002    1.973419320796853E-005
 -1.020000000000000E-002    2.105752537472813E-005
 -1.010000000000000E-002    2.245529226900672E-005
 -1.000000000000000E-002    2.393128424011715E-005
 -9.899999999999999E-003    2.548970109343707E-005
 -9.800000000000000E-003    2.713517023636815E-005
 -9.699999999999999E-003    2.887273701681590E-005
 -9.599999999999999E-003    3.070783968438661E-005
 -9.500000000000000E-003    3.264625767094250E-005
 -9.399999999999999E-003    3.469406065931124E-005
 -9.299999999999999E-003    3.685753316741181E-005
 -9.200000000000000E-003    3.914312264736916E-005
 -9.099999999999999E-003    4.155739319218912E-005
 -8.999999999999999E-003    4.410700051414695E-005
 -8.900000000000000E-003    4.679869306227051E-005
 -8.799999999999999E-003    4.963934067790395E-005
 -8.699999999999999E-003    5.263600506199705E-005
 -8.600000000000000E-003    5.579601195751522E-005
 -8.499999999999999E-003    5.912706466295468E-005
 -8.399999999999999E-003    6.263733336960075E-005
 -8.300000000000000E-003    6.633558891772013E-005
 -8.199999999999999E-003    7.023126629448994E-005
 -8.100000000000000E-003    7.433456215145497E-005
 -8.000000000000000E-003    7.865645230285447E-005
 -7.899999999999999E-003    8.320872226418214E-005
 -7.800000000000000E-003    8.800391886995177E-005
 -7.699999999999999E-003    9.305530658429503E-005
 -7.599999999999999E-003    9.837680740019632E-005
 -7.499999999999999E-003    1.039828938609172E-004
 -7.399999999999999E-003    1.098885075777679E-004
 -7.299999999999999E-003    1.161089791910290E-004
 -7.199999999999999E-003    1.226600047565882E-004
 -7.100000000000000E-003    1.295576135597138E-004
 -6.999999999999999E-003    1.368181887522874E-004
 -6.899999999999999E-003    1.444585244246583E-004
 -6.800000000000000E-003    1.524959105027961E-004
 -6.699999999999999E-003    1.609482980234911E-004
 -6.599999999999999E-003    1.698343661118301E-004
 -6.499999999999999E-003    1.791737255992606E-004
 -6.399999999999999E-003    1.889870040364740E-004
 -6.299999999999999E-003    1.992960092794508E-004
 -6.199999999999999E-003    2.101237761690627E-004
 -6.100000000000000E-003    2.214946200559474E-004
 -5.999999999999999E-003    2.334341357849564E-004
 -5.899999999999999E-003    2.459691903454752E-004
 -5.800000000000000E-003    2.591278654304476E-004
 -5.699999999999999E-003    2.729393953651365E-004
 -5.599999999999999E-003    2.874340467075421E-004
 -5.499999999999999E-003    3.026430836890207E-004
 -5.399999999999999E-003    3.185986833921603E-004
 -5.299999999999999E-003    3.353338927726298E-004
 -5.199999999999999E-003    3.528826808064207E-004
 -5.099999999999999E-003    3.712799277502419E-004
 -4.999999999999999E-003    3.905614882840442E-004
 -4.899999999999999E-003    4.107643271401408E-004
 -4.799999999999999E-003    4.319266680879373E-004
 -4.699999999999999E-003    4.540881132081038E-004
 -4.599999999999999E-003    4.772897672813762E-004
 -4.499999999999999E-003    5.015744307479805E-004
 -4.399999999999999E-003    5.269866773122783E-004
 -4.299999999999999E-003    5.535729477947947E-004
 -4.199999999999999E-003    5.813816663883495E-004
 -4.099999999999999E-003    6.104633156171921E-004
 -3.999999999999999E-003    6.408703353084659E-004
 -3.899999999999999E-003    6.726572753945076E-004
 -3.799999999999999E-003    7.058807270562919E-004
 -3.699999999999999E-003    7.405993155727806E-004
 -3.599999999999999E-003    7.768737109754929E-004
 -3.499999999999999E-003    8.147665506738756E-004
 -3.399999999999999E-003    8.543425066310077E-004
 -3.299999999999999E-003    8.956683537722105E-004
 -3.199999999999999E-003    9.388128013765930E-004
 -3.099999999999999E-003    9.838468139556310E-004
 -2.999999999999999E-003    1.030843522984937E-003
 -2.899999999999999E-003    1.079878204446705E-003
 -2.799999999999999E-003    1.131028457177867E-003
 -2.699999999999999E-003    1.184374162624481E-003
 -2.599999999999999E-003    1.239997663430278E-003
 -2.499999999999999E-003    1.297983785189503E-003
 -2.399999999999999E-003    1.358419668727850E-003
 -2.299999999999999E-003    1.421395214782981E-003
 -2.199999999999999E-003    1.487002746109418E-003
 -2.099999999999999E-003    1.555337304942173E-003
 -1.999999999999999E-003    1.626496904712104E-003
 -1.899999999999999E-003    1.700581845344177E-003
 -1.799999999999999E-003    1.777695661740085E-003
 -1.699999999999999E-003    1.857944393438720E-003
 -1.599999999999999E-003    1.941437549944134E-003
 -1.499999999999999E-003    2.028287207485932E-003
 -1.399999999999999E-003    2.118608740118741E-003
 -1.299999999999999E-003    2.212520431587458E-003
 -1.199999999999999E-003    2.310143780097715E-003
 -1.099999999999999E-003    2.411603388220902E-003
 -9.999999999999989E-004    2.517026600467305E-003
 -8.999999999999990E-004    2.626544354685113E-003
 -7.999999999999990E-004    2.740290245406900E-003
 -6.999999999999989E-004    2.858401029777702E-003
 -5.999999999999990E-004    2.981016490725367E-003
 -4.999999999999989E-004    3.108279442620500E-003
 -3.999999999999989E-004    3.240335489808956E-003
 -2.999999999999989E-004    3.377333572847401E-003
 -1.999999999999989E-004    3.519425599631620E-003
 -9.999999999999892E-005    3.666766992807060E-003
  1.084202172485504E-018    3.819516184497909E-003
  1.000000000000011E-004    3.977834652655925E-003
  2.000000000000011E-004    4.141887520711155E-003
  3.000000000000011E-004    4.311843292819919E-003
  4.000000000000011E-004    4.487873772188344E-003
  5.000000000000011E-004    4.670153588553445E-003
  6.000000000000011E-004    4.858860711963055E-003
  7.000000000000011E-004    5.054176601778073E-003
  8.000000000000011E-004    5.256285555960989E-003
  9.000000000000012E-004    5.465374281711938E-003
  1.000000000000001E-003    5.681632874912752E-003
  1.100000000000001E-003    5.905253679868507E-003
  1.200000000000001E-003    6.136431819545210E-003
  1.300000000000001E-003    6.375364233360194E-003
  1.400000000000001E-003    6.622250930984482E-003
  1.500000000000001E-003    6.877294809471125E-003
  1.600000000000001E-003    7.140699791981787E-003
  1.700000000000001E-003    7.412673242365660E-003
  1.800000000000001E-003    7.693424632421804E-003
  1.900000000000001E-003    7.983165939272861E-003
  2.000000000000001E-003    8.282111523219029E-003
  2.100000000000001E-003    8.590478083183389E-003
  2.200000000000001E-003    8.908483633752493E-003
  2.300000000000001E-003    9.236348746484709E-003
  2.400000000000001E-003    9.574295126107061E-003
  2.500000000000001E-003    9.922546035103579E-003
  2.600000000000001E-003    1.028132585452319E-002
  2.700000000000001E-003    1.065085947757498E-002
  2.800000000000001E-003    1.103137174817296E-002
  2.900000000000001E-003    1.142308915854610E-002
  3.000000000000001E-003    1.182623713022357E-002
  3.100000000000001E-003    1.224104026216604E-002
  3.200000000000001E-003    1.266772345257516E-002
  3.300000000000001E-003    1.310651217715396E-002
  3.400000000000001E-003    1.355763045576169E-002
  3.500000000000001E-003    1.402130184245866E-002
  3.600000000000001E-003    1.449774877208137E-002
  3.700000000000001E-003    1.498719391897480E-002
  3.800000000000001E-003    1.548985789958347E-002
  3.900000000000001E-003    1.600596024849647E-002
  4.000000000000001E-003    1.653571856567247E-002
  4.100000000000001E-003    1.707935087514203E-002
  4.200000000000001E-003    1.763706849752368E-002
  4.300000000000001E-003    1.820908383818974E-002
  4.400000000000001E-003    1.879560515786273E-002
  4.500000000000001E-003    1.939683549160964E-002
  4.600000000000002E-003    2.001297401686533E-002
  4.700000000000001E-003    2.064421640868786E-002
  4.800000000000001E-003    2.129075186565078E-002
  4.900000000000002E-003    2.195276527240258E-002
  5.000000000000001E-003    2.263043428776632E-002
  5.100000000000001E-003    2.332393090672927E-002
  5.200000000000001E-003    2.403342198546569E-002
  5.300000000000002E-003    2.475906578493758E-002
  5.400000000000001E-003    2.550101470588863E-002
  5.500000000000001E-003    2.625941062528905E-002
  5.600000000000002E-003    2.703439274430577E-002
  5.700000000000001E-003    2.782608726802590E-002
  5.800000000000001E-003    2.863461565251397E-002
  5.900000000000002E-003    2.946008628737546E-002
  6.000000000000001E-003    3.030259688650169E-002
  6.100000000000001E-003    3.116223842563305E-002
  6.200000000000002E-003    3.203908410127426E-002
  6.300000000000002E-003    3.293320280309690E-002
  6.400000000000001E-003    3.384464659565536E-002
  6.500000000000001E-003    3.477345258639940E-002
  6.600000000000002E-003    3.571964715354239E-002
  6.700000000000001E-003    3.668324439641823E-002
  6.800000000000001E-003    3.766424171610280E-002
  6.900000000000002E-003    3.866262236576334E-002
  7.000000000000001E-003    3.967835301616948E-002
  7.100000000000001E-003    4.071138625938244E-002
  7.200000000000002E-003    4.176165912176880E-002
  7.300000000000002E-003    4.282909305940248E-002
  7.400000000000001E-003    4.391358917465501E-002
  7.500000000000001E-003    4.501503296950439E-002
  7.600000000000002E-003    4.613328764571024E-002
  7.700000000000001E-003    4.726820093166348E-002
  7.800000000000001E-003    4.841960071018882E-002
  7.900000000000001E-003    4.958729298088289E-002
  8.000000000000002E-003    5.077106244109040E-002
  8.100000000000001E-003    5.197067159387342E-002
  8.200000000000001E-003    5.318586100746173E-002
  8.300000000000002E-003    5.441635205303152E-002
  8.400000000000001E-003    5.566183979056209E-002
  8.500000000000002E-003    5.692200127341520E-002
  8.600000000000002E-003    5.819647652820450E-002
  8.700000000000001E-003    5.948489634799418E-002
  8.800000000000002E-003    6.078686303915216E-002
  8.900000000000002E-003    6.210195479750746E-002
  9.000000000000001E-003    6.342972135104703E-002
  9.100000000000002E-003    6.476969037441623E-002
  9.200000000000002E-003    6.612136515711295E-002
  9.300000000000001E-003    6.748422762720575E-002
  9.400000000000002E-003    6.885772442959814E-002
  9.500000000000001E-003    7.024127881922078E-002
  9.600000000000001E-003    7.163428374245058E-002
  9.700000000000002E-003    7.303611323779836E-002
  9.800000000000001E-003    7.444609748752061E-002
  9.900000000000001E-003    7.586355712598619E-002
  1.000000000000000E-002    7.728777311059387E-002
  1.010000000000000E-002    7.871800196825686E-002
  1.020000000000000E-002    8.015346861829906E-002
  1.030000000000000E-002    8.159337243235731E-002
  1.040000000000000E-002    8.303689259872088E-002
  1.050000000000000E-002    8.448316676639085E-002
  1.060000000000000E-002    8.593131773827124E-002
  1.070000000000000E-002    8.738043631953540E-002
  1.080000000000000E-002    8.882958186986420E-002
  1.090000000000000E-002    9.027779637452417E-002
  1.100000000000000E-002    9.172408501762128E-002
  1.110000000000000E-002    9.316742203300238E-002
  1.120000000000000E-002    9.460676544449788E-002
  1.130000000000000E-002    9.604104578901379E-002
  1.140000000000000E-002    9.746915826469085E-002
  1.150000000000000E-002    9.888998251645104E-002
  1.160000000000000E-002    0.100302362720589     
  1.170000000000000E-002    0.101705120757689     
  1.180000000000000E-002    0.103097057441665     
  1.190000000000000E-002    0.104476952811590     
  1.200000000000000E-002    0.105843556428784     
  1.210000000000000E-002    0.107195604895273     
  1.220000000000000E-002    0.108531806810749     
  1.230000000000000E-002    0.109850856607526     
  1.240000000000000E-002    0.111151423964845     
  1.250000000000000E-002    0.112432163741474     
  1.260000000000000E-002    0.113691719829921     
  1.270000000000000E-002    0.114928710218304     
  1.280000000000000E-002    0.116141740604036     
  1.290000000000000E-002    0.117329400376696     
  1.300000000000000E-002    0.118490275414833     
  1.310000000000000E-002    0.119622923286712     
  1.320000000000000E-002    0.120725893013970     
  1.330000000000000E-002    0.121797722724717     
  1.340000000000000E-002    0.122836952911583     
  1.350000000000000E-002    0.123842104930540     
  1.360000000000000E-002    0.124811688972411     
  1.370000000000000E-002    0.125744231737539     
  1.380000000000000E-002    0.126638254394153     
  1.390000000000000E-002    0.127492261547677     
  1.400000000000000E-002    0.128304771811267     
  1.410000000000000E-002    0.129074297464120     
  1.420000000000000E-002    0.129799362579865     
  1.430000000000000E-002    0.130478505155716     
  1.440000000000000E-002    0.131110253008230     
  1.450000000000000E-002    0.131693154257332     
  1.460000000000000E-002    0.132225758826836     
  1.470000000000000E-002    0.132706637585583     
  1.480000000000000E-002    0.133134363474866     
  1.490000000000000E-002    0.133507539148138     
  1.500000000000000E-002    0.133824781578671     
  1.510000000000000E-002    0.134084716375849     
  1.520000000000000E-002    0.134286005382738     
  1.530000000000000E-002    0.134427325645974     
  1.540000000000000E-002    0.134507395017187     
  1.550000000000000E-002    0.134524936052447     
  1.560000000000000E-002    0.134478725847398     
  1.570000000000000E-002    0.134367571420772     
  1.580000000000000E-002    0.134190305575690     
  1.590000000000000E-002    0.133945803391215     
  1.600000000000000E-002    0.133632989875251     
  1.610000000000000E-002    0.133250823281838     
  1.620000000000000E-002    0.132798312393098     
  1.630000000000000E-002    0.132274512826493     
  1.640000000000000E-002    0.131678514293222     
  1.650000000000000E-002    0.131009462746671     
  1.660000000000000E-002    0.130266559244680     
  1.670000000000000E-002    0.129449058038326     
  1.680000000000000E-002    0.128556271639254     
  1.690000000000000E-002    0.127587561932000     
  1.700000000000000E-002    0.126542353187254     
  1.710000000000000E-002    0.125420141114693     
  1.720000000000000E-002    0.124220477261873     
  1.730000000000000E-002    0.122942981660857     
  1.740000000000000E-002    0.121587347164630     
  1.750000000000000E-002    0.120153348839134     
  1.760000000000000E-002    0.118640814713940     
  1.770000000000000E-002    0.117049660856068     
  1.780000000000000E-002    0.115379878087941     
  1.790000000000000E-002    0.113631538995913     
  1.800000000000000E-002    0.111804784097862     
  1.810000000000000E-002    0.109899842435863     
  1.820000000000000E-002    0.107917021114547     
  1.830000000000000E-002    0.105856711538085     
  1.840000000000000E-002    0.103719387469596     
  1.850000000000000E-002    0.101505599951659     
  1.860000000000000E-002    9.921600132269424E-002
  1.870000000000000E-002    9.685132158890063E-002