 -4.000000000000000E-002    0.000000000000000E+000
 -3.990000000000000E-002    0.000000000000000E+000
 -3.980000000000000E-002    0.000000000000000E+000
 -3.970000000000000E-002    0.000000000000000E+000
 -3.960000000000000E-002    0.000000000000000E+000
 -3.950000000000000E-002    0.000000000000000E+000
 -3.940000000000000E-002    0.000000000000000E+000
 -3.930000000000000E-002    0.000000000000000E+000
 -3.920000000000000E-002    0.000000000000000E+000
 -3.910000000000000E-002    0.000000000000000E+000
 -3.900000000000000E-002    0.000000000000000E+000
 -3.890000000000000E-002    0.000000000000000E+000
 -3.880000000000000E-002    0.000000000000000E+000
 -3.870000000000000E-002    0.000000000000000E+000
 -3.860000000000000E-002    0.000000000000000E+000
 -3.850000000000000E-002    0.000000000000000E+000
 -3.840000000000000E-002    0.000000000000000E+000
 -3.830000000000000E-002    0.000000000000000E+000
 -3.820000000000000E-002    0.000000000000000E+000
 -3.810000000000000E-002    0.000000000000000E+000
 -3.800000000000000E-002    0.000000000000000E+000
 -3.790000000000000E-002    0.000000000000000E+000
 -3.780000000000000E-002    0.000000000000000E+000
 -3.770000000000000E-002    0.000000000000000E+000
 -3.760000000000000E-002    0.000000000000000E+000
 -3.750000000000000E-002    0.000000000000000E+000
 -3.740000000000000E-002    0.000000000000000E+000
 -3.730000000000000E-002    0.000000000000000E+000
 -3.720000000000000E-002    0.000000000000000E+000
 -3.710000000000000E-002    0.000000000000000E+000
 -3.700000000000000E-002    0.000000000000000E+000
 -3.690000000000000E-002    0.000000000000000E+000
 -3.680000000000000E-002    0.000000000000000E+000
 -3.670000000000000E-002    0.000000000000000E+000
 -3.660000000000000E-002    0.000000000000000E+000
 -3.650000000000000E-002    0.000000000000000E+000
 -3.640000000000000E-002    0.000000000000000E+000
 -3.630000000000000E-002    0.000000000000000E+000
 -3.620000000000000E-002    0.000000000000000E+000
 -3.610000000000000E-002    0.000000000000000E+000
 -3.600000000000000E-002    0.000000000000000E+000
 -3.590000000000000E-002    0.000000000000000E+000
 -3.580000000000000E-002    0.000000000000000E+000
 -3.570000000000000E-002    0.000000000000000E+000
 -3.560000000000000E-002    0.000000000000000E+000
 -3.550000000000000E-002    0.000000000000000E+000
 -3.540000000000000E-002    0.000000000000000E+000
 -3.530000000000000E-002    0.000000000000000E+000
 -3.520000000000000E-002    0.000000000000000E+000
 -3.510000000000000E-002    0.000000000000000E+000
 -3.500000000000000E-002    0.000000000000000E+000
 -3.490000000000000E-002    0.000000000000000E+000
 -3.480000000000000E-002    0.000000000000000E+000
 -3.470000000000000E-002    0.000000000000000E+000
 -3.460000000000000E-002    0.000000000000000E+000
 -3.450000000000000E-002    0.000000000000000E+000
 -3.440000000000000E-002    0.000000000000000E+000
 -3.430000000000000E-002    0.000000000000000E+000
 -3.420000000000000E-002    0.000000000000000E+000
 -3.410000000000000E-002    0.000000000000000E+000
 -3.400000000000000E-002   -4.151901643198758E-048
 -3.390000000000000E-002   -8.303803286397516E-048
 -3.380000000000000E-002   -3.235887247043880E-047
 -3.370000000000000E-002   -3.178425607744236E-047
 -3.360000000000000E-002   -3.120963968444593E-047
 -3.350000000000000E-002   -1.717577840022247E-047
 -3.340000000000000E-002   -3.716533508995453E-048
 -3.330000000000000E-002    1.921616827209807E-047
 -3.320000000000000E-002    4.248359811445158E-047
 -3.310000000000000E-002    2.526527079626393E-046
 -3.300000000000000E-002    5.783767543302609E-046
 -3.290000000000000E-002    1.141632803235320E-045
 -3.280000000000000E-002    1.968566510682713E-045
 -3.270000000000000E-002    3.308802151521054E-045
 -3.260000000000000E-002    5.213066745230184E-045
 -3.250000000000000E-002    7.797633504371058E-045
 -3.240000000000000E-002    1.042815912109452E-044
 -3.230000000000000E-002    1.188953189799029E-044
 -3.220000000000000E-002    1.153744429314396E-044
 -3.210000000000000E-002    5.927283486517226E-045
 -3.200000000000000E-002   -1.183895046100496E-044
 -3.190000000000000E-002   -5.174638131862738E-044
 -3.180000000000000E-002   -1.262960878796880E-043
 -3.170000000000000E-002   -2.553038542815756E-043
 -3.160000000000000E-002   -4.600498455624343E-043
 -3.150000000000000E-002   -7.596198624038514E-043
 -3.140000000000000E-002   -1.162605267115889E-042
 -3.130000000000000E-002   -1.648999507101478E-042
 -3.120000000000000E-002   -2.145040857841200E-042
 -3.110000000000000E-002   -2.477967463411045E-042
 -3.100000000000000E-002   -2.327861463121026E-042
 -3.090000000000000E-002   -1.161415332411652E-042
 -3.080000000000000E-002    1.826429954260130E-042
 -3.070000000000000E-002    7.755561111482375E-042
 -3.060000000000000E-002    1.803837093463015E-041
 -3.050000000000000E-002    3.424812142715236E-041
 -3.040000000000000E-002    5.779120948638373E-041
 -3.030000000000000E-002    8.929551460267463E-041
 -3.020000000000000E-002    1.276010028967670E-040
 -3.010000000000000E-002    1.682730292997846E-040
 -3.000000000000000E-002    2.015934112561773E-040
 -2.990000000000000E-002    2.101197900881805E-040
 -2.980000000000000E-002    1.660832465085765E-040
 -2.970000000000000E-002    2.921533493647382E-041
 -2.960000000000000E-002   -2.539982657804384E-040
 -2.950000000000000E-002   -7.481295774237414E-040
 -2.940000000000000E-002   -1.521616828444558E-039
 -2.930000000000000E-002   -2.632026885375668E-039
 -2.920000000000000E-002   -4.100987783756335E-039
 -2.910000000000000E-002   -5.876316457736408E-039
 -2.900000000000000E-002   -7.780024793037524E-039
 -2.890000000000000E-002   -9.443396731705038E-039
 -2.880000000000000E-002   -1.023454146841045E-038
 -2.870000000000000E-002   -9.190110245308470E-039
 -2.860000000000000E-002   -4.971317720720290E-039
 -2.850000000000000E-002    4.125363069949975E-039
 -2.840000000000000E-002    2.006145193850528E-038
 -2.830000000000000E-002    4.480284462768039E-038
 -2.820000000000000E-002    7.986347234516698E-038
 -2.810000000000000E-002    1.255949115219254E-037
 -2.800000000000000E-002    1.801904161088870E-037
 -2.790000000000000E-002    2.384133239931113E-037
 -2.780000000000000E-002    2.901305693120060E-037
 -2.770000000000000E-002    3.188339517880310E-037
 -2.760000000000000E-002    3.004704975998329E-037
 -2.750000000000000E-002    2.030663719084465E-037
 -2.740000000000000E-002   -1.219832462833461E-038
 -2.730000000000000E-002   -3.876560032190137E-037
 -2.720000000000000E-002   -9.626703178369283E-037
 -2.710000000000000E-002   -1.763175787117958E-036
 -2.700000000000000E-002   -2.786680366521099E-036
 -2.690000000000000E-002   -3.982768954312578E-036
 -2.680000000000000E-002   -5.230096545824288E-036
 -2.670000000000000E-002   -6.312292186661186E-036
 -2.660000000000000E-002   -6.897048004393581E-036
 -2.650000000000000E-002   -6.524837928748211E-036
 -2.640000000000000E-002   -4.615970611822311E-036
 -2.630000000000000E-002   -5.067024623559120E-037
 -2.620000000000000E-002    6.473955874575132E-036
 -2.610000000000000E-002    1.687579918451598E-035
 -2.600000000000000E-002    3.093969047267153E-035
 -2.590000000000000E-002    4.835044750846973E-035
 -2.580000000000000E-002    6.794134010271038E-035
 -2.570000000000000E-002    8.737863399027188E-035
 -2.560000000000000E-002    1.028759766601275E-034
 -2.550000000000000E-002    1.090129299954397E-034
 -2.540000000000000E-002    9.875851475553656E-035
 -2.530000000000000E-002    6.382097731904797E-035
 -2.520000000000000E-002   -4.544498128255777E-036
 -2.510000000000000E-002   -1.141476816866458E-034
 -2.500000000000000E-002   -2.698118298117337E-034
 -2.490000000000000E-002   -4.706537010610263E-034
 -2.480000000000000E-002   -7.068168484477782E-034
 -2.470000000000000E-002   -9.559560208357349E-034
 -2.460000000000000E-002   -1.179993451553153E-033
 -2.450000000000000E-002   -1.322921143161433E-033
 -2.440000000000000E-002   -1.310675908171269E-033
 -2.430000000000000E-002   -1.054316627928527E-033
 -2.420000000000000E-002   -4.578124561800807E-034
 -2.410000000000000E-002    5.683415749125975E-034
 -2.400000000000000E-002    2.086898963758889E-033
 -2.390000000000000E-002    4.106976999285339E-033
 -2.380000000000000E-002    6.551720006974649E-033
 -2.370000000000000E-002    9.223369736496837E-033
 -2.360000000000000E-002    1.177064829498551E-032
 -2.350000000000000E-002    1.366571978739937E-032
 -2.340000000000000E-002    1.420016886467112E-032
 -2.330000000000000E-002    1.251126807857385E-032
 -2.320000000000000E-002    7.650294817137846E-033
 -2.310000000000000E-002   -1.296169246573269E-033
 -2.300000000000000E-002   -1.502508752374939E-032
 -2.290000000000000E-002   -3.377549527939042E-032
 -2.280000000000000E-002   -5.703725377635901E-032
 -2.270000000000000E-002   -8.323423139544213E-032
 -2.260000000000000E-002   -1.094240421133314E-031
 -2.250000000000000E-002   -1.310749164385434E-031
 -2.240000000000000E-002   -1.419989156503230E-031
 -2.230000000000000E-002   -1.345343572426735E-031
 -2.220000000000000E-002   -1.000746076612535E-031
 -2.210000000000000E-002   -3.003192455219514E-032
 -2.200000000000000E-002    8.270506070498881E-032
 -2.190000000000000E-002    2.418156256096238E-031
 -2.180000000000000E-002    4.451697842383011E-031
 -2.170000000000000E-002    6.822157352398187E-031
 -2.160000000000000E-002    9.314463154714762E-031
 -2.150000000000000E-002    1.158406531072808E-030
 -2.140000000000000E-002    1.314830736006675E-030
 -2.130000000000000E-002    1.339603942665023E-030
 -2.120000000000000E-002    1.162274200162603E-030
 -2.110000000000000E-002    7.097723141642950E-031
 -2.100000000000000E-002   -8.321073689623704E-032
 -2.090000000000000E-002   -1.260119096160792E-030
 -2.080000000000000E-002   -2.825195405517908E-030
 -2.070000000000000E-002   -4.724157428534176E-030
 -2.060000000000000E-002   -6.825012664185795E-030
 -2.050000000000000E-002   -8.902104228251180E-030
 -2.040000000000000E-002   -1.062735182437041E-029
 -2.030000000000000E-002   -1.157332851463596E-029
 -2.020000000000000E-002   -1.123301815795888E-029
 -2.010000000000000E-002   -9.060676692571927E-030
 -2.000000000000000E-002   -4.536873674876931E-030
 -1.990000000000000E-002    2.741595373911610E-030
 -1.980000000000000E-002    1.294974298677150E-029
 -1.970000000000000E-002    2.590782064082254E-029
 -1.960000000000000E-002    4.095298376843497E-029
 -1.950000000000000E-002    5.682778709153052E-029
 -1.940000000000000E-002    7.160934404815340E-029
 -1.930000000000000E-002    8.270693656329854E-029
 -1.920000000000000E-002    8.695702009178954E-029
 -1.910000000000000E-002    8.084191669906425E-029
 -1.900000000000000E-002    6.085088450262804E-029
 -1.890000000000000E-002    2.398835517712434E-029
 -1.880000000000000E-002   -3.158528184772016E-029
 -1.870000000000000E-002   -1.058214253006150E-028
 -1.860000000000000E-002   -1.960290547803564E-028
 -1.850000000000000E-002   -2.962005783767379E-028
 -1.840000000000000E-002   -3.965465363304246E-028
 -1.830000000000000E-002   -4.833886967512033E-028
 -1.820000000000000E-002   -5.395660680145000E-028
 -1.810000000000000E-002   -5.454930263659801E-028
 -1.800000000000000E-002   -4.809673817998522E-028
 -1.790000000000000E-002   -3.277547895547252E-028
 -1.780000000000000E-002   -7.287184470199497E-029
 -1.770000000000000E-002    2.876387600839164E-028
 -1.760000000000000E-002    7.447952239533026E-028
 -1.750000000000000E-002    1.273132462001680E-027
 -1.740000000000000E-002    1.828166910537426E-027
 -1.730000000000000E-002    2.345597099425566E-027
 -1.720000000000000E-002    2.742987563335298E-027
 -1.710000000000000E-002    2.924590459418788E-027
 -1.700000000000000E-002    2.789750467344038E-027
 -1.690000000000000E-002    2.244992670666341E-027
 -1.680000000000000E-002    1.219380027085063E-027
 -1.670000000000000E-002   -3.178539504459808E-028
 -1.660000000000000E-002   -2.339093856300553E-027
 -1.650000000000000E-002   -4.741906031974308E-027
 -1.640000000000000E-002   -7.337307893587015E-027
 -1.630000000000000E-002   -9.846020351355626E-027
 -1.620000000000000E-002   -1.190597652201601E-026
 -1.610000000000000E-002   -1.309387806841708E-026
 -1.600000000000000E-002   -1.296256963789158E-026
 -1.590000000000000E-002   -1.109437427744623E-026
 -1.580000000000000E-002   -7.168271519246106E-027
 -1.570000000000000E-002   -1.036207669205156E-027
 -1.560000000000000E-002    7.199137338371758E-027
 -1.550000000000000E-002    1.711548035470362E-026
 -1.540000000000000E-002    2.792359288861809E-026
 -1.530000000000000E-002    3.845522324191717E-026
 -1.520000000000000E-002    4.719967158527841E-026
 -1.510000000000000E-002    5.239984821589379E-026
 -1.500000000000000E-002    5.221401438293550E-026
 -1.490000000000000E-002    4.494206765971711E-026
 -1.480000000000000E-002    2.930592234682149E-026
 -1.470000000000000E-002    4.762393623883948E-027
 -1.460000000000000E-002   -2.818420550407590E-026
 -1.450000000000000E-002   -6.771358094345590E-026
 -1.440000000000000E-002   -1.105162861763870E-025
 -1.430000000000000E-002   -1.517707722465334E-025
 -1.420000000000000E-002   -1.853216753081948E-025
 -1.410000000000000E-002   -2.040991138233840E-025
 -1.400000000000000E-002   -2.007974260717722E-025
 -1.390000000000000E-002   -1.688023085017811E-025
 -1.380000000000000E-002   -1.033170024534464E-025
 -1.370000000000000E-002   -2.595632872431865E-027
 -1.360000000000000E-002    1.308519840328615E-025
 -1.350000000000000E-002    2.892577086976100E-025
 -1.340000000000000E-002    4.589945524386471E-025
 -1.330000000000000E-002    6.205847725393647E-025
 -1.320000000000000E-002    7.495036313498200E-025
 -1.310000000000000E-002    8.179143646629962E-025
 -1.300000000000000E-002    7.973855053431926E-025
 -1.290000000000000E-002    6.625233917079478E-025
 -1.280000000000000E-002    3.953088386409012E-025
 -1.270000000000000E-002   -1.023162699269783E-026
 -1.260000000000000E-002   -5.435436210805535E-025
 -1.250000000000000E-002   -1.173908330926220E-024
 -1.240000000000000E-002   -1.848386771852733E-024
 -1.230000000000000E-002   -2.492087869493340E-024
 -1.220000000000000E-002   -3.011408811313354E-024
 -1.210000000000000E-002   -3.300693082107074E-024
 -1.200000000000000E-002   -3.252428603226445E-024
 -1.190000000000000E-002   -2.770668116614637E-024
 -1.180000000000000E-002   -1.786848501754272E-024
 -1.170000000000000E-002   -2.766307935585126E-025
 -1.160000000000000E-002    1.724145875420475E-024
 -1.150000000000000E-002    4.106719348473409E-024
 -1.140000000000000E-002    6.682426735025146E-024
 -1.130000000000000E-002    9.184013247861045E-024
 -1.120000000000000E-002    1.127736511543834E-023
 -1.110000000000000E-002    1.258504557120984E-023
 -1.100000000000000E-002    1.272185976013030E-023
 -1.090000000000000E-002    1.134117913270636E-023
 -1.080000000000000E-002    8.189038572925612E-024
 -1.070000000000000E-002    3.161190145729806E-024
 -1.060000000000000E-002   -3.643346872269823E-024
 -1.050000000000000E-002   -1.187997831166730E-023
 -1.040000000000000E-002   -2.093581059899312E-023
 -1.030000000000000E-002   -2.993454907319059E-023
 -1.020000000000000E-002   -3.777560876320024E-023
 -1.010000000000000E-002   -4.321143833480069E-023
 -1.000000000000000E-002   -4.496314850082016E-023
 -9.899999999999999E-003   -4.186973928605065E-023
 -9.800000000000000E-003   -3.306075268534641E-023
 -9.699999999999999E-003   -1.813666497411266E-023
 -9.599999999999999E-003    2.663730394949444E-024
 -9.500000000000000E-003    2.833307713584600E-023
 -9.399999999999999E-003    5.702798522093166E-023
 -9.299999999999999E-003    8.608826053190196E-023
 -9.200000000000000E-003    1.121617666165482E-022
 -9.099999999999999E-003    1.314452780564727E-022
 -8.999999999999999E-003    1.400395418626543E-022
 -8.900000000000000E-003    1.344016377520975E-022
 -8.799999999999999E-003    1.118621228646149E-022
 -8.699999999999999E-003    7.115749007956106E-023
 -8.600000000000000E-003    1.291566766928186E-023
 -8.499999999999999E-003   -5.997759388278455E-023
 -8.399999999999999E-003   -1.422050318230149E-022
 -8.300000000000000E-003   -2.261041947214197E-022
 -8.199999999999999E-003   -3.020639097023000E-022
 -8.100000000000000E-003   -3.592539613119095E-022
 -8.000000000000000E-003   -3.866746204258001E-022
 -7.899999999999999E-003   -3.744691998762535E-022
 -7.800000000000000E-003   -3.153967802200202E-022
 -7.699999999999999E-003   -2.063171232263552E-022
 -7.599999999999999E-003   -4.950617679634793E-023
 -7.499999999999999E-003    1.464023132648825E-022
 -7.399999999999999E-003    3.660524081660269E-022
 -7.299999999999999E-003    5.877561954392298E-022
 -7.199999999999999E-003    7.847627668358276E-022
 -7.100000000000000E-003    9.274466027645889E-022
 -6.999999999999999E-003    9.863514986532373E-022
 -6.899999999999999E-003    9.359023107665013E-022
 -6.800000000000000E-003    7.584716369870368E-022
 -6.699999999999999E-003    4.483726084567284E-022
 -6.599999999999999E-003    1.526068502101266E-023
 -6.499999999999999E-003   -5.136150467399990E-022
 -6.399999999999999E-003   -1.092852859497349E-021
 -6.299999999999999E-003   -1.660483595551120E-021
 -6.199999999999999E-003   -2.141987150974181E-021
 -6.100000000000000E-003   -2.456786271321273E-021
 -5.999999999999999E-003   -2.526963740279823E-021
 -5.899999999999999E-003   -2.287621734959299E-021
 -5.800000000000000E-003   -1.697960514006986E-021
 -5.699999999999999E-003   -7.518606987306753E-022
 -5.599999999999999E-003    5.134482828174464E-022
 -5.499999999999999E-003    2.012142183087795E-021
 -5.399999999999999E-003    3.609380780845536E-021
 -5.299999999999999E-003    5.126849974448253E-021
 -5.199999999999999E-003    6.354898262391072E-021
 -5.099999999999999E-003    7.071246206021116E-021
 -4.999999999999999E-003    7.065437196242064E-021
 -4.899999999999999E-003    6.167296750282237E-021
 -4.799999999999999E-003    4.276832436165807E-021
 -4.699999999999999E-003    1.392250182217686E-021
 -4.599999999999999E-003   -2.367719889802137E-021
 -4.499999999999999E-003   -6.751097588711420E-021
 -4.399999999999999E-003   -1.137316036467575E-020
 -4.299999999999999E-003   -1.573295500353740E-020
 -4.199999999999999E-003   -1.924727248887950E-020
 -4.099999999999999E-003   -2.130178670649816E-020
 -3.999999999999999E-003   -2.131686237161906E-020
 -3.899999999999999E-003   -1.882340243046927E-020
 -3.799999999999999E-003   -1.354183306721732E-020
 -3.699999999999999E-003   -5.455613562988135E-021
 -3.599999999999999E-003    5.130515727585481E-021
 -3.499999999999999E-003    1.755747111427000E-020
 -3.399999999999999E-003    3.081300396409961E-020
 -3.299999999999999E-003    4.357390983156375E-020
 -3.199999999999999E-003    5.429271211900210E-020
 -3.099999999999999E-003    6.132764518585172E-020
 -2.999999999999999E-003    6.310962693507513E-020
 -2.899999999999999E-003    5.833438512476416E-020
 -2.799999999999999E-003    4.616257678267968E-020
 -2.699999999999999E-003    2.640660096337283E-020
 -2.599999999999999E-003   -3.197433947046635E-022
 -2.499999999999999E-003   -3.251290234377044E-020
 -2.399999999999999E-003   -6.777419784873063E-020
 -2.299999999999999E-003   -1.029037625366096E-019
 -2.199999999999999E-003   -1.341016032838008E-019
 -2.099999999999999E-003   -1.572731771481340E-019
 -1.999999999999999E-003   -1.684241169365225E-019
 -1.899999999999999E-003   -1.641162585941041E-019
 -1.799999999999999E-003   -1.419447328482715E-019
 -1.699999999999999E-003   -1.009865733703763E-019
 -1.599999999999999E-003   -4.216558724920072E-020
 -1.499999999999999E-003    3.152198811499626E-020
 -1.399999999999999E-003    1.149706825281701E-019
 -1.299999999999999E-003    2.011544198226819E-019
 -1.199999999999999E-003    2.815587618463623E-019
 -1.099999999999999E-003    3.468496822754116E-019
 -9.999999999999989E-004    3.877448546519664E-019
 -8.999999999999990E-004    3.960246212027260E-019
 -7.999999999999990E-004    3.655928841108600E-019
 -6.999999999999989E-004    2.934791394562846E-019
 -5.999999999999990E-004    1.806595824184853E-019
 -4.999999999999989E-004    3.257731955502622E-020
 -3.999999999999989E-004   -1.407454419917813E-019
 -2.999999999999989E-004   -3.250807459140364E-019
 -1.999999999999989E-004   -5.028898654914911E-019
 -9.999999999999892E-005   -6.547227935437098E-019
  1.084202172485504E-018   -7.610453093967833E-019
  1.000000000000011E-004   -8.043557819657550E-019
  2.000000000000011E-004   -7.714008208076912E-019
  3.000000000000011E-004   -6.552558861386382E-019
  4.000000000000011E-004   -4.570164237913981E-019
  5.000000000000011E-004   -1.868487616539268E-019
  6.000000000000011E-004    1.358159391396070E-019
  7.000000000000011E-004    4.830975292884656E-019
  8.000000000000011E-004    8.205560486605205E-019
  9.000000000000012E-004    1.110103294991061E-018
  1.000000000000001E-003    1.313761380744927E-018
  1.100000000000001E-003    1.397971734825974E-018
  1.200000000000001E-003    1.338045617224209E-018
  1.300000000000001E-003    1.122267925101744E-018
  1.400000000000001E-003    7.551342390864471E-019
  1.500000000000001E-003    2.592125593058048E-019
  1.600000000000001E-003   -3.247934066995344E-019
  1.700000000000001E-003   -9.400670660179359E-019
  1.800000000000001E-003   -1.517875778061598E-018
  1.900000000000001E-003   -1.983799762749451E-018
  2.000000000000001E-003   -2.265587423027821E-018
  2.100000000000001E-003   -2.301987083688959E-018
  2.200000000000001E-003   -2.051689878091197E-018
  2.300000000000001E-003   -1.501363005106361E-018
  2.400000000000001E-003   -6.717047533758839E-019
  2.500000000000001E-003    3.794955986878724E-019
  2.600000000000001E-003    1.558126568903383E-018
  2.700000000000001E-003    2.738875578111220E-018
  2.800000000000001E-003    3.774821171314081E-018
  2.900000000000001E-003    4.511109566177296E-018
  3.000000000000001E-003    4.801814886982484E-018
  3.100000000000001E-003    4.528567635780230E-018
  3.200000000000001E-003    3.619112740423104E-018
  3.300000000000001E-003    2.063673189783679E-018
  3.400000000000001E-003   -7.309799522597222E-020
  3.500000000000001E-003   -2.646648007309484E-018
  3.600000000000001E-003   -5.435214692936860E-018
  3.700000000000001E-003   -8.151702298270140E-018
  3.800000000000001E-003   -1.046490576825199E-017
  3.900000000000001E-003   -1.202923628618434E-017
  4.000000000000001E-003   -1.252102083291664E-017
  4.100000000000001E-003   -1.167841232276040E-017
  4.200000000000001E-003   -9.341094871281578E-018
  4.300000000000001E-003   -5.485384616026418E-018
  4.400000000000001E-003   -2.501519073424251E-019
  4.500000000000001E-003    6.050717891924183E-018
  4.600000000000002E-003    1.293281668450645E-017
  4.700000000000001E-003    1.976482673077370E-017
  4.800000000000001E-003    2.581169838059127E-017
  4.900000000000002E-003    3.029581129348930E-017
  5.000000000000001E-003    3.247234917966278E-017
  5.100000000000001E-003    3.171304007971021E-017
  5.200000000000001E-003    2.759065177309374E-017
  5.300000000000002E-003    1.995543831616413E-017
  5.400000000000001E-003    8.994259760777386E-018
  5.500000000000001E-003   -4.736387124881900E-018
  5.600000000000002E-003   -2.031071158859036E-017
  5.700000000000001E-003   -3.647221779804266E-017
  5.800000000000001E-003   -5.171201908537775E-017
  5.900000000000002E-003   -6.438448089820390E-017
  6.000000000000001E-003   -7.285352761262376E-017
  6.100000000000001E-003   -7.565887460420462E-017
  6.200000000000002E-003   -7.168782319633472E-017
  6.300000000000002E-003   -6.033575792069745E-017
  6.400000000000001E-003   -4.163745054460046E-017
  6.500000000000001E-003   -1.635166144168035E-017
  6.600000000000002E-003    1.401573312065935E-017
  6.700000000000001E-003    4.726066088033656E-017
  6.800000000000001E-003    8.060633091642556E-017
  6.900000000000002E-003    1.109024723905939E-016
  7.000000000000001E-003    1.348876130528390E-016
  7.100000000000001E-003    1.494959799962652E-016
  7.200000000000002E-003    1.521833344943183E-016
  7.300000000000002E-003    1.412415411463557E-016
  7.400000000000001E-003    1.160682159951136E-016
  7.500000000000001E-003    7.735899677108148E-017
  7.600000000000002E-003    2.719331952141586E-017
  7.700000000000001E-003   -3.100756428667193E-017
  7.800000000000001E-003   -9.266165659443620E-017
  7.900000000000001E-003   -1.523442891399547E-016
  8.000000000000002E-003   -2.042271677526694E-016
  8.100000000000001E-003   -2.426081085997676E-016
  8.200000000000001E-003   -2.624878946619392E-016
  8.300000000000002E-003   -2.601413155593712E-016
  8.400000000000001E-003   -2.336234744502234E-016
  8.500000000000002E-003   -1.831522005065266E-016
  8.600000000000002E-003   -1.113137004127726E-016
  8.700000000000001E-003   -2.305061515371892E-017
  8.800000000000002E-003    7.459109726582888E-017
  8.900000000000002E-003    1.729566912350754E-016
  9.000000000000001E-003    2.624950720526418E-016
  9.100000000000002E-003    3.336391232994199E-016
  9.200000000000002E-003    3.777817089798617E-016
  9.300000000000001E-003    3.882562259561595E-016
  9.400000000000002E-003    3.612200956479728E-016
  9.500000000000001E-003    2.963383214854716E-016
  9.600000000000001E-003    1.971728008446479E-016
  9.700000000000002E-003    7.120418645221706E-017
  9.800000000000001E-003   -7.055723747020040E-017
  9.900000000000001E-003   -2.143766505253601E-016
  1.000000000000000E-002   -3.449770127344276E-016
  1.010000000000000E-002   -4.470158566616548E-016
  1.020000000000000E-002   -5.067327084187244E-016
  1.030000000000000E-002   -5.136105730910499E-016
  1.040000000000000E-002   -4.618752079650897E-016
  1.050000000000000E-002   -3.516529813656109E-016
  1.060000000000000E-002   -1.896221828903198E-016
  1.070000000000000E-002    1.097132676065604E-017
  1.080000000000000E-002    2.310121052621622E-016
  1.090000000000000E-002    4.469359605841739E-016
  1.100000000000000E-002    6.328086265554885E-016
  1.110000000000000E-002    7.629161929679730E-016
  1.120000000000000E-002    8.146522209879761E-016
  1.130000000000000E-002    7.714227393078322E-016
  1.140000000000000E-002    6.252615431656535E-016
  1.150000000000000E-002    3.788338416661540E-016
  1.160000000000000E-002    4.653679808580835E-017
  1.170000000000000E-002   -3.455361688782639E-016
  1.180000000000000E-002   -7.609072941980644E-016
  1.190000000000000E-002   -1.155323627669043E-015
  1.200000000000000E-002   -1.480550792988043E-015
  1.210000000000000E-002   -1.689094045576563E-015
  1.220000000000000E-002   -1.739464339112863E-015
  1.230000000000000E-002   -1.601492459098805E-015
  1.240000000000000E-002   -1.261137598358754E-015
  1.250000000000000E-002   -7.242096513828970E-016
  1.260000000000000E-002   -1.847487360936343E-017
  1.270000000000000E-002    8.062884135684827E-016
  1.280000000000000E-002    1.680550619098266E-015
  1.290000000000000E-002    2.519666256525826E-015
  1.300000000000000E-002    3.230701900905929E-015
  1.310000000000000E-002    3.721022420993410E-015
  1.320000000000000E-002    3.907955794816918E-015
  1.330000000000000E-002    3.728672987745204E-015
  1.340000000000000E-002    3.149281254443497E-015
  1.350000000000000E-002    2.172086103446315E-015
  1.360000000000000E-002    8.400509532230791E-016
  1.370000000000000E-002   -7.623577028190065E-016
  1.380000000000000E-002   -2.512468847428627E-015
  1.390000000000000E-002   -4.257012215896172E-015
  1.400000000000000E-002   -5.823775608030168E-015
  1.410000000000000E-002   -7.036605339667583E-015
  1.420000000000000E-002   -7.732616265166368E-015
  1.430000000000000E-002   -7.780114667260579E-015
  1.440000000000000E-002   -7.095494629984095E-015
  1.450000000000000E-002   -5.657260737796016E-015
  1.460000000000000E-002   -3.515428185844261E-015
  1.470000000000000E-002   -7.948019735796545E-016
  1.480000000000000E-002    2.308887085239946E-015
  1.490000000000000E-002    5.540405909319202E-015
  1.500000000000000E-002    8.603702931142686E-015
  1.510000000000000E-002    1.118674839940060E-014
  1.520000000000000E-002    1.299071708628965E-014
  1.530000000000000E-002    1.376102086258731E-014
  1.540000000000000E-002    1.331725485228295E-014
  1.550000000000000E-002    1.157890494406475E-014
  1.560000000000000E-002    8.583764582511948E-015
  1.570000000000000E-002    4.496419549228589E-015
  1.580000000000000E-002   -3.951114260517654E-016
  1.590000000000000E-002   -5.695474339155233E-015
  1.600000000000000E-002   -1.093052174187054E-014
  1.610000000000000E-002   -1.558667321499457E-014
  1.620000000000000E-002   -1.915822624168495E-014
  1.630000000000000E-002   -2.119861611641429E-014
  1.640000000000000E-002   -2.137082383821359E-014
  1.650000000000000E-002   -1.949170014794483E-014
  1.660000000000000E-002   -1.556509733134265E-014
  1.670000000000000E-002   -9.799316080643587E-015
  1.680000000000000E-002   -2.605515099241334E-015
  1.690000000000000E-002    5.424632449769728E-015
  1.700000000000000E-002    1.356179336350490E-014
  1.710000000000000E-002    2.099996509034296E-014
  1.720000000000000E-002    2.693111994663815E-014
  1.730000000000000E-002    3.062720951764100E-014
  1.740000000000000E-002    3.152177382365452E-014
  1.750000000000000E-002    2.928277912906104E-014
  1.760000000000000E-002    2.386830344291129E-014
  1.770000000000000E-002    1.555771824889613E-014
  1.780000000000000E-002    4.952759588380502E-015
  1.790000000000000E-002   -7.054482930444337E-015
  1.800000000000000E-002   -1.934650320846130E-014
  1.810000000000000E-002   -3.067475597619731E-014
  1.820000000000000E-002   -3.977642764596497E-014
  1.830000000000000E-002   -4.550367973641447E-014
  1.840000000000000E-002   -4.695320138733257E-014
  1.850000000000000E-002   -4.358261918198990E-014
  1.860000000000000E-002   -3.530044487338038E-014
  1.870000000000000E-002   -2.251776958280419E-014