 -4.000000000000000E-002    0.000000000000000E+000
 -3.990000000000000E-002    0.000000000000000E+000
 -3.980000000000000E-002    0.000000000000000E+000
 -3.970000000000000E-002    0.000000000000000E+000
 -3.960000000000000E-002    0.000000000000000E+000
 -3.950000000000000E-002    0.000000000000000E+000
 -3.940000000000000E-002    0.000000000000000E+000
 -3.930000000000000E-002    0.000000000000000E+000
 -3.920000000000000E-002    0.000000000000000E+000
 -3.910000000000000E-002    3.149181905290798E-032
 -3.900000000000000E-002    5.629707292032781E-031
 -3.890000000000000E-002    5.259835865760018E-030
 -3.880000000000000E-002    3.415066104718494E-029
 -3.870000000000000E-002    1.728949164954881E-028
 -3.860000000000000E-002    7.262071111430524E-028
 -3.850000000000000E-002    2.629578720275162E-027
 -3.840000000000000E-002    8.421996241453207E-027
 -3.830000000000000E-002    2.429340386193285E-026
 -3.820000000000000E-002    6.393591104145204E-026
 -3.810000000000000E-002    1.549688445110287E-025
 -3.800000000000000E-002    3.481751894213605E-025
 -3.790000000000000E-002    7.279445945405396E-025
 -3.780000000000000E-002    1.418003511672160E-024
 -3.770000000000000E-002    2.568079506110680E-024
 -3.760000000000000E-002    4.292662819365036E-024
 -3.750000000000000E-002    6.510770903869894E-024
 -3.740000000000000E-002    8.605263399376027E-024
 -3.730000000000000E-002    8.784412095089628E-024
 -3.720000000000000E-002    2.996266053429239E-024
 -3.710000000000000E-002   -1.676441029427077E-023
 -3.700000000000000E-002   -6.487354785888842E-023
 -3.690000000000000E-002   -1.651947624845242E-022
 -3.680000000000000E-002   -3.545637708866312E-022
 -3.670000000000000E-002   -6.857674879721607E-022
 -3.660000000000000E-002   -1.228311890507441E-021
 -3.650000000000000E-002   -2.064102980015439E-021
 -3.640000000000000E-002   -3.273756557629553E-021
 -3.630000000000000E-002   -4.907732442105403E-021
 -3.620000000000000E-002   -6.935322315624365E-021
 -3.610000000000000E-002   -9.164361333087717E-021
 -3.600000000000000E-002   -1.112623398089428E-020
 -3.590000000000000E-002   -1.192561741035716E-020
 -3.580000000000000E-002   -1.006371049690866E-020
 -3.570000000000000E-002   -3.258571851171483E-021
 -3.560000000000000E-002    1.169324715763406E-020
 -3.550000000000000E-002    3.894256139657323E-020
 -3.540000000000000E-002    8.340129469733539E-020
 -3.530000000000000E-002    1.502163313566908E-019
 -3.520000000000000E-002    2.437596491802795E-019
 -3.510000000000000E-002    3.659946697142196E-019
 -3.500000000000000E-002    5.141175315810212E-019
 -3.490000000000000E-002    6.774617498474790E-019
 -3.480000000000000E-002    8.338040384675041E-019
 -3.470000000000000E-002    9.454302008844077E-019
 -3.460000000000000E-002    9.556003297297886E-019
 -3.450000000000000E-002    7.863885328005829E-019
 -3.440000000000000E-002    3.391929491963314E-019
 -3.430000000000000E-002   -5.005025066217533E-019
 -3.420000000000000E-002   -1.852439515999661E-018
 -3.410000000000000E-002   -3.823390580655454E-018
 -3.400000000000000E-002   -6.480453182020866E-018
 -3.390000000000000E-002   -9.815729471961503E-018
 -3.380000000000000E-002   -1.370385600042521E-017
 -3.370000000000000E-002   -1.785584683489710E-017
 -3.360000000000000E-002   -2.177513386012849E-017
 -3.350000000000000E-002   -2.472426971025539E-017
 -3.340000000000000E-002   -2.571320330177490E-017
 -3.330000000000000E-002   -2.352156338820636E-017
 -3.320000000000000E-002   -1.676762870598672E-017
 -3.310000000000000E-002   -4.035061765837849E-018
 -3.300000000000000E-002    1.593607249717632E-017
 -3.290000000000000E-002    4.399470661362300E-017
 -3.280000000000000E-002    8.027170285488401E-017
 -3.270000000000000E-002    1.238444227755683E-016
 -3.260000000000000E-002    1.724109115515992E-016
 -3.250000000000000E-002    2.220263390425925E-016
 -3.240000000000000E-002    2.669647616947695E-016
 -3.230000000000000E-002    2.997751696683117E-016
 -3.220000000000000E-002    3.115975413576639E-016
 -3.210000000000000E-002    2.927898501495863E-016
 -3.200000000000000E-002    2.338896750957871E-016
 -3.190000000000000E-002    1.268914583297921E-016
 -3.180000000000000E-002   -3.323138371432432E-017
 -3.170000000000000E-002   -2.468925181020515E-016
 -3.160000000000000E-002   -5.083403129732916E-016
 -3.150000000000000E-002   -8.044342505373142E-016
 -3.140000000000000E-002   -1.114028599244521E-015
 -3.130000000000000E-002   -1.408241992211280E-015
 -3.120000000000000E-002   -1.651853091753124E-015
 -3.110000000000000E-002   -1.805964454596047E-015
 -3.100000000000000E-002   -1.831935651857987E-015
 -3.090000000000000E-002   -1.696402909832014E-015
 -3.080000000000000E-002   -1.376968474737493E-015
 -3.070000000000000E-002   -8.679269371337036E-016
 -3.060000000000000E-002   -1.851920704604003E-016
 -3.050000000000000E-002    6.305515160757247E-016
 -3.040000000000000E-002    1.513464789168360E-015
 -3.030000000000000E-002    2.375823785977420E-015
 -3.020000000000000E-002    3.115531943878329E-015
 -3.010000000000000E-002    3.627985603251321E-015
 -3.000000000000000E-002    3.821789023946138E-015
 -2.990000000000000E-002    3.637057085884333E-015
 -2.980000000000000E-002    3.064249409654768E-015
 -2.970000000000000E-002    2.160781431889312E-015
 -2.960000000000000E-002    1.062135568336650E-015
 -2.950000000000000E-002   -1.598789998822667E-017
 -2.940000000000000E-002   -7.876573665955021E-016
 -2.930000000000000E-002   -9.211567950555358E-016
 -2.920000000000000E-002   -7.884292241379505E-017
 -2.910000000000000E-002    2.028715457391969E-015
 -2.900000000000000E-002    5.577753585875001E-015
 -2.890000000000000E-002    1.056160905727232E-014
 -2.880000000000000E-002    1.672490715721377E-014
 -2.870000000000000E-002    2.351225644999391E-014
 -2.860000000000000E-002    3.004316641640998E-014
 -2.850000000000000E-002    3.512466864315410E-014
 -2.840000000000000E-002    3.731130802353023E-014
 -2.830000000000000E-002    3.501848863996311E-014
 -2.820000000000000E-002    2.668965445872806E-014
 -2.810000000000000E-002    1.101089073633768E-014
 -2.800000000000000E-002   -1.284152591434167E-014
 -2.790000000000000E-002   -4.494312054104624E-014
 -2.780000000000000E-002   -8.438264357009683E-014
 -2.770000000000000E-002   -1.290779437969574E-013
 -2.760000000000000E-002   -1.756834679381228E-013
 -2.750000000000000E-002   -2.196245020597277E-013
 -2.740000000000000E-002   -2.552861861404430E-013
 -2.730000000000000E-002   -2.763730546001304E-013
 -2.720000000000000E-002   -2.764385230055771E-013
 -2.710000000000000E-002   -2.495622424872009E-013
 -2.700000000000000E-002   -1.911313337402508E-013
 -2.690000000000000E-002   -9.865925810311908E-014
 -2.680000000000000E-002    2.744324103235138E-014
 -2.670000000000000E-002    1.832430367249565E-013
 -2.660000000000000E-002    3.609073100510571E-013
 -2.650000000000000E-002    5.486684278790526E-013
 -2.640000000000000E-002    7.312050621356509E-013
 -2.630000000000000E-002    8.904815096894552E-013
 -2.620000000000000E-002    1.007042827543320E-012
 -2.610000000000000E-002    1.061711229492452E-012
 -2.600000000000000E-002    1.037575098043108E-012
 -2.590000000000000E-002    9.221076680615457E-013
 -2.580000000000000E-002    7.092100183579766E-013
 -2.570000000000000E-002    4.009444803271773E-013
 -2.560000000000000E-002    8.718154230013176E-015
 -2.550000000000000E-002   -4.463026513943598E-013
 -2.540000000000000E-002   -9.337196783743238E-013
 -2.530000000000000E-002   -1.415468503440652E-012
 -2.520000000000000E-002   -1.848419312235905E-012
 -2.510000000000000E-002   -2.187899872042884E-012
 -2.500000000000000E-002   -2.391904026928666E-012
 -2.490000000000000E-002   -2.425643598183780E-012
 -2.480000000000000E-002   -2.266008986465033E-012
 -2.470000000000000E-002   -1.905451894067923E-012
 -2.460000000000000E-002   -1.354794250966923E-012
 -2.450000000000000E-002   -6.445136656602532E-013
 -2.440000000000000E-002    1.758424197971526E-013
 -2.430000000000000E-002    1.040307302857915E-012
 -2.420000000000000E-002    1.871208750305899E-012
 -2.410000000000000E-002    2.585719175769338E-012
 -2.400000000000000E-002    3.103789411134520E-012
 -2.390000000000000E-002    3.356802163812045E-012
 -2.380000000000000E-002    3.296119184203227E-012
 -2.370000000000000E-002    2.900597027756314E-012
 -2.360000000000000E-002    2.182144378836103E-012
 -2.350000000000000E-002    1.188478518521122E-012
 -2.340000000000000E-002    2.436473677146951E-015
 -2.330000000000000E-002   -1.262521120698227E-012
 -2.320000000000000E-002   -2.470613779340471E-012
 -2.310000000000000E-002   -3.475450902250036E-012
 -2.300000000000000E-002   -4.134336125553104E-012
 -2.290000000000000E-002   -4.323991687414154E-012
 -2.280000000000000E-002   -3.956222197544922E-012
 -2.270000000000000E-002   -2.991888000193597E-012
 -2.260000000000000E-002   -1.451520836740859E-012
 -2.250000000000000E-002    5.789182778126473E-013
 -2.240000000000000E-002    2.948326129045076E-012
 -2.230000000000000E-002    5.447488240431363E-012
 -2.220000000000000E-002    7.822946905876409E-012
 -2.210000000000000E-002    9.797122223915881E-012
 -2.200000000000000E-002    1.109339643436966E-011
 -2.190000000000000E-002    1.146423490492453E-011
 -2.180000000000000E-002    1.071989513904180E-011
 -2.170000000000000E-002    8.754939070434861E-012
 -2.160000000000000E-002    5.569676043221608E-012
 -2.150000000000000E-002    1.283843982070663E-012
 -2.140000000000000E-002   -3.859717015446596E-012
 -2.130000000000000E-002   -9.502900512417774E-012
 -2.120000000000000E-002   -1.519224860393305E-011
 -2.110000000000000E-002   -2.041040969638383E-011
 -2.100000000000000E-002   -2.461744037672435E-011
 -2.090000000000000E-002   -2.729913863649255E-011
 -2.080000000000000E-002   -2.801860075927578E-011
 -2.070000000000000E-002   -2.646648762441842E-011
 -2.060000000000000E-002   -2.250512417507688E-011
 -2.050000000000000E-002   -1.620154957013314E-011
 -2.040000000000000E-002   -7.845193075878672E-012
 -2.030000000000000E-002    2.053253941021542E-012
 -2.020000000000000E-002    1.278379643865934E-011
 -2.010000000000000E-002    2.348024243655470E-011
 -2.000000000000000E-002    3.318288882411188E-011
 -1.990000000000000E-002    4.091715090012372E-011
 -1.980000000000000E-002    4.578268684195981E-011
 -1.970000000000000E-002    4.704588642880859E-011
 -1.960000000000000E-002    4.422749739983518E-011
 -1.950000000000000E-002    3.717663454700175E-011
 -1.940000000000000E-002    2.612263498354269E-011
 -1.930000000000000E-002    1.169726889493289E-011
 -1.920000000000000E-002   -5.078302404060899E-012
 -1.910000000000000E-002   -2.284481650331318E-011
 -1.900000000000000E-002   -3.999428315648871E-011
 -1.890000000000000E-002   -5.479349880851542E-011
 -1.880000000000000E-002   -6.553428565727030E-011
 -1.870000000000000E-002   -7.069935249900317E-011
 -1.860000000000000E-002   -6.912996778136168E-011
 -1.850000000000000E-002   -6.017976375847660E-011
 -1.840000000000000E-002   -4.383800970349018E-011
 -1.830000000000000E-002   -2.080711626788953E-011
 -1.820000000000000E-002    7.478964335923953E-012
 -1.810000000000000E-002    3.890430723464352E-011
 -1.800000000000000E-002    7.079219117282534E-011
 -1.790000000000000E-002    1.000947987135964E-010
 -1.780000000000000E-002    1.236415228344802E-010
 -1.770000000000000E-002    1.384286777318851E-010
 -1.760000000000000E-002    1.419274787816264E-010
 -1.750000000000000E-002    1.323823144527394E-010
 -1.740000000000000E-002    1.090689120144831E-010
 -1.730000000000000E-002    7.248241940217631E-011
 -1.720000000000000E-002    2.442845726851424E-011
 -1.710000000000000E-002   -3.200301097757662E-011
 -1.700000000000000E-002   -9.259200982034000E-011
 -1.690000000000000E-002   -1.522704378688878E-010
 -1.680000000000000E-002   -2.055179615715036E-010
 -1.670000000000000E-002   -2.468452493407235E-010
 -1.660000000000000E-002   -2.713259089250271E-010
 -1.650000000000000E-002   -2.751294959283743E-010
 -1.640000000000000E-002   -2.560016413817446E-010
 -1.630000000000000E-002   -2.136379237709618E-010
 -1.620000000000000E-002   -1.499018687837912E-010
 -1.610000000000000E-002   -6.884888698566851E-011
 -1.600000000000000E-002    2.346660552063366E-011
 -1.590000000000000E-002    1.194036638198470E-010
 -1.580000000000000E-002    2.103470852311380E-010
 -1.570000000000000E-002    2.874772330765923E-010
 -1.560000000000000E-002    3.426340963559953E-010
 -1.550000000000000E-002    3.691960059586946E-010
 -1.540000000000000E-002    3.628836780970134E-010
 -1.530000000000000E-002    3.223993036965028E-010
 -1.520000000000000E-002    2.498179404198819E-010
 -1.510000000000000E-002    1.506667037048591E-010
 -1.500000000000000E-002    3.365344987287628E-011
 -1.490000000000000E-002   -8.996075007867916E-011
 -1.480000000000000E-002   -2.073132742049878E-010
 -1.470000000000000E-002   -3.051474411238639E-010
 -1.460000000000000E-002   -3.711731775202716E-010
 -1.450000000000000E-002   -3.954532385498621E-010
 -1.440000000000000E-002   -3.716712354135656E-010
 -1.430000000000000E-002   -2.981382380202103E-010
 -1.420000000000000E-002   -1.784075589820033E-010
 -1.410000000000000E-002   -2.139739317400257E-011
 -1.400000000000000E-002    1.590368012340688E-010
 -1.390000000000000E-002    3.450857585923597E-010
 -1.380000000000000E-002    5.164734589133365E-010
 -1.370000000000000E-002    6.523376895836385E-010
 -1.360000000000000E-002    7.333441576980837E-010
 -1.350000000000000E-002    7.438347739274124E-010
 -1.340000000000000E-002    6.737908699282986E-010
 -1.330000000000000E-002    5.203928636355031E-010
 -1.320000000000000E-002    2.889812662083339E-010
 -1.310000000000000E-002   -6.729600321899344E-012
 -1.300000000000000E-002   -3.452682208127006E-010
 -1.290000000000000E-002   -6.988570288061345E-010
 -1.280000000000000E-002   -1.035615844020317E-009
 -1.270000000000000E-002   -1.322352073895490E-009
 -1.260000000000000E-002   -1.527699831281244E-009
 -1.250000000000000E-002   -1.625314526915073E-009
 -1.240000000000000E-002   -1.596805711750874E-009
 -1.230000000000000E-002   -1.434092835224257E-009
 -1.220000000000000E-002   -1.140907906225042E-009
 -1.210000000000000E-002   -7.332354607108984E-010
 -1.200000000000000E-002   -2.385765603245657E-010
 -1.190000000000000E-002    3.059644194932136E-010
 -1.180000000000000E-002    8.566523818924682E-010
 -1.170000000000000E-002    1.366917718479675E-009
 -1.160000000000000E-002    1.791646492246794E-009
 -1.150000000000000E-002    2.091559662375229E-009
 -1.140000000000000E-002    2.237249046132080E-009
 -1.130000000000000E-002    2.212444496220077E-009
 -1.120000000000000E-002    2.016143169900061E-009
 -1.110000000000000E-002    1.663325531066558E-009
 -1.100000000000000E-002    1.184115556582388E-009
 -1.090000000000000E-002    6.213894361011026E-010
 -1.080000000000000E-002    2.699838485345727E-011
 -1.070000000000000E-002   -5.430794630324473E-010
 -1.060000000000000E-002   -1.034217893873446E-009
 -1.050000000000000E-002   -1.398726218234200E-009
 -1.040000000000000E-002   -1.600974374876332E-009
 -1.030000000000000E-002   -1.621512944534617E-009
 -1.020000000000000E-002   -1.459722923147802E-009
 -1.010000000000000E-002   -1.134650117055351E-009
 -1.000000000000000E-002   -6.838556561920264E-010
 -9.899999999999999E-003   -1.603003526739894E-010
 -9.800000000000000E-003    3.725130125601978E-010
 -9.699999999999999E-003    8.467304203386407E-010
 -9.599999999999999E-003    1.197105197047831E-009
 -9.500000000000000E-003    1.368057220576578E-009
 -9.399999999999999E-003    1.320121833808937E-009
 -9.299999999999999E-003    1.035107725887992E-009
 -9.200000000000000E-003    5.193822514085295E-010
 -9.099999999999999E-003   -1.951371639440512E-010
 -8.999999999999999E-003   -1.052496734236646E-009
 -8.900000000000000E-003   -1.976692051809142E-009
 -8.799999999999999E-003   -2.877850007026928E-009
 -8.699999999999999E-003   -3.660097985501642E-009
 -8.600000000000000E-003   -4.230424988227509E-009
 -8.499999999999999E-003   -4.507707410180817E-009
 -8.399999999999999E-003   -4.431031667012196E-009
 -8.300000000000000E-003   -3.966466845980131E-009
 -8.199999999999999E-003   -3.111571728857156E-009
 -8.100000000000000E-003   -1.897103440748268E-009
 -8.000000000000000E-003   -3.856570770098710E-010
 -7.899999999999999E-003    1.332752152903252E-009
 -7.800000000000000E-003    3.147849333050557E-009
 -7.699999999999999E-003    4.938409545095671E-009
 -7.599999999999999E-003    6.582891757492716E-009
 -7.499999999999999E-003    7.970412467644973E-009
 -7.399999999999999E-003    9.011003366998063E-009
 -7.299999999999999E-003    9.644126200289312E-009
 -7.199999999999999E-003    9.844548011114634E-009
 -7.100000000000000E-003    9.624904901207043E-009
 -6.999999999999999E-003    9.034570443156147E-009
 -6.899999999999999E-003    8.154797586256400E-009
 -6.800000000000000E-003    7.090456071252317E-009
 -6.699999999999999E-003    5.959036274703737E-009
 -6.599999999999999E-003    4.877882641536207E-009
 -6.499999999999999E-003    3.950837411938136E-009
 -6.399999999999999E-003    3.255591407295314E-009
 -6.299999999999999E-003    2.833026211997164E-009
 -6.199999999999999E-003    2.679723221418679E-009
 -6.100000000000000E-003    2.744561558329481E-009
 -5.999999999999999E-003    2.930006929014069E-009
 -5.899999999999999E-003    3.098284081815501E-009
 -5.800000000000000E-003    3.082194919269876E-009
 -5.699999999999999E-003    2.699904300597523E-009
 -5.599999999999999E-003    1.772639461394536E-009
 -5.499999999999999E-003    1.439449146711458E-010
 -5.399999999999999E-003   -2.301070987100834E-009
 -5.299999999999999E-003   -5.618103949270834E-009
 -5.199999999999999E-003   -9.789160378417494E-009
 -5.099999999999999E-003   -1.471250438426075E-008
 -4.999999999999999E-003   -2.019797385735838E-008
 -4.899999999999999E-003   -2.596816269967285E-008
 -4.799999999999999E-003   -3.166544512456089E-008
 -4.699999999999999E-003   -3.686426070616281E-008
 -4.599999999999999E-003   -4.108763211337736E-008
 -4.499999999999999E-003   -4.382644438876110E-008
 -4.399999999999999E-003   -4.455971070830196E-008
 -4.299999999999999E-003   -4.277392307212464E-008
 -4.199999999999999E-003   -3.797963889656695E-008
 -4.099999999999999E-003   -2.972361831661147E-008
 -3.999999999999999E-003   -1.759525747423287E-008
 -3.899999999999999E-003   -1.226481383031394E-009
 -3.799999999999999E-003    1.971498554034812E-008
 -3.699999999999999E-003    4.553862706208047E-008
 -3.599999999999999E-003    7.654923309896957E-008
 -3.499999999999999E-003    1.130686000445691E-007
 -3.399999999999999E-003    1.554586820793877E-007
 -3.299999999999999E-003    2.041439887706382E-007
 -3.199999999999999E-003    2.596312451584188E-007
 -3.099999999999999E-003    3.225236800859354E-007
 -2.999999999999999E-003    3.935290322353044E-007
 -2.899999999999999E-003    4.734598568267774E-007
 -2.799999999999999E-003    5.632257953061003E-007
 -2.699999999999999E-003    6.638186530555508E-007
 -2.599999999999999E-003    7.762909371649385E-007
 -2.499999999999999E-003    9.017308052653301E-007
 -2.399999999999999E-003    1.041234574904158E-006
 -2.299999999999999E-003    1.195880799974305E-006
 -2.199999999999999E-003    1.366708456800861E-006
 -2.099999999999999E-003    1.554700923483220E-006
 -1.999999999999999E-003    1.760779098102373E-006
 -1.899999999999999E-003    1.985804270412264E-006
 -1.799999999999999E-003    2.230591992848210E-006
 -1.699999999999999E-003    2.495935177683461E-006
 -1.599999999999999E-003    2.782636405183583E-006
 -1.499999999999999E-003    3.091545094856902E-006
 -1.399999999999999E-003    3.423599802510803E-006
 -1.299999999999999E-003    3.779868538129173E-006
 -1.199999999999999E-003    4.161585853873226E-006
 -1.099999999999999E-003    4.570182401483204E-006
 -9.999999999999989E-004    5.007305474424294E-006
 -8.999999999999990E-004    5.474825792453605E-006
 -7.999999999999990E-004    5.974834840870828E-006
 -6.999999999999989E-004    6.509627230029561E-006
 -5.999999999999990E-004    7.081675791474695E-006
 -4.999999999999989E-004    7.693593442074765E-006
 -3.999999999999989E-004    8.348097970085854E-006
 -2.999999999999989E-004    9.047972356825098E-006
 -1.999999999999989E-004    9.796028896337235E-006
 -9.999999999999892E-005    1.059508301421938E-005
  1.084202172485504E-018    1.144793996159419E-005
  1.000000000000011E-004    1.235739058241162E-005
  2.000000000000011E-004    1.332623010646770E-005
  3.000000000000011E-004    1.435728016700526E-005
  4.000000000000011E-004    1.545343792330163E-005
  5.000000000000011E-004    1.661772217339487E-005
  6.000000000000011E-004    1.785333480053211E-005
  7.000000000000011E-004    1.916371727311435E-005
  8.000000000000011E-004    2.055261475342369E-005
  9.000000000000012E-004    2.202412056291171E-005
  1.000000000000001E-003    2.358271092889877E-005
  1.100000000000001E-003    2.523327903337270E-005
  1.200000000000001E-003    2.698113586486114E-005
  1.300000000000001E-003    2.883200797558636E-005
  1.400000000000001E-003    3.079201538656738E-005
  1.500000000000001E-003    3.286764523309155E-005
  1.600000000000001E-003    3.506570901811780E-005
  1.700000000000001E-003    3.739330549982284E-005
  1.800000000000001E-003    3.985779022645331E-005
  1.900000000000001E-003    4.246674472639515E-005
  2.000000000000001E-003    4.522796293611278E-005
  2.100000000000001E-003    4.814945746476547E-005
  2.200000000000001E-003    5.123946600506256E-005
  2.300000000000001E-003    5.450650564282504E-005
  2.400000000000001E-003    5.795940607481234E-005
  2.500000000000001E-003    6.160738399137640E-005
  2.600000000000001E-003    6.546011735415584E-005
  2.700000000000001E-003    6.952780913895168E-005
  2.800000000000001E-003    7.382128259125795E-005
  2.900000000000001E-003    7.835202965763640E-005
  3.000000000000001E-003    8.313227101602131E-005
  3.100000000000001E-003    8.817501226022338E-005
  3.200000000000001E-003    9.349405219422354E-005
  3.300000000000001E-003    9.910400191237153E-005
  3.400000000000001E-003    1.050202829479068E-004
  3.500000000000001E-003    1.112591118163354E-004
  3.600000000000001E-003    1.178374714416170E-004
  3.700000000000001E-003    1.247730826658623E-004
  3.800000000000001E-003    1.320843900474943E-004
  3.900000000000001E-003    1.397905452290361E-004
  4.000000000000001E-003    1.479113934712760E-004
  4.100000000000001E-003    1.564675153218703E-004
  4.200000000000001E-003    1.654802222243291E-004
  4.300000000000001E-003    1.749716411854861E-004
  4.400000000000001E-003    1.849647651864299E-004
  4.500000000000001E-003    1.954835294477194E-004
  4.600000000000002E-003    2.065528965396676E-004
  4.700000000000001E-003    2.181990173564306E-004
  4.800000000000001E-003    2.304492323694599E-004
  4.900000000000002E-003    2.433322372967597E-004
  5.000000000000001E-003    2.568781437880288E-004
  5.100000000000001E-003    2.711185518572064E-004
  5.200000000000001E-003    2.860866052086895E-004
  5.300000000000002E-003    3.018170296389272E-004
  5.400000000000001E-003    3.183461478670953E-004
  5.500000000000001E-003    3.357119077308954E-004
  5.600000000000002E-003    3.539538634125453E-004
  5.700000000000001E-003    3.731132022235346E-004
  5.800000000000001E-003    3.932326621477613E-004
  5.900000000000002E-003    4.143566653252932E-004
  6.000000000000001E-003    4.365311966709526E-004
  6.100000000000001E-003    4.598038626442187E-004
  6.200000000000002E-003    4.842240483517333E-004
  6.300000000000002E-003    5.098428186414172E-004
  6.400000000000001E-003    5.367130890469324E-004
  6.500000000000001E-003    5.648896994758472E-004
  6.600000000000002E-003    5.944295405427497E-004
  6.700000000000001E-003    6.253916896703772E-004
  6.800000000000001E-003    6.578374779655505E-004
  6.900000000000002E-003    6.918306810202363E-004
  7.000000000000001E-003    7.274376341096643E-004
  7.100000000000001E-003    7.647273591376258E-004
  7.200000000000002E-003    8.037715118600435E-004
  7.300000000000002E-003    8.446446551428181E-004
  7.400000000000001E-003    8.874242256736289E-004
  7.500000000000001E-003    9.321906288055613E-004
  7.600000000000002E-003    9.790272686715715E-004
  7.700000000000001E-003    1.028020512717256E-003
  7.800000000000001E-003    1.079259732731894E-003
  7.900000000000001E-003    1.132837490854354E-003
  8.000000000000002E-003    1.188849304232123E-003
  8.100000000000001E-003    1.247393748540523E-003
  8.200000000000001E-003    1.308572678032735E-003
  8.300000000000002E-003    1.372491156012338E-003
  8.400000000000001E-003    1.439257708134149E-003
  8.500000000000002E-003    1.508983966900915E-003
  8.600000000000002E-003    1.581785391415062E-003
  8.700000000000001E-003    1.657780988694352E-003
  8.800000000000002E-003    1.737093742903267E-003
  8.900000000000002E-003    1.819850492989785E-003
  9.000000000000001E-003    1.906182266497559E-003
  9.100000000000002E-003    1.996224024369951E-003
  9.200000000000002E-003    2.090115514884251E-003
  9.300000000000001E-003    2.188000681383948E-003
  9.400000000000002E-003    2.290028015736401E-003
  9.500000000000001E-003    2.396350627855304E-003
  9.600000000000001E-003    2.507126256386402E-003
  9.700000000000002E-003    2.622517109820102E-003
  9.800000000000001E-003    2.742690552162645E-003
  9.900000000000001E-003    2.867818173860305E-003
  1.000000000000000E-002    2.998076703934733E-003
  1.010000000000000E-002    3.133647318308252E-003
  1.020000000000000E-002    3.274716474484046E-003
  1.030000000000000E-002    3.421474792028976E-003
  1.040000000000000E-002    3.574118430746944E-003
  1.050000000000000E-002    3.732848377096236E-003
  1.060000000000000E-002    3.897870458698860E-003
  1.070000000000000E-002    4.069396201476712E-003
  1.080000000000000E-002    4.247642105617909E-003
  1.090000000000000E-002    4.432830419006912E-003
  1.100000000000000E-002    4.625188400320016E-003
  1.110000000000000E-002    4.824949556492254E-003
  1.120000000000000E-002    5.032352409341913E-003
  1.130000000000000E-002    5.247641975713653E-003
  1.140000000000000E-002    5.471068838567176E-003
  1.150000000000000E-002    5.702888928281394E-003
  1.160000000000000E-002    5.943364069982538E-003
  1.170000000000000E-002    6.192762003430706E-003
  1.180000000000000E-002    6.451356822495955E-003
  1.190000000000000E-002    6.719427125288174E-003
  1.200000000000000E-002    6.997257768771490E-003
  1.210000000000000E-002    7.285138023189811E-003
  1.220000000000000E-002    7.583364779250343E-003
  1.230000000000000E-002    7.892239140750028E-003
  1.240000000000000E-002    8.212067065360601E-003
  1.250000000000000E-002    8.543160860754368E-003
  1.260000000000000E-002    8.885838044638055E-003
  1.270000000000000E-002    9.240420882610251E-003
  1.280000000000000E-002    9.607237346302124E-003
  1.290000000000000E-002    9.986621623226508E-003
  1.300000000000000E-002    1.037891133789615E-002
  1.310000000000000E-002    1.078445030661392E-002
  1.320000000000000E-002    1.120358796869938E-002
  1.330000000000000E-002    1.163667767295475E-002
  1.340000000000000E-002    1.208407875561239E-002
  1.350000000000000E-002    1.254615442293691E-002
  1.360000000000000E-002    1.302327318654101E-002
  1.370000000000000E-002    1.351580604536499E-002
  1.380000000000000E-002    1.402413117286188E-002
  1.390000000000000E-002    1.454862815432807E-002
  1.400000000000000E-002    1.508968205833541E-002
  1.410000000000000E-002    1.564767852633711E-002
  1.420000000000000E-002    1.622300910665526E-002
  1.430000000000000E-002    1.681606855008662E-002
  1.440000000000000E-002    1.742725129330111E-002
  1.450000000000000E-002    1.805695591247799E-002
  1.460000000000000E-002    1.870558382041152E-002
  1.470000000000000E-002    1.937353593058644E-002
  1.480000000000000E-002    2.006121687431188E-002
  1.490000000000000E-002    2.076902988169674E-002
  1.500000000000000E-002    2.149738323102371E-002
  1.510000000000000E-002    2.224668078960003E-002
  1.520000000000000E-002    2.301732789961654E-002
  1.530000000000000E-002    2.380973044290936E-002
  1.540000000000000E-002    2.462429511290506E-002
  1.550000000000000E-002    2.546142470017650E-002
  1.560000000000000E-002    2.632152164968593E-002
  1.570000000000000E-002    2.720498416842193E-002
  1.580000000000000E-002    2.811221031577791E-002
  1.590000000000000E-002    2.904359482394833E-002
  1.600000000000000E-002    2.999952677545098E-002
  1.610000000000000E-002    3.098039169407801E-002
  1.620000000000000E-002    3.198656996783050E-002
  1.630000000000000E-002    3.301843316820033E-002
  1.640000000000000E-002    3.407635309985968E-002
  1.650000000000000E-002    3.516069133114505E-002
  1.660000000000000E-002    3.627180231672326E-002
  1.670000000000000E-002    3.741003063328866E-002
  1.680000000000000E-002    3.857571142593002E-002
  1.690000000000000E-002    3.976917292910900E-002
  1.700000000000000E-002    4.099073130150441E-002
  1.710000000000000E-002    4.224069162002437E-002
  1.720000000000000E-002    4.351934993448114E-002
  1.730000000000000E-002    4.482698609620400E-002
  1.740000000000000E-002    4.616387041105582E-002
  1.750000000000000E-002    4.753025658144828E-002
  1.760000000000000E-002    4.892638212200730E-002
  1.770000000000000E-002    5.035246963487037E-002
  1.780000000000000E-002    5.180872796797023E-002
  1.790000000000000E-002    5.329534400129576E-002
  1.800000000000000E-002    5.481249078514661E-002
  1.810000000000000E-002    5.636032056029603E-002
  1.820000000000000E-002    5.793896158110837E-002
  1.830000000000000E-002    5.954852526414339E-002
  1.840000000000000E-002    6.118909567280158E-002
  1.850000000000000E-002    6.286074202520611E-002
  1.860000000000000E-002    6.456350308153662E-002
  1.870000000000000E-002    6.629739317694222E-002