 -4.000000000000000E-002    0.000000000000000E+000
 -3.990000000000000E-002    0.000000000000000E+000
 -3.980000000000000E-002    0.000000000000000E+000
 -3.970000000000000E-002    0.000000000000000E+000
 -3.960000000000000E-002    0.000000000000000E+000
 -3.950000000000000E-002    0.000000000000000E+000
 -3.940000000000000E-002    0.000000000000000E+000
 -3.930000000000000E-002    0.000000000000000E+000
 -3.920000000000000E-002    0.000000000000000E+000
 -3.910000000000000E-002    0.000000000000000E+000
 -3.900000000000000E-002    0.000000000000000E+000
 -3.890000000000000E-002    0.000000000000000E+000
 -3.880000000000000E-002    0.000000000000000E+000
 -3.870000000000000E-002    0.000000000000000E+000
 -3.860000000000000E-002    0.000000000000000E+000
 -3.850000000000000E-002    0.000000000000000E+000
 -3.840000000000000E-002    0.000000000000000E+000
 -3.830000000000000E-002    0.000000000000000E+000
 -3.820000000000000E-002    0.000000000000000E+000
 -3.810000000000000E-002    0.000000000000000E+000
 -3.800000000000000E-002    0.000000000000000E+000
 -3.790000000000000E-002    0.000000000000000E+000
 -3.780000000000000E-002    0.000000000000000E+000
 -3.770000000000000E-002    0.000000000000000E+000
 -3.760000000000000E-002    0.000000000000000E+000
 -3.750000000000000E-002    0.000000000000000E+000
 -3.740000000000000E-002    0.000000000000000E+000
 -3.730000000000000E-002    0.000000000000000E+000
 -3.720000000000000E-002    0.000000000000000E+000
 -3.710000000000000E-002    0.000000000000000E+000
 -3.700000000000000E-002    0.000000000000000E+000
 -3.690000000000000E-002    0.000000000000000E+000
 -3.680000000000000E-002    0.000000000000000E+000
 -3.670000000000000E-002    0.000000000000000E+000
 -3.660000000000000E-002    0.000000000000000E+000
 -3.650000000000000E-002    0.000000000000000E+000
 -3.640000000000000E-002    0.000000000000000E+000
 -3.630000000000000E-002    0.000000000000000E+000
 -3.620000000000000E-002    0.000000000000000E+000
 -3.610000000000000E-002    0.000000000000000E+000
 -3.600000000000000E-002    0.000000000000000E+000
 -3.590000000000000E-002    0.000000000000000E+000
 -3.580000000000000E-002    0.000000000000000E+000
 -3.570000000000000E-002    0.000000000000000E+000
 -3.560000000000000E-002    0.000000000000000E+000
 -3.550000000000000E-002    0.000000000000000E+000
 -3.540000000000000E-002    0.000000000000000E+000
 -3.530000000000000E-002    0.000000000000000E+000
 -3.520000000000000E-002    0.000000000000000E+000
 -3.510000000000000E-002    0.000000000000000E+000
 -3.500000000000000E-002    0.000000000000000E+000
 -3.490000000000000E-002    0.000000000000000E+000
 -3.480000000000000E-002    0.000000000000000E+000
 -3.470000000000000E-002    0.000000000000000E+000
 -3.460000000000000E-002    0.000000000000000E+000
 -3.450000000000000E-002    0.000000000000000E+000
 -3.440000000000000E-002    0.000000000000000E+000
 -3.430000000000000E-002    0.000000000000000E+000
 -3.420000000000000E-002    0.000000000000000E+000
 -3.410000000000000E-002    0.000000000000000E+000
 -3.400000000000000E-002    0.000000000000000E+000
 -3.390000000000000E-002    0.000000000000000E+000
 -3.380000000000000E-002    0.000000000000000E+000
 -3.370000000000000E-002    0.000000000000000E+000
 -3.360000000000000E-002    0.000000000000000E+000
 -3.350000000000000E-002    0.000000000000000E+000
 -3.340000000000000E-002    0.000000000000000E+000
 -3.330000000000000E-002    0.000000000000000E+000
 -3.320000000000000E-002    0.000000000000000E+000
 -3.310000000000000E-002    0.000000000000000E+000
 -3.300000000000000E-002    0.000000000000000E+000
 -3.290000000000000E-002    0.000000000000000E+000
 -3.280000000000000E-002    0.000000000000000E+000
 -3.270000000000000E-002    0.000000000000000E+000
 -3.260000000000000E-002    0.000000000000000E+000
 -3.250000000000000E-002    0.000000000000000E+000
 -3.240000000000000E-002    0.000000000000000E+000
 -3.230000000000000E-002    0.000000000000000E+000
 -3.220000000000000E-002    0.000000000000000E+000
 -3.210000000000000E-002    0.000000000000000E+000
 -3.200000000000000E-002    0.000000000000000E+000
 -3.190000000000000E-002    0.000000000000000E+000
 -3.180000000000000E-002    0.000000000000000E+000
 -3.170000000000000E-002    0.000000000000000E+000
 -3.160000000000000E-002    0.000000000000000E+000
 -3.150000000000000E-002    0.000000000000000E+000
 -3.140000000000000E-002    0.000000000000000E+000
 -3.130000000000000E-002    0.000000000000000E+000
 -3.120000000000000E-002    0.000000000000000E+000
 -3.110000000000000E-002    0.000000000000000E+000
 -3.100000000000000E-002    0.000000000000000E+000
 -3.090000000000000E-002    0.000000000000000E+000
 -3.080000000000000E-002    0.000000000000000E+000
 -3.070000000000000E-002    0.000000000000000E+000
 -3.060000000000000E-002    0.000000000000000E+000
 -3.050000000000000E-002    0.000000000000000E+000
 -3.040000000000000E-002    0.000000000000000E+000
 -3.030000000000000E-002    0.000000000000000E+000
 -3.020000000000000E-002    0.000000000000000E+000
 -3.010000000000000E-002    0.000000000000000E+000
 -3.000000000000000E-002    0.000000000000000E+000
 -2.990000000000000E-002    0.000000000000000E+000
 -2.980000000000000E-002    0.000000000000000E+000
 -2.970000000000000E-002    0.000000000000000E+000
 -2.960000000000000E-002    0.000000000000000E+000
 -2.950000000000000E-002    0.000000000000000E+000
 -2.940000000000000E-002    0.000000000000000E+000
 -2.930000000000000E-002    0.000000000000000E+000
 -2.920000000000000E-002    0.000000000000000E+000
 -2.910000000000000E-002    0.000000000000000E+000
 -2.900000000000000E-002    0.000000000000000E+000
 -2.890000000000000E-002    0.000000000000000E+000
 -2.880000000000000E-002    0.000000000000000E+000
 -2.870000000000000E-002    0.000000000000000E+000
 -2.860000000000000E-002    0.000000000000000E+000
 -2.850000000000000E-002    0.000000000000000E+000
 -2.840000000000000E-002    0.000000000000000E+000
 -2.830000000000000E-002    5.307976233208333E-048
 -2.820000000000000E-002   -2.544152546638624E-048
 -2.810000000000000E-002   -5.088305093277248E-048
 -2.800000000000000E-002   -7.632457639915872E-048
 -2.790000000000000E-002   -4.868633953346163E-048
 -2.780000000000000E-002    1.590906894651858E-047
 -2.770000000000000E-002    5.933698558572573E-048
 -2.760000000000000E-002    8.675540178463584E-048
 -2.750000000000000E-002    3.234741604621614E-047
 -2.740000000000000E-002    3.502663472453321E-047
 -2.730000000000000E-002   -1.180029312280375E-046
 -2.720000000000000E-002   -2.684831723496702E-046
 -2.710000000000000E-002   -5.201094893932399E-046
 -2.700000000000000E-002   -7.393204468738489E-046
 -2.690000000000000E-002   -1.117478722762021E-045
 -2.680000000000000E-002   -1.362665960672346E-045
 -2.670000000000000E-002   -2.348756235103105E-045
 -2.660000000000000E-002   -2.944417921801794E-045
 -2.650000000000000E-002   -3.320764873935808E-045
 -2.640000000000000E-002   -3.788242498036749E-045
 -2.630000000000000E-002   -2.325102310740621E-045
 -2.620000000000000E-002   -1.027006836730088E-046
 -2.610000000000000E-002    3.993147400480556E-045
 -2.600000000000000E-002    1.075208209312724E-044
 -2.590000000000000E-002    2.083929068978681E-044
 -2.580000000000000E-002    3.378307346024406E-044
 -2.570000000000000E-002    4.960265627530671E-044
 -2.560000000000000E-002    6.849896551734202E-044
 -2.550000000000000E-002    8.717638359885531E-044
 -2.540000000000000E-002    1.002820381731295E-043
 -2.530000000000000E-002    1.013822227941829E-043
 -2.520000000000000E-002    8.077958612149078E-044
 -2.510000000000000E-002    2.649075096416118E-044
 -2.500000000000000E-002   -7.630447443450548E-044
 -2.490000000000000E-002   -2.423819593721188E-043
 -2.480000000000000E-002   -4.834611207128280E-043
 -2.470000000000000E-002   -8.048432751517341E-043
 -2.460000000000000E-002   -1.196821517123863E-042
 -2.450000000000000E-002   -1.627453453529375E-042
 -2.440000000000000E-002   -2.033584464405997E-042
 -2.430000000000000E-002   -2.309713634611462E-042
 -2.420000000000000E-002   -2.304130912472538E-042
 -2.410000000000000E-002   -1.813266397710313E-042
 -2.400000000000000E-002   -5.951262979593444E-043
 -2.390000000000000E-002    1.615603651575924E-042
 -2.380000000000000E-002    5.059504599269346E-042
 -2.370000000000000E-002    9.889798798975100E-042
 -2.360000000000000E-002    1.608121490302457E-041
 -2.350000000000000E-002    2.331282433983376E-041
 -2.340000000000000E-002    3.083251738189181E-041
 -2.330000000000000E-002    3.732362260708262E-041
 -2.320000000000000E-002    4.079519637636456E-041
 -2.310000000000000E-002    3.853902910201217E-041
 -2.300000000000000E-002    2.720381538611809E-041
 -2.290000000000000E-002    3.048470515150536E-042
 -2.280000000000000E-002   -3.756582808796461E-041
 -2.270000000000000E-002   -9.737845617707825E-041
 -2.260000000000000E-002   -1.771101359384280E-040
 -2.250000000000000E-002   -2.740300338016191E-040
 -2.240000000000000E-002   -3.802962120716679E-040
 -2.230000000000000E-002   -4.812681950382536E-040
 -2.220000000000000E-002   -5.540949596429003E-040
 -2.210000000000000E-002   -5.670421877964234E-040
 -2.200000000000000E-002   -4.801369229848066E-040
 -2.190000000000000E-002   -2.478191781090108E-040
 -2.180000000000000E-002    1.756849325160481E-040
 -2.170000000000000E-002    8.276639366403205E-040
 -2.160000000000000E-002    1.724556816574543E-039
 -2.150000000000000E-002    2.846117020440557E-039
 -2.140000000000000E-002    4.117054477975731E-039
 -2.130000000000000E-002    5.388184497949419E-039
 -2.120000000000000E-002    6.420384333421994E-039
 -2.110000000000000E-002    6.876100161103642E-039
 -2.100000000000000E-002    6.324440348042255E-039
 -2.090000000000000E-002    4.266887784036583E-039
 -2.080000000000000E-002    1.908200400990322E-040
 -2.070000000000000E-002   -6.343098098465601E-039
 -2.060000000000000E-002   -1.557626757330967E-038
 -2.050000000000000E-002   -2.739225880364777E-038
 -2.040000000000000E-002   -4.113090993524170E-038
 -2.030000000000000E-002   -5.539614275379232E-038
 -2.020000000000000E-002   -6.788917820481032E-038
 -2.010000000000000E-002   -7.531213344409128E-038
 -2.000000000000000E-002   -7.339907537737007E-038
 -1.990000000000000E-002   -5.714006065163340E-038
 -1.980000000000000E-002   -2.126490562499492E-038
 -1.970000000000000E-002    3.895687858215167E-038
 -1.960000000000000E-002    1.265698661614476E-037
 -1.950000000000000E-002    2.414558788483929E-037
 -1.940000000000000E-002    3.786082442939667E-037
 -1.930000000000000E-002    5.263295425191190E-037
 -1.920000000000000E-002    6.646292249948751E-037
 -1.910000000000000E-002    7.642090013937207E-037
 -1.900000000000000E-002    7.865269228684635E-037
 -1.890000000000000E-002    6.854996817754407E-037
 -1.880000000000000E-002    4.114124866922746E-037
 -1.870000000000000E-002   -8.248787024902301E-038
 -1.860000000000000E-002   -8.304446051720362E-037
 -1.850000000000000E-002   -1.841797836676989E-036
 -1.840000000000000E-002   -3.086397986614346E-036
 -1.830000000000000E-002   -4.479163424484268E-036
 -1.820000000000000E-002   -5.865977984929820E-036
 -1.810000000000000E-002   -7.013961419084251E-036
 -1.800000000000000E-002   -7.609950561506239E-036
 -1.790000000000000E-002   -7.271550863672356E-036
 -1.780000000000000E-002   -5.575167614757603E-036
 -1.770000000000000E-002   -2.104763263769641E-036
 -1.760000000000000E-002    3.476521295526916E-036
 -1.750000000000000E-002    1.133245773833961E-035
 -1.740000000000000E-002    2.134214398668074E-035
 -1.730000000000000E-002    3.298035552111861E-035
 -1.720000000000000E-002    4.520538918283651E-035
 -1.710000000000000E-002    5.637616139283856E-035
 -1.700000000000000E-002    6.422582188597477E-035
 -1.690000000000000E-002    6.592267991497915E-035
 -1.680000000000000E-002    5.824960724387625E-035
 -1.670000000000000E-002    3.792856802261559E-035
 -1.660000000000000E-002    2.105498647598822E-036
 -1.650000000000000E-002   -5.100699563720591E-035
 -1.640000000000000E-002   -1.213592171459588E-034
 -1.630000000000000E-002   -2.062288957721724E-034
 -1.620000000000000E-002   -2.994228540558251E-034
 -1.610000000000000E-002   -3.906573291300820E-034
 -1.600000000000000E-002   -4.652936952535408E-034
 -1.590000000000000E-002   -5.046285886850565E-034
 -1.580000000000000E-002   -4.869382459786288E-034
 -1.570000000000000E-002   -3.894464036359499E-034
 -1.560000000000000E-002   -1.913157898961086E-034
 -1.550000000000000E-002    1.223535313236627E-034
 -1.540000000000000E-002    5.556988907102658E-034
 -1.530000000000000E-002    1.096827144534187E-033
 -1.520000000000000E-002    1.712719807546664E-033
 -1.510000000000000E-002    2.345163786315875E-033
 -1.500000000000000E-002    2.908760291049008E-033
 -1.490000000000000E-002    3.292185843778933E-033
 -1.480000000000000E-002    3.363876856214566E-033
 -1.470000000000000E-002    2.983116670452388E-033
 -1.460000000000000E-002    2.017085167112661E-033
 -1.450000000000000E-002    3.637537549412852E-034
 -1.440000000000000E-002   -2.020411915339318E-033
 -1.430000000000000E-002   -5.090165173064632E-033
 -1.420000000000000E-002   -8.682066644397691E-033
 -1.410000000000000E-002   -1.249073631253455E-032
 -1.400000000000000E-002   -1.605656269045768E-032
 -1.390000000000000E-002   -1.877130610817435E-032
 -1.380000000000000E-002   -1.990786670552310E-032
 -1.370000000000000E-002   -1.867938059985465E-032
 -1.360000000000000E-002   -1.433045524847641E-032
 -1.350000000000000E-002   -6.259565020827354E-033
 -1.340000000000000E-002    5.833170019590183E-033
 -1.330000000000000E-002    2.178494277240577E-032
 -1.320000000000000E-002    4.081442985157179E-032
 -1.310000000000000E-002    6.139623301307928E-032
 -1.300000000000000E-002    8.119566270602102E-032
 -1.290000000000000E-002    9.709650662894403E-032
 -1.280000000000000E-002    1.053532835863254E-031
 -1.270000000000000E-002    1.018927088013941E-031
 -1.260000000000000E-002    8.277724802626956E-032
 -1.250000000000000E-002    4.482352720231657E-032
 -1.240000000000000E-002   -1.365592568648935E-032
 -1.230000000000000E-002   -9.204956034485307E-032
 -1.220000000000000E-002   -1.866761202375492E-031
 -1.210000000000000E-002   -2.901702175509776E-031
 -1.200000000000000E-002   -3.911706762835687E-031
 -1.190000000000000E-002   -4.744684047406899E-031
 -1.180000000000000E-002   -5.217604552704069E-031
 -1.170000000000000E-002   -5.131235614116911E-031
 -1.160000000000000E-002   -4.292568306035106E-031
 -1.150000000000000E-002   -2.544496260038397E-031
 -1.140000000000000E-002    1.988593629110409E-032
 -1.130000000000000E-002    3.914232085525905E-031
 -1.120000000000000E-002    8.433155481070402E-031
 -1.110000000000000E-002    1.341356799249765E-030
 -1.100000000000000E-002    1.832584602821224E-030
 -1.090000000000000E-002    2.246031430416318E-030
 -1.080000000000000E-002    2.496275184722005E-030
 -1.070000000000000E-002    2.490271960270157E-030
 -1.060000000000000E-002    2.137648272266092E-030
 -1.050000000000000E-002    1.364212390896135E-030
 -1.040000000000000E-002    1.279098187840076E-031
 -1.030000000000000E-002   -1.564178238626579E-030
 -1.020000000000000E-002   -3.639795360792449E-030
 -1.010000000000000E-002   -5.948996598737911E-030
 -1.000000000000000E-002   -8.258090347211640E-030
 -9.899999999999999E-003   -1.025306556172631E-029
 -9.800000000000000E-003   -1.155520475372146E-029
 -9.699999999999999E-003   -1.175083210123649E-029
 -9.599999999999999E-003   -1.043578856844519E-029
 -9.500000000000000E-003   -7.273418445765729E-030
 -9.399999999999999E-003   -2.062596475395432E-030
 -9.299999999999999E-003    5.190225862471349E-030
 -9.200000000000000E-003    1.420345447629221E-029
 -9.099999999999999E-003    2.436790173047415E-029
 -8.999999999999999E-003    3.472145754014296E-029
 -8.900000000000000E-003    4.396304107261354E-029
 -8.799999999999999E-003    5.051643417076497E-029
 -8.699999999999999E-003    5.265136217460555E-029
 -8.600000000000000E-003    4.866344225150139E-029
 -8.499999999999999E-003    3.710755443930420E-029
 -8.399999999999999E-003    1.706984352236631E-029
 -8.300000000000000E-003   -1.154581380699816E-029
 -8.199999999999999E-003   -4.775089457429953E-029
 -8.100000000000000E-003   -8.926616553529059E-029
 -8.000000000000000E-003   -1.324227382001211E-028
 -7.899999999999999E-003   -1.722159210757674E-028
 -7.800000000000000E-003   -2.025506190137427E-028
 -7.699999999999999E-003   -2.167040042095102E-028
 -7.599999999999999E-003   -2.080083572025525E-028
 -7.499999999999999E-003   -1.707301703903194E-028
 -7.399999999999999E-003   -1.010869501453268E-028
 -7.299999999999999E-003    1.691478932899809E-030
 -7.199999999999999E-003    1.343841538639082E-028
 -7.100000000000000E-003    2.890352112051878E-028
 -6.999999999999999E-003    4.526112749334843E-028
 -6.899999999999999E-003    6.072200453618659E-028
 -6.800000000000000E-003    7.310227866915567E-028
 -6.699999999999999E-003    7.999175722419333E-028
 -6.599999999999999E-003    7.899935541392301E-028
 -6.499999999999999E-003    6.806477169775571E-028
 -6.399999999999999E-003    4.581455024409407E-028
 -6.299999999999999E-003    1.192802452390750E-028
 -6.199999999999999E-003   -3.253214090911945E-028
 -6.100000000000000E-003   -8.487789417435527E-028
 -5.999999999999999E-003   -1.406985935994532E-027
 -5.899999999999999E-003   -1.939610990260861E-027
 -5.800000000000000E-003   -2.373482844284020E-027
 -5.699999999999999E-003   -2.628563470949941E-027
 -5.599999999999999E-003   -2.626433289522330E-027
 -5.499999999999999E-003   -2.300843490520589E-027
 -5.399999999999999E-003   -1.609513701892653E-027
 -5.299999999999999E-003   -5.459477158312475E-028
 -5.199999999999999E-003    8.502855613597995E-028
 -5.099999999999999E-003    2.486579318985710E-027
 -4.999999999999999E-003    4.215435895680996E-027
 -4.899999999999999E-003    5.839352916228940E-027
 -4.799999999999999E-003    7.123604765332617E-027
 -4.699999999999999E-003    7.817331432782649E-027
 -4.599999999999999E-003    7.682353956517383E-027
 -4.499999999999999E-003    6.527940125744855E-027
 -4.399999999999999E-003    4.248486845591028E-027
 -4.299999999999999E-003    8.598607486532471E-028
 -4.199999999999999E-003   -3.470812244975069E-027
 -4.099999999999999E-003   -8.407627466789364E-027
 -3.999999999999999E-003   -1.344628957880910E-026
 -3.899999999999999E-003   -1.793712203005015E-026
 -3.799999999999999E-003   -2.113368951485074E-026
 -3.699999999999999E-003   -2.226739405620552E-026
 -3.599999999999999E-003   -2.064494631012116E-026
 -3.499999999999999E-003   -1.576192922158755E-026
 -3.399999999999999E-003   -7.421430686195164E-027
 -3.299999999999999E-003    4.156600694267022E-027
 -3.199999999999999E-003    1.825251808471747E-026
 -3.099999999999999E-003    3.360866333187199E-026
 -2.999999999999999E-003    4.845285875588512E-026
 -2.899999999999999E-003    6.059693139656308E-026
 -2.799999999999999E-003    6.761743873935437E-026
 -2.699999999999999E-003    6.711682111879468E-026
 -2.599999999999999E-003    5.705167210103682E-026
 -2.499999999999999E-003    3.610302525900907E-026
 -2.399999999999999E-003    4.050931402053959E-027
 -2.299999999999999E-003   -3.789461306335683E-026
 -2.199999999999999E-003   -8.686165461209695E-026
 -2.099999999999999E-003   -1.382397957919738E-025
 -1.999999999999999E-003   -1.858104222450398E-025
 -1.899999999999999E-003   -2.221221411558177E-025
 -1.799999999999999E-003   -2.391269388933551E-025
 -1.699999999999999E-003   -2.290645909083339E-025
 -1.599999999999999E-003   -1.855461964609607E-025
 -1.499999999999999E-003   -1.047500618821987E-025
 -1.399999999999999E-003    1.339295026756901E-026
 -1.299999999999999E-003    1.641795424047882E-025
 -1.199999999999999E-003    3.374510609357563E-025
 -1.099999999999999E-003    5.174219921978075E-025
 -9.999999999999989E-004    6.831723114072953E-025
 -8.999999999999990E-004    8.099127427128291E-025
 -7.999999999999990E-004    8.710617713626428E-025
 -6.999999999999989E-004    8.410800355594251E-025
 -5.999999999999990E-004    6.989021395327389E-025
 -4.999999999999989E-004    4.316912754671190E-025
 -3.999999999999989E-004    3.853129583756387E-026
 -2.999999999999989E-004   -4.664109944815664E-025
 -1.999999999999989E-004   -1.051773952375689E-024
 -9.999999999999892E-005   -1.668454213823714E-024
  1.084202172485504E-018   -2.251074747336641E-024
  1.000000000000011E-004   -2.721777662175097E-024
  2.000000000000011E-004   -2.996442345383002E-024
  3.000000000000011E-004   -2.993163688019710E-024
  4.000000000000011E-004   -2.642501253529566E-024
  5.000000000000011E-004   -1.898695463017765E-024
  6.000000000000011E-004   -7.507351545495934E-025
  7.000000000000011E-004    7.680796602157895E-025
  8.000000000000011E-004    2.573564803332266E-024
  9.000000000000012E-004    4.528534525081268E-024
  1.000000000000001E-003    6.446411857127409E-024
  1.100000000000001E-003    8.101427945125735E-024
  1.200000000000001E-003    9.245711799007369E-024
  1.300000000000001E-003    9.632788585399029E-024
  1.400000000000001E-003    9.046157959297928E-024
  1.500000000000001E-003    7.330738848625711E-024
  1.600000000000001E-003    4.424128022080609E-024
  1.700000000000001E-003    3.839929017135885E-025
  1.800000000000001E-003   -4.592412018929461E-024
  1.900000000000001E-003   -1.016056038776589E-023
  2.000000000000001E-003   -1.583620879855112E-023
  2.100000000000001E-003   -2.102049360034484E-023
  2.200000000000001E-003   -2.504340678948689E-023
  2.300000000000001E-003   -2.722436166705283E-023
  2.400000000000001E-003   -2.694646369156294E-023
  2.500000000000001E-003   -2.373867140251220E-023
  2.600000000000001E-003   -1.735804427039764E-023
  2.700000000000001E-003   -7.862603839724205E-024
  2.800000000000001E-003    4.335412059158641E-024
  2.900000000000001E-003    1.844596558098603E-023
  3.000000000000001E-003    3.331579619086931E-023
  3.100000000000001E-003    4.748702682341415E-023
  3.200000000000001E-003    5.930157690618822E-023
  3.300000000000001E-003    6.704827724244648E-023
  3.400000000000001E-003    6.914399727862684E-023
  3.500000000000001E-003    6.433442074713839E-023
  3.600000000000001E-003    5.189513594603623E-023
  3.700000000000001E-003    3.180998512462761E-023
  3.800000000000001E-003    4.901862935857136E-024
  3.900000000000001E-003   -2.710794688192674E-023
  4.000000000000001E-003   -6.163200944860568E-023
  4.100000000000001E-003   -9.535362595095277E-023
  4.200000000000001E-003   -1.244717911834809E-022
  4.300000000000001E-003   -1.450456446246583E-022
  4.400000000000001E-003   -1.534164360885609E-022
  4.500000000000001E-003   -1.466720658947405E-022
  4.600000000000002E-003   -1.231078776034182E-022
  4.700000000000001E-003   -8.262929600754198E-023
  4.800000000000001E-003   -2.703872602721099E-023
  4.900000000000002E-003    3.984740535118387E-023
  5.000000000000001E-003    1.122957727003539E-022
  5.100000000000001E-003    1.829941605490238E-022
  5.200000000000001E-003    2.436332322244149E-022
  5.300000000000002E-003    2.857075698034181E-022
  5.400000000000001E-003    3.014793616803842E-022
  5.500000000000001E-003    2.850202970283712E-022
  5.600000000000002E-003    2.332213949645873E-022
  5.700000000000001E-003    1.466448648309842E-022
  5.800000000000001E-003    3.008810224654282E-023
  5.900000000000002E-003   -1.072588146983163E-022
  6.000000000000001E-003   -2.521545256579135E-022
  6.100000000000001E-003   -3.881955945650888E-022
  6.200000000000002E-003   -4.972447426211671E-022
  6.300000000000002E-003   -5.613256283293132E-022
  6.400000000000001E-003   -5.648390441444097E-022
  6.500000000000001E-003   -4.968938076377806E-022
  6.600000000000002E-003   -3.534908181406750E-022
  6.700000000000001E-003   -1.392706882224071E-022
  6.800000000000001E-003    1.314658068185626E-022
  6.900000000000002E-003    4.347228675975247E-022
  7.000000000000001E-003    7.379456794922301E-022
  7.100000000000001E-003    1.002408932439618E-021
  7.200000000000002E-003    1.186802471397073E-021
  7.300000000000002E-003    1.251804524259208E-021
  7.400000000000001E-003    1.165280826645438E-021
  7.500000000000001E-003    9.075987477570175E-022
  7.600000000000002E-003    4.764431101939418E-022
  7.700000000000001E-003   -1.095359640700130E-022
  7.800000000000001E-003   -8.088995626293328E-022
  7.900000000000001E-003   -1.557979809553147E-021
  8.000000000000002E-003   -2.274204777287297E-021
  8.100000000000001E-003   -2.862315356383727E-021
  8.200000000000001E-003   -3.223278103238219E-021
  8.300000000000002E-003   -3.265354542409028E-021
  8.400000000000001E-003   -2.916422114037184E-021
  8.500000000000002E-003   -2.136342044632691E-021
  8.600000000000002E-003   -9.279288658143565E-022
  8.700000000000001E-003    6.550087969281343E-022
  8.800000000000002E-003    2.504043727880451E-021
  8.900000000000002E-003    4.458156825861728E-021
  9.000000000000001E-003    6.312219010746676E-021
  9.100000000000002E-003    7.832149091631637E-021
  9.200000000000002E-003    8.776219819545386E-021
  9.300000000000001E-003    8.921199300187263E-021
  9.400000000000002E-003    8.091227144159937E-021
  9.500000000000001E-003    6.186620040267035E-021
  9.600000000000001E-003    3.209347030103447E-021
  9.700000000000002E-003   -7.183307060194488E-022
  9.800000000000001E-003   -5.345347058218666E-021
  9.900000000000001E-003   -1.029621564618566E-020
  1.000000000000000E-002   -1.509010495758682E-020
  1.010000000000000E-002   -1.917500058567546E-020
  1.020000000000000E-002   -2.197583091596906E-020
  1.030000000000000E-002   -2.295357838637780E-020
  1.040000000000000E-002   -2.167071150858002E-020
  1.050000000000000E-002   -1.785679859759295E-020
  1.060000000000000E-002   -1.146704234107166E-020
  1.070000000000000E-002   -2.726135393450255E-021
  1.080000000000000E-002    7.849917422684915E-021
  1.090000000000000E-002    1.946000906346038E-020
  1.100000000000000E-002    3.105623974608946E-020
  1.110000000000000E-002    4.141534490742932E-020
  1.120000000000000E-002    4.924091888754253E-020
  1.130000000000000E-002    5.329030422083120E-020
  1.140000000000000E-002    5.251631296625232E-020
  1.150000000000000E-002    4.621083500631321E-020
  1.160000000000000E-002    3.413494672876336E-020
  1.170000000000000E-002    1.661937123838929E-020
  1.180000000000000E-002   -5.380287255417265E-021
  1.190000000000000E-002   -3.028661509406505E-020
  1.200000000000000E-002   -5.597050173938171E-020
  1.210000000000000E-002   -7.989118862704277E-020
  1.220000000000000E-002   -9.930181876135777E-020
  1.230000000000000E-002   -1.115086334350339E-019
  1.240000000000000E-002   -1.141638373705056E-019
  1.250000000000000E-002   -1.055659445197164E-019
  1.260000000000000E-002   -8.493647611799499E-020
  1.270000000000000E-002   -5.263969496532779E-020
  1.280000000000000E-002   -1.031336836056958E-020
  1.290000000000000E-002    3.911662820557720E-020
  1.300000000000000E-002    9.155666631528138E-020
  1.310000000000000E-002    1.420074977572494E-019
  1.320000000000000E-002    1.849607787178412E-019
  1.330000000000000E-002    2.149072371183256E-019
  1.340000000000000E-002    2.269181366332015E-019
  1.350000000000000E-002    2.172483581895858E-019
  1.360000000000000E-002    1.838998486023332E-019
  1.370000000000000E-002    1.270792216100779E-019
  1.380000000000000E-002    4.948581045294679E-020
  1.390000000000000E-002   -4.362491205464554E-020
  1.400000000000000E-002   -1.446409637496047E-019
  1.410000000000000E-002   -2.440719519051400E-019
  1.420000000000000E-002   -3.312941713878563E-019
  1.430000000000000E-002   -3.955198949760107E-019
  1.440000000000000E-002   -4.269181897201108E-019
  1.450000000000000E-002   -4.177890335363701E-019
  1.460000000000000E-002   -3.636722079156121E-019
  1.470000000000000E-002   -2.642632069711645E-019
  1.480000000000000E-002   -1.240116369934910E-019
  1.490000000000000E-002    4.770532736868164E-020
  1.500000000000000E-002    2.369112390091208E-019
  1.510000000000000E-002    4.258950030797445E-019
  1.520000000000000E-002    5.945904591432252E-019
  1.530000000000000E-002    7.223953764681476E-019
  1.540000000000000E-002    7.902943318086589E-019
  1.550000000000000E-002    7.830985249777652E-019
  1.560000000000000E-002    6.915803340021368E-019
  1.570000000000000E-002    5.142588334359807E-019
  1.580000000000000E-002    2.585983146778598E-019
  1.590000000000000E-002   -5.858739461981565E-020
  1.600000000000000E-002   -4.116751384404221E-019
  1.610000000000000E-002   -7.677862312945232E-019
  1.620000000000000E-002   -1.089323477083439E-018
  1.630000000000000E-002   -1.337351848587910E-018
  1.640000000000000E-002   -1.475574920793498E-018
  1.650000000000000E-002   -1.474559327670604E-018
  1.660000000000000E-002   -1.315791760722429E-018
  1.670000000000000E-002   -9.951107512484935E-019
  1.680000000000000E-002   -5.250630156472409E-019
  1.690000000000000E-002    6.420891443110512E-020
  1.700000000000000E-002    7.258373818103511E-019
  1.710000000000000E-002    1.399001631082343E-018
  1.720000000000000E-002    2.013553341131585E-018
  1.730000000000000E-002    2.496248555308967E-018
  1.740000000000000E-002    2.778134774390674E-018
  1.750000000000000E-002    2.802455856516587E-018
  1.760000000000000E-002    2.532303875899108E-018
  1.770000000000000E-002    1.957164486751070E-018
  1.780000000000000E-002    1.097518757436393E-018
  1.790000000000000E-002    6.754040382990278E-021
  1.800000000000000E-002   -1.230173720423586E-018
  1.810000000000000E-002   -2.501603957049416E-018
  1.820000000000000E-002   -3.677509470312749E-018
  1.830000000000000E-002   -4.620874583945365E-018
  1.840000000000000E-002   -5.201299007718430E-018
  1.850000000000000E-002   -5.309676816184072E-018
  1.860000000000000E-002   -4.872529995803703E-018
  1.870000000000000E-002   -3.864428320290468E-018