 -4.000000000000000E-002    0.000000000000000E+000
 -3.990000000000000E-002    0.000000000000000E+000
 -3.980000000000000E-002    0.000000000000000E+000
 -3.970000000000000E-002    0.000000000000000E+000
 -3.960000000000000E-002    0.000000000000000E+000
 -3.950000000000000E-002    0.000000000000000E+000
 -3.940000000000000E-002    0.000000000000000E+000
 -3.930000000000000E-002    0.000000000000000E+000
 -3.920000000000000E-002    0.000000000000000E+000
 -3.910000000000000E-002    0.000000000000000E+000
 -3.900000000000000E-002    0.000000000000000E+000
 -3.890000000000000E-002    0.000000000000000E+000
 -3.880000000000000E-002    2.203854220947788E-040
 -3.870000000000000E-002    5.664012693985278E-039
 -3.860000000000000E-002    7.501858448752191E-038
 -3.850000000000000E-002    6.815201638912668E-037
 -3.840000000000000E-002    4.769566026757662E-036
 -3.830000000000000E-002    2.738538777493000E-035
 -3.820000000000000E-002    1.341858845943946E-034
 -3.810000000000000E-002    5.763403602741431E-034
 -3.800000000000000E-002    2.212107952308130E-033
 -3.790000000000000E-002    7.697597410901598E-033
 -3.780000000000000E-002    2.455487292274617E-032
 -3.770000000000000E-002    7.243051317348501E-032
 -3.760000000000000E-002    1.989212699939349E-031
 -3.750000000000000E-002    5.114010503761975E-031
 -3.740000000000000E-002    1.235898096323523E-030
 -3.730000000000000E-002    2.816416952092631E-030
 -3.720000000000000E-002    6.064691778218884E-030
 -3.710000000000000E-002    1.235226300455493E-029
 -3.700000000000000E-002    2.378887055523992E-029
 -3.690000000000000E-002    4.323125198247569E-029
 -3.680000000000000E-002    7.378624843532465E-029
 -3.670000000000000E-002    1.171851016618986E-028
 -3.660000000000000E-002    1.700003047691937E-028
 -3.650000000000000E-002    2.161812619385880E-028
 -3.640000000000000E-002    2.139122268348744E-028
 -3.630000000000000E-002    7.458039307353311E-029
 -3.620000000000000E-002   -3.678765752129229E-028
 -3.610000000000000E-002   -1.397170160747421E-027
 -3.600000000000000E-002   -3.460330788668908E-027
 -3.590000000000000E-002   -7.207466887443691E-027
 -3.580000000000000E-002   -1.350286464321492E-026
 -3.570000000000000E-002   -2.336846583640851E-026
 -3.560000000000000E-002   -3.780063934194742E-026
 -3.550000000000000E-002   -5.737878944135359E-026
 -3.540000000000000E-002   -8.156632710153097E-026
 -3.530000000000000E-002   -1.075981245817459E-025
 -3.520000000000000E-002   -1.288685048667152E-025
 -3.510000000000000E-002   -1.327990731166833E-025
 -3.500000000000000E-002   -9.829347940806442E-026
 -3.490000000000000E-002    6.895118726596027E-027
 -3.480000000000000E-002    2.282392661915156E-025
 -3.470000000000000E-002    6.248844331895723E-025
 -3.460000000000000E-002    1.266881465881901E-024
 -3.450000000000000E-002    2.227090256195152E-024
 -3.440000000000000E-002    3.565185254041234E-024
 -3.430000000000000E-002    5.301002891696873E-024
 -3.420000000000000E-002    7.374788760168971E-024
 -3.410000000000000E-002    9.593071540089706E-024
 -3.400000000000000E-002    1.156108998594947E-023
 -3.390000000000000E-002    1.260656347926473E-023
 -3.380000000000000E-002    1.170493911293433E-023
 -3.370000000000000E-002    7.423401068247289E-024
 -3.360000000000000E-002   -2.090430816362264E-024
 -3.350000000000000E-002   -1.904072297232855E-023
 -3.340000000000000E-002   -4.579383297829919E-023
 -3.330000000000000E-002   -8.452089050962003E-023
 -3.320000000000000E-002   -1.366280699774508E-022
 -3.310000000000000E-002   -2.019434679741955E-022
 -3.300000000000000E-002   -2.776579432185234E-022
 -3.290000000000000E-002   -3.570607776272364E-022
 -3.280000000000000E-002   -4.281794853798107E-022
 -3.270000000000000E-002   -4.725152722977885E-022
 -3.260000000000000E-002   -4.641696655062702E-022
 -3.250000000000000E-002   -3.697569573628223E-022
 -3.240000000000000E-002   -1.495952461427882E-022
 -3.230000000000000E-002    2.392896338491229E-022
 -3.220000000000000E-002    8.378176677320153E-022
 -3.210000000000000E-002    1.676768658946154E-021
 -3.200000000000000E-002    2.765814567294443E-021
 -3.190000000000000E-002    4.079968305616132E-021
 -3.180000000000000E-002    5.544342328121571E-021
 -3.170000000000000E-002    7.018899034842352E-021
 -3.160000000000000E-002    8.285730074097530E-021
 -3.150000000000000E-002    9.042304555831364E-021
 -3.140000000000000E-002    8.904828237058052E-021
 -3.130000000000000E-002    7.426226664382573E-021
 -3.120000000000000E-002    4.133058149673747E-021
 -3.110000000000000E-002   -1.415478366682264E-021
 -3.100000000000000E-002   -9.545403177459862E-021
 -3.090000000000000E-002   -2.036505749397947E-020
 -3.080000000000000E-002   -3.364826491432964E-020
 -3.070000000000000E-002   -4.871594046623569E-020
 -3.060000000000000E-002   -6.433433405969288E-020
 -3.050000000000000E-002   -7.865364302845766E-020
 -3.040000000000000E-002   -8.921449455965052E-020
 -3.030000000000000E-002   -9.305045625805335E-020
 -3.020000000000000E-002   -8.691208051788336E-020
 -3.010000000000000E-002   -6.762789592198622E-020
 -3.000000000000000E-002   -3.260210527769699E-020
 -2.990000000000000E-002    1.957351573553846E-020
 -2.980000000000000E-002    8.844478906017857E-020
 -2.970000000000000E-002    1.710403749628089E-019
 -2.960000000000000E-002    2.613511943788058E-019
 -2.950000000000000E-002    3.500834689300603E-019
 -2.940000000000000E-002    4.248366229182188E-019
 -2.930000000000000E-002    4.708480726791861E-019
 -2.920000000000000E-002    4.724129846567586E-019
 -2.910000000000000E-002    4.150157727391644E-019
 -2.900000000000000E-002    2.881099794462266E-019
 -2.890000000000000E-002    8.834804963412553E-020
 -2.880000000000000E-002   -1.770936448453435E-019
 -2.870000000000000E-002   -4.876045140548010E-019
 -2.860000000000000E-002   -8.072944471967248E-019
 -2.850000000000000E-002   -1.084949026854696E-018
 -2.840000000000000E-002   -1.256516773175760E-018
 -2.830000000000000E-002   -1.250743523212225E-018
 -2.820000000000000E-002   -9.982967663367978E-019
 -2.810000000000000E-002   -4.443019968007461E-019
 -2.800000000000000E-002    4.363773025868037E-019
 -2.790000000000000E-002    1.622462843936118E-018
 -2.780000000000000E-002    3.030307688989514E-018
 -2.770000000000000E-002    4.501457738978877E-018
 -2.760000000000000E-002    5.797066725199515E-018
 -2.750000000000000E-002    6.602703985079225E-018
 -2.740000000000000E-002    6.546833585521923E-018
 -2.730000000000000E-002    5.235384230799771E-018
 -2.720000000000000E-002    2.303321738755900E-018
 -2.710000000000000E-002   -2.518097019694680E-018
 -2.700000000000000E-002   -9.322476392751141E-018
 -2.690000000000000E-002   -1.794514365466592E-017
 -2.680000000000000E-002   -2.788615519830015E-017
 -2.670000000000000E-002   -3.825275443855231E-017
 -2.660000000000000E-002   -4.773629350427219E-017
 -2.650000000000000E-002   -5.463907991633387E-017
 -2.640000000000000E-002   -5.696443127456262E-017
 -2.630000000000000E-002   -5.257946703226594E-017
 -2.620000000000000E-002   -3.945252643125926E-017
 -2.610000000000000E-002   -1.595812036879079E-017
 -2.600000000000000E-002    1.876960158517587E-017
 -2.590000000000000E-002    6.446613617603327E-017
 -2.580000000000000E-002    1.193921771696503E-016
 -2.570000000000000E-002    1.800688671031045E-016
 -2.560000000000000E-002    2.411517118678189E-016
 -2.550000000000000E-002    2.955017503173714E-016
 -2.540000000000000E-002    3.345040017622591E-016
 -2.530000000000000E-002    3.486660101399346E-016
 -2.520000000000000E-002    3.285021695730803E-016
 -2.510000000000000E-002    2.656749978920338E-016
 -2.500000000000000E-002    1.543232773965623E-016
 -2.490000000000000E-002   -7.535338889252600E-018
 -2.480000000000000E-002   -2.166807678157478E-016
 -2.470000000000000E-002   -4.636292707267426E-016
 -2.460000000000000E-002   -7.320342775510456E-016
 -2.450000000000000E-002   -9.987439873443662E-016
 -2.440000000000000E-002   -1.234677169785809E-015
 -2.430000000000000E-002   -1.406621371378433E-015
 -2.420000000000000E-002   -1.479967962733987E-015
 -2.410000000000000E-002   -1.422287605330635E-015
 -2.400000000000000E-002   -1.207524423264779E-015
 -2.390000000000000E-002   -8.204584378194974E-016
 -2.380000000000000E-002   -2.609687604975154E-016
 -2.370000000000000E-002    4.524521879662205E-016
 -2.360000000000000E-002    1.280522878971703E-015
 -2.350000000000000E-002    2.162895173237013E-015
 -2.340000000000000E-002    3.020233316470256E-015
 -2.330000000000000E-002    3.758925760757780E-015
 -2.320000000000000E-002    4.278451900537447E-015
 -2.310000000000000E-002    4.481110249743300E-015
 -2.300000000000000E-002    4.283472635077912E-015
 -2.290000000000000E-002    3.628585539342934E-015
 -2.280000000000000E-002    2.497644073445622E-015
 -2.270000000000000E-002    9.196654206106508E-016
 -2.260000000000000E-002   -1.022378400194981E-015
 -2.250000000000000E-002   -3.190397701063787E-015
 -2.240000000000000E-002   -5.396120506581716E-015
 -2.230000000000000E-002   -7.412754553481642E-015
 -2.220000000000000E-002   -8.993320817052386E-015
 -2.210000000000000E-002   -9.894816486083976E-015
 -2.200000000000000E-002   -9.906494716596905E-015
 -2.190000000000000E-002   -8.879730715234501E-015
 -2.180000000000000E-002   -6.756289094578341E-015
 -2.170000000000000E-002   -3.591363278351409E-015
 -2.160000000000000E-002    4.322782386279408E-016
 -2.150000000000000E-002    5.002354901311411E-015
 -2.140000000000000E-002    9.689829214190694E-015
 -2.130000000000000E-002    1.397756075411833E-014
 -2.120000000000000E-002    1.730440220029267E-014
 -2.110000000000000E-002    1.912240349748096E-014
 -2.100000000000000E-002    1.896276159555367E-014
 -2.090000000000000E-002    1.650443506136386E-014
 -2.080000000000000E-002    1.163784497305272E-014
 -2.070000000000000E-002    4.515377396091669E-015
 -2.060000000000000E-002   -4.419537909967094E-015
 -2.050000000000000E-002   -1.443194612372451E-014
 -2.040000000000000E-002   -2.452857855438465E-014
 -2.030000000000000E-002   -3.352679850604481E-014
 -2.020000000000000E-002   -4.015749538299150E-014
 -2.010000000000000E-002   -4.319604216449380E-014
 -2.000000000000000E-002   -4.161096295523954E-014
 -1.990000000000000E-002   -3.471639676524278E-014
 -1.980000000000000E-002   -2.231148011759272E-014
 -1.970000000000000E-002   -4.788566722994612E-015
 -1.960000000000000E-002    1.680728440878084E-014
 -1.950000000000000E-002    4.078242980867652E-014
 -1.940000000000000E-002    6.487254730975322E-014
 -1.930000000000000E-002    8.639765743189553E-014
 -1.920000000000000E-002    1.024895937217621E-013
 -1.910000000000000E-002    1.103781469676410E-013
 -1.900000000000000E-002    1.077136283706638E-013
 -1.890000000000000E-002    9.289577366888272E-014
 -1.880000000000000E-002    6.537357378153040E-014
 -1.870000000000000E-002    2.587851233347206E-014
 -1.860000000000000E-002   -2.344498154729502E-014
 -1.850000000000000E-002   -7.904205411776226E-014
 -1.840000000000000E-002   -1.361030734869107E-013
 -1.830000000000000E-002   -1.888789717719045E-013
 -1.820000000000000E-002   -2.311462659430497E-013
 -1.810000000000000E-002   -2.567940493996470E-013
 -1.800000000000000E-002   -2.604881792186381E-013
 -1.790000000000000E-002   -2.383525377993425E-013
 -1.780000000000000E-002   -1.885977347506386E-013
 -1.770000000000000E-002   -1.120224275265185E-013
 -1.760000000000000E-002   -1.231590382300266E-014
 -1.750000000000000E-002    1.038981985489743E-013
 -1.740000000000000E-002    2.273181847634093E-013
 -1.730000000000000E-002    3.465356007274724E-013
 -1.720000000000000E-002    4.489055148205786E-013
 -1.710000000000000E-002    5.216664236533190E-013
 -1.700000000000000E-002    5.532272039839808E-013
 -1.690000000000000E-002    5.345108339901401E-013
 -1.680000000000000E-002    4.602238733375463E-013
 -1.670000000000000E-002    3.299109616009754E-013
 -1.660000000000000E-002    1.486591030769399E-013
 -1.650000000000000E-002   -7.266698690850184E-014
 -1.640000000000000E-002   -3.177421894690045E-013
 -1.630000000000000E-002   -5.656899662559135E-013
 -1.620000000000000E-002   -7.925666364261347E-013
 -1.610000000000000E-002   -9.733422397693719E-013
 -1.600000000000000E-002   -1.084243000195182E-012
 -1.590000000000000E-002   -1.105262878552145E-012
 -1.580000000000000E-002   -1.022615031502760E-012
 -1.570000000000000E-002   -8.308702077461293E-013
 -1.560000000000000E-002   -5.345311232469906E-013
 -1.550000000000000E-002   -1.488177528221770E-013
 -1.540000000000000E-002    3.005087207637358E-013
 -1.530000000000000E-002    7.783808999578656E-013
 -1.520000000000000E-002    1.242722562580326E-012
 -1.510000000000000E-002    1.647706243688038E-012
 -1.500000000000000E-002    1.947764061540310E-012
 -1.490000000000000E-002    2.102041843064570E-012
 -1.480000000000000E-002    2.078914782360887E-012
 -1.470000000000000E-002    1.860121903944103E-012
 -1.460000000000000E-002    1.444073946211989E-012
 -1.450000000000000E-002    8.479135235707872E-013
 -1.440000000000000E-002    1.079807501954974E-013
 -1.430000000000000E-002   -7.215424521818070E-013
 -1.420000000000000E-002   -1.571885538685051E-012
 -1.410000000000000E-002   -2.364738731803300E-012
 -1.400000000000000E-002   -3.018806085362374E-012
 -1.390000000000000E-002   -3.457392498142606E-012
 -1.380000000000000E-002   -3.616398396345523E-012
 -1.370000000000000E-002   -3.451979230262383E-012
 -1.360000000000000E-002   -2.947083228528573E-012
 -1.350000000000000E-002   -2.116090383063708E-012
 -1.340000000000000E-002   -1.006878349708299E-012
 -1.330000000000000E-002    3.001844732862257E-013
 -1.320000000000000E-002    1.696575988910553E-012
 -1.310000000000000E-002    3.053241926765331E-012
 -1.300000000000000E-002    4.231134247792937E-012
 -1.290000000000000E-002    5.093956460349388E-012
 -1.280000000000000E-002    5.522108565438032E-012
 -1.270000000000000E-002    5.426590279874921E-012
 -1.260000000000000E-002    4.761469206843887E-012
 -1.250000000000000E-002    3.533497562593237E-012
 -1.240000000000000E-002    1.807583015123419E-012
 -1.230000000000000E-002   -2.929342908570897E-013
 -1.220000000000000E-002   -2.591846694502534E-012
 -1.210000000000000E-002   -4.871636467799594E-012
 -1.200000000000000E-002   -6.890583158655965E-012
 -1.190000000000000E-002   -8.404387023889928E-012
 -1.180000000000000E-002   -9.190674896149718E-012
 -1.170000000000000E-002   -9.074291333101246E-012
 -1.160000000000000E-002   -7.950908360998874E-012
 -1.150000000000000E-002   -5.806399700800926E-012
 -1.140000000000000E-002   -2.729494819747911E-012
 -1.130000000000000E-002    1.084369796199805E-012
 -1.120000000000000E-002    5.339468068098637E-012
 -1.110000000000000E-002    9.657071367011906E-012
 -1.100000000000000E-002    1.360319136340647E-011
 -1.090000000000000E-002    1.672526428629634E-011
 -1.080000000000000E-002    1.859516746119564E-011
 -1.070000000000000E-002    1.885501437191110E-011
 -1.060000000000000E-002    1.726146053147724E-011
 -1.050000000000000E-002    1.372392700987284E-011
 -1.040000000000000E-002    8.332145162692634E-012
 -1.030000000000000E-002    1.369047949414407E-012
 -1.020000000000000E-002   -6.694014047750722E-012
 -1.010000000000000E-002   -1.522131056160533E-011
 -1.000000000000000E-002   -2.345581967008782E-011
 -9.899999999999999E-003   -3.057924007813412E-011
 -9.800000000000000E-003   -3.578485264793544E-011
 -9.699999999999999E-003   -3.835736096806362E-011
 -9.599999999999999E-003   -3.775254736173615E-011
 -9.500000000000000E-003   -3.366875781001377E-011
 -9.399999999999999E-003   -2.610215818956582E-011
 -9.299999999999999E-003   -1.537855140596286E-011
 -9.200000000000000E-003   -2.156063194808903E-012
 -9.099999999999999E-003    1.260461824494027E-011
 -8.999999999999999E-003    2.770282784597110E-011
 -8.900000000000000E-003    4.179041326047960E-011
 -8.799999999999999E-003    5.348792293379967E-011
 -8.699999999999999E-003    6.151513731369430E-011
 -8.600000000000000E-003    6.482434405363846E-011
 -8.499999999999999E-003    6.272314850579614E-011
 -8.399999999999999E-003    5.497347283292432E-011
 -8.300000000000000E-003    4.185453211451326E-011
 -8.199999999999999E-003    2.417999379979915E-011
 -8.100000000000000E-003    3.263339492466425E-012
 -8.000000000000000E-003   -1.916985584995397E-011
 -7.899999999999999E-003   -4.111859579628113E-011
 -7.800000000000000E-003   -6.048269920290036E-011
 -7.699999999999999E-003   -7.526401655475600E-011
 -7.599999999999999E-003   -8.377439961069797E-011
 -7.499999999999999E-003   -8.482959031729359E-011
 -7.399999999999999E-003   -7.790794529983792E-011
 -7.299999999999999E-003   -6.325448361536611E-011
 -7.199999999999999E-003   -4.191477219233888E-011
 -7.100000000000000E-003   -1.568910968628519E-011
 -6.999999999999999E-003    1.299521508812583E-011
 -6.899999999999999E-003    4.128730491855716E-011
 -6.800000000000000E-003    6.617710564049228E-011
 -6.699999999999999E-003    8.479847204935352E-011
 -6.599999999999999E-003    9.474258542577787E-011
 -6.499999999999999E-003    9.434976958942950E-011
 -6.399999999999999E-003    8.294724023617140E-011
 -6.299999999999999E-003    6.100315960899794E-011
 -6.199999999999999E-003    3.017357269915823E-011
 -6.100000000000000E-003   -6.772034484673527E-012
 -5.999999999999999E-003   -4.614928920236748E-011
 -5.899999999999999E-003   -8.367168365694432E-011
 -5.800000000000000E-003   -1.148545149722289E-010
 -5.699999999999999E-003   -1.354758460464801E-010
 -5.599999999999999E-003   -1.420511376973636E-010
 -5.499999999999999E-003   -1.322731193770510E-010
 -5.399999999999999E-003   -1.053680248130037E-010
 -5.299999999999999E-003   -6.232381054473542E-011
 -5.199999999999999E-003   -5.955492229300574E-012
 -5.099999999999999E-003    5.921329879434728E-011
 -4.999999999999999E-003    1.272561017860398E-010
 -4.899999999999999E-003    1.913214453302842E-010
 -4.799999999999999E-003    2.442481636100446E-010
 -4.699999999999999E-003    2.792669666306105E-010
 -4.599999999999999E-003    2.907238634460910E-010
 -4.499999999999999E-003    2.747538266183017E-010
 -4.399999999999999E-003    2.298322837895170E-010
 -4.299999999999999E-003    1.571388820042838E-010
 -4.199999999999999E-003    6.068203947863480E-011
 -4.099999999999999E-003   -5.284715636863127E-011
 -3.999999999999999E-003   -1.744978320625240E-010
 -3.899999999999999E-003   -2.937382357718945E-010
 -3.799999999999999E-003   -3.993420801115070E-010
 -3.699999999999999E-003   -4.804098662278034E-010
 -3.599999999999999E-003   -5.274342977066786E-010
 -3.499999999999999E-003   -5.333073510923341E-010
 -3.399999999999999E-003   -4.941668487735576E-010
 -3.299999999999999E-003   -4.099880364994294E-010
 -3.199999999999999E-003   -2.848461828555260E-010
 -3.099999999999999E-003   -1.268028975055724E-010
 -2.999999999999999E-003    5.259572321659793E-011
 -2.899999999999999E-003    2.391841535965036E-010
 -2.799999999999999E-003    4.173428717992132E-010
 -2.699999999999999E-003    5.713683760060746E-010
 -2.599999999999999E-003    6.869251364134503E-010
 -2.499999999999999E-003    7.524440837340374E-010
 -2.399999999999999E-003    7.603272531937949E-010
 -2.299999999999999E-003    7.078320001381626E-010
 -2.199999999999999E-003    5.975321507754419E-010
 -2.099999999999999E-003    4.372898130192163E-010
 -1.999999999999999E-003    2.397175472332634E-010
 -1.899999999999999E-003    2.115903947295021E-011
 -1.799999999999999E-003   -1.997335514499332E-010
 -1.699999999999999E-003   -4.037042514088707E-010
 -1.599999999999999E-003   -5.727228662589587E-010
 -1.499999999999999E-003   -6.917655268245852E-010
 -1.399999999999999E-003   -7.503652604333524E-010
 -1.299999999999999E-003   -7.437685204762068E-010
 -1.199999999999999E-003   -6.735645016784464E-010
 -1.099999999999999E-003   -5.477000809004425E-010
 -9.999999999999989E-004   -3.798525584284315E-010
 -8.999999999999990E-004   -1.881938073529483E-010
 -7.999999999999990E-004    6.356105796919582E-012
 -6.999999999999989E-004    1.822318691810256E-010
 -5.999999999999990E-004    3.194851911068541E-010
 -4.999999999999989E-004    4.019826074415112E-010
 -3.999999999999989E-004    4.193105209054216E-010
 -2.999999999999989E-004    3.681780957698053E-010
 -1.999999999999989E-004    2.531468986356335E-010
 -9.999999999999892E-005    8.657745068776220E-011
  1.084202172485504E-018   -1.122453442941085E-010
  1.000000000000011E-004   -3.187643170396085E-010
  2.000000000000011E-004   -5.054554157100024E-010
  3.000000000000011E-004   -6.445901883308796E-010
  4.000000000000011E-004   -7.112012043668721E-010
  5.000000000000011E-004   -6.859649728434105E-010
  6.000000000000011E-004   -5.577048114154444E-010
  7.000000000000011E-004   -3.252415381333291E-010
  8.000000000000011E-004    1.632263647406915E-012
  9.000000000000012E-004    4.022050795581895E-010
  1.000000000000001E-003    8.459834678640636E-010
  1.100000000000001E-003    1.294867121107008E-009
  1.200000000000001E-003    1.706212636682051E-009
  1.300000000000001E-003    2.036541219773270E-009
  1.400000000000001E-003    2.245570877166289E-009
  1.500000000000001E-003    2.300204967362025E-009
  1.600000000000001E-003    2.178093385096382E-009
  1.700000000000001E-003    1.870407127170602E-009
  1.800000000000001E-003    1.383519857567062E-009
  1.900000000000001E-003    7.393839835932263E-010
  2.000000000000001E-003   -2.549930799977872E-011
  2.100000000000001E-003   -8.624860934173450E-010
  2.200000000000001E-003   -1.714409408469939E-009
  2.300000000000001E-003   -2.520127031777857E-009
  2.400000000000001E-003   -3.219611747444199E-009
  2.500000000000001E-003   -3.759126850274099E-009
  2.600000000000001E-003   -4.096006295413062E-009
  2.700000000000001E-003   -4.202571774475658E-009
  2.800000000000001E-003   -4.068784635717097E-009
  2.900000000000001E-003   -3.703334861611569E-009
  3.000000000000001E-003   -3.133006809283694E-009
  3.100000000000001E-003   -2.400320703083018E-009
  3.200000000000001E-003   -1.559616746487390E-009
  3.300000000000001E-003   -6.719040665834076E-010
  3.400000000000001E-003    2.010658042675052E-010
  3.500000000000001E-003    1.002948777567936E-009
  3.600000000000001E-003    1.688582739627547E-009
  3.700000000000001E-003    2.228794483272495E-009
  3.800000000000001E-003    2.613718714206386E-009
  3.900000000000001E-003    2.854224818450443E-009
  4.000000000000001E-003    2.981214673480808E-009
  4.100000000000001E-003    3.042753077542389E-009
  4.200000000000001E-003    3.099191470535990E-009
  4.300000000000001E-003    3.216662758181064E-009
  4.400000000000001E-003    3.459488471629169E-009
  4.500000000000001E-003    3.882181663597889E-009
  4.600000000000002E-003    4.521795351535102E-009
  4.700000000000001E-003    5.391381353808829E-009
  4.800000000000001E-003    6.475246156628052E-009
  4.900000000000002E-003    7.726574599672257E-009
  5.000000000000001E-003    9.067776412377043E-009
  5.100000000000001E-003    1.039369823214891E-008
  5.200000000000001E-003    1.157757332204049E-008
  5.300000000000002E-003    1.247933068015405E-008
  5.400000000000001E-003    1.295565567610412E-008
  5.500000000000001E-003    1.287102279484568E-008
  5.600000000000002E-003    1.210879284441670E-008
  5.700000000000001E-003    1.058146475833616E-008
  5.800000000000001E-003    8.239193983578609E-009
  5.900000000000002E-003    5.075867300351602E-009
  6.000000000000001E-003    1.132211312228851E-009
  6.100000000000001E-003   -3.504303638767264E-009
  6.200000000000002E-003   -8.702704503354491E-009
  6.300000000000002E-003   -1.429453218228633E-008
  6.400000000000001E-003   -2.008200135732759E-008
  6.500000000000001E-003   -2.584743392757970E-008
  6.600000000000002E-003   -3.136295752422189E-008
  6.700000000000001E-003   -3.639941215168048E-008
  6.800000000000001E-003   -4.073347561984094E-008
  6.900000000000002E-003   -4.415214466118104E-008
  7.000000000000001E-003   -4.645398967135033E-008
  7.100000000000001E-003   -4.744689403851205E-008
  7.200000000000002E-003   -4.694234121628682E-008
  7.300000000000002E-003   -4.474668877555345E-008
  7.400000000000001E-003   -4.065017666684663E-008
  7.500000000000001E-003   -3.441472327064269E-008
  7.600000000000002E-003   -2.576166072124969E-008
  7.700000000000001E-003   -1.436071590992304E-008
  7.800000000000001E-003    1.786054859518702E-010
  7.900000000000001E-003    1.831220972951811E-008
  8.000000000000002E-003    4.056245012278571E-008
  8.100000000000001E-003    6.751466914123959E-008
  8.200000000000001E-003    9.980942696586194E-008
  8.300000000000002E-003    1.381308231602642E-007
  8.400000000000001E-003    1.831918777051758E-007
  8.500000000000002E-003    2.357183416198596E-007
  8.600000000000002E-003    2.964323136327783E-007
  8.700000000000001E-003    3.660373056269239E-007
  8.800000000000002E-003    4.452061928284008E-007
  8.900000000000002E-003    5.345735045894476E-007
  9.000000000000001E-003    6.347330688018930E-007
  9.100000000000002E-003    7.462409965092020E-007
  9.200000000000002E-003    8.696251239558275E-007
  9.300000000000001E-003    1.005399127640259E-006
  9.400000000000002E-003    1.154081375546021E-006
  9.500000000000001E-003    1.316216397343712E-006
  9.600000000000001E-003    1.492398157444126E-006
  9.700000000000002E-003    1.683291459318918E-006
  9.800000000000001E-003    1.889652461826021E-006
  9.900000000000001E-003    2.112343590704892E-006
  1.000000000000000E-002    2.352344535265062E-006
  1.010000000000000E-002    2.610756072331878E-006
  1.020000000000000E-002    2.888798410175961E-006
  1.030000000000000E-002    3.187802962829065E-006
  1.040000000000000E-002    3.509200287160493E-006
  1.050000000000000E-002    3.854503227725933E-006
  1.060000000000000E-002    4.225289561922189E-006
  1.070000000000000E-002    4.623185643450050E-006
  1.080000000000000E-002    5.049851418700038E-006
  1.090000000000000E-002    5.506969916679903E-006
  1.100000000000000E-002    5.996243086992203E-006
  1.110000000000000E-002    6.519394855080441E-006
  1.120000000000000E-002    7.078182029115862E-006
  1.130000000000000E-002    7.674408404097810E-006
  1.140000000000000E-002    8.309949988400951E-006
  1.150000000000000E-002    8.986779890864640E-006
  1.160000000000000E-002    9.707000873585452E-006
  1.170000000000000E-002    1.047287143672980E-005
  1.180000000000000E-002    1.128683683037480E-005
  1.190000000000000E-002    1.215155025323647E-005
  1.200000000000000E-002    1.306989159881997E-005
  1.210000000000000E-002    1.404497847991451E-005
  1.220000000000000E-002    1.508017082237724E-005
  1.230000000000000E-002    1.617906465045123E-005
  1.240000000000000E-002    1.734548416282195E-005
  1.250000000000000E-002    1.858346729287321E-005
  1.260000000000000E-002    1.989724759300464E-005
  1.270000000000000E-002    2.129123919841954E-005
  1.280000000000000E-002    2.277002082451681E-005
  1.290000000000000E-002    2.433833076720760E-005
  1.300000000000000E-002    2.600105818844420E-005
  1.310000000000000E-002    2.776325681076685E-005
  1.320000000000000E-002    2.963015665425567E-005
  1.330000000000000E-002    3.160718748605154E-005
  1.340000000000000E-002    3.370000914373975E-005
  1.350000000000000E-002    3.591456174415355E-005
  1.360000000000000E-002    3.825709354231605E-005
  1.370000000000000E-002    4.073421511943668E-005
  1.380000000000000E-002    4.335294107710177E-005
  1.390000000000000E-002    4.612072580359049E-005
  1.400000000000000E-002    4.904549784293767E-005
  1.410000000000000E-002    5.213569001355011E-005
  1.420000000000000E-002    5.540024504663497E-005
  1.430000000000000E-002    5.884862216212769E-005
  1.440000000000000E-002    6.249081100152286E-005
  1.450000000000000E-002    6.633730496854709E-005
  1.460000000000000E-002    7.039910184552503E-005
  1.470000000000000E-002    7.468767562621543E-005
  1.480000000000000E-002    7.921498957571828E-005
  1.490000000000000E-002    8.399346352910358E-005
  1.500000000000000E-002    8.903600970038682E-005
  1.510000000000000E-002    9.435600790444983E-005
  1.520000000000000E-002    9.996736776167920E-005
  1.530000000000000E-002    1.058845403463797E-004
  1.540000000000000E-002    1.121225973488825E-004
  1.550000000000000E-002    1.186972416847436E-004
  1.560000000000000E-002    1.256249285953587E-004
  1.570000000000000E-002    1.329228954506440E-004
  1.580000000000000E-002    1.406092443891291E-004
  1.590000000000000E-002    1.487030169916475E-004
  1.600000000000000E-002    1.572242444209710E-004
  1.610000000000000E-002    1.661940147017063E-004
  1.620000000000000E-002    1.756344623619119E-004
  1.630000000000000E-002    1.855688724548980E-004
  1.640000000000000E-002    1.960216304828538E-004
  1.650000000000000E-002    2.070182765108350E-004
  1.660000000000000E-002    2.185854475663979E-004
  1.670000000000000E-002    2.307509250239464E-004
  1.680000000000000E-002    2.435436177043534E-004
  1.690000000000000E-002    2.569935632243954E-004
  1.700000000000000E-002    2.711318901746891E-004
  1.710000000000000E-002    2.859908986903310E-004
  1.720000000000000E-002    3.016040867938774E-004
  1.730000000000000E-002    3.180061678431125E-004
  1.740000000000000E-002    3.352331570224386E-004
  1.750000000000000E-002    3.533224316334561E-004
  1.760000000000000E-002    3.723128817102570E-004
  1.770000000000000E-002    3.922448803153208E-004
  1.780000000000000E-002    4.131605148892312E-004
  1.790000000000000E-002    4.351036309784694E-004
  1.800000000000000E-002    4.581198844447389E-004
  1.810000000000000E-002    4.822569538073939E-004
  1.820000000000000E-002    5.075644926095178E-004
  1.830000000000000E-002    5.340942091522525E-004
  1.840000000000000E-002    5.618999198865335E-004
  1.850000000000000E-002    5.910376447874554E-004
  1.860000000000000E-002    6.215655693123426E-004
  1.870000000000000E-002    6.535439921450697E-004