 -4.000000000000000E-002    0.000000000000000E+000
 -3.990000000000000E-002    1.464299801761753E-007
 -3.980000000000000E-002    4.351688852936903E-007
 -3.970000000000000E-002    8.544263574063551E-007
 -3.960000000000000E-002    1.386612313293318E-006
 -3.950000000000000E-002    2.010823112863547E-006
 -3.940000000000000E-002    2.705626183554016E-006
 -3.930000000000000E-002    3.451791936032635E-006
 -3.920000000000000E-002    4.234626487543174E-006
 -3.910000000000000E-002    5.045616567455698E-006
 -3.900000000000000E-002    5.883184264101040E-006
 -3.890000000000000E-002    6.752465743894706E-006
 -3.880000000000000E-002    7.664150197362934E-006
 -3.870000000000000E-002    8.632546758868393E-006
 -3.860000000000000E-002    9.673134846760676E-006
 -3.850000000000000E-002    1.079992843389419E-005
 -3.840000000000000E-002    1.202301676054839E-005
 -3.830000000000000E-002    1.334659850740630E-005
 -3.820000000000000E-002    1.476780012356139E-005
 -3.810000000000000E-002    1.627642623082578E-005
 -3.800000000000000E-002    1.785569840946399E-005
 -3.790000000000000E-002    1.948390331082516E-005
 -3.780000000000000E-002    2.113673860764394E-005
 -3.770000000000000E-002    2.279005563642359E-005
 -3.760000000000000E-002    2.442265410429086E-005
 -3.750000000000000E-002    2.601875996543882E-005
 -3.740000000000000E-002    2.756985368461145E-005
 -3.730000000000000E-002    2.907560290973429E-005
 -3.720000000000000E-002    3.054376646092417E-005
 -3.710000000000000E-002    3.198906173298376E-005
 -3.700000000000000E-002    3.343113868832117E-005
 -3.690000000000000E-002    3.489188554540442E-005
 -3.680000000000000E-002    3.639243944421228E-005
 -3.670000000000000E-002    3.795022815827419E-005
 -3.660000000000000E-002    3.957649533372913E-005
 -3.650000000000000E-002    4.127456714868580E-005
 -3.640000000000000E-002    4.303911985542202E-005
 -3.630000000000000E-002    4.485657656965674E-005
 -3.620000000000000E-002    4.670653043086353E-005
 -3.610000000000000E-002    4.856413115389978E-005
 -3.600000000000000E-002    5.040299831228174E-005
 -3.590000000000000E-002    5.219846964365667E-005
 -3.580000000000000E-002    5.393059818481422E-005
 -3.570000000000000E-002    5.558665014027992E-005
 -3.560000000000000E-002    5.716273320591831E-005
 -3.550000000000000E-002    5.866428549576612E-005
 -3.540000000000000E-002    6.010543255818465E-005
 -3.530000000000000E-002    6.150722538871769E-005
 -3.520000000000000E-002    6.289497328216824E-005
 -3.510000000000000E-002    6.429500670824714E-005
 -3.500000000000000E-002    6.573119739134339E-005
 -3.490000000000000E-002    6.722177138609137E-005
 -3.480000000000000E-002    6.877673688104585E-005
 -3.470000000000000E-002    7.039621450198611E-005
 -3.460000000000000E-002    7.206999132250080E-005
 -3.450000000000000E-002    7.377822054204464E-005
 -3.440000000000000E-002    7.549334763663969E-005
 -3.430000000000000E-002    7.718286351570907E-005
 -3.420000000000000E-002    7.881278152520774E-005
 -3.410000000000000E-002    8.035108599849828E-005
 -3.400000000000000E-002    8.177109339454125E-005
 -3.390000000000000E-002    8.305410235952110E-005
 -3.380000000000000E-002    8.419107574425787E-005
 -3.370000000000000E-002    8.518316243048097E-005
 -3.360000000000000E-002    8.604090536071837E-005
 -3.350000000000000E-002    8.678239895147553E-005
 -3.340000000000000E-002    8.743043116680749E-005
 -3.330000000000000E-002    8.800901126402578E-005
 -3.320000000000000E-002    8.853987370453500E-005
 -3.310000000000000E-002    8.903888337304722E-005
 -3.300000000000000E-002    8.951345167438845E-005
 -3.290000000000000E-002    8.996053289660491E-005
 -3.280000000000000E-002    9.036598926992095E-005
 -3.270000000000000E-002    9.070490695238015E-005
 -3.260000000000000E-002    9.094347004354531E-005
 -3.250000000000000E-002    9.104117740914797E-005
 -3.240000000000000E-002    9.095398994216300E-005
 -3.230000000000000E-002    9.063771871196224E-005
 -3.220000000000000E-002    9.005103492816764E-005
 -3.210000000000000E-002    8.915797193085367E-005
 -3.200000000000000E-002    8.792938680251782E-005
 -3.190000000000000E-002    8.634375185341012E-005
 -3.180000000000000E-002    8.438617620746663E-005
 -3.170000000000000E-002    8.204692908596068E-005
 -3.160000000000000E-002    7.931877347456456E-005
 -3.150000000000000E-002    7.619342994698541E-005
 -3.140000000000000E-002    7.265858271803593E-005
 -3.130000000000000E-002    6.869394297393082E-005
 -3.120000000000000E-002    6.426871979898542E-005
 -3.110000000000000E-002    5.933953643387707E-005
 -3.100000000000000E-002    5.384914921317635E-005
 -3.090000000000000E-002    4.772693733401189E-005
 -3.080000000000000E-002    4.088941261996664E-005
 -3.070000000000000E-002    3.324237735788577E-005
 -3.060000000000000E-002    2.468389809150689E-005
 -3.050000000000000E-002    1.510688145159844E-005
 -3.040000000000000E-002    4.401954354838847E-006
 -3.030000000000000E-002   -7.539419268319548E-006
 -3.020000000000000E-002   -2.082434557647523E-005
 -3.010000000000000E-002   -3.555692106989912E-005
 -3.000000000000000E-002   -5.183768146313994E-005
 -2.990000000000000E-002   -6.976613991068012E-005
 -2.980000000000000E-002   -8.944145517921840E-005
 -2.970000000000000E-002   -1.109664515415394E-004
 -2.960000000000000E-002   -1.344501429192750E-004
 -2.950000000000000E-002   -1.600109895784526E-004
 -2.940000000000000E-002   -1.877807905471018E-004
 -2.930000000000000E-002   -2.179061421615567E-004
 -2.920000000000000E-002   -2.505511639737377E-004
 -2.910000000000000E-002   -2.858984409804030E-004
 -2.900000000000000E-002   -3.241486835111343E-004
 -2.890000000000000E-002   -3.655196887456145E-004
 -2.880000000000000E-002   -4.102452351246512E-004
 -2.870000000000000E-002   -4.585730099709332E-004
 -2.860000000000000E-002   -5.107622150579487E-004
 -2.850000000000000E-002   -5.670809914298146E-004
 -2.840000000000000E-002   -6.278053258188700E-004
 -2.830000000000000E-002   -6.932177748223402E-004
 -2.820000000000000E-002   -7.636053505191945E-004
 -2.810000000000000E-002   -8.392618842985617E-004
 -2.800000000000000E-002   -9.204901646139133E-004
 -2.790000000000000E-002   -1.007602302412475E-003
 -2.780000000000000E-002   -1.100923379028146E-003
 -2.770000000000000E-002   -1.200795764278536E-003
 -2.760000000000000E-002   -1.307581890133750E-003
 -2.750000000000000E-002   -1.421668705825133E-003
 -2.740000000000000E-002   -1.543468654559554E-003
 -2.730000000000000E-002   -1.673424826590807E-003
 -2.720000000000000E-002   -1.812009307559298E-003
 -2.710000000000000E-002   -1.959727306288169E-003
 -2.700000000000000E-002   -2.117115130857757E-003
 -2.690000000000000E-002   -2.284737636159610E-003
 -2.680000000000000E-002   -2.463189220777448E-003
 -2.670000000000000E-002   -2.653090236473154E-003
 -2.660000000000000E-002   -2.855085337809842E-003
 -2.650000000000000E-002   -3.069842611064140E-003
 -2.640000000000000E-002   -3.298051484371173E-003
 -2.630000000000000E-002   -3.540423756583852E-003
 -2.620000000000000E-002   -3.797692166909337E-003
 -2.610000000000000E-002   -4.070612628203944E-003
 -2.600000000000000E-002   -4.359968415180752E-003
 -2.590000000000000E-002   -4.666572903518250E-003
 -2.580000000000000E-002   -4.991275854747864E-003
 -2.570000000000000E-002   -5.334961421278844E-003
 -2.560000000000000E-002   -5.698558625886485E-003
 -2.550000000000000E-002   -6.083046258787856E-003
 -2.540000000000000E-002   -6.489446939063132E-003
 -2.530000000000000E-002   -6.918839287760734E-003
 -2.520000000000000E-002   -7.372352873017570E-003
 -2.510000000000000E-002   -7.851173940263132E-003
 -2.500000000000000E-002   -8.356537351196198E-003
 -2.490000000000000E-002   -8.889730417620392E-003
 -2.480000000000000E-002   -9.452090400106887E-003
 -2.470000000000000E-002   -1.004500137173956E-002
 -2.460000000000000E-002   -1.066989176426348E-002
 -2.450000000000000E-002   -1.132823481886162E-002
 -2.440000000000000E-002   -1.202154894518381E-002
 -2.430000000000000E-002   -1.275139573030287E-002
 -2.420000000000000E-002   -1.351937973853292E-002
 -2.410000000000000E-002   -1.432717061900097E-002
 -2.400000000000000E-002   -1.517648296438486E-002
 -2.390000000000000E-002   -1.606909006072084E-002
 -2.380000000000000E-002   -1.700683517162824E-002
 -2.370000000000000E-002   -1.799163246947531E-002
 -2.360000000000000E-002   -1.902547200407152E-002
 -2.350000000000000E-002   -2.011041865705831E-002
 -2.340000000000000E-002   -2.124862602403618E-002
 -2.330000000000000E-002   -2.244231784198277E-002
 -2.320000000000000E-002   -2.369381180453924E-002
 -2.310000000000000E-002   -2.500549905515856E-002
 -2.300000000000000E-002   -2.637985080310808E-002
 -2.290000000000000E-002   -2.781941040796860E-002
 -2.280000000000000E-002   -2.932679595436092E-002
 -2.270000000000000E-002   -3.090468937150967E-002
 -2.260000000000000E-002   -3.255585353744001E-002
 -2.250000000000000E-002   -3.428311588096819E-002
 -2.240000000000000E-002   -3.608937261557972E-002
 -2.230000000000000E-002   -3.797758489650534E-002
 -2.220000000000000E-002   -3.995080102481097E-002
 -2.210000000000000E-002   -4.201214416698477E-002
 -2.200000000000000E-002   -4.416482906152509E-002
 -2.190000000000000E-002   -4.641215640325697E-002
 -2.180000000000000E-002   -4.875752964675550E-002
 -2.170000000000000E-002   -5.120444331803143E-002
 -2.160000000000000E-002   -5.375650369233270E-002
 -2.150000000000000E-002   -5.641741816065060E-002
 -2.140000000000000E-002   -5.919099274084784E-002
 -2.130000000000000E-002   -6.208113720615633E-002
 -2.120000000000000E-002   -6.509185262923628E-002
 -2.110000000000000E-002   -6.822723354611777E-002
 -2.100000000000000E-002   -7.149147162257175E-002
 -2.090000000000000E-002   -7.488883427711029E-002
 -2.080000000000000E-002   -7.842367614157408E-002
 -2.070000000000000E-002   -8.210042080930996E-002
 -2.060000000000000E-002   -8.592358562004317E-002
 -2.050000000000000E-002   -8.989774823168159E-002
 -2.040000000000000E-002   -9.402758124834779E-002
 -2.030000000000000E-002   -9.831783055773921E-002
 -2.020000000000000E-002   -0.102773350202782     
 -2.010000000000000E-002   -0.107399065908863     
 -2.000000000000000E-002   -0.112199995576013     
 -1.990000000000000E-002   -0.117181259692638     
 -1.980000000000000E-002   -0.122348077700822     
 -1.970000000000000E-002   -0.127705755213564     
 -1.960000000000000E-002   -0.133259720733451     
 -1.950000000000000E-002   -0.139015459629103     
 -1.940000000000000E-002   -0.144978538903493     
 -1.930000000000000E-002   -0.151154626577356     
 -1.920000000000000E-002   -0.157549431739529     
 -1.910000000000000E-002   -0.164168753862347     
 -1.900000000000000E-002   -0.171018437388010     
 -1.890000000000000E-002   -0.178104370880220     
 -1.880000000000000E-002   -0.185432514413871     
 -1.870000000000000E-002   -0.193008832984219     
 -1.860000000000000E-002   -0.200839344577291     
 -1.850000000000000E-002   -0.208930120298964     
 -1.840000000000000E-002   -0.217287246995464     
 -1.830000000000000E-002   -0.225916865872980     
 -1.820000000000000E-002   -0.234825158722327     
 -1.810000000000000E-002   -0.244018332322972     
 -1.800000000000000E-002   -0.253502626114693     
 -1.790000000000000E-002   -0.263284332364331     
 -1.780000000000000E-002   -0.273369720506466     
 -1.770000000000000E-002   -0.283765109402379     
 -1.760000000000000E-002   -0.294476781802467     
 -1.750000000000000E-002   -0.305511072236113     
 -1.740000000000000E-002   -0.316874259463391     
 -1.730000000000000E-002   -0.328572610417927     
 -1.720000000000000E-002   -0.340612330479467     
 -1.710000000000000E-002   -0.352999626144967     
 -1.700000000000000E-002   -0.365740561355982     
 -1.690000000000000E-002   -0.378841197425029     
 -1.680000000000000E-002   -0.392307523763556     
 -1.670000000000000E-002   -0.406145405780367     
 -1.660000000000000E-002   -0.420360625279112     
 -1.650000000000000E-002   -0.434958891004418     
 -1.640000000000000E-002   -0.449945825135875     
 -1.630000000000000E-002   -0.465326872505825     
 -1.620000000000000E-002   -0.481107441408353     
 -1.610000000000000E-002   -0.497292787033017     
 -1.600000000000000E-002   -0.513887994686478     
 -1.590000000000000E-002   -0.530898048261822     
 -1.580000000000000E-002   -0.548327791188177     
 -1.570000000000000E-002   -0.566181808808287     
 -1.560000000000000E-002   -0.584464587205411     
 -1.550000000000000E-002   -0.603180279277547     
 -1.540000000000000E-002   -0.622333003572398     
 -1.530000000000000E-002   -0.641926528436499     
 -1.520000000000000E-002   -0.661964369723347     
 -1.510000000000000E-002   -0.682449818969565     
 -1.500000000000000E-002   -0.703385878912234     
 -1.490000000000000E-002   -0.724775232541068     
 -1.480000000000000E-002   -0.746620265961980     
 -1.470000000000000E-002   -0.768923163069445     
 -1.460000000000000E-002   -0.791685641034525     
 -1.450000000000000E-002   -0.814909157740525     
 -1.440000000000000E-002   -0.838594803782011     
 -1.430000000000000E-002   -0.862743349400197     
 -1.420000000000000E-002   -0.887355146675807     
 -1.410000000000000E-002   -0.912430214963283     
 -1.400000000000000E-002   -0.937968144750116     
 -1.390000000000000E-002   -0.963968151906374     
 -1.380000000000000E-002   -0.990429028426622     
 -1.370000000000000E-002    -1.01734903305190     
 -1.360000000000000E-002    -1.04472606067166     
 -1.350000000000000E-002    -1.07255753774672     
 -1.340000000000000E-002    -1.10084027204756     
 -1.330000000000000E-002    -1.12957076670170     
 -1.320000000000000E-002    -1.15874478724024     
 -1.310000000000000E-002    -1.18835777751610     
 -1.300000000000000E-002    -1.21840448877924     
 -1.290000000000000E-002    -1.24887913092569     
 -1.280000000000000E-002    -1.27977540361050     
 -1.270000000000000E-002    -1.31108628514983     
 -1.260000000000000E-002    -1.34280446052044     
 -1.250000000000000E-002    -1.37492167167176     
 -1.240000000000000E-002    -1.40742936026365     
 -1.230000000000000E-002    -1.44031824831054     
 -1.220000000000000E-002    -1.47357826886481     
 -1.210000000000000E-002    -1.50719894507958     
 -1.200000000000000E-002    -1.54116905679333     
 -1.190000000000000E-002    -1.57547682100723     
 -1.180000000000000E-002    -1.61010955640595     
 -1.170000000000000E-002    -1.64505416511970     
 -1.160000000000000E-002    -1.68029681561562     
 -1.150000000000000E-002    -1.71582292793795     
 -1.140000000000000E-002    -1.75161711658574     
 -1.130000000000000E-002    -1.78766341393016     
 -1.120000000000000E-002    -1.82394522673136     
 -1.110000000000000E-002    -1.86044506411511     
 -1.100000000000000E-002    -1.89714495239491     
 -1.090000000000000E-002    -1.93402596473511     
 -1.080000000000000E-002    -1.97106850125551     
 -1.070000000000000E-002    -2.00825227565897     
 -1.060000000000000E-002    -2.04555633336076     
 -1.050000000000000E-002    -2.08295901084875     
 -1.040000000000000E-002    -2.12043797308168     
 -1.030000000000000E-002    -2.15797000287159     
 -1.020000000000000E-002    -2.19553143115240     
 -1.010000000000000E-002    -2.23309767969352     
 -1.000000000000000E-002    -2.27064367815017     
 -9.899999999999999E-003    -2.30814345489369     
 -9.800000000000000E-003    -2.34557057191891     
 -9.699999999999999E-003    -2.38289766217409     
 -9.599999999999999E-003    -2.42009690845469     
 -9.500000000000000E-003    -2.45713974918955     
 -9.399999999999999E-003    -2.49399708920122     
 -9.299999999999999E-003    -2.53063919501707     
 -9.200000000000000E-003    -2.56703545132814     
 -9.099999999999999E-003    -2.60315494662306     
 -8.999999999999999E-003    -2.63896606868589     
 -8.900000000000000E-003    -2.67443654690730     
 -8.799999999999999E-003    -2.70953369964045     
 -8.699999999999999E-003    -2.74422421178890     
 -8.600000000000000E-003    -2.77847440939939     
 -8.499999999999999E-003    -2.81225013167617     
 -8.399999999999999E-003    -2.84551691755692     
 -8.300000000000000E-003    -2.87823939106969     
 -8.199999999999999E-003    -2.91038216002092     
 -8.100000000000000E-003    -2.94190952503986     
 -8.000000000000000E-003    -2.97278504714026     
 -7.899999999999999E-003    -3.00297245763485     
 -7.800000000000000E-003    -3.03243486041819     
 -7.699999999999999E-003    -3.06113518371261     
 -7.599999999999999E-003    -3.08903606645158     
 -7.499999999999999E-003    -3.11609996502544     
 -7.399999999999999E-003    -3.14228931791854     
 -7.299999999999999E-003    -3.16756628624087     
 -7.199999999999999E-003    -3.19189292063959     
 -7.100000000000000E-003    -3.21523144164606     
 -6.999999999999999E-003    -3.23754386788924     
 -6.899999999999999E-003    -3.25879213671037     
 -6.800000000000000E-003    -3.27893840508225     
 -6.699999999999999E-003    -3.29794484721098     
 -6.599999999999999E-003    -3.31577404926885     
 -6.499999999999999E-003    -3.33238837204106     
 -6.399999999999999E-003    -3.34775079371979     
 -6.299999999999999E-003    -3.36182432169785     
 -6.199999999999999E-003    -3.37457226744663     
 -6.100000000000000E-003    -3.38595848436347     
 -5.999999999999999E-003    -3.39594719346586     
 -5.899999999999999E-003    -3.40450315148130     
 -5.800000000000000E-003    -3.41159143683837     
 -5.699999999999999E-003    -3.41717774673009     
 -5.599999999999999E-003    -3.42122837319614     
 -5.499999999999999E-003    -3.42371003553688     
 -5.399999999999999E-003    -3.42459042830161     
 -5.299999999999999E-003    -3.42383791236343     
 -5.199999999999999E-003    -3.42142133119840     
 -5.099999999999999E-003    -3.41731088148191     
 -4.999999999999999E-003    -3.41147687625544     
 -4.899999999999999E-003    -3.40389131067087     
 -4.799999999999999E-003    -3.39452671023688     
 -4.699999999999999E-003    -3.38335664789176     
 -4.599999999999999E-003    -3.37035578616062     
 -4.499999999999999E-003    -3.35549995044315     
 -4.399999999999999E-003    -3.33876629291954     
 -4.299999999999999E-003    -3.32013269040460     
 -4.199999999999999E-003    -3.29957857373706     
 -4.099999999999999E-003    -3.27708469188831     
 -3.999999999999999E-003    -3.25263302370952     
 -3.899999999999999E-003    -3.22620671386126     
 -3.799999999999999E-003    -3.19779060950011     
 -3.699999999999999E-003    -3.16737085666815     
 -3.599999999999999E-003    -3.13493502303988     
 -3.499999999999999E-003    -3.10047198423329     
 -3.399999999999999E-003    -3.06397236341676     
 -3.299999999999999E-003    -3.02542845664112     
 -3.199999999999999E-003    -2.98483391663915     
 -3.099999999999999E-003    -2.94218405071436     
 -2.999999999999999E-003    -2.89747593995728     
 -2.899999999999999E-003    -2.85070840445668     
 -2.799999999999999E-003    -2.80188191777934     
 -2.699999999999999E-003    -2.75099871457698     
 -2.599999999999999E-003    -2.69806297458455     
 -2.499999999999999E-003    -2.64308027587126     
 -2.399999999999999E-003    -2.58605856092034     
 -2.299999999999999E-003    -2.52700718393897     
 -2.199999999999999E-003    -2.46593748003186     
 -2.099999999999999E-003    -2.40286252293779     
 -1.999999999999999E-003    -2.33779733158259     
 -1.899999999999999E-003    -2.27075895301458     
 -1.799999999999999E-003    -2.20176593299255     
 -1.699999999999999E-003    -2.13083915204435     
 -1.599999999999999E-003    -2.05800090063833     
 -1.499999999999999E-003    -1.98327568228875     
 -1.399999999999999E-003    -1.90668955358399     
 -1.299999999999999E-003    -1.82827092576205     
 -1.199999999999999E-003    -1.74804980124804     
 -1.099999999999999E-003    -1.66605825960177     
 -9.999999999999989E-004    -1.58232990741396     
 -8.999999999999990E-004    -1.49690035030726     
 -7.999999999999990E-004    -1.40980721541817     
 -6.999999999999989E-004    -1.32108988838173     
 -5.999999999999990E-004    -1.23078942899984     
 -4.999999999999989E-004    -1.13894883629785     
 -3.999999999999989E-004    -1.04561279894424     
 -2.999999999999989E-004   -0.950827521084808     
 -1.999999999999989E-004   -0.854641089253567     
 -9.999999999999892E-005   -0.757103276495291     
  1.084202172485504E-018   -0.658265262564162     
  1.000000000000011E-004   -0.558179995359357     
  2.000000000000011E-004   -0.456901945880969     
  3.000000000000011E-004   -0.354486960979649     
  4.000000000000011E-004   -0.250992443578174     
  5.000000000000011E-004   -0.146477086944604     
  6.000000000000011E-004   -4.100114663073080E-002
  7.000000000000011E-004    6.537381127689521E-002
  8.000000000000011E-004    0.172585050219238     
  9.000000000000012E-004    0.280568788675174     
  1.000000000000001E-003    0.389259663572892     
  1.100000000000001E-003    0.498591458762186     
  1.200000000000001E-003    0.608496817265294     
  1.300000000000001E-003    0.718907553638171     
  1.400000000000001E-003    0.829754243657752     
  1.500000000000001E-003    0.940966873358339     
  1.600000000000001E-003     1.05247456583855     
  1.700000000000001E-003     1.16420573997847     
  1.800000000000001E-003     1.27608815315386     
  1.900000000000001E-003     1.38804902583067     
  2.000000000000001E-003     1.50001502040800     
  2.100000000000001E-003     1.61191238589226     
  2.200000000000001E-003     1.72366702810880     
  2.300000000000001E-003     1.83520443911600     
  2.400000000000001E-003     1.94644998989952     
  2.500000000000001E-003     2.05732889057992     
  2.600000000000001E-003     2.16776613284658     
  2.700000000000001E-003     2.27768709783043     
  2.800000000000001E-003     2.38701676470964     
  2.900000000000001E-003     2.49568053277535     
  3.000000000000001E-003     2.60360388827424     
  3.100000000000001E-003     2.71071265919869     
  3.200000000000001E-003     2.81693301879503     
  3.300000000000001E-003     2.92219164846615     
  3.400000000000001E-003     3.02641585336482     
  3.500000000000001E-003     3.12953346498832     
  3.600000000000001E-003     3.23147289669692     
  3.700000000000001E-003     3.33216336481057     
  3.800000000000001E-003     3.43153522456215     
  3.900000000000001E-003     3.52951941319994     
  4.000000000000001E-003     3.62604799522297     
  4.100000000000001E-003     3.72105406186794     
  4.200000000000001E-003     3.81447183817782     
  4.300000000000001E-003     3.90623661854571     
  4.400000000000001E-003     3.99628547803536     
  4.500000000000001E-003     4.08455587944731     
  4.600000000000002E-003     4.17098770013324     
  4.700000000000001E-003     4.25552146542602     
  4.800000000000001E-003     4.33809964206030     
  4.900000000000002E-003     4.41866619354874     
  5.000000000000001E-003     4.49716664964702     
  5.100000000000001E-003     4.57354811508010     
  5.200000000000001E-003     4.64775968638575     
  5.300000000000002E-003     4.71975228205953     
  5.400000000000001E-003     4.78947830453024     
  5.500000000000001E-003     4.85689284080875     
  5.600000000000002E-003     4.92195189813298     
  5.700000000000001E-003     4.98461430978112     
  5.800000000000001E-003     5.04484040488697     
  5.900000000000002E-003     5.10259272500282     
  6.000000000000001E-003     5.15783637783197     
  6.100000000000001E-003     5.21053803378661     
  6.200000000000002E-003     5.26066686227220     
  6.300000000000002E-003     5.30819383056232     
  6.400000000000001E-003     5.35309283069176     
  6.500000000000001E-003     5.39533956701360     
  6.600000000000002E-003     5.43491195304436     
  6.700000000000001E-003     5.47179026975308     
  6.800000000000001E-003     5.50595696558067     
  6.900000000000002E-003     5.53739745339294     
  7.000000000000001E-003     5.56609861849394     
  7.100000000000001E-003     5.59204970311593     
  7.200000000000002E-003     5.61524282476773     
  7.300000000000002E-003     5.63567272492159     
  7.400000000000001E-003     5.65333541008499     
  7.500000000000001E-003     5.66823018138156     
  7.600000000000002E-003     5.68035774087945     
  7.700000000000001E-003     5.68972224228160     
  7.800000000000001E-003     5.69632933207510     
  7.900000000000001E-003     5.70018719725280     
  8.000000000000002E-003     5.70130625082747     
  8.100000000000001E-003     5.69969923562804     
  8.200000000000001E-003     5.69538125483221     
  8.300000000000002E-003     5.68836917456765     
  8.400000000000001E-003     5.67868264346740     
  8.500000000000002E-003     5.66634316461348     
  8.600000000000002E-003     5.65137402421420     
  8.700000000000001E-003     5.63380092690672     
  8.800000000000002E-003     5.61365147687387     
  8.900000000000002E-003     5.59095547554005     
  9.000000000000001E-003     5.56574428990727     
  9.100000000000002E-003     5.53805166704065     
  9.200000000000002E-003     5.50791266537767     
  9.300000000000001E-003     5.47536482387156     
  9.400000000000002E-003     5.44044673769886     
  9.500000000000001E-003     5.40319918457998     
  9.600000000000001E-003     5.36366487177681     
  9.700000000000002E-003     5.32188767486669     
  9.800000000000001E-003     5.27791285366190     
  9.900000000000001E-003     5.23178771093478     
  1.000000000000000E-002     5.18356082478242     
  1.010000000000000E-002     5.13328168036013     
  1.020000000000000E-002     5.08100200107381     
  1.030000000000000E-002     5.02677366207331     
  1.040000000000000E-002     4.97065016238101     
  1.050000000000000E-002     4.91268655723571     
  1.060000000000000E-002     4.85293847689530     
  1.070000000000000E-002     4.79146258501363     
  1.080000000000000E-002     4.72831636407024     
  1.090000000000000E-002     4.66355838607685     
  1.100000000000000E-002     4.59724848066500     
  1.110000000000000E-002     4.52944601931792     
  1.120000000000000E-002     4.46021184359134     
  1.130000000000000E-002     4.38960724810926     
  1.140000000000000E-002     4.31769391799620     
  1.150000000000000E-002     4.24453438904808     
  1.160000000000000E-002     4.17019080822024     
  1.170000000000000E-002     4.09472645221465     
  1.180000000000000E-002     4.01820462112390     
  1.190000000000000E-002     3.94068803955410     
  1.200000000000000E-002     3.86224065024162     
  1.210000000000000E-002     3.78292598833544     
  1.220000000000000E-002     3.70280752527394     
  1.230000000000000E-002     3.62194859605865     
  1.240000000000000E-002     3.54041243124878     
  1.250000000000000E-002     3.45826206168201     
  1.260000000000000E-002     3.37556004909243     
  1.270000000000000E-002     3.29236906457997     
  1.280000000000000E-002     3.20875099974182     
  1.290000000000000E-002     3.12476749577617     
  1.300000000000000E-002     3.04047951853258     
  1.310000000000000E-002     2.95594766446897     
  1.320000000000000E-002     2.87123184225719     
  1.330000000000000E-002     2.78639124030311     
  1.340000000000000E-002     2.70148434125185     
  1.350000000000000E-002     2.61656899891732     
  1.360000000000000E-002     2.53170207432976     
  1.370000000000000E-002     2.44693949414580     
  1.380000000000000E-002     2.36233654292714     
  1.390000000000000E-002     2.27794742523290     
  1.400000000000000E-002     2.19382532308400     
  1.410000000000000E-002     2.11002247267259     
  1.420000000000000E-002     2.02658989196848     
  1.430000000000000E-002     1.94357746861163     
  1.440000000000000E-002     1.86103411985676     
  1.450000000000000E-002     1.77900756583844     
  1.460000000000000E-002     1.69754401776083     
  1.470000000000000E-002     1.61668868399124     
  1.480000000000000E-002     1.53648569133816     
  1.490000000000000E-002     1.45697762608617     
  1.500000000000000E-002     1.37820585894931     
  1.510000000000000E-002     1.30021041886384     
  1.520000000000000E-002     1.22302999657561     
  1.530000000000000E-002     1.14670190392043     
  1.540000000000000E-002     1.07126205648286     
  1.550000000000000E-002    0.996745020362703     
  1.560000000000000E-002    0.923183965942361     
  1.570000000000000E-002    0.850610633967643     
  1.580000000000000E-002    0.779055309849739     
  1.590000000000000E-002    0.708546946063228     
  1.600000000000000E-002    0.639113030340295     
  1.610000000000000E-002    0.570779541028509     
  1.620000000000000E-002    0.503571107569066     
  1.630000000000000E-002    0.437510856572509     
  1.640000000000000E-002    0.372620553278355     
  1.650000000000000E-002    0.308920525611195     
  1.660000000000000E-002    0.246429653373856     
  1.670000000000000E-002    0.185165482245397     
  1.680000000000000E-002    0.125144086543427     
  1.690000000000000E-002    6.638011955572418E-002
  1.700000000000000E-002    8.886989196195062E-003
  1.710000000000000E-002   -4.732337916632252E-002
  1.720000000000000E-002   -0.102240340475050     
  1.730000000000000E-002   -0.155854591210020     
  1.740000000000000E-002   -0.208158168978293     
  1.750000000000000E-002   -0.259144309057373     
  1.760000000000000E-002   -0.308807641724412     
  1.770000000000000E-002   -0.357143963067986     
  1.780000000000000E-002   -0.404150307545969     
  1.790000000000000E-002   -0.449824974754267     
  1.800000000000000E-002   -0.494167370273378     
  1.810000000000000E-002   -0.537178068301636     
  1.820000000000000E-002   -0.578858820506853     
  1.830000000000000E-002   -0.619212478580373     
  1.840000000000000E-002   -0.658242935231860     
  1.850000000000000E-002   -0.695955152130807     
  1.860000000000000E-002   -0.732355148697184     
  1.870000000000000E-002   -0.767449857591989     