 -4.000000000000000E-002    0.000000000000000E+000
 -3.990000000000000E-002    0.000000000000000E+000
 -3.980000000000000E-002    0.000000000000000E+000
 -3.970000000000000E-002    0.000000000000000E+000
 -3.960000000000000E-002    0.000000000000000E+000
 -3.950000000000000E-002    0.000000000000000E+000
 -3.940000000000000E-002    0.000000000000000E+000
 -3.930000000000000E-002    0.000000000000000E+000
 -3.920000000000000E-002    0.000000000000000E+000
 -3.910000000000000E-002    0.000000000000000E+000
 -3.900000000000000E-002    0.000000000000000E+000
 -3.890000000000000E-002    0.000000000000000E+000
 -3.880000000000000E-002    0.000000000000000E+000
 -3.870000000000000E-002    0.000000000000000E+000
 -3.860000000000000E-002    0.000000000000000E+000
 -3.850000000000000E-002    0.000000000000000E+000
 -3.840000000000000E-002    0.000000000000000E+000
 -3.830000000000000E-002    0.000000000000000E+000
 -3.820000000000000E-002    0.000000000000000E+000
 -3.810000000000000E-002    0.000000000000000E+000
 -3.800000000000000E-002    0.000000000000000E+000
 -3.790000000000000E-002    0.000000000000000E+000
 -3.780000000000000E-002    0.000000000000000E+000
 -3.770000000000000E-002    0.000000000000000E+000
 -3.760000000000000E-002    0.000000000000000E+000
 -3.750000000000000E-002    0.000000000000000E+000
 -3.740000000000000E-002    0.000000000000000E+000
 -3.730000000000000E-002    0.000000000000000E+000
 -3.720000000000000E-002    0.000000000000000E+000
 -3.710000000000000E-002    0.000000000000000E+000
 -3.700000000000000E-002    0.000000000000000E+000
 -3.690000000000000E-002    0.000000000000000E+000
 -3.680000000000000E-002    0.000000000000000E+000
 -3.670000000000000E-002    0.000000000000000E+000
 -3.660000000000000E-002    0.000000000000000E+000
 -3.650000000000000E-002    0.000000000000000E+000
 -3.640000000000000E-002    0.000000000000000E+000
 -3.630000000000000E-002    0.000000000000000E+000
 -3.620000000000000E-002    0.000000000000000E+000
 -3.610000000000000E-002    0.000000000000000E+000
 -3.600000000000000E-002    0.000000000000000E+000
 -3.590000000000000E-002    0.000000000000000E+000
 -3.580000000000000E-002    0.000000000000000E+000
 -3.570000000000000E-002    0.000000000000000E+000
 -3.560000000000000E-002    0.000000000000000E+000
 -3.550000000000000E-002    0.000000000000000E+000
 -3.540000000000000E-002    0.000000000000000E+000
 -3.530000000000000E-002    0.000000000000000E+000
 -3.520000000000000E-002    0.000000000000000E+000
 -3.510000000000000E-002    0.000000000000000E+000
 -3.500000000000000E-002    0.000000000000000E+000
 -3.490000000000000E-002    0.000000000000000E+000
 -3.480000000000000E-002    0.000000000000000E+000
 -3.470000000000000E-002    0.000000000000000E+000
 -3.460000000000000E-002    0.000000000000000E+000
 -3.450000000000000E-002    0.000000000000000E+000
 -3.440000000000000E-002    0.000000000000000E+000
 -3.430000000000000E-002    0.000000000000000E+000
 -3.420000000000000E-002    0.000000000000000E+000
 -3.410000000000000E-002    0.000000000000000E+000
 -3.400000000000000E-002    0.000000000000000E+000
 -3.390000000000000E-002    0.000000000000000E+000
 -3.380000000000000E-002    0.000000000000000E+000
 -3.370000000000000E-002    0.000000000000000E+000
 -3.360000000000000E-002    0.000000000000000E+000
 -3.350000000000000E-002    0.000000000000000E+000
 -3.340000000000000E-002    0.000000000000000E+000
 -3.330000000000000E-002    0.000000000000000E+000
 -3.320000000000000E-002    0.000000000000000E+000
 -3.310000000000000E-002    0.000000000000000E+000
 -3.300000000000000E-002    0.000000000000000E+000
 -3.290000000000000E-002    0.000000000000000E+000
 -3.280000000000000E-002    0.000000000000000E+000
 -3.270000000000000E-002    0.000000000000000E+000
 -3.260000000000000E-002    0.000000000000000E+000
 -3.250000000000000E-002    0.000000000000000E+000
 -3.240000000000000E-002    0.000000000000000E+000
 -3.230000000000000E-002    0.000000000000000E+000
 -3.220000000000000E-002    0.000000000000000E+000
 -3.210000000000000E-002    0.000000000000000E+000
 -3.200000000000000E-002    0.000000000000000E+000
 -3.190000000000000E-002    0.000000000000000E+000
 -3.180000000000000E-002    0.000000000000000E+000
 -3.170000000000000E-002    0.000000000000000E+000
 -3.160000000000000E-002    0.000000000000000E+000
 -3.150000000000000E-002    0.000000000000000E+000
 -3.140000000000000E-002    0.000000000000000E+000
 -3.130000000000000E-002    0.000000000000000E+000
 -3.120000000000000E-002    0.000000000000000E+000
 -3.110000000000000E-002    0.000000000000000E+000
 -3.100000000000000E-002    0.000000000000000E+000
 -3.090000000000000E-002    0.000000000000000E+000
 -3.080000000000000E-002    0.000000000000000E+000
 -3.070000000000000E-002    0.000000000000000E+000
 -3.060000000000000E-002    0.000000000000000E+000
 -3.050000000000000E-002    0.000000000000000E+000
 -3.040000000000000E-002    0.000000000000000E+000
 -3.030000000000000E-002    0.000000000000000E+000
 -3.020000000000000E-002    0.000000000000000E+000
 -3.010000000000000E-002    0.000000000000000E+000
 -3.000000000000000E-002    0.000000000000000E+000
 -2.990000000000000E-002    0.000000000000000E+000
 -2.980000000000000E-002    0.000000000000000E+000
 -2.970000000000000E-002    0.000000000000000E+000
 -2.960000000000000E-002    0.000000000000000E+000
 -2.950000000000000E-002    0.000000000000000E+000
 -2.940000000000000E-002    0.000000000000000E+000
 -2.930000000000000E-002    0.000000000000000E+000
 -2.920000000000000E-002    0.000000000000000E+000
 -2.910000000000000E-002    0.000000000000000E+000
 -2.900000000000000E-002    0.000000000000000E+000
 -2.890000000000000E-002    0.000000000000000E+000
 -2.880000000000000E-002    0.000000000000000E+000
 -2.870000000000000E-002    0.000000000000000E+000
 -2.860000000000000E-002    0.000000000000000E+000
 -2.850000000000000E-002    0.000000000000000E+000
 -2.840000000000000E-002    0.000000000000000E+000
 -2.830000000000000E-002    0.000000000000000E+000
 -2.820000000000000E-002    0.000000000000000E+000
 -2.810000000000000E-002    0.000000000000000E+000
 -2.800000000000000E-002    0.000000000000000E+000
 -2.790000000000000E-002    0.000000000000000E+000
 -2.780000000000000E-002    0.000000000000000E+000
 -2.770000000000000E-002    0.000000000000000E+000
 -2.760000000000000E-002    0.000000000000000E+000
 -2.750000000000000E-002    0.000000000000000E+000
 -2.740000000000000E-002    0.000000000000000E+000
 -2.730000000000000E-002    0.000000000000000E+000
 -2.720000000000000E-002    0.000000000000000E+000
 -2.710000000000000E-002    0.000000000000000E+000
 -2.700000000000000E-002    0.000000000000000E+000
 -2.690000000000000E-002    0.000000000000000E+000
 -2.680000000000000E-002    0.000000000000000E+000
 -2.670000000000000E-002    0.000000000000000E+000
 -2.660000000000000E-002    0.000000000000000E+000
 -2.650000000000000E-002    0.000000000000000E+000
 -2.640000000000000E-002    0.000000000000000E+000
 -2.630000000000000E-002    0.000000000000000E+000
 -2.620000000000000E-002    0.000000000000000E+000
 -2.610000000000000E-002    0.000000000000000E+000
 -2.600000000000000E-002    0.000000000000000E+000
 -2.590000000000000E-002    0.000000000000000E+000
 -2.580000000000000E-002    0.000000000000000E+000
 -2.570000000000000E-002    0.000000000000000E+000
 -2.560000000000000E-002    0.000000000000000E+000
 -2.550000000000000E-002    0.000000000000000E+000
 -2.540000000000000E-002    0.000000000000000E+000
 -2.530000000000000E-002    0.000000000000000E+000
 -2.520000000000000E-002    0.000000000000000E+000
 -2.510000000000000E-002    0.000000000000000E+000
 -2.500000000000000E-002    0.000000000000000E+000
 -2.490000000000000E-002    0.000000000000000E+000
 -2.480000000000000E-002    0.000000000000000E+000
 -2.470000000000000E-002    0.000000000000000E+000
 -2.460000000000000E-002    0.000000000000000E+000
 -2.450000000000000E-002    0.000000000000000E+000
 -2.440000000000000E-002    0.000000000000000E+000
 -2.430000000000000E-002    0.000000000000000E+000
 -2.420000000000000E-002    0.000000000000000E+000
 -2.410000000000000E-002    0.000000000000000E+000
 -2.400000000000000E-002    0.000000000000000E+000
 -2.390000000000000E-002    0.000000000000000E+000
 -2.380000000000000E-002    0.000000000000000E+000
 -2.370000000000000E-002    0.000000000000000E+000
 -2.360000000000000E-002    0.000000000000000E+000
 -2.350000000000000E-002    0.000000000000000E+000
 -2.340000000000000E-002    0.000000000000000E+000
 -2.330000000000000E-002    0.000000000000000E+000
 -2.320000000000000E-002    0.000000000000000E+000
 -2.310000000000000E-002    0.000000000000000E+000
 -2.300000000000000E-002    0.000000000000000E+000
 -2.290000000000000E-002    0.000000000000000E+000
 -2.280000000000000E-002    0.000000000000000E+000
 -2.270000000000000E-002    0.000000000000000E+000
 -2.260000000000000E-002    0.000000000000000E+000
 -2.250000000000000E-002    0.000000000000000E+000
 -2.240000000000000E-002    0.000000000000000E+000
 -2.230000000000000E-002    0.000000000000000E+000
 -2.220000000000000E-002    0.000000000000000E+000
 -2.210000000000000E-002    0.000000000000000E+000
 -2.200000000000000E-002    0.000000000000000E+000
 -2.190000000000000E-002    0.000000000000000E+000
 -2.180000000000000E-002    0.000000000000000E+000
 -2.170000000000000E-002    0.000000000000000E+000
 -2.160000000000000E-002    0.000000000000000E+000
 -2.150000000000000E-002    0.000000000000000E+000
 -2.140000000000000E-002    0.000000000000000E+000
 -2.130000000000000E-002    0.000000000000000E+000
 -2.120000000000000E-002    0.000000000000000E+000
 -2.110000000000000E-002    0.000000000000000E+000
 -2.100000000000000E-002    0.000000000000000E+000
 -2.090000000000000E-002    0.000000000000000E+000
 -2.080000000000000E-002    0.000000000000000E+000
 -2.070000000000000E-002    0.000000000000000E+000
 -2.060000000000000E-002    0.000000000000000E+000
 -2.050000000000000E-002    0.000000000000000E+000
 -2.040000000000000E-002    0.000000000000000E+000
 -2.030000000000000E-002    0.000000000000000E+000
 -2.020000000000000E-002    0.000000000000000E+000
 -2.010000000000000E-002    0.000000000000000E+000
 -2.000000000000000E-002    0.000000000000000E+000
 -1.990000000000000E-002    0.000000000000000E+000
 -1.980000000000000E-002    0.000000000000000E+000
 -1.970000000000000E-002    0.000000000000000E+000
 -1.960000000000000E-002    0.000000000000000E+000
 -1.950000000000000E-002    0.000000000000000E+000
 -1.940000000000000E-002    0.000000000000000E+000
 -1.930000000000000E-002    0.000000000000000E+000
 -1.920000000000000E-002    0.000000000000000E+000
 -1.910000000000000E-002    0.000000000000000E+000
 -1.900000000000000E-002    0.000000000000000E+000
 -1.890000000000000E-002    0.000000000000000E+000
 -1.880000000000000E-002    0.000000000000000E+000
 -1.870000000000000E-002    0.000000000000000E+000
 -1.860000000000000E-002    0.000000000000000E+000
 -1.850000000000000E-002    0.000000000000000E+000
 -1.840000000000000E-002    0.000000000000000E+000
 -1.830000000000000E-002    0.000000000000000E+000
 -1.820000000000000E-002    0.000000000000000E+000
 -1.810000000000000E-002    0.000000000000000E+000
 -1.800000000000000E-002    0.000000000000000E+000
 -1.790000000000000E-002    0.000000000000000E+000
 -1.780000000000000E-002    0.000000000000000E+000
 -1.770000000000000E-002    0.000000000000000E+000
 -1.760000000000000E-002    0.000000000000000E+000
 -1.750000000000000E-002    0.000000000000000E+000
 -1.740000000000000E-002    0.000000000000000E+000
 -1.730000000000000E-002    0.000000000000000E+000
 -1.720000000000000E-002    0.000000000000000E+000
 -1.710000000000000E-002    0.000000000000000E+000
 -1.700000000000000E-002    0.000000000000000E+000
 -1.690000000000000E-002    0.000000000000000E+000
 -1.680000000000000E-002    0.000000000000000E+000
 -1.670000000000000E-002    0.000000000000000E+000
 -1.660000000000000E-002    0.000000000000000E+000
 -1.650000000000000E-002    0.000000000000000E+000
 -1.640000000000000E-002    0.000000000000000E+000
 -1.630000000000000E-002    0.000000000000000E+000
 -1.620000000000000E-002    0.000000000000000E+000
 -1.610000000000000E-002    0.000000000000000E+000
 -1.600000000000000E-002    0.000000000000000E+000
 -1.590000000000000E-002    0.000000000000000E+000
 -1.580000000000000E-002    0.000000000000000E+000
 -1.570000000000000E-002    0.000000000000000E+000
 -1.560000000000000E-002    0.000000000000000E+000
 -1.550000000000000E-002    0.000000000000000E+000
 -1.540000000000000E-002    0.000000000000000E+000
 -1.530000000000000E-002    0.000000000000000E+000
 -1.520000000000000E-002    0.000000000000000E+000
 -1.510000000000000E-002    0.000000000000000E+000
 -1.500000000000000E-002    0.000000000000000E+000
 -1.490000000000000E-002    0.000000000000000E+000
 -1.480000000000000E-002    0.000000000000000E+000
 -1.470000000000000E-002    0.000000000000000E+000
 -1.460000000000000E-002    0.000000000000000E+000
 -1.450000000000000E-002    0.000000000000000E+000
 -1.440000000000000E-002    0.000000000000000E+000
 -1.430000000000000E-002    0.000000000000000E+000
 -1.420000000000000E-002    0.000000000000000E+000
 -1.410000000000000E-002    0.000000000000000E+000
 -1.400000000000000E-002    0.000000000000000E+000
 -1.390000000000000E-002    0.000000000000000E+000
 -1.380000000000000E-002    0.000000000000000E+000
 -1.370000000000000E-002    0.000000000000000E+000
 -1.360000000000000E-002    0.000000000000000E+000
 -1.350000000000000E-002    0.000000000000000E+000
 -1.340000000000000E-002    0.000000000000000E+000
 -1.330000000000000E-002    0.000000000000000E+000
 -1.320000000000000E-002    0.000000000000000E+000
 -1.310000000000000E-002    0.000000000000000E+000
 -1.300000000000000E-002    0.000000000000000E+000
 -1.290000000000000E-002    0.000000000000000E+000
 -1.280000000000000E-002    0.000000000000000E+000
 -1.270000000000000E-002    0.000000000000000E+000
 -1.260000000000000E-002    0.000000000000000E+000
 -1.250000000000000E-002    0.000000000000000E+000
 -1.240000000000000E-002    0.000000000000000E+000
 -1.230000000000000E-002    0.000000000000000E+000
 -1.220000000000000E-002    0.000000000000000E+000
 -1.210000000000000E-002    0.000000000000000E+000
 -1.200000000000000E-002    0.000000000000000E+000
 -1.190000000000000E-002    0.000000000000000E+000
 -1.180000000000000E-002    0.000000000000000E+000
 -1.170000000000000E-002    0.000000000000000E+000
 -1.160000000000000E-002    0.000000000000000E+000
 -1.150000000000000E-002    0.000000000000000E+000
 -1.140000000000000E-002    0.000000000000000E+000
 -1.130000000000000E-002    0.000000000000000E+000
 -1.120000000000000E-002    0.000000000000000E+000
 -1.110000000000000E-002    0.000000000000000E+000
 -1.100000000000000E-002    0.000000000000000E+000
 -1.090000000000000E-002    0.000000000000000E+000
 -1.080000000000000E-002    0.000000000000000E+000
 -1.070000000000000E-002    0.000000000000000E+000
 -1.060000000000000E-002    0.000000000000000E+000
 -1.050000000000000E-002    0.000000000000000E+000
 -1.040000000000000E-002    0.000000000000000E+000
 -1.030000000000000E-002    0.000000000000000E+000
 -1.020000000000000E-002    0.000000000000000E+000
 -1.010000000000000E-002    0.000000000000000E+000
 -1.000000000000000E-002    0.000000000000000E+000
 -9.899999999999999E-003    0.000000000000000E+000
 -9.800000000000000E-003    0.000000000000000E+000
 -9.699999999999999E-003    0.000000000000000E+000
 -9.599999999999999E-003    0.000000000000000E+000
 -9.500000000000000E-003    0.000000000000000E+000
 -9.399999999999999E-003    0.000000000000000E+000
 -9.299999999999999E-003    0.000000000000000E+000
 -9.200000000000000E-003    0.000000000000000E+000
 -9.099999999999999E-003    0.000000000000000E+000
 -8.999999999999999E-003    0.000000000000000E+000
 -8.900000000000000E-003    0.000000000000000E+000
 -8.799999999999999E-003    0.000000000000000E+000
 -8.699999999999999E-003    0.000000000000000E+000
 -8.600000000000000E-003    0.000000000000000E+000
 -8.499999999999999E-003    0.000000000000000E+000
 -8.399999999999999E-003    0.000000000000000E+000
 -8.300000000000000E-003    0.000000000000000E+000
 -8.199999999999999E-003    0.000000000000000E+000
 -8.100000000000000E-003    0.000000000000000E+000
 -8.000000000000000E-003    0.000000000000000E+000
 -7.899999999999999E-003    0.000000000000000E+000
 -7.800000000000000E-003    0.000000000000000E+000
 -7.699999999999999E-003    0.000000000000000E+000
 -7.599999999999999E-003    0.000000000000000E+000
 -7.499999999999999E-003    0.000000000000000E+000
 -7.399999999999999E-003    0.000000000000000E+000
 -7.299999999999999E-003    0.000000000000000E+000
 -7.199999999999999E-003    0.000000000000000E+000
 -7.100000000000000E-003    0.000000000000000E+000
 -6.999999999999999E-003    0.000000000000000E+000
 -6.899999999999999E-003    0.000000000000000E+000
 -6.800000000000000E-003    0.000000000000000E+000
 -6.699999999999999E-003    0.000000000000000E+000
 -6.599999999999999E-003    0.000000000000000E+000
 -6.499999999999999E-003    0.000000000000000E+000
 -6.399999999999999E-003    0.000000000000000E+000
 -6.299999999999999E-003    0.000000000000000E+000
 -6.199999999999999E-003    0.000000000000000E+000
 -6.100000000000000E-003    0.000000000000000E+000
 -5.999999999999999E-003    0.000000000000000E+000
 -5.899999999999999E-003    0.000000000000000E+000
 -5.800000000000000E-003    0.000000000000000E+000
 -5.699999999999999E-003    0.000000000000000E+000
 -5.599999999999999E-003    0.000000000000000E+000
 -5.499999999999999E-003    0.000000000000000E+000
 -5.399999999999999E-003    0.000000000000000E+000
 -5.299999999999999E-003    0.000000000000000E+000
 -5.199999999999999E-003    0.000000000000000E+000
 -5.099999999999999E-003    0.000000000000000E+000
 -4.999999999999999E-003    0.000000000000000E+000
 -4.899999999999999E-003    0.000000000000000E+000
 -4.799999999999999E-003    0.000000000000000E+000
 -4.699999999999999E-003    0.000000000000000E+000
 -4.599999999999999E-003    0.000000000000000E+000
 -4.499999999999999E-003    0.000000000000000E+000
 -4.399999999999999E-003    0.000000000000000E+000
 -4.299999999999999E-003    0.000000000000000E+000
 -4.199999999999999E-003    0.000000000000000E+000
 -4.099999999999999E-003    0.000000000000000E+000
 -3.999999999999999E-003    0.000000000000000E+000
 -3.899999999999999E-003    0.000000000000000E+000
 -3.799999999999999E-003    0.000000000000000E+000
 -3.699999999999999E-003    0.000000000000000E+000
 -3.599999999999999E-003    0.000000000000000E+000
 -3.499999999999999E-003    0.000000000000000E+000
 -3.399999999999999E-003    0.000000000000000E+000
 -3.299999999999999E-003    0.000000000000000E+000
 -3.199999999999999E-003    0.000000000000000E+000
 -3.099999999999999E-003    0.000000000000000E+000
 -2.999999999999999E-003    0.000000000000000E+000
 -2.899999999999999E-003    0.000000000000000E+000
 -2.799999999999999E-003    0.000000000000000E+000
 -2.699999999999999E-003    0.000000000000000E+000
 -2.599999999999999E-003    0.000000000000000E+000
 -2.499999999999999E-003    0.000000000000000E+000
 -2.399999999999999E-003    0.000000000000000E+000
 -2.299999999999999E-003    0.000000000000000E+000
 -2.199999999999999E-003    0.000000000000000E+000
 -2.099999999999999E-003    0.000000000000000E+000
 -1.999999999999999E-003    0.000000000000000E+000
 -1.899999999999999E-003    0.000000000000000E+000
 -1.799999999999999E-003    0.000000000000000E+000
 -1.699999999999999E-003    0.000000000000000E+000
 -1.599999999999999E-003    0.000000000000000E+000
 -1.499999999999999E-003    0.000000000000000E+000
 -1.399999999999999E-003    0.000000000000000E+000
 -1.299999999999999E-003    0.000000000000000E+000
 -1.199999999999999E-003    0.000000000000000E+000
 -1.099999999999999E-003    0.000000000000000E+000
 -9.999999999999989E-004    0.000000000000000E+000
 -8.999999999999990E-004    0.000000000000000E+000
 -7.999999999999990E-004    0.000000000000000E+000
 -6.999999999999989E-004    0.000000000000000E+000
 -5.999999999999990E-004    0.000000000000000E+000
 -4.999999999999989E-004    0.000000000000000E+000
 -3.999999999999989E-004    0.000000000000000E+000
 -2.999999999999989E-004    0.000000000000000E+000
 -1.999999999999989E-004    0.000000000000000E+000
 -9.999999999999892E-005    0.000000000000000E+000
  1.084202172485504E-018    0.000000000000000E+000
  1.000000000000011E-004   -5.729748743698578E-047
  2.000000000000011E-004   -2.826676074732598E-046
  3.000000000000011E-004   -5.653352149465195E-046
  4.000000000000011E-004   -8.480028224197793E-046
  5.000000000000011E-004   -9.625977972937509E-046
  6.000000000000011E-004   -1.019895284730737E-045
  7.000000000000011E-004   -1.019895284730737E-045
  8.000000000000011E-004   -5.632511997472352E-046
  9.000000000000012E-004    7.987860110237842E-048
  1.000000000000001E-003    1.261241124987486E-045
  1.100000000000001E-003    4.076860953520225E-045
  1.200000000000001E-003    7.175148389526223E-045
  1.300000000000001E-003    1.038803080040619E-044
  1.400000000000001E-003    1.459204071508418E-044
  1.500000000000001E-003    1.781846042864907E-044
  1.600000000000001E-003    2.007429448480998E-044
  1.700000000000001E-003    1.910225372627158E-044
  1.800000000000001E-003    1.502602168681622E-044
  1.900000000000001E-003    7.337560638934380E-045
  2.000000000000001E-003   -5.410901006155464E-045
  2.100000000000001E-003   -2.304538677094307E-044
  2.200000000000001E-003   -4.441432997680510E-044
  2.300000000000001E-003   -6.913192132887998E-044
  2.400000000000001E-003   -9.310284204245272E-044
  2.500000000000001E-003   -1.138076771991488E-043
  2.600000000000001E-003   -1.268246802220279E-043
  2.700000000000001E-003   -1.260524300663561E-043
  2.800000000000001E-003   -1.074241376539227E-043
  2.900000000000001E-003   -6.616982894103841E-044
  3.000000000000001E-003    2.153413409696046E-045
  3.100000000000001E-003    9.719681025619061E-044
  3.200000000000001E-003    2.164940699354598E-043
  3.300000000000001E-003    3.522368614939017E-043
  3.400000000000001E-003    4.920805124261001E-043
  3.500000000000001E-003    6.179981887117807E-043
  3.600000000000001E-003    7.073054696626080E-043
  3.700000000000001E-003    7.330133449897622E-043
  3.800000000000001E-003    6.667511443502587E-043
  3.900000000000001E-003    4.816865628926483E-043
  4.000000000000001E-003    1.590377250574517E-043
  4.100000000000001E-003   -3.094769712648086E-043
  4.200000000000001E-003   -9.139934075740170E-043
  4.300000000000001E-003   -1.622561830131683E-042
  4.400000000000001E-003   -2.376984235502438E-042
  4.500000000000001E-003   -3.090190444939395E-042
  4.600000000000002E-003   -3.648418386596332E-042
  4.700000000000001E-003   -3.917828089135970E-042
  4.800000000000001E-003   -3.753359153735617E-042
  4.900000000000002E-003   -3.016377688859148E-042
  5.000000000000001E-003   -1.596299403767128E-042
  5.100000000000001E-003    5.654718079025302E-043
  5.200000000000001E-003    3.444256054707772E-042
  5.300000000000002E-003    6.912074628288257E-042
  5.400000000000001E-003    1.071183623719306E-041
  5.500000000000001E-003    1.444967572778723E-041
  5.600000000000002E-003    1.759729020568549E-041
  5.700000000000001E-003    1.951816923428530E-041
  5.800000000000001E-003    1.951474741775392E-041
  5.900000000000002E-003    1.690255748219160E-041
  6.000000000000001E-003    1.110669501615570E-041
  6.100000000000001E-003    1.780667107890011E-042
  6.200000000000002E-003   -1.106855032549058E-041
  6.300000000000002E-003   -2.695641211836397E-041
  6.400000000000001E-003   -4.482269776186137E-041
  6.500000000000001E-003   -6.297604664319855E-041
  6.600000000000002E-003   -7.910017556632631E-041
  6.700000000000001E-003   -9.036000589276643E-041
  6.800000000000001E-003   -9.359685743243829E-041
  6.900000000000002E-003   -8.564767235912650E-041
  7.000000000000001E-003   -6.376851442212716E-041
  7.100000000000001E-003   -2.614050856556047E-041
  7.200000000000002E-003    2.757527711860282E-041
  7.300000000000002E-003    9.570324879904291E-041
  7.400000000000001E-003    1.741026810427118E-040
  7.500000000000001E-003    2.559070896900287E-040
  7.600000000000002E-003    3.315402481078379E-040
  7.700000000000001E-003    3.890993784668027E-040
  7.800000000000001E-003    4.151794024754713E-040
  7.900000000000001E-003    3.961560033507575E-040
  8.000000000000002E-003    3.199166462295477E-040
  8.100000000000001E-003    1.779482794326727E-040
  8.200000000000001E-003   -3.239718581357283E-041
  8.300000000000002E-003   -3.056874924329271E-040
  8.400000000000001E-003   -6.265714901037315E-040
  8.500000000000002E-003   -9.686788828402696E-040
  8.600000000000002E-003   -1.294629599696288E-039
  8.700000000000001E-003   -1.557506475273081E-039
  8.800000000000002E-003   -1.704038457167960E-039
  8.900000000000002E-003   -1.679597810218420E-039
  9.000000000000001E-003   -1.434914166328275E-039
  9.100000000000002E-003   -9.341106386267904E-040
  9.200000000000002E-003   -1.634214046934500E-040
  9.300000000000001E-003    8.603747640477930E-040
  9.400000000000002E-003    2.083005615871198E-039
  9.500000000000001E-003    3.408592526256238E-039
  9.600000000000001E-003    4.699768431572150E-039
  9.700000000000002E-003    5.783238844558369E-039
  9.800000000000001E-003    6.461654031541864E-039
  9.900000000000001E-003    6.532050868202343E-039
  1.000000000000000E-002    5.810333233104202E-039
  1.010000000000000E-002    4.160304490745310E-039
  1.020000000000000E-002    1.524736864573737E-039
  1.030000000000000E-002   -2.045028919639516E-039
  1.040000000000000E-002   -6.365234934598201E-039
  1.050000000000000E-002   -1.110634216548371E-038
  1.060000000000000E-002   -1.579480637050842E-038
  1.070000000000000E-002   -1.983391199874006E-038
  1.080000000000000E-002   -2.254616380800625E-038
  1.090000000000000E-002   -2.323754546710270E-038
  1.100000000000000E-002   -2.128115174961709E-038
  1.110000000000000E-002   -1.621447321191670E-038
  1.120000000000000E-002   -7.841291788035617E-039
  1.130000000000000E-002    3.673866000178668E-039
  1.140000000000000E-002    1.773295726080968E-038
  1.150000000000000E-002    3.326839441527575E-038
  1.160000000000000E-002    4.875793315270701E-038
  1.170000000000000E-002    6.230147804650692E-038
  1.180000000000000E-002    7.176552311764474E-038
  1.190000000000000E-002    7.499341092640226E-038
  1.200000000000000E-002    7.007045023287783E-038
  1.210000000000000E-002    5.562293949549703E-038
  1.220000000000000E-002    3.112044031375443E-038
  1.230000000000000E-002   -2.857155937016835E-039
  1.240000000000000E-002   -4.443117878576475E-038
  1.250000000000000E-002   -9.035752199115507E-038
  1.260000000000000E-002   -1.361192456286358E-037
  1.270000000000000E-002   -1.762034780498108E-037
  1.280000000000000E-002   -2.045690485317984E-037
  1.290000000000000E-002   -2.152869475518324E-037
  1.300000000000000E-002   -2.033087092169762E-037
  1.310000000000000E-002   -1.652897466434345E-037
  1.320000000000000E-002   -1.003710269626225E-037
  1.330000000000000E-002   -1.080555555852324E-038
  1.340000000000000E-002    9.768726146714236E-038
  1.350000000000000E-002    2.159464430648732E-037
  1.360000000000000E-002    3.318510007174512E-037
  1.370000000000000E-002    4.312896261553205E-037
  1.380000000000000E-002    4.995893363206362E-037
  1.390000000000000E-002    5.233017759376621E-037
  1.400000000000000E-002    4.921736184743969E-037
  1.410000000000000E-002    4.010630602031403E-037
  1.420000000000000E-002    2.515196484990868E-037
  1.430000000000000E-002    5.273308974770552E-038
  1.440000000000000E-002   -1.784163608949130E-037
  1.450000000000000E-002   -4.183968728114675E-037
  1.460000000000000E-002   -6.392235651413014E-037
  1.470000000000000E-002   -8.117249437596733E-037
  1.480000000000000E-002   -9.095998744118499E-037
  1.490000000000000E-002   -9.138010091936216E-037
  1.500000000000000E-002   -8.166207752055936E-037
  1.510000000000000E-002   -6.247545248086301E-037
  1.520000000000000E-002   -3.606097576223913E-037
  1.530000000000000E-002   -6.123304810847412E-038
  1.540000000000000E-002    2.255349491596000E-037
  1.550000000000000E-002    4.477004057244921E-037
  1.560000000000000E-002    5.581174491777272E-037
  1.570000000000000E-002    5.248912095015386E-037
  1.580000000000000E-002    3.417218800219291E-037
  1.590000000000000E-002    3.632774277505670E-038
  1.600000000000000E-002   -3.251210040109403E-037
  1.610000000000000E-002   -6.395413746872347E-037
  1.620000000000000E-002   -7.760056679786616E-037
  1.630000000000000E-002   -5.930605841272346E-037
  1.640000000000000E-002    3.616589579931206E-038
  1.650000000000000E-002    1.193001620316115E-036
  1.660000000000000E-002    2.879941125663716E-036
  1.670000000000000E-002    4.990071247270921E-036
  1.680000000000000E-002    7.285369244108269E-036
  1.690000000000000E-002    9.390534298227591E-036
  1.700000000000000E-002    1.080854313603904E-035
  1.710000000000000E-002    1.096254896404374E-035
  1.720000000000000E-002    9.265925598229079E-036
  1.730000000000000E-002    5.218289191783048E-036
  1.740000000000000E-002   -1.479491602097999E-036
  1.750000000000000E-002   -1.080352640567344E-035
  1.760000000000000E-002   -2.229548919068322E-035
  1.770000000000000E-002   -3.498243181811658E-035
  1.780000000000000E-002   -4.735036466477868E-035
  1.790000000000000E-002   -5.739287266551478E-035
  1.800000000000000E-002   -6.275111530071842E-035
  1.810000000000000E-002   -6.095276512058210E-035
  1.820000000000000E-002   -4.974490045636258E-035
  1.830000000000000E-002   -2.750018898020551E-035
  1.840000000000000E-002    6.341134685024182E-036
  1.850000000000000E-002    5.084767514983833E-035
  1.860000000000000E-002    1.032589993858687E-034
  1.870000000000000E-002    1.588082493010365E-034