 -4.000000000000000E-002    0.000000000000000E+000
 -3.990000000000000E-002    0.000000000000000E+000
 -3.980000000000000E-002    0.000000000000000E+000
 -3.970000000000000E-002    0.000000000000000E+000
 -3.960000000000000E-002    0.000000000000000E+000
 -3.950000000000000E-002    0.000000000000000E+000
 -3.940000000000000E-002    0.000000000000000E+000
 -3.930000000000000E-002    0.000000000000000E+000
 -3.920000000000000E-002    0.000000000000000E+000
 -3.910000000000000E-002    0.000000000000000E+000
 -3.900000000000000E-002    0.000000000000000E+000
 -3.890000000000000E-002    0.000000000000000E+000
 -3.880000000000000E-002    0.000000000000000E+000
 -3.870000000000000E-002    0.000000000000000E+000
 -3.860000000000000E-002    0.000000000000000E+000
 -3.850000000000000E-002    0.000000000000000E+000
 -3.840000000000000E-002    0.000000000000000E+000
 -3.830000000000000E-002    0.000000000000000E+000
 -3.820000000000000E-002    0.000000000000000E+000
 -3.810000000000000E-002    0.000000000000000E+000
 -3.800000000000000E-002    0.000000000000000E+000
 -3.790000000000000E-002    0.000000000000000E+000
 -3.780000000000000E-002    0.000000000000000E+000
 -3.770000000000000E-002    0.000000000000000E+000
 -3.760000000000000E-002    0.000000000000000E+000
 -3.750000000000000E-002    0.000000000000000E+000
 -3.740000000000000E-002    0.000000000000000E+000
 -3.730000000000000E-002    0.000000000000000E+000
 -3.720000000000000E-002    0.000000000000000E+000
 -3.710000000000000E-002    0.000000000000000E+000
 -3.700000000000000E-002    0.000000000000000E+000
 -3.690000000000000E-002    0.000000000000000E+000
 -3.680000000000000E-002    0.000000000000000E+000
 -3.670000000000000E-002    0.000000000000000E+000
 -3.660000000000000E-002    0.000000000000000E+000
 -3.650000000000000E-002    0.000000000000000E+000
 -3.640000000000000E-002    0.000000000000000E+000
 -3.630000000000000E-002    0.000000000000000E+000
 -3.620000000000000E-002    1.813370861854058E-047
 -3.610000000000000E-002    3.626741723708117E-047
 -3.600000000000000E-002    3.626741723708117E-047
 -3.590000000000000E-002    4.746871445005696E-047
 -3.580000000000000E-002   -2.701894062634033E-046
 -3.570000000000000E-002   -9.108004594973156E-046
 -3.560000000000000E-002   -2.078693157594857E-045
 -3.550000000000000E-002   -5.888234495757224E-045
 -3.540000000000000E-002   -1.447667352479995E-044
 -3.530000000000000E-002   -3.355808092424530E-044
 -3.520000000000000E-002   -7.369945290962588E-044
 -3.510000000000000E-002   -1.551184156187790E-043
 -3.500000000000000E-002   -3.097968188310779E-043
 -3.490000000000000E-002   -5.878495872908946E-043
 -3.480000000000000E-002   -1.058064116970883E-042
 -3.470000000000000E-002   -1.792893192957921E-042
 -3.460000000000000E-002   -2.829878149852039E-042
 -3.450000000000000E-002   -4.069665018064090E-042
 -3.440000000000000E-002   -5.062069944552605E-042
 -3.430000000000000E-002   -4.611224916547066E-042
 -3.420000000000000E-002   -1.040921977188721E-043
 -3.410000000000000E-002    1.354709451490976E-041
 -3.400000000000000E-002    4.539469163647941E-041
 -3.390000000000000E-002    1.103149294695487E-040
 -3.380000000000000E-002    2.308615204307589E-040
 -3.370000000000000E-002    4.381847070781121E-040
 -3.360000000000000E-002    7.701449134761577E-040
 -3.350000000000000E-002    1.263373175357494E-039
 -3.340000000000000E-002    1.934166727692218E-039
 -3.330000000000000E-002    2.740974543123765E-039
 -3.320000000000000E-002    3.519359551994208E-039
 -3.310000000000000E-002    3.879751058330257E-039
 -3.300000000000000E-002    3.061014268699407E-039
 -3.290000000000000E-002   -2.585895800579633E-040
 -3.280000000000000E-002   -8.172995879994488E-039
 -3.270000000000000E-002   -2.372993323641866E-038
 -3.260000000000000E-002   -5.097892216142418E-038
 -3.250000000000000E-002   -9.471056531780968E-038
 -3.240000000000000E-002   -1.596219153341696E-037
 -3.230000000000000E-002   -2.485459719114746E-037
 -3.220000000000000E-002   -3.593028402102494E-037
 -3.210000000000000E-002   -4.797132131771041E-037
 -3.200000000000000E-002   -5.804239535361619E-037
 -3.190000000000000E-002   -6.055290665102645E-037
 -3.180000000000000E-002   -4.616339544376194E-037
 -3.170000000000000E-002   -7.135120652858676E-039
 -3.160000000000000E-002    9.548583300322746E-037
 -3.150000000000000E-002    2.674280438384984E-036
 -3.140000000000000E-002    5.434222782878904E-036
 -3.130000000000000E-002    9.502321823194852E-036
 -3.120000000000000E-002    1.504016674414777E-035
 -3.110000000000000E-002    2.195706411812146E-035
 -3.100000000000000E-002    2.969734247934965E-035
 -3.090000000000000E-002    3.695858663625661E-035
 -3.080000000000000E-002    4.135367640500421E-035
 -3.070000000000000E-002    3.905522010695493E-035
 -3.060000000000000E-002    2.449735800136809E-035
 -3.050000000000000E-002   -9.742683719686406E-036
 -3.040000000000000E-002   -7.270585544543118E-035
 -3.030000000000000E-002   -1.742219602724806E-034
 -3.020000000000000E-002   -3.232126412328366E-034
 -3.010000000000000E-002   -5.248406968924518E-034
 -3.000000000000000E-002   -7.762622031582679E-034
 -2.990000000000000E-002   -1.060880018496136E-033
 -2.980000000000000E-002   -1.341254441656616E-033
 -2.970000000000000E-002   -1.551245740337316E-033
 -2.960000000000000E-002   -1.588558097905792E-033
 -2.950000000000000E-002   -1.309602219260288E-033
 -2.940000000000000E-002   -5.294706658412102E-034
 -2.930000000000000E-002    9.692990360711092E-034
 -2.920000000000000E-002    3.414766805150928E-033
 -2.910000000000000E-002    7.005827361534796E-033
 -2.900000000000000E-002    1.185042447069905E-032
 -2.890000000000000E-002    1.787940655329635E-032
 -2.880000000000000E-002    2.473687516734847E-032
 -2.870000000000000E-002    3.165343285814924E-032
 -2.860000000000000E-002    3.731622385833904E-032
 -2.850000000000000E-002    3.975955772956254E-032
 -2.840000000000000E-002    3.631108540442932E-032
 -2.830000000000000E-002    2.364045745468267E-032
 -2.820000000000000E-002   -2.033362686703476E-033
 -2.810000000000000E-002   -4.451501526669324E-032
 -2.800000000000000E-002   -1.069281958904982E-031
 -2.790000000000000E-002   -1.906951561287712E-031
 -2.780000000000000E-002   -2.941970940111626E-031
 -2.770000000000000E-002   -4.111727639118664E-031
 -2.760000000000000E-002   -5.289957468896779E-031
 -2.750000000000000E-002   -6.270821730575578E-031
 -2.740000000000000E-002   -6.758045506982911E-031
 -2.730000000000000E-002   -6.364216808631101E-031
 -2.720000000000000E-002   -4.626420132065171E-031
 -2.710000000000000E-002   -1.045014713774246E-031
 -2.700000000000000E-002    4.847917716241358E-031
 -2.690000000000000E-002    1.338576877846022E-030
 -2.680000000000000E-002    2.462904214653399E-030
 -2.670000000000000E-002    3.819636972523202E-030
 -2.660000000000000E-002    5.307813622137088E-030
 -2.650000000000000E-002    6.745679689152078E-030
 -2.640000000000000E-002    7.857081504225625E-030
 -2.630000000000000E-002    8.267137241674656E-030
 -2.620000000000000E-002    7.513247544539712E-030
 -2.610000000000000E-002    5.078045389996170E-030
 -2.600000000000000E-002    4.505339858216521E-031
 -2.590000000000000E-002   -6.779905282992221E-030
 -2.580000000000000E-002   -1.679545475883163E-029
 -2.570000000000000E-002   -2.939214474612336E-029
 -2.560000000000000E-002   -4.380454723875093E-029
 -2.550000000000000E-002   -5.853466873454558E-029
 -2.540000000000000E-002   -7.121807614094523E-029
 -2.530000000000000E-002   -7.857121118475368E-029
 -2.520000000000000E-002   -7.647305387357754E-029
 -2.510000000000000E-002   -6.023828633917734E-029
 -2.500000000000000E-002   -2.513537453505838E-029
 -2.490000000000000E-002    3.281174038755739E-029
 -2.480000000000000E-002    1.157300259688892E-028
 -2.470000000000000E-002    2.225513891842872E-028
 -2.460000000000000E-002    3.475167269670623E-028
 -2.450000000000000E-002    4.787136932247203E-028
 -2.440000000000000E-002    5.969180445817849E-028
 -2.430000000000000E-002    6.750948619093377E-028
 -2.420000000000000E-002    6.789816893652955E-028
 -2.410000000000000E-002    5.692019413175404E-028
 -2.400000000000000E-002    3.053206053079572E-028
 -2.390000000000000E-002   -1.478790035869117E-028
 -2.380000000000000E-002   -8.118381912634564E-028
 -2.370000000000000E-002   -1.683712574466152E-027
 -2.360000000000000E-002   -2.724688144870172E-027
 -2.350000000000000E-002   -3.848502472871383E-027
 -2.340000000000000E-002   -4.912168242191158E-027
 -2.330000000000000E-002   -5.711477072279986E-027
 -2.320000000000000E-002   -5.984298805908578E-027
 -2.310000000000000E-002   -5.424855744516985E-027
 -2.300000000000000E-002   -3.711796302568927E-027
 -2.290000000000000E-002   -5.520190442726004E-028
 -2.280000000000000E-002    4.259464401642706E-027
 -2.270000000000000E-002    1.076579466753814E-026
 -2.260000000000000E-002    1.876597473394592E-026
 -2.250000000000000E-002    2.773312122219191E-026
 -2.240000000000000E-002    3.674626760092439E-026
 -2.230000000000000E-002    4.445242619983529E-026
 -2.220000000000000E-002    4.907810667562840E-026
 -2.210000000000000E-002    4.851025435315981E-026
 -2.200000000000000E-002    4.046430371234978E-026
 -2.190000000000000E-002    2.275141620923974E-026
 -2.180000000000000E-002   -6.353313709758986E-027
 -2.170000000000000E-002   -4.765442474070937E-026
 -2.160000000000000E-002   -1.005228399673428E-025
 -2.150000000000000E-002   -1.623789334245281E-025
 -2.140000000000000E-002   -2.282469454153167E-025
 -2.130000000000000E-002   -2.904765170685090E-025
 -2.120000000000000E-002   -3.387396109668784E-025
 -2.110000000000000E-002   -3.604146828994408E-025
 -2.100000000000000E-002   -3.414567756312056E-025
 -2.090000000000000E-002   -2.678189503248402E-025
 -2.080000000000000E-002   -1.274361485903189E-025
 -2.070000000000000E-002    8.729569006201889E-026
 -2.060000000000000E-002    3.767109725478360E-025
 -2.050000000000000E-002    7.310111667753296E-025
 -2.040000000000000E-002    1.127734419106662E-024
 -2.030000000000000E-002    1.530043642699961E-024
 -2.020000000000000E-002    1.886380364950557E-024
 -2.010000000000000E-002    2.132036221883651E-024
 -2.000000000000000E-002    2.193128888694485E-024
 -1.990000000000000E-002    1.993293113119213E-024
 -1.980000000000000E-002    1.463137423810892E-024
 -1.970000000000000E-002    5.521304768691489E-025
 -1.960000000000000E-002   -7.578671834572882E-025
 -1.950000000000000E-002   -2.438729442203395E-024
 -1.940000000000000E-002   -4.403643610873153E-024
 -1.930000000000000E-002   -6.498358537241462E-024
 -1.920000000000000E-002   -8.498577416124715E-024
 -1.910000000000000E-002   -1.011593219122584E-023
 -1.900000000000000E-002   -1.101462703140280E-023
 -1.890000000000000E-002   -1.084007306791625E-023
 -1.880000000000000E-002   -9.259550898829156E-024
 -1.870000000000000E-002   -6.013389387275083E-024
 -1.860000000000000E-002   -9.730643664462006E-025
 -1.850000000000000E-002    5.799345198487206E-024
 -1.840000000000000E-002    1.399806869811787E-023
 -1.830000000000000E-002    2.303612037087399E-023
 -1.820000000000000E-002    3.203343061791579E-023
 -1.810000000000000E-002    3.984036262820488E-023
 -1.800000000000000E-002    4.510459740601060E-023
 -1.790000000000000E-002    4.638594532687233E-023
 -1.780000000000000E-002    4.231850103246636E-023
 -1.770000000000000E-002    3.181275784950005E-023
 -1.760000000000000E-002    1.428293893846473E-023
 -1.750000000000000E-002   -1.012361868032413E-023
 -1.740000000000000E-002   -4.032529516709337E-023
 -1.730000000000000E-002   -7.416892671493416E-023
 -1.720000000000000E-002   -1.083941349343856E-022
 -1.710000000000000E-002   -1.387347911143576E-022
 -1.700000000000000E-002   -1.601847214745716E-022
 -1.690000000000000E-002   -1.674407060978949E-022
 -1.680000000000000E-002   -1.555159177462710E-022
 -1.670000000000000E-002   -1.204913878959271E-022
 -1.660000000000000E-002   -6.034472677036399E-023
 -1.650000000000000E-002    2.423223981475618E-023
 -1.640000000000000E-002    1.291404755977411E-022
 -1.630000000000000E-002    2.464342661456696E-022
 -1.620000000000000E-002    3.642682821714200E-022
 -1.610000000000000E-002    4.673486763203639E-022
 -1.600000000000000E-002    5.379742670360604E-022
 -1.590000000000000E-002    5.576955130955570E-022
 -1.580000000000000E-002    5.095476464166406E-022
 -1.570000000000000E-002    3.807217910806821E-022
 -1.560000000000000E-002    1.654421565153152E-022
 -1.550000000000000E-002   -1.322760964296614E-022
 -1.540000000000000E-002   -4.963880798076611E-022
 -1.530000000000000E-002   -8.975440965182748E-022
 -1.520000000000000E-002   -1.293216404430049E-021
 -1.510000000000000E-002   -1.629598711029572E-021
 -1.500000000000000E-002   -1.845526816941908E-021
 -1.490000000000000E-002   -1.878451795267820E-021
 -1.480000000000000E-002   -1.672251427450140E-021
 -1.470000000000000E-002   -1.186358705199642E-021
 -1.460000000000000E-002   -4.053639317169847E-022
 -1.450000000000000E-002    6.520309344700464E-022
 -1.440000000000000E-002    1.926053963765020E-021
 -1.430000000000000E-002    3.312341476435685E-021
 -1.420000000000000E-002    4.663236544852044E-021
 -1.410000000000000E-002    5.795022814297272E-021
 -1.400000000000000E-002    6.501740590865092E-021
 -1.390000000000000E-002    6.575545478824264E-021
 -1.380000000000000E-002    5.832708663200270E-021
 -1.370000000000000E-002    4.143404279794037E-021
 -1.360000000000000E-002    1.462465064962703E-021
 -1.350000000000000E-002   -2.142570429202841E-021
 -1.340000000000000E-002   -6.470388263421776E-021
 -1.330000000000000E-002   -1.117626039089798E-020
 -1.320000000000000E-002   -1.577797783960799E-020
 -1.310000000000000E-002   -1.968051945431798E-020
 -1.300000000000000E-002   -2.222111979097008E-020
 -1.290000000000000E-002   -2.273411859998551E-020
 -1.280000000000000E-002   -2.063241845027594E-020
 -1.270000000000000E-002   -1.549945488546895E-020
 -1.260000000000000E-002   -7.182844473058426E-021
 -1.250000000000000E-002    4.121598519369332E-021
 -1.240000000000000E-002    1.780816859639406E-020
 -1.230000000000000E-002    3.283495325686802E-020
 -1.220000000000000E-002    4.774459110093523E-020
 -1.210000000000000E-002    6.074066391886907E-020
 -1.200000000000000E-002    6.982369681444920E-020
 -1.190000000000000E-002    7.298367739649061E-020
 -1.180000000000000E-002    6.843906951055606E-020
 -1.170000000000000E-002    5.490361665246241E-020
 -1.160000000000000E-002    3.185494666275793E-020
 -1.150000000000000E-002   -2.275346171531004E-022
 -1.140000000000000E-002   -3.969116955287810E-020
 -1.130000000000000E-002   -8.364078763132100E-020
 -1.120000000000000E-002   -1.280032004233448E-019
 -1.110000000000000E-002   -1.677469723473922E-019
 -1.100000000000000E-002   -1.972657040999309E-019
 -1.090000000000000E-002   -2.109142103756070E-019
 -1.080000000000000E-002   -2.036663736424633E-019
 -1.070000000000000E-002   -1.718420033201562E-019
 -1.060000000000000E-002   -1.138299582666721E-019
 -1.050000000000000E-002   -3.071991953265771E-020
 -1.040000000000000E-002    7.325242457858953E-020
 -1.030000000000000E-002    1.905398235269480E-019
 -1.020000000000000E-002    3.104763018665295E-019
 -1.010000000000000E-002    4.198803679032729E-019
 -1.000000000000000E-002    5.040815612077525E-019
 -9.899999999999999E-003    5.483362210330433E-019
 -9.800000000000000E-003    5.395419811023167E-019
 -9.699999999999999E-003    4.681094921043619E-019
 -9.599999999999999E-003    3.297979927666886E-019
 -9.500000000000000E-003    1.272893687995176E-019
 -9.399999999999999E-003   -1.287396989759894E-019
 -9.299999999999999E-003   -4.192775389090335E-019
 -9.200000000000000E-003   -7.175548409703213E-019
 -9.099999999999999E-003   -9.906555073405784E-019
 -8.999999999999999E-003   -1.202173661497369E-018
 -8.900000000000000E-003   -1.315807830990235E-018
 -8.799999999999999E-003   -1.299649762435866E-018
 -8.699999999999999E-003   -1.130794939896333E-018
 -8.600000000000000E-003   -7.997885288454533E-019
 -8.499999999999999E-003   -3.143475858643032E-019
 -8.399999999999999E-003    2.982235359213876E-019
 -8.300000000000000E-003    9.904647120366636E-019
 -8.199999999999999E-003    1.696462626903075E-018
 -8.100000000000000E-003    2.336060946161863E-018
 -8.000000000000000E-003    2.821558528751120E-018
 -7.899999999999999E-003    3.066586576189107E-018
 -7.800000000000000E-003    2.996524502680064E-018
 -7.699999999999999E-003    2.559521577762066E-018
 -7.599999999999999E-003    1.736942176034884E-018
 -7.499999999999999E-003    5.518898025263587E-019
 -7.399999999999999E-003   -9.255500477016425E-019
 -7.299999999999999E-003   -2.577586914541732E-018
 -7.199999999999999E-003   -4.243447451188302E-018
 -7.100000000000000E-003   -5.730016424996432E-018
 -6.999999999999999E-003   -6.828248377762947E-018
 -6.899999999999999E-003   -7.334514425994078E-018
 -6.800000000000000E-003   -7.075296315180690E-018
 -6.699999999999999E-003   -5.933000839218877E-018
 -6.599999999999999E-003   -3.870068950515676E-018
 -6.499999999999999E-003   -9.483075688947617E-019
 -6.399999999999999E-003    2.659682226008888E-018
 -6.299999999999999E-003    6.669728389275375E-018
 -6.199999999999999E-003    1.069796996059994E-017
 -6.100000000000000E-003    1.428632995594450E-017
 -5.999999999999999E-003    1.694107945253970E-017
 -5.899999999999999E-003    1.818242222731195E-017
 -5.800000000000000E-003    1.760142949217344E-017
 -5.699999999999999E-003    1.491909926534565E-017
 -5.599999999999999E-003    1.004124929609446E-017
 -5.499999999999999E-003    3.102297936350293E-018
 -5.399999999999999E-003   -5.508966418228589E-018
 -5.299999999999999E-003   -1.514760445075885E-017
 -5.199999999999999E-003   -2.493907223291096E-017
 -5.099999999999999E-003   -3.383595667177906E-017
 -4.999999999999999E-003   -4.070364339530833E-017
 -4.899999999999999E-003   -4.443028352811799E-017
 -4.799999999999999E-003   -4.405283194875051E-017
 -4.699999999999999E-003   -3.888787809753754E-017
 -4.599999999999999E-003   -2.865350781776990E-017
 -4.499999999999999E-003   -1.356732722953966E-017
 -4.399999999999999E-003    5.594106392736062E-018
 -4.299999999999999E-003    2.748720981382705E-017
 -4.199999999999999E-003    5.025377951910943E-017
 -4.099999999999999E-003    7.163778530952434E-017
 -3.999999999999999E-003    8.916399073968589E-017
 -3.899999999999999E-003    1.003684527889263E-016
 -3.799999999999999E-003    1.030640460947368E-016
 -3.699999999999999E-003    9.561736808452164E-017
 -3.599999999999999E-003    7.720876322679912E-017
 -3.499999999999999E-003    4.804456420439607E-017
 -3.399999999999999E-003    9.491334779409493E-018
 -3.299999999999999E-003   -3.589407979880660E-017
 -3.199999999999999E-003   -8.445763745808324E-017
 -3.099999999999999E-003   -1.316723794256961E-016
 -2.999999999999999E-003   -1.724890827581921E-016
 -2.899999999999999E-003   -2.017938933225588E-016
 -2.799999999999999E-003   -2.149392076539961E-016
 -2.699999999999999E-003   -2.083010648003600E-016
 -2.599999999999999E-003   -1.798069242683380E-016
 -2.499999999999999E-003   -1.293727677547145E-016
 -2.399999999999999E-003   -5.918965552656382E-017
 -2.299999999999999E-003    2.619231869111462E-017
 -2.199999999999999E-003    1.200199245846033E-016
 -2.099999999999999E-003    2.137495681698712E-016
 -1.999999999999999E-003    2.977077452058881E-016
 -1.899999999999999E-003    3.619625801982095E-016
 -1.799999999999999E-003    3.973419535569505E-016
 -1.699999999999999E-003    3.965080694064137E-016
 -1.599999999999999E-003    3.549816416043445E-016
 -1.499999999999999E-003    2.719972489323446E-016
 -1.399999999999999E-003    1.510762826478584E-016
 -1.299999999999999E-003    2.164016805876526E-019
 -1.199999999999999E-003   -1.683739923640287E-016
 -1.099999999999999E-003   -3.390292133844547E-016
 -9.999999999999989E-004   -4.938520363148880E-016
 -8.999999999999990E-004   -6.143434973694467E-016
 -7.999999999999990E-004   -6.833142636873821E-016
 -6.999999999999989E-004   -6.869103801437246E-016
 -5.999999999999990E-004   -6.165495178154413E-016
 -4.999999999999989E-004   -4.705467452990157E-016
 -3.999999999999989E-004   -2.552128785952763E-016
 -2.999999999999989E-004    1.476375989113840E-017
 -1.999999999999989E-004    3.167901552979832E-016
 -9.999999999999892E-005    6.217603493237142E-016
  1.084202172485504E-018    8.963377836609562E-016
  1.000000000000011E-004    1.106006292390826E-015
  2.000000000000011E-004    1.218660918802825E-015
  3.000000000000011E-004    1.208427404405727E-015
  4.000000000000011E-004    1.059330816286634E-015
  5.000000000000011E-004    7.683974636876695E-016
  6.000000000000011E-004    3.477817001618212E-016
  7.000000000000011E-004   -1.744430190559937E-016
  8.000000000000011E-004   -7.550950973126617E-016
  9.000000000000012E-004   -1.338428288478880E-015
  1.000000000000001E-003   -1.860373579469097E-015
  1.100000000000001E-003   -2.254255952371355E-015
  1.200000000000001E-003   -2.457580821237990E-015
  1.300000000000001E-003   -2.419316139389310E-015
  1.400000000000001E-003   -2.106964637843316E-015
  1.500000000000001E-003   -1.512652309541820E-015
  1.600000000000001E-003   -6.574580792989366E-016
  1.700000000000001E-003    4.067119949315586E-016
  1.800000000000001E-003    1.598230427866242E-015
  1.900000000000001E-003    2.810121728611763E-015
  2.000000000000001E-003    3.917686581315092E-015
  2.100000000000001E-003    4.789016597911866E-015
  2.200000000000001E-003    5.297697919486054E-015
  2.300000000000001E-003    5.336668239273396E-015
  2.400000000000001E-003    4.831956099481872E-015
  2.500000000000001E-003    3.754864991910237E-015
  2.600000000000001E-003    2.131136491455237E-015
  2.700000000000001E-003    4.576129392710009E-017
  2.800000000000001E-003   -2.357625620880718E-015
  2.900000000000001E-003   -4.883412515293208E-015
  3.000000000000001E-003   -7.296837487994265E-015
  3.100000000000001E-003   -9.342460643802101E-015
  3.200000000000001E-003   -1.076713233143104E-014
  3.300000000000001E-003   -1.134567936878221E-014
  3.400000000000001E-003   -1.090705707778678E-014
  3.500000000000001E-003   -9.358383205945446E-015
  3.600000000000001E-003   -6.704145229517008E-015
  3.700000000000001E-003   -3.058044787653177E-015
  3.800000000000001E-003    1.354614623862064E-015
  3.900000000000001E-003    6.205406887335191E-015
  4.000000000000001E-003    1.108260175161272E-014
  4.100000000000001E-003    1.552167584593364E-014
  4.200000000000001E-003    1.904477484612035E-014
  4.300000000000001E-003    2.120618862220524E-014
  4.400000000000001E-003    2.163999226597878E-014
  4.500000000000001E-003    2.010535922318393E-014
  4.600000000000002E-003    1.652466079634530E-014
  4.700000000000001E-003    1.100974350830943E-014
  4.800000000000001E-003    3.872339942612743E-015
  4.900000000000002E-003   -4.384230148036208E-015
  5.000000000000001E-003   -1.309336981905191E-014
  5.100000000000001E-003   -2.147296570898174E-014
  5.200000000000001E-003   -2.868995741345840E-014
  5.300000000000002E-003   -3.393711180068402E-014
  5.400000000000001E-003   -3.651558240781649E-014
  5.500000000000001E-003   -3.591561671441283E-014
  5.600000000000002E-003   -3.188696034343697E-014
  5.700000000000001E-003   -2.449077524985033E-014
  5.800000000000001E-003   -1.412573198052806E-014
  5.900000000000002E-003   -1.522833968857734E-015
  6.000000000000001E-003    1.229390546553249E-014
  6.100000000000001E-003    2.608062435049948E-014
  6.200000000000002E-003    3.847675875668497E-014
  6.300000000000002E-003    4.813091818537568E-014
  6.400000000000001E-003    5.383894298552720E-014
  6.500000000000001E-003    5.468130841243195E-014
  6.600000000000002E-003    5.014567330135533E-014
  6.700000000000001E-003    4.022029265317331E-014
  6.800000000000001E-003    2.544552578669003E-014
  6.900000000000002E-003    6.913623887651323E-015
  7.000000000000001E-003   -1.378877891917802E-014
  7.100000000000001E-003   -3.469560581124042E-014
  7.200000000000002E-003   -5.362793875546351E-014
  7.300000000000002E-003   -6.840053205636803E-014
  7.400000000000001E-003   -7.705080392717888E-014
  7.500000000000001E-003   -7.806896528406806E-014
  7.600000000000002E-003   -7.060510505895850E-014
  7.700000000000001E-003   -5.462907901530343E-014
  7.800000000000001E-003   -3.102115783048387E-014
  7.900000000000001E-003   -1.576333567554503E-015
  8.000000000000002E-003    3.108768481826956E-014
  8.100000000000001E-003    6.371972355044216E-014
  8.200000000000001E-003    9.271246608632446E-014
  8.300000000000002E-003    1.144483403016421E-013
  8.400000000000001E-003    1.256851638714077E-013
  8.500000000000002E-003    1.239452746056022E-013
  8.600000000000002E-003    1.078674256149339E-013
  8.700000000000001E-003    7.748032506557975E-014
  8.800000000000002E-003    3.435997520951794E-014
  8.900000000000002E-003   -1.835860289459111E-014
  9.000000000000001E-003   -7.613297847668515E-014
  9.100000000000002E-003   -1.333306476324020E-013
  9.200000000000002E-003   -1.836973975780813E-013
  9.300000000000001E-003   -2.209446155631841E-013
  9.400000000000002E-003   -2.394072390125408E-013
  9.500000000000001E-003   -2.347116156997963E-013
  9.600000000000001E-003   -2.043845058137261E-013
  9.700000000000002E-003   -1.483332281675187E-013
  9.800000000000001E-003   -6.913266469758877E-014
  9.900000000000001E-003    2.793220771699984E-014
  1.000000000000000E-002    1.350994752202518E-013
  1.010000000000000E-002    2.426454390699408E-013
  1.020000000000000E-002    3.396591351079615E-013
  1.030000000000000E-002    4.150250078934662E-013
  1.040000000000000E-002    4.585341654163052E-013
  1.050000000000000E-002    4.620244045885920E-013
  1.060000000000000E-002    4.204351280737743E-013
  1.070000000000000E-002    3.326592952907824E-013
  1.080000000000000E-002    2.020846232845154E-013
  1.090000000000000E-002    3.673566577924576E-014
  1.100000000000000E-002   -1.510387758245758E-013
  1.110000000000000E-002   -3.453478922462570E-013
  1.120000000000000E-002   -5.279792020134437E-013
  1.130000000000000E-002   -6.799772453694471E-013
  1.140000000000000E-002   -7.834558699221447E-013
  1.150000000000000E-002   -8.234841330852580E-013
  1.160000000000000E-002   -7.898620882584171E-013
  1.170000000000000E-002   -6.785946580254367E-013
  1.180000000000000E-002   -4.928870076601262E-013
  1.190000000000000E-002   -2.435135467852555E-013
  1.200000000000000E-002    5.153550573976740E-014
  1.210000000000000E-002    3.681623691771755E-013
  1.220000000000000E-002    6.779837812806882E-013
  1.230000000000000E-002    9.507475495690227E-013
  1.240000000000000E-002    1.157155296429821E-012
  1.250000000000000E-002    1.271843499238603E-012
  1.260000000000000E-002    1.276235174945202E-012
  1.270000000000000E-002    1.160962401570948E-012
  1.280000000000000E-002    9.275788309201109E-013
  1.290000000000000E-002    5.893255709326868E-013
  1.300000000000000E-002    1.707911870454607E-013
  1.310000000000000E-002   -2.935950991945203E-013
  1.320000000000000E-002   -7.621853651643406E-013
  1.330000000000000E-002   -1.189677115568480E-012
  1.340000000000000E-002   -1.531342220709258E-012
  1.350000000000000E-002   -1.747541821223348E-012
  1.360000000000000E-002   -1.808098727601316E-012
  1.370000000000000E-002   -1.696067790116838E-012
  1.380000000000000E-002   -1.410472783226118E-012
  1.390000000000000E-002   -9.676458841273363E-013
  1.400000000000000E-002   -4.009200751200271E-013
  1.410000000000000E-002    2.414293457233636E-013
  1.420000000000000E-002    8.999246893471777E-013
  1.430000000000000E-002    1.509062537048562E-012
  1.440000000000000E-002    2.003512939631047E-012
  1.450000000000000E-002    2.324790619822465E-012
  1.460000000000000E-002    2.427751436343457E-012
  1.470000000000000E-002    2.286236559883329E-012
  1.480000000000000E-002    1.897216545551214E-012
  1.490000000000000E-002    1.282891992237585E-012
  1.500000000000000E-002    4.903711464883290E-013
  1.510000000000000E-002   -4.112346293806982E-013
  1.520000000000000E-002   -1.336204830508810E-012
  1.530000000000000E-002   -2.189736923109255E-012
  1.540000000000000E-002   -2.877003184114406E-012
  1.550000000000000E-002   -3.312925781726281E-012
  1.560000000000000E-002   -3.431728704098126E-012
  1.570000000000000E-002   -3.195258071586434E-012
  1.580000000000000E-002   -2.599127414351282E-012
  1.590000000000000E-002   -1.675877275189741E-012
  1.600000000000000E-002   -4.945934648681659E-013
  1.610000000000000E-002    8.432626904064958E-013
  1.620000000000000E-002    2.211677570465703E-012
  1.630000000000000E-002    3.471056055313076E-012
  1.640000000000000E-002    4.481457132473834E-012
  1.650000000000000E-002    5.116921096436861E-012
  1.660000000000000E-002    5.279510873612612E-012
  1.670000000000000E-002    4.911600383156689E-012
  1.680000000000000E-002    4.005029571965124E-012
  1.690000000000000E-002    2.605936934926488E-012
  1.700000000000000E-002    8.144446727423974E-013
  1.710000000000000E-002   -1.221172566114340E-012
  1.720000000000000E-002   -3.315673452486654E-012
  1.730000000000000E-002   -5.262660683344439E-012
  1.740000000000000E-002   -6.853771492044201E-012
  1.750000000000000E-002   -7.899560968502643E-012
  1.760000000000000E-002   -8.250094438223989E-012
  1.770000000000000E-002   -7.813133990478291E-012
  1.780000000000000E-002   -6.567911665293123E-012
  1.790000000000000E-002   -4.572755427861548E-012
  1.800000000000000E-002   -1.965341558079284E-012
  1.810000000000000E-002    1.044999896382601E-012
  1.820000000000000E-002    4.192746799989267E-012
  1.830000000000000E-002    7.178422630522033E-012
  1.840000000000000E-002    9.695895360948367E-012
  1.850000000000000E-002    1.146233918949258E-011
  1.860000000000000E-002    1.224806716563465E-011
  1.870000000000000E-002    1.190324216598530E-011