 -4.000000000000000E-002    0.000000000000000E+000
 -3.990000000000000E-002    0.000000000000000E+000
 -3.980000000000000E-002    0.000000000000000E+000
 -3.970000000000000E-002    0.000000000000000E+000
 -3.960000000000000E-002    0.000000000000000E+000
 -3.950000000000000E-002    0.000000000000000E+000
 -3.940000000000000E-002    0.000000000000000E+000
 -3.930000000000000E-002    0.000000000000000E+000
 -3.920000000000000E-002    0.000000000000000E+000
 -3.910000000000000E-002    0.000000000000000E+000
 -3.900000000000000E-002    0.000000000000000E+000
 -3.890000000000000E-002    0.000000000000000E+000
 -3.880000000000000E-002    0.000000000000000E+000
 -3.870000000000000E-002    0.000000000000000E+000
 -3.860000000000000E-002    0.000000000000000E+000
 -3.850000000000000E-002    0.000000000000000E+000
 -3.840000000000000E-002    0.000000000000000E+000
 -3.830000000000000E-002    0.000000000000000E+000
 -3.820000000000000E-002    0.000000000000000E+000
 -3.810000000000000E-002    0.000000000000000E+000
 -3.800000000000000E-002    0.000000000000000E+000
 -3.790000000000000E-002    0.000000000000000E+000
 -3.780000000000000E-002    0.000000000000000E+000
 -3.770000000000000E-002    0.000000000000000E+000
 -3.760000000000000E-002    0.000000000000000E+000
 -3.750000000000000E-002    0.000000000000000E+000
 -3.740000000000000E-002    0.000000000000000E+000
 -3.730000000000000E-002    0.000000000000000E+000
 -3.720000000000000E-002    0.000000000000000E+000
 -3.710000000000000E-002    0.000000000000000E+000
 -3.700000000000000E-002    0.000000000000000E+000
 -3.690000000000000E-002    0.000000000000000E+000
 -3.680000000000000E-002    0.000000000000000E+000
 -3.670000000000000E-002    0.000000000000000E+000
 -3.660000000000000E-002    0.000000000000000E+000
 -3.650000000000000E-002    0.000000000000000E+000
 -3.640000000000000E-002    0.000000000000000E+000
 -3.630000000000000E-002    0.000000000000000E+000
 -3.620000000000000E-002    0.000000000000000E+000
 -3.610000000000000E-002    0.000000000000000E+000
 -3.600000000000000E-002    0.000000000000000E+000
 -3.590000000000000E-002    0.000000000000000E+000
 -3.580000000000000E-002    0.000000000000000E+000
 -3.570000000000000E-002    0.000000000000000E+000
 -3.560000000000000E-002    0.000000000000000E+000
 -3.550000000000000E-002    0.000000000000000E+000
 -3.540000000000000E-002    0.000000000000000E+000
 -3.530000000000000E-002    0.000000000000000E+000
 -3.520000000000000E-002    0.000000000000000E+000
 -3.510000000000000E-002    0.000000000000000E+000
 -3.500000000000000E-002    0.000000000000000E+000
 -3.490000000000000E-002    0.000000000000000E+000
 -3.480000000000000E-002    0.000000000000000E+000
 -3.470000000000000E-002    0.000000000000000E+000
 -3.460000000000000E-002    0.000000000000000E+000
 -3.450000000000000E-002    0.000000000000000E+000
 -3.440000000000000E-002    0.000000000000000E+000
 -3.430000000000000E-002    0.000000000000000E+000
 -3.420000000000000E-002    0.000000000000000E+000
 -3.410000000000000E-002    0.000000000000000E+000
 -3.400000000000000E-002    0.000000000000000E+000
 -3.390000000000000E-002    0.000000000000000E+000
 -3.380000000000000E-002    0.000000000000000E+000
 -3.370000000000000E-002    0.000000000000000E+000
 -3.360000000000000E-002    0.000000000000000E+000
 -3.350000000000000E-002    0.000000000000000E+000
 -3.340000000000000E-002    0.000000000000000E+000
 -3.330000000000000E-002    0.000000000000000E+000
 -3.320000000000000E-002    0.000000000000000E+000
 -3.310000000000000E-002    0.000000000000000E+000
 -3.300000000000000E-002    0.000000000000000E+000
 -3.290000000000000E-002    0.000000000000000E+000
 -3.280000000000000E-002    0.000000000000000E+000
 -3.270000000000000E-002    0.000000000000000E+000
 -3.260000000000000E-002    0.000000000000000E+000
 -3.250000000000000E-002    0.000000000000000E+000
 -3.240000000000000E-002    0.000000000000000E+000
 -3.230000000000000E-002    0.000000000000000E+000
 -3.220000000000000E-002    0.000000000000000E+000
 -3.210000000000000E-002    0.000000000000000E+000
 -3.200000000000000E-002    0.000000000000000E+000
 -3.190000000000000E-002    0.000000000000000E+000
 -3.180000000000000E-002    0.000000000000000E+000
 -3.170000000000000E-002    0.000000000000000E+000
 -3.160000000000000E-002    0.000000000000000E+000
 -3.150000000000000E-002    0.000000000000000E+000
 -3.140000000000000E-002    0.000000000000000E+000
 -3.130000000000000E-002    0.000000000000000E+000
 -3.120000000000000E-002    0.000000000000000E+000
 -3.110000000000000E-002    0.000000000000000E+000
 -3.100000000000000E-002    0.000000000000000E+000
 -3.090000000000000E-002    0.000000000000000E+000
 -3.080000000000000E-002    0.000000000000000E+000
 -3.070000000000000E-002    0.000000000000000E+000
 -3.060000000000000E-002    0.000000000000000E+000
 -3.050000000000000E-002    0.000000000000000E+000
 -3.040000000000000E-002    0.000000000000000E+000
 -3.030000000000000E-002    0.000000000000000E+000
 -3.020000000000000E-002    0.000000000000000E+000
 -3.010000000000000E-002    0.000000000000000E+000
 -3.000000000000000E-002    0.000000000000000E+000
 -2.990000000000000E-002    0.000000000000000E+000
 -2.980000000000000E-002    1.341908628140898E-047
 -2.970000000000000E-002    2.683817256281797E-047
 -2.960000000000000E-002    4.025725884422695E-047
 -2.950000000000000E-002    4.025725884422695E-047
 -2.940000000000000E-002    4.025725884422695E-047
 -2.930000000000000E-002    1.341908628140898E-047
 -2.920000000000000E-002    3.887534759891996E-047
 -2.910000000000000E-002   -2.683427308078869E-047
 -2.900000000000000E-002   -3.895153004048040E-047
 -2.890000000000000E-002   -1.033593213984718E-046
 -2.880000000000000E-002   -2.525011267428921E-046
 -2.870000000000000E-002   -3.473352006278604E-046
 -2.860000000000000E-002   -6.463177716867596E-046
 -2.850000000000000E-002   -7.682135425656138E-046
 -2.840000000000000E-002   -1.115896707171370E-045
 -2.830000000000000E-002   -1.201922643944209E-045
 -2.820000000000000E-002   -8.951285060656952E-046
 -2.810000000000000E-002   -4.715221857297457E-046
 -2.800000000000000E-002   -5.654352495878962E-046
 -2.790000000000000E-002    4.885589624401163E-046
 -2.780000000000000E-002    3.007045703867456E-045
 -2.770000000000000E-002    7.460082900513436E-045
 -2.760000000000000E-002    1.402878554759351E-044
 -2.750000000000000E-002    2.412723787889540E-044
 -2.740000000000000E-002    3.688391804091427E-044
 -2.730000000000000E-002    5.132021028325487E-044
 -2.720000000000000E-002    6.549975818136412E-044
 -2.710000000000000E-002    7.650269905032317E-044
 -2.700000000000000E-002    7.631657283273746E-044
 -2.690000000000000E-002    5.716913945144053E-044
 -2.680000000000000E-002    7.117969157298490E-045
 -2.670000000000000E-002   -8.933200863338303E-044
 -2.660000000000000E-002   -2.480822499273293E-043
 -2.650000000000000E-002   -4.842159442462828E-043
 -2.640000000000000E-002   -8.066578208704355E-043
 -2.630000000000000E-002   -1.211957232736196E-042
 -2.620000000000000E-002   -1.672900229168675E-042
 -2.610000000000000E-002   -2.129502102784625E-042
 -2.600000000000000E-002   -2.475583783586951E-042
 -2.590000000000000E-002   -2.542253102325854E-042
 -2.580000000000000E-002   -2.096683364373420E-042
 -2.570000000000000E-002   -8.342514527964626E-043
 -2.560000000000000E-002    1.600537767741516E-042
 -2.550000000000000E-002    5.575465734259484E-042
 -2.540000000000000E-002    1.140300584411173E-041
 -2.530000000000000E-002    1.922797812546578E-041
 -2.520000000000000E-002    2.887560003594840E-041
 -2.510000000000000E-002    3.965592480727418E-041
 -2.500000000000000E-002    5.013694723272017E-041
 -2.490000000000000E-002    5.791731737060066E-041
 -2.480000000000000E-002    5.944242841860097E-041
 -2.470000000000000E-002    4.993052873160944E-041
 -2.460000000000000E-002    2.350753385376669E-041
 -2.450000000000000E-002   -2.633794402307090E-041
 -2.440000000000000E-002   -1.058680821183713E-040
 -2.430000000000000E-002   -2.196452785269081E-040
 -2.420000000000000E-002   -3.684589427988677E-040
 -2.410000000000000E-002   -5.466346955703245E-040
 -2.400000000000000E-002   -7.388554838796149E-040
 -2.390000000000000E-002   -9.168267067950233E-040
 -2.380000000000000E-002   -1.036354936096260E-039
 -2.370000000000000E-002   -1.035687461351551E-039
 -2.360000000000000E-002   -8.362640706998281E-040
 -2.350000000000000E-002   -3.472687130253985E-040
 -2.340000000000000E-002    5.245047166472923E-040
 -2.330000000000000E-002    1.858039420399349E-039
 -2.320000000000000E-002    3.693793570562049E-039
 -2.310000000000000E-002    6.001630433384008E-039
 -2.300000000000000E-002    8.642403426148059E-039
 -2.290000000000000E-002    1.132677930670048E-038
 -2.280000000000000E-002    1.357754271234484E-038
 -2.270000000000000E-002    1.470483284386057E-038
 -2.260000000000000E-002    1.380692487504797E-038
 -2.250000000000000E-002    9.811961205389579E-039
 -2.240000000000000E-002    1.577262398593228E-039
 -2.230000000000000E-002   -1.193797107359476E-038
 -2.220000000000000E-002   -3.141589388141285E-038
 -2.210000000000000E-002   -5.683746357612320E-038
 -2.200000000000000E-002   -8.706830228077081E-038
 -2.190000000000000E-002   -1.194089327117477E-037
 -2.180000000000000E-002   -1.491728345509045E-037
 -2.170000000000000E-002   -1.693878565711489E-037
 -2.160000000000000E-002   -1.707480238457218E-037
 -2.150000000000000E-002   -1.419707482063410E-037
 -2.140000000000000E-002   -7.072507523208169E-038
 -2.130000000000000E-002    5.471204959423985E-038
 -2.120000000000000E-002    2.429607953785480E-037
 -2.110000000000000E-002    4.961897221724147E-037
 -2.100000000000000E-002    8.060391142038120E-037
 -2.090000000000000E-002    1.149156632444607E-036
 -2.080000000000000E-002    1.482937659279051E-036
 -2.070000000000000E-002    1.742353864374896E-036
 -2.060000000000000E-002    1.839054862820515E-036
 -2.050000000000000E-002    1.664155073588780E-036
 -2.040000000000000E-002    1.096223832755302E-036
 -2.030000000000000E-002    1.592042274625892E-038
 -2.020000000000000E-002   -1.671741851180293E-036
 -2.010000000000000E-002   -4.007325284805095E-036
 -2.000000000000000E-002   -6.940163103852246E-036
 -1.990000000000000E-002   -1.028771535155061E-035
 -1.980000000000000E-002   -1.369620167172824E-035
 -1.970000000000000E-002   -1.661000731178092E-035
 -1.960000000000000E-002   -1.825979567349949E-035
 -1.950000000000000E-002   -1.768135728871257E-035
 -1.940000000000000E-002   -1.377767097733952E-035
 -1.930000000000000E-002   -5.436336332906618E-036
 -1.920000000000000E-002    8.289553690264320E-036
 -1.910000000000000E-002    2.793523004142744E-035
 -1.900000000000000E-002    5.332102962872135E-035
 -1.890000000000000E-002    8.321515141490138E-035
 -1.880000000000000E-002    1.150013448387019E-034
 -1.870000000000000E-002    1.444100215222740E-034
 -1.860000000000000E-002    1.653899013430262E-034
 -1.850000000000000E-002    1.702101074301695E-034
 -1.840000000000000E-002    1.498903043228306E-034
 -1.830000000000000E-002    9.504813351784822E-035
 -1.820000000000000E-002   -2.772550048478443E-036
 -1.810000000000000E-002   -1.492779549515552E-034
 -1.800000000000000E-002   -3.451644046036929E-034
 -1.790000000000000E-002   -5.835805972438437E-034
 -1.780000000000000E-002   -8.475943480385743E-034
 -1.770000000000000E-002   -1.108071134230279E-033
 -1.760000000000000E-002   -1.322503446929609E-033
 -1.750000000000000E-002   -1.435418219585841E-033
 -1.740000000000000E-002   -1.381034677193592E-033
 -1.730000000000000E-002   -1.088780496344955E-033
 -1.720000000000000E-002   -4.921034417906760E-034
 -1.710000000000000E-002    4.593185378326534E-034
 -1.700000000000000E-002    1.784347359326026E-033
 -1.690000000000000E-002    3.453185257216434E-033
 -1.680000000000000E-002    5.370009693211834E-033
 -1.670000000000000E-002    7.358094329869205E-033
 -1.660000000000000E-002    9.150817069535362E-033
 -1.650000000000000E-002    1.039255346906599E-032
 -1.640000000000000E-002    1.065363337140156E-032
 -1.630000000000000E-002    9.463117710193828E-033
 -1.620000000000000E-002    6.362109783659859E-033
 -1.610000000000000E-002    9.780975371759203E-034
 -1.600000000000000E-002   -6.881961951999360E-033
 -1.590000000000000E-002   -1.712625865030789E-032
 -1.580000000000000E-002   -2.927120400065908E-032
 -1.570000000000000E-002   -4.234868724726917E-032
 -1.560000000000000E-002   -5.484745185416063E-032
 -1.550000000000000E-002   -6.471162405234460E-032
 -1.540000000000000E-002   -6.942020439883701E-032
 -1.530000000000000E-002   -6.616871264038550E-032
 -1.520000000000000E-002   -5.216709852107098E-032
 -1.510000000000000E-002   -2.505659389336428E-032
 -1.500000000000000E-002    1.656940826424507E-032
 -1.490000000000000E-002    7.257650278812461E-032
 -1.480000000000000E-002    1.406933700330697E-031
 -1.470000000000000E-002    2.159949651174994E-031
 -1.460000000000000E-002    2.905729332574119E-031
 -1.450000000000000E-002    3.535162701056885E-031
 -1.440000000000000E-002    3.913256156364162E-031
 -1.430000000000000E-002    3.888695068226511E-031
 -1.420000000000000E-002    3.309499455367775E-031
 -1.410000000000000E-002    2.044820353720983E-031
 -1.400000000000000E-002    1.200545586582065E-033
 -1.390000000000000E-002   -2.793036174009804E-031
 -1.380000000000000E-002   -6.265384913640245E-031
 -1.370000000000000E-002   -1.016502305597962E-030
 -1.360000000000000E-002   -1.410056741642535E-030
 -1.350000000000000E-002   -1.752892639708187E-030
 -1.340000000000000E-002   -1.977682899567104E-030
 -1.330000000000000E-002   -2.008927188631227E-030
 -1.320000000000000E-002   -1.770778021612576E-030
 -1.310000000000000E-002   -1.197803723745626E-030
 -1.300000000000000E-002   -2.482072096052662E-031
 -1.290000000000000E-002    1.081524328077158E-030
 -1.280000000000000E-002    2.742138487035350E-030
 -1.270000000000000E-002    4.619475486065779E-030
 -1.260000000000000E-002    6.527256825968931E-030
 -1.250000000000000E-002    8.207626997057211E-030
 -1.240000000000000E-002    9.342149172970998E-030
 -1.230000000000000E-002    9.575429066043841E-030
 -1.220000000000000E-002    8.552448922709730E-030
 -1.210000000000000E-002    5.969103543755209E-030
 -1.200000000000000E-002    1.633414646642620E-030
 -1.190000000000000E-002   -4.467633775149328E-030
 -1.180000000000000E-002   -1.210317829910135E-029
 -1.170000000000000E-002   -2.074540013857962E-029
 -1.160000000000000E-002   -2.953996797401839E-029
 -1.150000000000000E-002   -3.731238442807243E-029
 -1.140000000000000E-002   -4.262162178364601E-029
 -1.130000000000000E-002   -4.386987276852633E-029
 -1.120000000000000E-002   -3.947195687546864E-029
 -1.110000000000000E-002   -2.808099296939299E-029
 -1.100000000000000E-002   -8.857656540826696E-030
 -1.090000000000000E-002    1.824005023731544E-029
 -1.080000000000000E-002    5.218015234328454E-029
 -1.070000000000000E-002    9.063627441618794E-029
 -1.060000000000000E-002    1.298729148326012E-028
 -1.050000000000000E-002    1.647873667452036E-028
 -1.040000000000000E-002    1.891544414207191E-028
 -1.030000000000000E-002    1.961069469420275E-028
 -1.020000000000000E-002    1.788625260730420E-028
 -1.010000000000000E-002    1.316771856458860E-028
 -1.000000000000000E-002    5.096760350695847E-029
 -9.899999999999999E-003   -6.349672292945142E-029
 -9.800000000000000E-003   -2.074729675523046E-028
 -9.699999999999999E-003   -3.713719321305867E-028
 -9.599999999999999E-003   -5.398307282468860E-028
 -9.500000000000000E-003   -6.919296049935727E-028
 -9.399999999999999E-003   -8.022280385425981E-028
 -9.299999999999999E-003   -8.427357844017152E-028
 -9.200000000000000E-003   -7.858448051955631E-028
 -9.099999999999999E-003   -6.081243292028281E-028
 -8.999999999999999E-003   -2.947341234420882E-028
 -8.900000000000000E-003    1.559449602808393E-028
 -8.799999999999999E-003    7.280206236972844E-028
 -8.699999999999999E-003    1.384816631172178E-027
 -8.600000000000000E-003    2.067361700463987E-027
 -8.499999999999999E-003    2.695372900443743E-027
 -8.399999999999999E-003    3.171355972578959E-027
 -8.300000000000000E-003    3.388191139964314E-027
 -8.199999999999999E-003    3.240250662383888E-027
 -8.100000000000000E-003    2.637601387769986E-027
 -8.000000000000000E-003    1.522326369415723E-027
 -7.899999999999999E-003   -1.145792504184884E-028
 -7.800000000000000E-003   -2.217795649968207E-027
 -7.699999999999999E-003   -4.656207309263851E-027
 -7.599999999999999E-003   -7.218027050543122E-027
 -7.499999999999999E-003   -9.615026778096122E-027
 -7.399999999999999E-003   -1.149792489342254E-026
 -7.299999999999999E-003   -1.248407808377555E-026
 -7.199999999999999E-003   -1.219728643926894E-026
 -7.100000000000000E-003   -1.031793562155265E-026
 -6.999999999999999E-003   -6.639779029863863E-027
 -6.899999999999999E-003   -1.127787924775865E-027
 -6.800000000000000E-003    6.030190364043307E-027
 -6.699999999999999E-003    1.438640170143276E-026
 -6.599999999999999E-003    2.321966386194981E-026
 -6.499999999999999E-003    3.155348896877215E-026
 -6.399999999999999E-003    3.821211361785047E-026
 -6.299999999999999E-003    4.191739542572721E-026
 -6.199999999999999E-003    4.142500234900208E-026
 -6.100000000000000E-003    3.569263178796194E-026
 -5.999999999999999E-003    2.406703412796575E-026
 -5.899999999999999E-003    6.470434045257114E-027
 -5.800000000000000E-003   -1.643801933047254E-026
 -5.699999999999999E-003   -4.315347347293186E-026
 -5.599999999999999E-003   -7.129723159848218E-026
 -5.499999999999999E-003   -9.769419499714892E-026
 -5.399999999999999E-003   -1.185735384217848E-025
 -5.299999999999999E-003   -1.298986940704619E-025
 -5.199999999999999E-003   -1.278174840102206E-025
 -5.099999999999999E-003   -1.092050502440136E-025
 -4.999999999999999E-003   -7.225311958353365E-026
 -4.899999999999999E-003   -1.704084559226934E-026
 -4.799999999999999E-003    5.399180007006303E-026
 -4.699999999999999E-003    1.357548067512746E-025
 -4.599999999999999E-003    2.204879739079723E-025
 -4.499999999999999E-003    2.980821124052186E-025
 -4.399999999999999E-003    3.567867690322461E-025
 -4.299999999999999E-003    3.843114868826749E-025
 -4.199999999999999E-003    3.692784043913675E-025
 -4.099999999999999E-003    3.029273873646753E-025
 -3.999999999999999E-003    1.809154800110601E-025
 -3.899999999999999E-003    5.002059387069252E-027
 -3.799999999999999E-003   -2.156278922877649E-025
 -3.699999999999999E-003   -4.636664787917009E-025
 -3.599999999999999E-003   -7.138594241149324E-025
 -3.499999999999999E-003   -9.342555145633225E-025
 -3.399999999999999E-003   -1.088637362825239E-024
 -3.299999999999999E-003   -1.140117976927957E-024
 -3.199999999999999E-003   -1.055731126873545E-024
 -3.099999999999999E-003   -8.116765031679614E-025
 -2.999999999999999E-003   -3.987067879995926E-025
 -2.899999999999999E-003    1.729997921527864E-025
 -2.799999999999999E-003    8.702334848200579E-025
 -2.699999999999999E-003    1.635190359383510E-024
 -2.599999999999999E-003    2.386663062443409E-024
 -2.499999999999999E-003    3.024511894610925E-024
 -2.399999999999999E-003    3.437662749440679E-024
 -2.299999999999999E-003    3.515480476056162E-024
 -2.199999999999999E-003    3.161908145197328E-024
 -2.099999999999999E-003    2.311264015849613E-024
 -1.999999999999999E-003    9.440985708485899E-025
 -1.899999999999999E-003   -8.988597227779864E-025
 -1.799999999999999E-003   -3.106898677591055E-024
 -1.699999999999999E-003   -5.495878420043513E-024
 -1.599999999999999E-003   -7.813122758853782E-024
 -1.499999999999999E-003   -9.752026673186925E-024
 -1.399999999999999E-003   -1.097689791179386E-023
 -1.299999999999999E-003   -1.115737367082062E-023
 -1.199999999999999E-003   -1.001043643832828E-023
 -1.099999999999999E-003   -7.346608929997037E-024
 -9.999999999999989E-004   -3.115638360736733E-024
 -8.999999999999990E-004    2.554085461009874E-024
 -7.999999999999990E-004    9.328665843271030E-024
 -6.999999999999989E-004    1.666058717304516E-023
 -5.999999999999990E-004    2.380468883399318E-023
 -4.999999999999989E-004    2.986176833743792E-023
 -3.999999999999989E-004    3.385089197307993E-023
 -2.999999999999989E-004    3.480808244330208E-023
 -1.999999999999989E-004    3.190551821432669E-023
 -9.999999999999892E-005    2.458134175874297E-023
  1.084202172485504E-018    1.266690256202237E-023
  1.000000000000011E-004   -3.504428908248670E-024
  2.000000000000011E-004   -2.302407448280943E-023
  3.000000000000011E-004   -4.438718019498722E-023
  4.000000000000011E-004   -6.553761113117689E-023
  5.000000000000011E-004   -8.398811101131042E-023
  6.000000000000011E-004   -9.701731350071096E-023
  7.000000000000011E-004   -1.019369431700831E-022
  8.000000000000011E-004   -9.641241144476123E-023
  9.000000000000012E-004   -7.881018772638898E-023
  1.000000000000001E-003   -4.853655114780853E-023
  1.100000000000001E-003   -6.325867133362207E-024
  1.200000000000001E-003    4.556600163665109E-023
  1.300000000000001E-003    1.033056071804561E-022
  1.400000000000001E-003    1.615981089695360E-022
  1.500000000000001E-003    2.139970740545456E-022
  1.600000000000001E-003    2.534116374486701E-022
  1.700000000000001E-003    2.727905847012153E-022
  1.800000000000001E-003    2.659398112636139E-022
  1.900000000000001E-003    2.284035340790138E-022
  2.000000000000001E-003    1.583193611761589E-022
  2.100000000000001E-003    5.714210843356244E-023
  2.200000000000001E-003   -6.987414165942693E-023
  2.300000000000001E-003   -2.135387560621608E-022
  2.400000000000001E-003   -3.610157351186965E-022
  2.500000000000001E-003   -4.965919096235389E-022
  2.600000000000001E-003   -6.029245319081436E-022
  2.700000000000001E-003   -6.627144900192865E-022
  2.800000000000001E-003   -6.606924269613956E-022
  2.900000000000001E-003   -5.857445232619003E-022
  3.000000000000001E-003   -4.329566791845129E-022
  3.100000000000001E-003   -2.053248569946886E-022
  3.200000000000001E-003    8.513106843555939E-023
  3.300000000000001E-003    4.170914653613385E-022
  3.400000000000001E-003    7.606847447387283E-022
  3.500000000000001E-003    1.079364075888123E-021
  3.600000000000001E-003    1.332899226082882E-021
  3.700000000000001E-003    1.481340386486768E-021
  3.800000000000001E-003    1.489669802757856E-021
  3.900000000000001E-003    1.332722302334451E-021
  4.000000000000001E-003    9.998484841628438E-022
  4.100000000000001E-003    4.987300020240777E-022
  4.200000000000001E-003   -1.422541666312038E-022
  4.300000000000001E-003   -8.736485584375517E-022
  4.400000000000001E-003   -1.626932190830362E-021
  4.500000000000001E-003   -2.319115610674233E-021
  4.600000000000002E-003   -2.859847062478508E-021
  4.700000000000001E-003   -3.160647706239020E-021
  4.800000000000001E-003   -3.145570020520755E-021
  4.900000000000002E-003   -2.762290979083340E-021
  5.000000000000001E-003   -1.992406081972708E-021
  5.100000000000001E-003   -8.595783617285623E-022
  5.200000000000001E-003    5.657982056255950E-022
  5.300000000000002E-003    2.166591100068028E-021
  5.400000000000001E-003    3.784410757667368E-021
  5.500000000000001E-003    5.230909544763976E-021
  5.600000000000002E-003    6.304613539404233E-021
  5.700000000000001E-003    6.812297831074880E-021
  5.800000000000001E-003    6.593195759279011E-021
  5.900000000000002E-003    5.543714138394763E-021
  6.000000000000001E-003    3.639847001676285E-021
  6.100000000000001E-003    9.542469985335848E-022
  6.200000000000002E-003   -2.334987768398568E-021
  6.300000000000002E-003   -5.946313188097350E-021
  6.400000000000001E-003   -9.509200420947724E-021
  6.500000000000001E-003   -1.259158879848503E-020
  6.600000000000002E-003   -1.473941445459370E-020
  6.700000000000001E-003   -1.552575304207083E-020
  6.800000000000001E-003   -1.460557647557848E-020
  6.900000000000002E-003   -1.177072048761125E-020
  7.000000000000001E-003   -6.998748740342464E-021
  7.100000000000001E-003   -4.889810459888599E-022
  7.200000000000002E-003    7.320735035501159E-021
  7.300000000000002E-003    1.576182690474580E-020
  7.400000000000001E-003    2.397076941336144E-020
  7.500000000000001E-003    3.095354430954183E-020
  7.600000000000002E-003    3.567651271423477E-020
  7.700000000000001E-003    3.717769180711857E-020
  7.800000000000001E-003    3.468939647898539E-020
  7.900000000000001E-003    2.776012363981497E-020
  8.000000000000002E-003    1.636175337903372E-020
  8.100000000000001E-003    9.672969017990234E-022
  8.200000000000001E-003   -1.741462490599682E-020
  8.300000000000002E-003   -3.725984626147535E-020
  8.400000000000001E-003   -5.661023252244524E-020
  8.500000000000002E-003   -7.321792132168861E-020
  8.600000000000002E-003   -8.474670280918120E-020
  8.700000000000001E-003   -8.901733537588269E-020
  8.800000000000002E-003   -8.427667076318051E-020
  8.900000000000002E-003   -6.946458908779356E-020
  9.000000000000001E-003   -4.444851410526407E-020
  9.100000000000002E-003   -1.019400787492378E-020
  9.200000000000002E-003    3.115782322991463E-020
  9.300000000000001E-003    7.633007637382614E-020
  9.400000000000002E-003    1.210812792687637E-019
  9.500000000000001E-003    1.605107116078116E-019
  9.600000000000001E-003    1.894853677135640E-019
  9.700000000000002E-003    2.031611799007089E-019
  9.800000000000001E-003    1.975560132097827E-019
  9.900000000000001E-003    1.701198138405609E-019
  1.000000000000000E-002    1.202390429804314E-019
  1.010000000000000E-002    4.960973178704253E-020
  1.020000000000000E-002   -3.758186330928105E-020
  1.030000000000000E-002   -1.347205865741744E-019
  1.040000000000000E-002   -2.330964125275434E-019
  1.050000000000000E-002   -3.225158733099085E-019
  1.060000000000000E-002   -3.921680258257659E-019
  1.070000000000000E-002   -4.316880889127554E-019
  1.080000000000000E-002   -4.323339735850057E-019
  1.090000000000000E-002   -3.881650557951532E-019
  1.100000000000000E-002   -2.970961459618059E-019
  1.110000000000000E-002   -1.616936316623886E-019
  1.120000000000000E-002    1.040973117101264E-020
  1.130000000000000E-002    2.065823176264234E-019
  1.140000000000000E-002    4.098070511219989E-019
  1.150000000000000E-002    5.998535816398216E-019
  1.160000000000000E-002    7.549638127557502E-019
  1.170000000000000E-002    8.539445664737479E-019
  1.180000000000000E-002    8.784986926281784E-019
  1.190000000000000E-002    8.155803040460409E-019
  1.200000000000000E-002    6.595227623341296E-019
  1.210000000000000E-002    4.136798248632203E-019
  1.220000000000000E-002    9.133449810638994E-020
  1.230000000000000E-002   -2.843243286971084E-019
  1.240000000000000E-002   -6.812860336865480E-019
  1.250000000000000E-002   -1.060893840733612E-018
  1.260000000000000E-002   -1.381030856255944E-018
  1.270000000000000E-002   -1.600114963716853E-018
  1.280000000000000E-002   -1.681584556067024E-018
  1.290000000000000E-002   -1.598464527474669E-018
  1.300000000000000E-002   -1.337531269012471E-018
  1.310000000000000E-002   -9.025787982238447E-019
  1.320000000000000E-002   -3.163119197252700E-019
  1.330000000000000E-002    3.795216013465417E-019
  1.340000000000000E-002    1.126013277177500E-018
  1.350000000000000E-002    1.851059115990191E-018
  1.360000000000000E-002    2.475265167784731E-018
  1.370000000000000E-002    2.919424697500576E-018
  1.380000000000000E-002    3.112969637831750E-018
  1.390000000000000E-002    3.002629217836590E-018
  1.400000000000000E-002    2.560394483163687E-018
  1.410000000000000E-002    1.789845218019142E-018
  1.420000000000000E-002    7.299408358151771E-019
  1.430000000000000E-002   -5.444614399257963E-019
  1.440000000000000E-002   -1.925853284314055E-018
  1.450000000000000E-002   -3.281236592043384E-018
  1.460000000000000E-002   -4.462951392898459E-018
  1.470000000000000E-002   -5.322489695276804E-018
  1.480000000000000E-002   -5.726223990659973E-018
  1.490000000000000E-002   -5.571609264332920E-018
  1.500000000000000E-002   -4.802191381234516E-018
  1.510000000000000E-002   -3.419665592652541E-018
  1.520000000000000E-002   -1.491313116688880E-018
  1.530000000000000E-002    8.485932970885226E-019
  1.540000000000000E-002    3.404340179232529E-018
  1.550000000000000E-002    5.931607694945987E-018
  1.560000000000000E-002    8.157150441829334E-018
  1.570000000000000E-002    9.804140558504416E-018
  1.580000000000000E-002    1.062118212936764E-017
  1.590000000000000E-002    1.041239173692074E-017
  1.600000000000000E-002    9.065487893039551E-018
  1.610000000000000E-002    6.574621402693399E-018
  1.620000000000000E-002    3.054844289431502E-018
  1.630000000000000E-002   -1.254395738023646E-018
  1.640000000000000E-002   -5.998545336750652E-018
  1.650000000000000E-002   -1.073065634939608E-017
  1.660000000000000E-002   -1.494684889466482E-017
  1.670000000000000E-002   -1.813240292967880E-017
  1.680000000000000E-002   -1.981492132830564E-017
  1.690000000000000E-002   -1.961987937169103E-017
  1.700000000000000E-002   -1.732292612280020E-017
  1.710000000000000E-002   -1.289299540715171E-017
  1.720000000000000E-002   -6.520498965383917E-018
  1.730000000000000E-002    1.374318775457708E-018
  1.740000000000000E-002    1.015624931994817E-017
  1.750000000000000E-002    1.901463020745277E-017
  1.760000000000000E-002    2.702640841084900E-017
  1.770000000000000E-002    3.323911072308281E-017
  1.780000000000000E-002    3.676747742650417E-017
  1.790000000000000E-002    3.689527220009338E-017
  1.800000000000000E-002    3.317217457607262E-017
  1.810000000000000E-002    2.549494669447749E-017
  1.820000000000000E-002    1.416229228216232E-017
  1.830000000000000E-002   -1.056401011161360E-019
  1.840000000000000E-002   -1.618964145358534E-017
  1.850000000000000E-002   -3.263853220458241E-017
  1.860000000000000E-002   -4.777960871723152E-017
  1.870000000000000E-002   -5.986613772680162E-017