 -4.000000000000000E-002    0.000000000000000E+000
 -3.990000000000000E-002    0.000000000000000E+000
 -3.980000000000000E-002    0.000000000000000E+000
 -3.970000000000000E-002    0.000000000000000E+000
 -3.960000000000000E-002    0.000000000000000E+000
 -3.950000000000000E-002    0.000000000000000E+000
 -3.940000000000000E-002    0.000000000000000E+000
 -3.930000000000000E-002    0.000000000000000E+000
 -3.920000000000000E-002    0.000000000000000E+000
 -3.910000000000000E-002    0.000000000000000E+000
 -3.900000000000000E-002    0.000000000000000E+000
 -3.890000000000000E-002    0.000000000000000E+000
 -3.880000000000000E-002    0.000000000000000E+000
 -3.870000000000000E-002    0.000000000000000E+000
 -3.860000000000000E-002    0.000000000000000E+000
 -3.850000000000000E-002    0.000000000000000E+000
 -3.840000000000000E-002    0.000000000000000E+000
 -3.830000000000000E-002    0.000000000000000E+000
 -3.820000000000000E-002    0.000000000000000E+000
 -3.810000000000000E-002    0.000000000000000E+000
 -3.800000000000000E-002    0.000000000000000E+000
 -3.790000000000000E-002    0.000000000000000E+000
 -3.780000000000000E-002    0.000000000000000E+000
 -3.770000000000000E-002    0.000000000000000E+000
 -3.760000000000000E-002    0.000000000000000E+000
 -3.750000000000000E-002    0.000000000000000E+000
 -3.740000000000000E-002    0.000000000000000E+000
 -3.730000000000000E-002    0.000000000000000E+000
 -3.720000000000000E-002    0.000000000000000E+000
 -3.710000000000000E-002    0.000000000000000E+000
 -3.700000000000000E-002    0.000000000000000E+000
 -3.690000000000000E-002    0.000000000000000E+000
 -3.680000000000000E-002    0.000000000000000E+000
 -3.670000000000000E-002    0.000000000000000E+000
 -3.660000000000000E-002    0.000000000000000E+000
 -3.650000000000000E-002    0.000000000000000E+000
 -3.640000000000000E-002    0.000000000000000E+000
 -3.630000000000000E-002    0.000000000000000E+000
 -3.620000000000000E-002    0.000000000000000E+000
 -3.610000000000000E-002    0.000000000000000E+000
 -3.600000000000000E-002    0.000000000000000E+000
 -3.590000000000000E-002    0.000000000000000E+000
 -3.580000000000000E-002    0.000000000000000E+000
 -3.570000000000000E-002    0.000000000000000E+000
 -3.560000000000000E-002    0.000000000000000E+000
 -3.550000000000000E-002    0.000000000000000E+000
 -3.540000000000000E-002    0.000000000000000E+000
 -3.530000000000000E-002    0.000000000000000E+000
 -3.520000000000000E-002    0.000000000000000E+000
 -3.510000000000000E-002    0.000000000000000E+000
 -3.500000000000000E-002    0.000000000000000E+000
 -3.490000000000000E-002    0.000000000000000E+000
 -3.480000000000000E-002    0.000000000000000E+000
 -3.470000000000000E-002    0.000000000000000E+000
 -3.460000000000000E-002    0.000000000000000E+000
 -3.450000000000000E-002    0.000000000000000E+000
 -3.440000000000000E-002    0.000000000000000E+000
 -3.430000000000000E-002    0.000000000000000E+000
 -3.420000000000000E-002    0.000000000000000E+000
 -3.410000000000000E-002    0.000000000000000E+000
 -3.400000000000000E-002    0.000000000000000E+000
 -3.390000000000000E-002    0.000000000000000E+000
 -3.380000000000000E-002    0.000000000000000E+000
 -3.370000000000000E-002    0.000000000000000E+000
 -3.360000000000000E-002    0.000000000000000E+000
 -3.350000000000000E-002    0.000000000000000E+000
 -3.340000000000000E-002    0.000000000000000E+000
 -3.330000000000000E-002    0.000000000000000E+000
 -3.320000000000000E-002    0.000000000000000E+000
 -3.310000000000000E-002    0.000000000000000E+000
 -3.300000000000000E-002    0.000000000000000E+000
 -3.290000000000000E-002    0.000000000000000E+000
 -3.280000000000000E-002    0.000000000000000E+000
 -3.270000000000000E-002    0.000000000000000E+000
 -3.260000000000000E-002    0.000000000000000E+000
 -3.250000000000000E-002    0.000000000000000E+000
 -3.240000000000000E-002    0.000000000000000E+000
 -3.230000000000000E-002    0.000000000000000E+000
 -3.220000000000000E-002    0.000000000000000E+000
 -3.210000000000000E-002    0.000000000000000E+000
 -3.200000000000000E-002    0.000000000000000E+000
 -3.190000000000000E-002    0.000000000000000E+000
 -3.180000000000000E-002    0.000000000000000E+000
 -3.170000000000000E-002    0.000000000000000E+000
 -3.160000000000000E-002    0.000000000000000E+000
 -3.150000000000000E-002    0.000000000000000E+000
 -3.140000000000000E-002    0.000000000000000E+000
 -3.130000000000000E-002    0.000000000000000E+000
 -3.120000000000000E-002    0.000000000000000E+000
 -3.110000000000000E-002    0.000000000000000E+000
 -3.100000000000000E-002    0.000000000000000E+000
 -3.090000000000000E-002   -1.415361068068306E-047
 -3.080000000000000E-002   -2.830722136136613E-047
 -3.070000000000000E-002   -2.830722136136613E-047
 -3.060000000000000E-002   -2.830722136136613E-047
 -3.050000000000000E-002    4.825094470304978E-048
 -3.040000000000000E-002    1.740297123559409E-046
 -3.030000000000000E-002    5.621808815031956E-046
 -3.020000000000000E-002    1.202410917743740E-045
 -3.010000000000000E-002    2.402043544028833E-045
 -3.000000000000000E-002    4.034281577526097E-045
 -2.990000000000000E-002    6.237244123301155E-045
 -2.980000000000000E-002    8.645711725195580E-045
 -2.970000000000000E-002    1.042381615062302E-044
 -2.960000000000000E-002    1.186481411071541E-044
 -2.950000000000000E-002    1.015263172288680E-044
 -2.940000000000000E-002    2.431690833191727E-045
 -2.930000000000000E-002   -1.627703977188964E-044
 -2.920000000000000E-002   -5.038466861235326E-044
 -2.910000000000000E-002   -1.054550403069304E-043
 -2.900000000000000E-002   -1.880857883781180E-043
 -2.890000000000000E-002   -3.010624104023461E-043
 -2.880000000000000E-002   -4.413345075519069E-043
 -2.870000000000000E-002   -5.933547181699347E-043
 -2.860000000000000E-002   -7.215592426403777E-043
 -2.850000000000000E-002   -7.619244196114895E-043
 -2.840000000000000E-002   -6.122632614783731E-043
 -2.830000000000000E-002   -1.247979213725048E-043
 -2.820000000000000E-002    8.961974411386118E-043
 -2.810000000000000E-002    2.679842751101349E-042
 -2.800000000000000E-002    5.459163083692816E-042
 -2.790000000000000E-002    9.403965834850046E-042
 -2.780000000000000E-002    1.451683804286379E-041
 -2.770000000000000E-002    2.048006425048875E-041
 -2.760000000000000E-002    2.645010991025513E-041
 -2.750000000000000E-002    3.081037929854151E-041
 -2.740000000000000E-002    3.092113220198598E-041
 -2.730000000000000E-002    2.292014750447506E-041
 -2.720000000000000E-002    1.669895661762314E-042
 -2.710000000000000E-002   -3.900083892788236E-041
 -2.700000000000000E-002   -1.055897650235697E-040
 -2.690000000000000E-002   -2.035406361265123E-040
 -2.680000000000000E-002   -3.349939861837693E-040
 -2.670000000000000E-002   -4.955273554411429E-040
 -2.660000000000000E-002   -6.698930995940551E-040
 -2.650000000000000E-002   -8.270083380029052E-040
 -2.640000000000000E-002   -9.148357693654830E-040
 -2.630000000000000E-002   -8.563053991457407E-040
 -2.620000000000000E-002   -5.480491603286967E-040
 -2.610000000000000E-002    1.356027288360457E-040
 -2.600000000000000E-002    1.330384767788286E-039
 -2.590000000000000E-002    3.158304112703111E-039
 -2.580000000000000E-002    5.689321509300595E-039
 -2.570000000000000E-002    8.886685549891074E-039
 -2.560000000000000E-002    1.253654688016724E-038
 -2.550000000000000E-002    1.616650261923983E-038
 -2.540000000000000E-002    1.896344475473070E-038
 -2.530000000000000E-002    1.970848890379489E-038
 -2.520000000000000E-002    1.675520301773541E-038
 -2.510000000000000E-002    8.085703878665295E-039
 -2.500000000000000E-002   -8.514366682354029E-039
 -2.490000000000000E-002   -3.511931567752435E-038
 -2.480000000000000E-002   -7.312903687682891E-038
 -2.470000000000000E-002   -1.225189338510703E-037
 -2.460000000000000E-002   -1.808903121578575E-037
 -2.450000000000000E-002   -2.423900645224203E-037
 -2.440000000000000E-002   -2.966397337667177E-037
 -2.430000000000000E-002   -3.279013800622695E-037
 -2.420000000000000E-002   -3.148017706104198E-037
 -2.410000000000000E-002   -2.310227791013594E-037
 -2.400000000000000E-002   -4.742109115148691E-038
 -2.390000000000000E-002    2.639647662551389E-037
 -2.380000000000000E-002    7.236641287507870E-037
 -2.370000000000000E-002    1.336158669385038E-036
 -2.360000000000000E-002    2.079177950274015E-036
 -2.350000000000000E-002    2.891760057319194E-036
 -2.340000000000000E-002    3.662677636630264E-036
 -2.330000000000000E-002    4.221692438017450E-036
 -2.320000000000000E-002    4.336979258770748E-036
 -2.310000000000000E-002    3.722784242465560E-036
 -2.300000000000000E-002    2.061728348828938E-036
 -2.290000000000000E-002   -9.541392149005706E-037
 -2.280000000000000E-002   -5.560714103366635E-036
 -2.270000000000000E-002   -1.183732128701234E-035
 -2.260000000000000E-002   -1.960396595191244E-035
 -2.250000000000000E-002   -2.830942548241813E-035
 -2.240000000000000E-002   -3.692592686227890E-035
 -2.230000000000000E-002   -4.387340787305948E-035
 -2.220000000000000E-002   -4.700322974352214E-035
 -2.210000000000000E-002   -4.367614657778582E-035
 -2.200000000000000E-002   -3.097037556265723E-035
 -2.190000000000000E-002   -6.050654059237715E-036
 -2.180000000000000E-002    3.328409167691995E-035
 -2.170000000000000E-002    8.788008596726926E-035
 -2.160000000000000E-002    1.563749360497241E-034
 -2.150000000000000E-002    2.342946557363287E-034
 -2.140000000000000E-002    3.132370276993713E-034
 -2.130000000000000E-002    3.803293176003948E-034
 -2.120000000000000E-002    4.181933476421330E-034
 -2.110000000000000E-002    4.056769631700048E-034
 -2.100000000000000E-002    3.196025645041750E-034
 -2.090000000000000E-002    1.377275731308293E-034
 -2.080000000000000E-002   -1.570065236942060E-034
 -2.070000000000000E-002   -5.710481591606605E-034
 -2.060000000000000E-002   -1.094002784052459E-033
 -2.050000000000000E-002   -1.692279959935358E-033
 -2.040000000000000E-002   -2.303653381581712E-033
 -2.030000000000000E-002   -2.834095721719580E-033
 -2.020000000000000E-002   -3.158497025688625E-033
 -2.010000000000000E-002   -3.126955122836619E-033
 -2.000000000000000E-002   -2.578156739980471E-033
 -1.990000000000000E-002   -1.360853309855880E-033
 -1.980000000000000E-002    6.364778746789223E-034
 -1.970000000000000E-002    3.449049581920350E-033
 -1.960000000000000E-002    6.995258494826844E-033
 -1.950000000000000E-002    1.103726563789939E-032
 -1.940000000000000E-002    1.514973141410754E-032
 -1.930000000000000E-002    1.870553880230460E-032
 -1.920000000000000E-002    2.088840192579429E-032
 -1.910000000000000E-002    2.074210944324246E-032
 -1.900000000000000E-002    1.726432405906315E-032
 -1.890000000000000E-002    9.548884525572545E-033
 -1.880000000000000E-002   -3.025758150784876E-033
 -1.870000000000000E-002   -2.057299213830438E-032
 -1.860000000000000E-002   -4.246091598493740E-032
 -1.850000000000000E-002   -6.709453941664915E-032
 -1.840000000000000E-002   -9.176102647119118E-032
 -1.830000000000000E-002   -1.125897804079529E-031
 -1.820000000000000E-002   -1.246820968986976E-031
 -1.810000000000000E-002   -1.224604372630954E-031
 -1.800000000000000E-002   -1.002723461236645E-031
 -1.790000000000000E-002   -5.325727059153507E-032
 -1.780000000000000E-002    2.155450117800958E-032
 -1.770000000000000E-002    1.239917704505995E-031
 -1.760000000000000E-002    2.494793337338859E-031
 -1.750000000000000E-002    3.879582198589093E-031
 -1.740000000000000E-002    5.232352741413314E-031
 -1.730000000000000E-002    6.330384037577015E-031
 -1.720000000000000E-002    6.900516597600403E-031
 -1.710000000000000E-002    6.641575868115727E-031
 -1.700000000000000E-002    5.260126232217674E-031
 -1.690000000000000E-002    2.519205461827771E-031
 -1.680000000000000E-002   -1.702506501651166E-031
 -1.670000000000000E-002   -7.346254708701690E-031
 -1.660000000000000E-002   -1.411152861191622E-030
 -1.650000000000000E-002   -2.140780808124643E-030
 -1.640000000000000E-002   -2.833242471391167E-030
 -1.630000000000000E-002   -3.368802286247466E-030
 -1.620000000000000E-002   -3.605205680010162E-030
 -1.610000000000000E-002   -3.390744524734250E-030
 -1.600000000000000E-002   -2.583746448745682E-030
 -1.590000000000000E-002   -1.077920248678198E-030
 -1.580000000000000E-002    1.168123146350722E-030
 -1.570000000000000E-002    4.100121819655202E-030
 -1.560000000000000E-002    7.540414537363356E-030
 -1.550000000000000E-002    1.116852052027424E-029
 -1.540000000000000E-002    1.451606274638941E-029
 -1.530000000000000E-002    1.698206351124819E-029
 -1.520000000000000E-002    1.787374781161719E-029
 -1.510000000000000E-002    1.647597686232110E-029
 -1.500000000000000E-002    1.214925882030468E-029
 -1.490000000000000E-002    4.451937767420592E-030
 -1.480000000000000E-002   -6.723018604736620E-030
 -1.470000000000000E-002   -2.101180366089878E-029
 -1.460000000000000E-002   -3.746457736077607E-029
 -1.450000000000000E-002   -5.447578952157838E-029
 -1.440000000000000E-002   -6.978631849604365E-029
 -1.430000000000000E-002   -8.058222004679398E-029
 -1.420000000000000E-002   -8.370917744377864E-029
 -1.410000000000000E-002   -7.601122293732319E-029
 -1.400000000000000E-002   -5.478698644624021E-029
 -1.390000000000000E-002   -1.833705712319928E-029
 -1.380000000000000E-002    3.344618479068113E-029
 -1.370000000000000E-002    9.851766086805730E-029
 -1.360000000000000E-002    1.722387702265529E-028
 -1.350000000000000E-002    2.471607767463828E-028
 -1.340000000000000E-002    3.131389659008527E-028
 -1.330000000000000E-002    3.578710223892855E-028
 -1.320000000000000E-002    3.679230478796552E-028
 -1.310000000000000E-002    3.302568262557220E-028
 -1.300000000000000E-002    2.342043126781775E-028
 -1.290000000000000E-002    7.375324655315799E-029
 -1.280000000000000E-002   -1.500805904615207E-028
 -1.270000000000000E-002   -4.271038620495349E-028
 -1.260000000000000E-002   -7.363958927166607E-028
 -1.250000000000000E-002   -1.045770342415119E-027
 -1.240000000000000E-002   -1.312647406446369E-027
 -1.230000000000000E-002   -1.486660343622010E-027
 -1.220000000000000E-002   -1.514179059083084E-027
 -1.210000000000000E-002   -1.344716283586087E-027
 -1.200000000000000E-002   -9.389092014763435E-028
 -1.190000000000000E-002   -2.774488936532492E-028
 -1.180000000000000E-002    6.299948232090699E-028
 -1.170000000000000E-002    1.737098949700122E-027
 -1.160000000000000E-002    2.955915192961256E-027
 -1.150000000000000E-002    4.156116459072075E-027
 -1.140000000000000E-002    5.169850381209883E-027
 -1.130000000000000E-002    5.803227305891871E-027
 -1.120000000000000E-002    5.854856179400294E-027
 -1.110000000000000E-002    5.140988363216106E-027
 -1.100000000000000E-002    3.525786686954433E-027
 -1.090000000000000E-002    9.540836394889855E-028
 -1.080000000000000E-002   -2.517121528572243E-027
 -1.070000000000000E-002   -6.693107978462618E-027
 -1.060000000000000E-002   -1.122705769077404E-026
 -1.050000000000000E-002   -1.562207165548701E-026
 -1.040000000000000E-002   -1.925407845946468E-026
 -1.030000000000000E-002   -2.141855397055910E-026
 -1.020000000000000E-002   -2.140157955481072E-026
 -1.010000000000000E-002   -1.857258571679019E-026
 -1.000000000000000E-002   -1.249243515008675E-026
 -9.899999999999999E-003   -3.026622730903452E-027
 -9.800000000000000E-003    9.550221270973676E-027
 -9.699999999999999E-003    2.447500477463597E-026
 -9.599999999999999E-003    4.045974767050124E-026
 -9.500000000000000E-003    5.571486804525549E-026
 -9.399999999999999E-003    6.804568100459142E-026
 -9.299999999999999E-003    7.502938690040160E-026
 -9.200000000000000E-003    7.427111583864884E-026
 -9.099999999999999E-003    6.372653676145002E-026
 -8.999999999999999E-003    4.206632917421099E-026
 -8.900000000000000E-003    9.045401562110362E-027
 -8.799999999999999E-003   -3.417073775286197E-026
 -8.699999999999999E-003   -8.477720921123408E-026
 -8.600000000000000E-003   -1.382549918770018E-025
 -8.499999999999999E-003   -1.885009618720634E-025
 -8.399999999999999E-003   -2.282000445746690E-025
 -8.300000000000000E-003   -2.494543344558405E-025
 -8.199999999999999E-003   -2.446541614687160E-025
 -8.100000000000000E-003   -2.075400504335143E-025
 -8.000000000000000E-003   -1.343661269300290E-025
 -7.899999999999999E-003   -2.503899661645533E-026
 -7.800000000000000E-003    1.159231132858781E-025
 -7.699999999999999E-003    2.787823792945677E-025
 -7.599999999999999E-003    4.484941208018534E-025
 -7.499999999999999E-003    6.052839200014416E-025
 -7.399999999999999E-003    7.259836730208858E-025
 -7.299999999999999E-003    7.861440217325446E-025
 -7.199999999999999E-003    7.628455089831058E-025
 -7.100000000000000E-003    6.380190570677034E-025
 -6.999999999999999E-003    4.019728692576894E-025
 -6.899999999999999E-003    5.672163492444027E-026
 -6.800000000000000E-003   -3.813616285511566E-025
 -6.699999999999999E-003   -8.800803707086964E-025
 -6.599999999999999E-003   -1.391616777726394E-024
 -6.499999999999999E-003   -1.854784415839805E-024
 -6.399999999999999E-003   -2.199541700538215E-024
 -6.299999999999999E-003   -2.353736704954371E-024
 -6.199999999999999E-003   -2.251758478949638E-024
 -6.100000000000000E-003   -1.844446864759696E-024
 -5.999999999999999E-003   -1.109292661582596E-024
 -5.899999999999999E-003   -5.969514552396636E-026
 -5.800000000000000E-003    1.248132660582886E-024
 -5.699999999999999E-003    2.712049888304107E-024
 -5.599999999999999E-003    4.185965601041776E-024
 -5.499999999999999E-003    5.487854411273520E-024
 -5.399999999999999E-003    6.414218158606979E-024
 -5.299999999999999E-003    6.760667517031011E-024
 -5.199999999999999E-003    6.347441940603882E-024
 -5.099999999999999E-003    5.047789165781074E-024
 -4.999999999999999E-003    2.816275533216558E-024
 -4.899999999999999E-003   -2.865722813166008E-025
 -4.799999999999999E-003   -4.077242516278831E-024
 -4.699999999999999E-003   -8.243740607966854E-024
 -4.599999999999999E-003   -1.235494167127347E-023
 -4.499999999999999E-003   -1.588702184104375E-023
 -4.399999999999999E-003   -1.826753187590832E-023
 -4.299999999999999E-003   -1.893558762201445E-023
 -4.199999999999999E-003   -1.741430580862453E-023
 -4.099999999999999E-003   -1.338916213402650E-023
 -3.999999999999999E-003   -6.783853322831996E-024
 -3.899999999999999E-003    2.176372785777556E-024
 -3.799999999999999E-003    1.292456812807081E-023
 -3.699999999999999E-003    2.454528268831789E-023
 -3.599999999999999E-003    3.580928093547496E-023
 -3.499999999999999E-003    4.525469750335303E-023
 -3.399999999999999E-003    5.131476929884172E-023
 -3.299999999999999E-003    5.248657990104935E-023
 -3.199999999999999E-003    4.752900573041785E-023
 -3.099999999999999E-003    3.567186972894822E-023
 -2.999999999999999E-003    1.681308260499483E-023
 -2.899999999999999E-003   -8.322951637076465E-024
 -2.799999999999999E-003   -3.809333129657420E-023
 -2.699999999999999E-003   -6.993637130711513E-023
 -2.599999999999999E-003   -1.004826800493494E-022
 -2.499999999999999E-003   -1.257875250506458E-022
 -2.399999999999999E-003   -1.416820266053042E-022
 -2.299999999999999E-003   -1.442254088908735E-022
 -2.199999999999999E-003   -1.302249786056398E-022
 -2.099999999999999E-003   -9.777509184426047E-023
 -1.999999999999999E-003   -4.675432822155139E-023
 -1.899999999999999E-003    2.078741641106903E-023
 -1.799999999999999E-003    1.004207934670770E-022
 -1.699999999999999E-003    1.853691305108335E-022
 -1.599999999999999E-003    2.668254834698985E-022
 -1.499999999999999E-003    3.345744779769474E-022
 -1.399999999999999E-003    3.779057898009354E-022
 -1.299999999999999E-003    3.867691612170544E-022
 -1.199999999999999E-003    3.530819452255314E-022
 -1.099999999999999E-003    2.720649391043629E-022
 -9.999999999999989E-004    1.434541275460519E-022
 -8.999999999999990E-004   -2.757825519796401E-023
 -7.999999999999990E-004   -2.299577766412903E-022
 -6.999999999999989E-004   -4.468396405051559E-022
 -5.999999999999990E-004   -6.564368946725824E-022
 -4.999999999999989E-004   -8.335807790587029E-022
 -3.999999999999989E-004   -9.519693257879811E-022
 -2.999999999999989E-004   -9.869715318893104E-022
 -1.999999999999989E-004   -9.187646626038190E-022
 -9.999999999999892E-005   -7.355011876353326E-022
  1.084202172485504E-018   -4.361437025051467E-022
  1.000000000000011E-004   -3.257790925270345E-023
  2.000000000000011E-004    4.493730673140938E-022
  3.000000000000011E-004    9.703490792435916E-022
  4.000000000000011E-004    1.479477852662013E-021
  5.000000000000011E-004    1.918080730174032E-021
  6.000000000000011E-004    2.224932632097566E-021
  7.000000000000011E-004    2.342744396471898E-021
  8.000000000000011E-004    2.225337912346643E-021
  9.000000000000012E-004    1.844808494392238E-021
  1.000000000000001E-003    1.197849051558122E-021
  1.100000000000001E-003    3.103648072766883E-022
  1.200000000000001E-003   -7.604468262204461E-022
  1.300000000000001E-003   -1.927226681967978E-021
  1.400000000000001E-003   -3.077207550430819E-021
  1.500000000000001E-003   -4.080669148178552E-021
  1.600000000000001E-003   -4.802743678583601E-021
  1.700000000000001E-003   -5.117783529140069E-021
  1.800000000000001E-003   -4.925078576012265E-021
  1.900000000000001E-003   -4.164339839178850E-021
  2.000000000000001E-003   -2.829137903962853E-021
  2.100000000000001E-003   -9.764204628397468E-022
  2.200000000000001E-003    1.269632362747830E-021
  2.300000000000001E-003    3.720791068589607E-021
  2.400000000000001E-003    6.135774634754391E-021
  2.500000000000001E-003    8.239097836310150E-021
  2.600000000000001E-003    9.746866270232918E-021
  2.700000000000001E-003    1.039771152737435E-020
  2.800000000000001E-003    9.986134085954868E-021
  2.900000000000001E-003    8.394831633718457E-021
  3.000000000000001E-003    5.622137839224436E-021
  3.100000000000001E-003    1.800636714756400E-021
  3.200000000000001E-003   -2.796615986644971E-021
  3.300000000000001E-003   -7.764947566495901E-021
  3.400000000000001E-003   -1.259343183350610E-020
  3.500000000000001E-003   -1.670649287432020E-020
  3.600000000000001E-003   -1.951959693599716E-020
  3.700000000000001E-003   -2.050489681042410E-020
  3.800000000000001E-003   -1.926092072099772E-020
  3.900000000000001E-003   -1.557896360594853E-020
  4.000000000000001E-003   -9.498066316503834E-021
  4.100000000000001E-003   -1.340467367956905E-021
  4.200000000000001E-003    8.279663377921994E-021
  4.300000000000001E-003    1.847946585077406E-020
  4.400000000000001E-003    2.816509363521668E-020
  4.500000000000001E-003    3.612281047521050E-020
  4.600000000000002E-003    4.113851977613105E-020
  4.700000000000001E-003    4.213661393445278E-020
  4.800000000000001E-003    3.832557308099136E-020
  4.900000000000002E-003    2.933489547221304E-020
  5.000000000000001E-003    1.532647378528913E-020
  5.100000000000001E-003   -2.936187668999928E-021
  5.200000000000001E-003   -2.407544161136950E-020
  5.300000000000002E-003   -4.615408640063616E-020
  5.400000000000001E-003   -6.680166015502348E-020
  5.500000000000001E-003   -8.340966263654053E-020
  5.600000000000002E-003   -9.338492954778366E-020
  5.700000000000001E-003   -9.444219849361063E-020
  5.800000000000001E-003   -8.490950129296364E-020
  5.900000000000002E-003   -6.401475823620703E-020
  6.000000000000001E-003   -3.211889347972259E-020
  6.100000000000001E-003    9.138500321712201E-021
  6.200000000000002E-003    5.681058740760050E-020
  6.300000000000002E-003    1.067531900534281E-019
  6.400000000000001E-003    1.538827473286537E-019
  6.500000000000001E-003    1.925769398514088E-019
  6.600000000000002E-003    2.171968664141556E-019
  6.700000000000001E-003    2.226926188744915E-019
  6.800000000000001E-003    2.052399966333565E-019
  6.900000000000002E-003    1.628445889742657E-019
  7.000000000000001E-003    9.584344746713570E-020
  7.100000000000001E-003    7.235575833084073E-021
  7.200000000000002E-003   -9.721976992517318E-020
  7.300000000000002E-003   -2.091821892130962E-019
  7.400000000000001E-003   -3.182083693927124E-019
  7.500000000000001E-003   -4.125234379281959E-019
  7.600000000000002E-003   -4.800469598976458E-019
  7.700000000000001E-003   -5.096032306052842E-019
  7.800000000000001E-003   -4.922152555529372E-019
  7.900000000000001E-003   -4.223598625208478E-019
  8.000000000000002E-003   -2.990471040374838E-019
  8.100000000000001E-003   -1.265868567774036E-019
  8.200000000000001E-003    8.508074158579348E-020
  8.300000000000002E-003    3.205876193709215E-019
  8.400000000000001E-003    5.599246097548307E-019
  8.500000000000002E-003    7.798142387794951E-019
  8.600000000000002E-003    9.556087924625592E-019
  8.700000000000001E-003    1.063590021826038E-018
  8.800000000000002E-003    1.083489793233409E-018
  8.900000000000002E-003    1.001004014877750E-018
  9.000000000000001E-003    8.100417533089544E-019
  9.100000000000002E-003    5.144450318050061E-019
  9.200000000000002E-003    1.289334012820174E-019
  9.300000000000001E-003   -3.209235220936512E-019
  9.400000000000002E-003   -7.998310554080321E-019
  9.500000000000001E-003   -1.265020793170064E-018
  9.600000000000001E-003   -1.669543032346721E-018
  9.700000000000002E-003   -1.966403993617308E-018
  9.800000000000001E-003   -2.113232989137228E-018
  9.900000000000001E-003   -2.077077006154998E-018
  1.000000000000000E-002   -1.838851986373196E-018
  1.010000000000000E-002   -1.396958206328900E-018
  1.020000000000000E-002   -7.695902271510702E-019
  1.030000000000000E-002    4.655841704920801E-021
  1.040000000000000E-002    8.681456098311777E-019
  1.050000000000000E-002    1.747647844251559E-018
  1.060000000000000E-002    2.559759652473418E-018
  1.070000000000000E-002    3.218003244599360E-018
  1.080000000000000E-002    3.641083518493046E-018
  1.090000000000000E-002    3.761605461029763E-018
  1.100000000000000E-002    3.534423790112855E-018
  1.110000000000000E-002    2.943732595158691E-018
  1.120000000000000E-002    2.008024038224398E-018
  1.130000000000000E-002    7.821586942694956E-019
  1.140000000000000E-002   -6.440083813671483E-019
  1.150000000000000E-002   -2.150711163017079E-018
  1.160000000000000E-002   -3.596989793280295E-018
  1.170000000000000E-002   -4.832575561557531E-018
  1.180000000000000E-002   -5.712098721856447E-018
  1.190000000000000E-002   -6.110440252805643E-018
  1.200000000000000E-002   -5.937779828727951E-018
  1.210000000000000E-002   -5.152761489527802E-018
  1.220000000000000E-002   -3.772187686811087E-018
  1.230000000000000E-002   -1.875842419723082E-018
  1.240000000000000E-002    3.946407929287989E-019
  1.250000000000000E-002    2.843452481622186E-018
  1.260000000000000E-002    5.234793005501918E-018
  1.270000000000000E-002    7.312875210438213E-018
  1.280000000000000E-002    8.826365434665737E-018
  1.290000000000000E-002    9.555216784614353E-018
  1.300000000000000E-002    9.337404315872803E-018
  1.310000000000000E-002    8.092737524745366E-018
  1.320000000000000E-002    5.840910133902458E-018
  1.330000000000000E-002    2.711188711478643E-018
  1.340000000000000E-002   -1.058275964237239E-018
  1.350000000000000E-002   -5.132719832430558E-018
  1.360000000000000E-002   -9.104740008788480E-018
  1.370000000000000E-002   -1.252889051340048E-017
  1.380000000000000E-002   -1.496453974368811E-017
  1.390000000000000E-002   -1.602351810200752E-017
  1.400000000000000E-002   -1.541810226121913E-017
  1.410000000000000E-002   -1.300432581697613E-017
  1.420000000000000E-002   -8.815456921931447E-018
  1.430000000000000E-002   -3.080879628115420E-018
  1.440000000000000E-002    3.773441646898511E-018
  1.450000000000000E-002    1.114530737193061E-017
  1.460000000000000E-002    1.829786226211134E-017
  1.470000000000000E-002    2.442079034528563E-017
  1.480000000000000E-002    2.870706672290444E-017
  1.490000000000000E-002    3.043924924436666E-017
  1.500000000000000E-002    2.907736698004564E-017
  1.510000000000000E-002    2.433941614400164E-017
  1.520000000000000E-002    1.626506304458939E-017
  1.530000000000000E-002    5.253694457514860E-018
  1.540000000000000E-002   -7.930370937716527E-018
  1.550000000000000E-002   -2.219028635138256E-017
  1.560000000000000E-002   -3.616802036964717E-017
  1.570000000000000E-002   -4.835225234724700E-017
  1.580000000000000E-002   -5.721607816057247E-017
  1.590000000000000E-002   -6.137401410338966E-017
  1.600000000000000E-002   -5.974443986388226E-017
  1.610000000000000E-002   -5.170128448693472E-017
  1.620000000000000E-002   -3.719788083799559E-017
  1.630000000000000E-002   -1.684666021262951E-017
  1.640000000000000E-002    8.058956367561915E-018
  1.650000000000000E-002    3.559007693021642E-017
  1.660000000000000E-002    6.329881455541926E-017
  1.670000000000000E-002    8.840252930584948E-017
  1.680000000000000E-002    1.080253147240294E-016
  1.690000000000000E-002    1.194788947852839E-016
  1.700000000000000E-002    1.205590117164968E-016
  1.710000000000000E-002    1.098288471006569E-016
  1.720000000000000E-002    8.685899792508594E-017
  1.730000000000000E-002    5.239439323588026E-017
  1.740000000000000E-002    8.422191792716734E-018
  1.750000000000000E-002   -4.187789515753140E-017
  1.760000000000000E-002   -9.430947834909667E-017
  1.770000000000000E-002   -1.439591093482399E-016
  1.780000000000000E-002   -1.856031363353286E-016
  1.790000000000000E-002   -2.141935922650856E-016
  1.800000000000000E-002   -2.253827764784651E-016
  1.810000000000000E-002   -2.160382051301058E-016
  1.820000000000000E-002   -1.846945460281840E-016
  1.830000000000000E-002   -1.318901945410658E-016
  1.840000000000000E-002   -6.034142172758380E-017
  1.850000000000000E-002    2.508201514127655E-017
  1.860000000000000E-002    1.175990838149994E-016
  1.870000000000000E-002    2.089774625703477E-016