 -4.000000000000000E-002    0.000000000000000E+000
 -3.990000000000000E-002    0.000000000000000E+000
 -3.980000000000000E-002    0.000000000000000E+000
 -3.970000000000000E-002    0.000000000000000E+000
 -3.960000000000000E-002    0.000000000000000E+000
 -3.950000000000000E-002    0.000000000000000E+000
 -3.940000000000000E-002    0.000000000000000E+000
 -3.930000000000000E-002    0.000000000000000E+000
 -3.920000000000000E-002    0.000000000000000E+000
 -3.910000000000000E-002   -5.074847769154229E-032
 -3.900000000000000E-002   -8.016007551227373E-031
 -3.890000000000000E-002   -6.406555988611834E-030
 -3.880000000000000E-002   -3.394601634598683E-029
 -3.870000000000000E-002   -1.300023742675120E-028
 -3.860000000000000E-002   -3.570300881936347E-028
 -3.850000000000000E-002   -5.595568533391590E-028
 -3.840000000000000E-002    7.199472402912139E-028
 -3.830000000000000E-002    9.835018535892625E-027
 -3.820000000000000E-002    4.783588408939888E-026
 -3.810000000000000E-002    1.736323802027206E-025
 -3.800000000000000E-002    5.326482599055800E-025
 -3.790000000000000E-002    1.448804913992604E-024
 -3.780000000000000E-002    3.581680337733218E-024
 -3.770000000000000E-002    8.168068890130202E-024
 -3.760000000000000E-002    1.734993074208554E-023
 -3.750000000000000E-002    3.454809440357003E-023
 -3.740000000000000E-002    6.476129077250938E-023
 -3.730000000000000E-002    1.145441291381403E-022
 -3.720000000000000E-002    1.912457762764374E-022
 -3.710000000000000E-002    3.008910991180717E-022
 -3.700000000000000E-002    4.439028693736391E-022
 -3.690000000000000E-002    6.077764468498947E-022
 -3.680000000000000E-002    7.559452851766332E-022
 -3.670000000000000E-002    8.125652720349171E-022
 -3.660000000000000E-002    6.439589999548321E-022
 -3.650000000000000E-002    3.913548204601422E-023
 -3.640000000000000E-002   -1.305804336850970E-021
 -3.630000000000000E-002   -3.791537757343680E-021
 -3.620000000000000E-002   -7.896471574749653E-021
 -3.610000000000000E-002   -1.412047993130637E-020
 -3.600000000000000E-002   -2.287524632543092E-020
 -3.590000000000000E-002   -3.430555549757397E-020
 -3.580000000000000E-002   -4.803040062748527E-020
 -3.570000000000000E-002   -6.280277000998685E-020
 -3.560000000000000E-002   -7.610404160516288E-020
 -3.550000000000000E-002   -8.371357842840219E-020
 -3.540000000000000E-002   -7.932640527177034E-020
 -3.530000000000000E-002   -5.432961367501361E-020
 -3.520000000000000E-002    2.112659927473839E-021
 -3.510000000000000E-002    1.024819718874359E-019
 -3.500000000000000E-002    2.596336578868641E-019
 -3.490000000000000E-002    4.846360786787534E-019
 -3.480000000000000E-002    7.835769333154245E-019
 -3.470000000000000E-002    1.153297666129732E-018
 -3.460000000000000E-002    1.576189275590077E-018
 -3.450000000000000E-002    2.014426934918350E-018
 -3.440000000000000E-002    2.404333518049692E-018
 -3.430000000000000E-002    2.651921268223317E-018
 -3.420000000000000E-002    2.631026302586831E-018
 -3.410000000000000E-002    2.185766184890636E-018
 -3.400000000000000E-002    1.139220518283734E-018
 -3.390000000000000E-002   -6.898295217053150E-019
 -3.380000000000000E-002   -3.460687077653767E-018
 -3.370000000000000E-002   -7.274519612233150E-018
 -3.360000000000000E-002   -1.212898102483032E-017
 -3.350000000000000E-002   -1.786649960959339E-017
 -3.340000000000000E-002   -2.412143041074021E-017
 -3.330000000000000E-002   -3.027395377355685E-017
 -3.320000000000000E-002   -3.542118867167870E-017
 -3.310000000000000E-002   -3.837806870241927E-017
 -3.300000000000000E-002   -3.772138215288264E-017
 -3.290000000000000E-002   -3.188951343559780E-017
 -3.280000000000000E-002   -1.934704014157254E-017
 -3.270000000000000E-002    1.182951366395808E-018
 -3.260000000000000E-002    3.042547053598659E-017
 -3.250000000000000E-002    6.821814253031640E-017
 -3.240000000000000E-002    1.131670694861220E-016
 -3.230000000000000E-002    1.623424822498230E-016
 -3.220000000000000E-002    2.110759174421416E-016
 -3.210000000000000E-002    2.529294388039752E-016
 -3.200000000000000E-002    2.799085068984202E-016
 -3.190000000000000E-002    2.829805837556657E-016
 -3.180000000000000E-002    2.529380951682863E-016
 -3.170000000000000E-002    1.816074202003974E-016
 -3.160000000000000E-002    6.335311003192507E-017
 -3.150000000000000E-002   -1.032351965697729E-016
 -3.140000000000000E-002   -3.136540448908557E-016
 -3.130000000000000E-002   -5.560402034863242E-016
 -3.120000000000000E-002   -8.102607079193362E-016
 -3.110000000000000E-002   -1.047854136238121E-015
 -3.100000000000000E-002   -1.233119392692989E-015
 -3.090000000000000E-002   -1.325578759772809E-015
 -3.080000000000000E-002   -1.283916507670156E-015
 -3.070000000000000E-002   -1.071311887212436E-015
 -3.060000000000000E-002   -6.618599660288295E-016
 -3.050000000000000E-002   -4.751339751169518E-017
 -3.040000000000000E-002    7.552658074636417E-016
 -3.030000000000000E-002    1.700170893235131E-015
 -3.020000000000000E-002    2.708181316513471E-015
 -3.010000000000000E-002    3.668304602188507E-015
 -3.000000000000000E-002    4.442904858283769E-015
 -2.990000000000000E-002    4.878232528305183E-015
 -2.980000000000000E-002    4.820218788996654E-015
 -2.970000000000000E-002    4.134874092771260E-015
 -2.960000000000000E-002    2.731810463504875E-015
 -2.950000000000000E-002    5.885410772385737E-016
 -2.940000000000000E-002   -2.227533596830938E-015
 -2.930000000000000E-002   -5.543081740223573E-015
 -2.920000000000000E-002   -9.072532577514190E-015
 -2.910000000000000E-002   -1.242498445205428E-014
 -2.900000000000000E-002   -1.512692751094322E-014
 -2.890000000000000E-002   -1.666190995271513E-014
 -2.880000000000000E-002   -1.652628659140899E-014
 -2.870000000000000E-002   -1.429778477435072E-014
 -2.860000000000000E-002   -9.711072435842184E-015
 -2.850000000000000E-002   -2.732138891481274E-015
 -2.840000000000000E-002    6.378618796827206E-015
 -2.830000000000000E-002    1.702564351321537E-014
 -2.820000000000000E-002    2.827062524983155E-014
 -2.810000000000000E-002    3.886707811111959E-014
 -2.800000000000000E-002    4.734275379797518E-014
 -2.790000000000000E-002    5.213063616772172E-014
 -2.780000000000000E-002    5.174310306683710E-014
 -2.770000000000000E-002    4.497705668670784E-014
 -2.760000000000000E-002    3.113105256954656E-014
 -2.750000000000000E-002    1.020961389896535E-014
 -2.740000000000000E-002   -1.691385865483277E-014
 -2.730000000000000E-002   -4.840527923511664E-014
 -2.720000000000000E-002   -8.147625543295007E-014
 -2.710000000000000E-002   -1.125092405104959E-013
 -2.700000000000000E-002   -1.373115235976127E-013
 -2.690000000000000E-002   -1.514941538931940E-013
 -2.680000000000000E-002   -1.509556950639832E-013
 -2.670000000000000E-002   -1.324335380060089E-013
 -2.660000000000000E-002   -9.407000174225819E-014
 -2.650000000000000E-002   -3.592780344701342E-014
 -2.640000000000000E-002    3.961675437679400E-014
 -2.630000000000000E-002    1.276739695524429E-013
 -2.620000000000000E-002    2.208953480379556E-013
 -2.610000000000000E-002    3.098249231320838E-013
 -2.600000000000000E-002    3.835620798739949E-013
 -2.590000000000000E-002    4.307162905621471E-013
 -2.580000000000000E-002    4.405966245598174E-013
 -2.570000000000000E-002    4.045409017367071E-013
 -2.560000000000000E-002    3.172570301229295E-013
 -2.550000000000000E-002    1.780250896569378E-013
 -2.540000000000000E-002   -8.399738424519094E-015
 -2.530000000000000E-002   -2.313364294829973E-013
 -2.520000000000000E-002   -4.743049955061036E-013
 -2.510000000000000E-002   -7.158113676318073E-013
 -2.500000000000000E-002   -9.308086376109292E-013
 -2.490000000000000E-002   -1.092778986171416E-012
 -2.480000000000000E-002   -1.176303880056960E-012
 -2.470000000000000E-002   -1.159913660519921E-012
 -2.460000000000000E-002   -1.028947844851631E-012
 -2.450000000000000E-002   -7.781158554928482E-013
 -2.440000000000000E-002   -4.134372522374998E-013
 -2.430000000000000E-002    4.673596177667902E-014
 -2.420000000000000E-002    5.718525942754624E-013
 -2.410000000000000E-002    1.120595886966100E-012
 -2.400000000000000E-002    1.643638968535962E-012
 -2.390000000000000E-002    2.087604334388873E-012
 -2.380000000000000E-002    2.399963770807282E-012
 -2.370000000000000E-002    2.534483096272188E-012
 -2.360000000000000E-002    2.456704007711420E-012
 -2.350000000000000E-002    2.148894628546818E-012
 -2.340000000000000E-002    1.613882768882560E-012
 -2.330000000000000E-002    8.772395299862003E-013
 -2.320000000000000E-002   -1.261324910499892E-014
 -2.310000000000000E-002   -9.866260740527178E-013
 -2.300000000000000E-002   -1.959717676017365E-012
 -2.290000000000000E-002   -2.837542631098238E-012
 -2.280000000000000E-002   -3.524983017893181E-012
 -2.270000000000000E-002   -3.935690587810394E-012
 -2.260000000000000E-002   -4.001822390150681E-012
 -2.250000000000000E-002   -3.682998675328251E-012
 -2.240000000000000E-002   -2.973493469286508E-012
 -2.230000000000000E-002   -1.906730920956151E-012
 -2.220000000000000E-002   -5.563403462059740E-013
 -2.210000000000000E-002    9.667153770215168E-013
 -2.200000000000000E-002    2.521083051469728E-012
 -2.190000000000000E-002    3.945793592506118E-012
 -2.180000000000000E-002    5.074224261178208E-012
 -2.170000000000000E-002    5.750225664070764E-012
 -2.160000000000000E-002    5.845076997194236E-012
 -2.150000000000000E-002    5.273707801977137E-012
 -2.140000000000000E-002    4.008533601609022E-012
 -2.130000000000000E-002    2.089303610024187E-012
 -2.120000000000000E-002   -3.724324856476423E-013
 -2.110000000000000E-002   -3.195278261044566E-012
 -2.100000000000000E-002   -6.136906342082064E-012
 -2.090000000000000E-002   -8.909899918065069E-012
 -2.080000000000000E-002   -1.120382625352044E-011
 -2.070000000000000E-002   -1.271220300337818E-011
 -2.060000000000000E-002   -1.316241430046673E-011
 -2.050000000000000E-002   -1.234613954618247E-011
 -2.040000000000000E-002   -1.014754112625468E-011
 -2.030000000000000E-002   -6.566317687940665E-012
 -2.020000000000000E-002   -1.732884883581514E-012
 -2.010000000000000E-002    4.086694636878103E-012
 -2.000000000000000E-002    1.049774489515709E-011
 -1.990000000000000E-002    1.699681983376084E-011
 -1.980000000000000E-002    2.300412825699956E-011
 -1.970000000000000E-002    2.790714759756135E-011
 -1.960000000000000E-002    3.111281368374453E-011
 -1.950000000000000E-002    3.210456149664553E-011
 -1.940000000000000E-002    3.049956201237591E-011
 -1.930000000000000E-002    2.610084782142869E-011
 -1.920000000000000E-002    1.893884360452811E-011
 -1.910000000000000E-002    9.297034359933620E-012
 -1.900000000000000E-002   -2.282680993016277E-012
 -1.890000000000000E-002   -1.501808307448045E-011
 -1.880000000000000E-002   -2.792950462932530E-011
 -1.870000000000000E-002   -3.990661046654648E-011
 -1.860000000000000E-002   -4.979583193366705E-011
 -1.850000000000000E-002   -5.650274839535039E-011
 -1.840000000000000E-002   -5.910148443579802E-011
 -1.830000000000000E-002   -5.694148954211417E-011
 -1.820000000000000E-002   -4.974100224430254E-011
 -1.810000000000000E-002   -3.765640225351050E-011
 -1.800000000000000E-002   -2.131762437554009E-011
 -1.790000000000000E-002   -1.821882773913922E-012
 -1.780000000000000E-002    1.931889392967297E-011
 -1.770000000000000E-002    4.027746294652210E-011
 -1.760000000000000E-002    5.905342208402235E-011
 -1.750000000000000E-002    7.364915718952193E-011
 -1.740000000000000E-002    8.226610962923465E-011
 -1.730000000000000E-002    8.350404951339126E-011
 -1.720000000000000E-002    7.654367462045156E-011
 -1.710000000000000E-002    6.129200875847067E-011
 -1.700000000000000E-002    3.847147924314087E-011
 -1.690000000000000E-002    9.636950196777082E-012
 -1.680000000000000E-002   -2.288938343712044E-011
 -1.670000000000000E-002   -5.616814083300584E-011
 -1.660000000000000E-002   -8.687226421503384E-011
 -1.650000000000000E-002   -1.115814063494461E-010
 -1.640000000000000E-002   -1.271181764139661E-010
 -1.630000000000000E-002   -1.308963965211313E-010
 -1.620000000000000E-002   -1.212466591095990E-010
 -1.610000000000000E-002   -9.768324891675186E-011
 -1.600000000000000E-002   -6.107830868569630E-011
 -1.590000000000000E-002   -1.371541516217238E-011
 -1.580000000000000E-002    4.079587057772513E-011
 -1.570000000000000E-002    9.775022629892021E-011
 -1.560000000000000E-002    1.517127881812076E-010
 -1.550000000000000E-002    1.969974393994339E-010
 -1.540000000000000E-002    2.282189205316364E-010
 -1.530000000000000E-002    2.408690238768829E-010
 -1.520000000000000E-002    2.318594243740329E-010
 -1.510000000000000E-002    1.999716864957335E-010
 -1.500000000000000E-002    1.461586849322352E-010
 -1.490000000000000E-002    7.365190018155641E-011
 -1.480000000000000E-002   -1.215490903023316E-011
 -1.470000000000000E-002   -1.040546607692295E-010
 -1.460000000000000E-002   -1.935939506859735E-010
 -1.450000000000000E-002   -2.718193038248291E-010
 -1.440000000000000E-002   -3.301418483061191E-010
 -1.430000000000000E-002   -3.612413828181353E-010
 -1.420000000000000E-002   -3.599201083843947E-010
 -1.410000000000000E-002   -3.238131600916673E-010
 -1.400000000000000E-002   -2.538704601813323E-010
 -1.390000000000000E-002   -1.545406063879492E-010
 -1.380000000000000E-002   -3.361245026474193E-011
 -1.370000000000000E-002    9.829759871284597E-011
 -1.360000000000000E-002    2.285894702054716E-010
 -1.350000000000000E-002    3.437948992849138E-010
 -1.340000000000000E-002    4.308721919819721E-010
 -1.330000000000000E-002    4.785621655755052E-010
 -1.320000000000000E-002    4.786720006959957E-010
 -1.310000000000000E-002    4.271504671162109E-010
 -1.300000000000000E-002    3.248293888640446E-010
 -1.290000000000000E-002    1.777312093039950E-010
 -1.280000000000000E-002   -3.121186374100316E-012
 -1.270000000000000E-002   -2.024094238687931E-010
 -1.260000000000000E-002   -4.017058676593663E-010
 -1.250000000000000E-002   -5.810563267162484E-010
 -1.240000000000000E-002   -7.208286829972386E-010
 -1.230000000000000E-002   -8.036613309275864E-010
 -1.220000000000000E-002   -8.163245833144003E-010
 -1.210000000000000E-002   -7.513041496542703E-010
 -1.200000000000000E-002   -6.079325854869615E-010
 -1.190000000000000E-002   -3.929282492060596E-010
 -1.180000000000000E-002   -1.202517856113707E-010
 -1.170000000000000E-002    1.897472472722912E-010
 -1.160000000000000E-002    5.118522021374224E-010
 -1.150000000000000E-002    8.180598816059595E-010
 -1.140000000000000E-002    1.080048952582200E-009
 -1.130000000000000E-002    1.271817288852851E-009
 -1.120000000000000E-002    1.372241804007058E-009
 -1.110000000000000E-002    1.367308367595493E-009
 -1.100000000000000E-002    1.251779332317847E-009
 -1.090000000000000E-002    1.030108590768534E-009
 -1.080000000000000E-002    7.164798934753081E-010
 -1.070000000000000E-002    3.339217612721721E-010
 -1.060000000000000E-002   -8.745849533609062E-011
 -1.050000000000000E-002   -5.129919083920505E-010
 -1.040000000000000E-002   -9.065073491128589E-010
 -1.030000000000000E-002   -1.233662195691892E-009
 -1.020000000000000E-002   -1.465234098170613E-009
 -1.010000000000000E-002   -1.580054416623474E-009
 -1.000000000000000E-002   -1.567283576526229E-009
 -9.899999999999999E-003   -1.427779932316919E-009
 -9.800000000000000E-003   -1.174390041466429E-009
 -9.699999999999999E-003   -8.310853267737111E-010
 -9.599999999999999E-003   -4.309793462011324E-010
 -9.500000000000000E-003   -1.336916521993484E-011
 -9.399999999999999E-003    3.799540410704569E-010
 -9.299999999999999E-003    7.087979768420999E-010
 -9.200000000000000E-003    9.386842037017842E-010
 -9.099999999999999E-003    1.044583482919409E-009
 -8.999999999999999E-003    1.013886576977500E-009
 -8.900000000000000E-003    8.482809175114177E-010
 -8.799999999999999E-003    5.642927399409835E-010
 -8.699999999999999E-003    1.923706833372951E-010
 -8.600000000000000E-003   -2.254797564138953E-010
 -8.499999999999999E-003   -6.393608786126620E-010
 -8.399999999999999E-003   -9.961637686436348E-010
 -8.300000000000000E-003   -1.244870687788329E-009
 -8.199999999999999E-003   -1.341999561236896E-009
 -8.100000000000000E-003   -1.256673397255129E-009
 -8.000000000000000E-003   -9.748006143448352E-010
 -7.899999999999999E-003   -5.019042941264559E-010
 -7.800000000000000E-003    1.357565274570493E-010
 -7.699999999999999E-003    8.919978159783963E-010
 -7.599999999999999E-003    1.703505654246779E-009
 -7.499999999999999E-003    2.494486193575344E-009
 -7.399999999999999E-003    3.182860300807847E-009
 -7.299999999999999E-003    3.687528195425176E-009
 -7.199999999999999E-003    3.936101259734490E-009
 -7.100000000000000E-003    3.872415631883352E-009
 -6.999999999999999E-003    3.463119804224477E-009
 -6.899999999999999E-003    2.702669291385561E-009
 -6.800000000000000E-003    1.616166746072899E-009
 -6.699999999999999E-003    2.596473321489625E-010
 -6.599999999999999E-003   -1.282379739860171E-009
 -6.499999999999999E-003   -2.902083849314460E-009
 -6.399999999999999E-003   -4.475860492522917E-009
 -6.299999999999999E-003   -5.873739306867460E-009
 -6.199999999999999E-003   -6.969915639611275E-009
 -6.100000000000000E-003   -7.653527688569674E-009
 -5.999999999999999E-003   -7.838725608125458E-009
 -5.899999999999999E-003   -7.473096632109407E-009
 -5.800000000000000E-003   -6.543609631245073E-009
 -5.699999999999999E-003   -5.079425571963120E-009
 -5.599999999999999E-003   -3.151178673227156E-009
 -5.499999999999999E-003   -8.666378558836620E-010
 -5.399999999999999E-003    1.637011920809850E-009
 -5.299999999999999E-003    4.203702044919409E-009
 -5.199999999999999E-003    6.670971642149139E-009
 -5.099999999999999E-003    8.883342930984005E-009
 -4.999999999999999E-003    1.070537337437842E-008
 -4.899999999999999E-003    1.203315714907735E-008
 -4.799999999999999E-003    1.280314477274190E-008
 -4.699999999999999E-003    1.299736329108589E-008
 -4.599999999999999E-003    1.264441633151242E-008
 -4.499999999999999E-003    1.181604697065378E-008
 -4.399999999999999E-003    1.061945206589762E-008
 -4.299999999999999E-003    9.185973691457193E-009
 -4.199999999999999E-003    7.657174617809691E-009
 -4.099999999999999E-003    6.169607125060557E-009
 -3.999999999999999E-003    4.839777025649891E-009
 -3.899999999999999E-003    3.750851328398600E-009
 -3.799999999999999E-003    2.942551139749371E-009
 -3.699999999999999E-003    2.405434395416280E-009
 -3.599999999999999E-003    2.080381971104412E-009
 -3.499999999999999E-003    1.863618293136321E-009
 -3.399999999999999E-003    1.617073162123955E-009
 -3.299999999999999E-003    1.183351916537776E-009
 -3.199999999999999E-003    4.040789600101015E-010
 -3.099999999999999E-003   -8.599889215576220E-010
 -2.999999999999999E-003   -2.708953524140402E-009
 -2.899999999999999E-003   -5.185771186528804E-009
 -2.799999999999999E-003   -8.262092415089422E-009
 -2.699999999999999E-003   -1.182941320863062E-008
 -2.599999999999999E-003   -1.569659407777454E-008
 -2.499999999999999E-003   -1.959416572142062E-008
 -2.399999999999999E-003   -2.318521311454428E-008
 -2.299999999999999E-003   -2.608195406363180E-008
 -2.199999999999999E-003   -2.786650863239034E-008
 -2.099999999999999E-003   -2.811391968550462E-008
 -1.999999999999999E-003   -2.641517010444067E-008
 -1.899999999999999E-003   -2.239781526706685E-008
 -1.799999999999999E-003   -1.574208922346103E-008
 -1.699999999999999E-003   -6.190610296257485E-009
 -1.599999999999999E-003    6.449536016381064E-009
 -1.499999999999999E-003    2.231290021463318E-008
 -1.399999999999999E-003    4.148967058583036E-008
 -1.299999999999999E-003    6.404659439532634E-008
 -1.199999999999999E-003    9.005296731431617E-008
 -1.099999999999999E-003    1.196094000913163E-007
 -9.999999999999989E-004    1.528766757711680E-007
 -8.999999999999990E-004    1.901017389109431E-007
 -7.999999999999990E-004    2.316384649116572E-007
 -6.999999999999989E-004    2.779606241167135E-007
 -5.999999999999990E-004    3.296657939179465E-007
 -4.999999999999989E-004    3.874693285010891E-007
 -3.999999999999989E-004    4.521886279105351E-007
 -2.999999999999989E-004    5.247188937443733E-007
 -1.999999999999989E-004    6.060023063635707E-007
 -9.999999999999892E-005    6.969934484306308E-007
  1.084202172485504E-018    7.986239444139865E-007
  1.000000000000011E-004    9.117698685603611E-007
  2.000000000000011E-004    1.037224850314766E-006
  3.000000000000011E-004    1.175681986134269E-006
  4.000000000000011E-004    1.327726108022874E-006
  5.000000000000011E-004    1.493838242060318E-006
  6.000000000000011E-004    1.674411047516390E-006
  7.000000000000011E-004    1.869775872673934E-006
  8.000000000000011E-004    2.080238315069461E-006
  9.000000000000012E-004    2.306119737248075E-006
  1.000000000000001E-003    2.547800949301669E-006
  1.100000000000001E-003    2.805765401963549E-006
  1.200000000000001E-003    3.080637048413989E-006
  1.300000000000001E-003    3.373209964543924E-006
  1.400000000000001E-003    3.684467743244918E-006
  1.500000000000001E-003    4.015590292163588E-006
  1.600000000000001E-003    4.367948035387893E-006
  1.700000000000001E-003    4.743084428852645E-006
  1.800000000000001E-003    5.142686216814017E-006
  1.900000000000001E-003    5.568549341317414E-006
  2.000000000000001E-003    6.022538962708010E-006
  2.100000000000001E-003    6.506549237687150E-006
  2.200000000000001E-003    7.022469017130739E-006
  2.300000000000001E-003    7.572153809386715E-006
  2.400000000000001E-003    8.157410336981846E-006
  2.500000000000001E-003    8.779993233782926E-006
  2.600000000000001E-003    9.441616019501243E-006
  2.700000000000001E-003    1.014397741213196E-005
  2.800000000000001E-003    1.088879780394577E-005
  2.900000000000001E-003    1.167786928882150E-005
  3.000000000000001E-003    1.251310730644010E-005
  3.100000000000001E-003    1.339660873442630E-005
  3.200000000000001E-003    1.433070486730625E-005
  3.300000000000001E-003    1.531800612775807E-005
  3.400000000000001E-003    1.636143823692105E-005
  3.500000000000001E-003    1.746426639424995E-005
  3.600000000000001E-003    1.863009794715986E-005
  3.700000000000001E-003    1.986287624758896E-005
  3.800000000000001E-003    2.116685586054020E-005
  3.900000000000001E-003    2.254656451311047E-005
  4.000000000000001E-003    2.400676328638403E-005
  4.100000000000001E-003    2.555239507817075E-005
  4.200000000000001E-003    2.718853963290729E-005
  4.300000000000001E-003    2.892037029436380E-005
  4.400000000000001E-003    3.075312891883657E-005
  4.500000000000001E-003    3.269211338874972E-005
  4.600000000000002E-003    3.474267086581216E-005
  4.700000000000001E-003    3.691023396033619E-005
  4.800000000000001E-003    3.920035348582795E-005
  4.900000000000002E-003    4.161874714175624E-005
  5.000000000000001E-003    4.417138312386276E-005
  5.100000000000001E-003    4.686454169169910E-005
  5.200000000000001E-003    4.970489471546515E-005
  5.300000000000002E-003    5.269957803750133E-005
  5.400000000000001E-003    5.585625566399313E-005
  5.500000000000001E-003    5.918316513044733E-005
  5.600000000000002E-003    6.268914401533794E-005
  5.700000000000001E-003    6.638365839826885E-005
  5.800000000000001E-003    7.027677504496763E-005
  5.900000000000002E-003    7.437914084388042E-005
  6.000000000000001E-003    7.870195196621723E-005
  6.100000000000001E-003    8.325690401290852E-005
  6.200000000000002E-003    8.805615698166279E-005
  6.300000000000002E-003    9.311227448308451E-005
  6.400000000000001E-003    9.843819632721253E-005
  6.500000000000001E-003    1.040472389932129E-004
  6.600000000000002E-003    1.099530843755591E-004
  6.700000000000001E-003    1.161698159580993E-004
  6.800000000000001E-003    1.227119594007313E-004
  6.900000000000002E-003    1.295945596832394E-004
  7.000000000000001E-003    1.368332821442681E-004
  7.100000000000001E-003    1.444444708800337E-004
  7.200000000000002E-003    1.524452877706334E-004
  7.300000000000002E-003    1.608537634457702E-004
  7.400000000000001E-003    1.696889301608376E-004
  7.500000000000001E-003    1.789708419719417E-004
  7.600000000000002E-003    1.887206644789442E-004
  7.700000000000001E-003    1.989606669193181E-004
  7.800000000000001E-003    2.097142226736142E-004
  7.900000000000001E-003    2.210058200328370E-004
  8.000000000000002E-003    2.328609661995762E-004
  8.100000000000001E-003    2.453062003428816E-004
  8.200000000000001E-003    2.583689975106231E-004
  8.300000000000002E-003    2.720777239273509E-004
  8.400000000000001E-003    2.864616563711965E-004
  8.500000000000002E-003    3.015508834388641E-004
  8.600000000000002E-003    3.173764030923698E-004
  8.700000000000001E-003    3.339700815941586E-004
  8.800000000000002E-003    3.513647730660270E-004
  8.900000000000002E-003    3.695943998910583E-004
  9.000000000000001E-003    3.886940461281624E-004
  9.100000000000002E-003    4.087000866558864E-004
  9.200000000000002E-003    4.296503696233862E-004
  9.300000000000001E-003    4.515842448392036E-004
  9.400000000000002E-003    4.745427861328956E-004
  9.500000000000001E-003    4.985688383601988E-004
  9.600000000000001E-003    5.237071223593104E-004
  9.700000000000002E-003    5.500041321133528E-004
  9.800000000000001E-003    5.775084764814500E-004
  9.900000000000001E-003    6.062704984459717E-004
  1.000000000000000E-002    6.363425450136245E-004
  1.010000000000000E-002    6.677787479651917E-004
  1.020000000000000E-002    7.006351166788608E-004
  1.030000000000000E-002    7.349693614060832E-004
  1.040000000000000E-002    7.708409483052039E-004
  1.050000000000000E-002    8.083109953367876E-004
  1.060000000000000E-002    8.474423954930712E-004
  1.070000000000000E-002    8.882997282015952E-004
  1.080000000000000E-002    9.309493936196348E-004
  1.090000000000000E-002    9.754597388967965E-004
  1.100000000000000E-002    1.021901063173907E-003
  1.110000000000000E-002    1.070345855881658E-003
  1.120000000000000E-002    1.120868887231622E-003
  1.130000000000000E-002    1.173547260720800E-003
  1.140000000000000E-002    1.228460618307745E-003
  1.150000000000000E-002    1.285691359680592E-003
  1.160000000000000E-002    1.345324471982861E-003
  1.170000000000000E-002    1.407447771501323E-003
  1.180000000000000E-002    1.472151913911966E-003
  1.190000000000000E-002    1.539530322268416E-003
  1.200000000000000E-002    1.609679269836528E-003
  1.210000000000000E-002    1.682697650347443E-003
  1.220000000000000E-002    1.758687203681860E-003
  1.230000000000000E-002    1.837752207491280E-003
  1.240000000000000E-002    1.919999605974679E-003
  1.250000000000000E-002    2.005538845736617E-003
  1.260000000000000E-002    2.094481971162474E-003
  1.270000000000000E-002    2.186943663684945E-003
  1.280000000000000E-002    2.283041187579028E-003
  1.290000000000000E-002    2.382894220625116E-003
  1.300000000000000E-002    2.486625374445944E-003
  1.310000000000000E-002    2.594360312673706E-003
  1.320000000000000E-002    2.706227444870399E-003
  1.330000000000000E-002    2.822358263438068E-003
  1.340000000000000E-002    2.942887486219090E-003
  1.350000000000000E-002    3.067953177419285E-003
  1.360000000000000E-002    3.197696769268694E-003
  1.370000000000000E-002    3.332263177098344E-003
  1.380000000000000E-002    3.471800425854291E-003
  1.390000000000000E-002    3.616459978027251E-003
  1.400000000000000E-002    3.766396936472245E-003
  1.410000000000000E-002    3.921769519702963E-003
  1.420000000000000E-002    4.082739010741131E-003
  1.430000000000000E-002    4.249469716838318E-003
  1.440000000000000E-002    4.422129371539288E-003
  1.450000000000000E-002    4.600887644494363E-003
  1.460000000000000E-002    4.785917809350838E-003
  1.470000000000000E-002    4.977394837138893E-003
  1.480000000000000E-002    5.175496723830386E-003
  1.490000000000000E-002    5.380403849957483E-003
  1.500000000000000E-002    5.592299547302123E-003
  1.510000000000000E-002    5.811369508405392E-003
  1.520000000000000E-002    6.037801359870087E-003
  1.530000000000000E-002    6.271785735419332E-003
  1.540000000000000E-002    6.513516237784320E-003
  1.550000000000000E-002    6.763188394476676E-003
  1.560000000000000E-002    7.021000599068220E-003
  1.570000000000000E-002    7.287153989835602E-003
  1.580000000000000E-002    7.561852512566638E-003
  1.590000000000000E-002    7.845300920216883E-003
  1.600000000000000E-002    8.137708645673716E-003
  1.610000000000000E-002    8.439285374282778E-003
  1.620000000000000E-002    8.750242610091937E-003
  1.630000000000000E-002    9.070794331171769E-003
  1.640000000000000E-002    9.401155740485676E-003
  1.650000000000000E-002    9.741542284182697E-003
  1.660000000000000E-002    1.009217155897266E-002
  1.670000000000000E-002    1.045326152963596E-002
  1.680000000000000E-002    1.082503046151923E-002
  1.690000000000000E-002    1.120769611847066E-002
  1.700000000000000E-002    1.160147699479696E-002
  1.710000000000000E-002    1.200659184889744E-002
  1.720000000000000E-002    1.242325934296596E-002
  1.730000000000000E-002    1.285169612858386E-002
  1.740000000000000E-002    1.329212099902641E-002
  1.750000000000000E-002    1.374474906601650E-002
  1.760000000000000E-002    1.420979726827886E-002
  1.770000000000000E-002    1.468747934550146E-002
  1.780000000000000E-002    1.517801001105745E-002
  1.790000000000000E-002    1.568159931814522E-002
  1.800000000000000E-002    1.619845796560175E-002
  1.810000000000000E-002    1.672879466121995E-002
  1.820000000000000E-002    1.727281304461604E-002
  1.830000000000000E-002    1.783071490091338E-002
  1.840000000000000E-002    1.840269961858661E-002
  1.850000000000000E-002    1.898896093914475E-002
  1.860000000000000E-002    1.958968930216490E-002
  1.870000000000000E-002    2.020506827668716E-002