 -4.000000000000000E-002    0.000000000000000E+000
 -3.990000000000000E-002    0.000000000000000E+000
 -3.980000000000000E-002    0.000000000000000E+000
 -3.970000000000000E-002    0.000000000000000E+000
 -3.960000000000000E-002    0.000000000000000E+000
 -3.950000000000000E-002    0.000000000000000E+000
 -3.940000000000000E-002    3.102145865544850E-023
 -3.930000000000000E-002    3.834797650577466E-022
 -3.920000000000000E-002    2.529863531640428E-021
 -3.910000000000000E-002    1.180957834548475E-020
 -3.900000000000000E-002    4.366353674878090E-020
 -3.890000000000000E-002    1.357598148990261E-019
 -3.880000000000000E-002    3.681612935046078E-019
 -3.870000000000000E-002    8.919631254667494E-019
 -3.860000000000000E-002    1.962755373623707E-018
 -3.850000000000000E-002    3.968320758906628E-018
 -3.840000000000000E-002    7.430345991830474E-018
 -3.830000000000000E-002    1.294895236546707E-017
 -3.820000000000000E-002    2.104934249811748E-017
 -3.810000000000000E-002    3.188609887020612E-017
 -3.800000000000000E-002    4.476814767229077E-017
 -3.790000000000000E-002    5.749149528134414E-017
 -3.780000000000000E-002    6.551206306995750E-017
 -3.770000000000000E-002    6.105800804010962E-017
 -3.760000000000000E-002    3.236622216123995E-017
 -3.750000000000000E-002   -3.667969537881617E-017
 -3.740000000000000E-002   -1.661502504239212E-016
 -3.730000000000000E-002   -3.785016923774724E-016
 -3.720000000000000E-002   -6.954441701729517E-016
 -3.710000000000000E-002   -1.132954609714188E-015
 -3.700000000000000E-002   -1.694353852438675E-015
 -3.690000000000000E-002   -2.361693994963500E-015
 -3.680000000000000E-002   -3.086132439502537E-015
 -3.670000000000000E-002   -3.778463280339395E-015
 -3.660000000000000E-002   -4.301479529798328E-015
 -3.650000000000000E-002   -4.466251905869568E-015
 -3.640000000000000E-002   -4.034658154343819E-015
 -3.630000000000000E-002   -2.730444779292196E-015
 -3.620000000000000E-002   -2.607016597519094E-016
 -3.610000000000000E-002    3.651215251551629E-015
 -3.600000000000000E-002    9.221545548240129E-015
 -3.590000000000000E-002    1.655265342864540E-014
 -3.580000000000000E-002    2.557403884954162E-014
 -3.570000000000000E-002    3.598362657053860E-014
 -3.560000000000000E-002    4.719697636870650E-014
 -3.550000000000000E-002    5.831343987347757E-014
 -3.540000000000000E-002    6.810893227598373E-014
 -3.530000000000000E-002    7.506467858895994E-014
 -3.520000000000000E-002    7.743960894549507E-014
 -3.510000000000000E-002    7.339125600359828E-014
 -3.500000000000000E-002    6.114561244292234E-014
 -3.490000000000000E-002    3.921088731595036E-014
 -3.480000000000000E-002    6.623511468140690E-015
 -3.470000000000000E-002   -3.679203642239838E-014
 -3.460000000000000E-002   -9.017514231851281E-014
 -3.450000000000000E-002   -1.514238384892155E-013
 -3.440000000000000E-002   -2.170677556240475E-013
 -3.430000000000000E-002   -2.822555645862988E-013
 -3.420000000000000E-002   -3.408906016036807E-013
 -3.410000000000000E-002   -3.859406854509532E-013
 -3.400000000000000E-002   -4.099359862729549E-013
 -3.390000000000000E-002   -4.056502866093748E-013
 -3.380000000000000E-002   -3.669385059534443E-013
 -3.370000000000000E-002   -2.896776616516671E-013
 -3.360000000000000E-002   -1.727295309687993E-013
 -3.350000000000000E-002   -1.881941988294494E-014
 -3.340000000000000E-002    1.647955445764721E-013
 -3.330000000000000E-002    3.660055439965302E-013
 -3.320000000000000E-002    5.680060133358302E-013
 -3.310000000000000E-002    7.500450081265845E-013
 -3.300000000000000E-002    8.888267622133507E-013
 -3.290000000000000E-002    9.605763916784327E-013
 -3.280000000000000E-002    9.436877147253110E-013
 -3.270000000000000E-002    8.217852329181391E-013
 -3.260000000000000E-002    5.869325045263951E-013
 -3.250000000000000E-002    2.426330190279348E-013
 -3.240000000000000E-002   -1.937960331340490E-013
 -3.230000000000000E-002   -6.899227872186592E-013
 -3.220000000000000E-002   -1.198394854305953E-012
 -3.210000000000000E-002   -1.658966406691785E-012
 -3.200000000000000E-002   -2.002549451257169E-012
 -3.190000000000000E-002   -2.157270680694716E-012
 -3.180000000000000E-002   -2.056260250441851E-012
 -3.170000000000000E-002   -1.646628215793220E-012
 -3.160000000000000E-002   -8.988023067056034E-013
 -3.150000000000000E-002    1.848089487766597E-013
 -3.140000000000000E-002    1.563021200222314E-012
 -3.130000000000000E-002    3.152145375723608E-012
 -3.120000000000000E-002    4.826413928249312E-012
 -3.110000000000000E-002    6.423347609108697E-012
 -3.100000000000000E-002    7.754419346743926E-012
 -3.090000000000000E-002    8.620789563735583E-012
 -3.080000000000000E-002    8.833238458338580E-012
 -3.070000000000000E-002    8.234754504397452E-012
 -3.060000000000000E-002    6.723633698795558E-012
 -3.050000000000000E-002    4.274515119468512E-012
 -3.040000000000000E-002    9.545446000336855E-013
 -3.030000000000000E-002   -3.068011939169869E-012
 -3.020000000000000E-002   -7.524968352333115E-012
 -3.010000000000000E-002   -1.206071760187582E-011
 -3.000000000000000E-002   -1.625642998944829E-011
 -2.990000000000000E-002   -1.966506087556041E-011
 -2.980000000000000E-002   -2.185490451329515E-011
 -2.970000000000000E-002   -2.245810634923360E-011
 -2.960000000000000E-002   -2.121945705317556E-011
 -2.950000000000000E-002   -1.804008840615101E-011
 -2.940000000000000E-002   -1.301052043840360E-011
 -2.930000000000000E-002   -6.427917770762602E-012
 -2.920000000000000E-002    1.206514822822568E-012
 -2.910000000000000E-002    9.212401273789328E-012
 -2.900000000000000E-002    1.677763815803723E-011
 -2.890000000000000E-002    2.302631833593031E-011
 -2.880000000000000E-002    2.710258317268772E-011
 -2.870000000000000E-002    2.826362140193606E-011
 -2.860000000000000E-002    2.597336232690406E-011
 -2.850000000000000E-002    1.998729328274412E-011
 -2.840000000000000E-002    1.041880144226822E-011
 -2.830000000000000E-002   -2.221739847740831E-012
 -2.820000000000000E-002   -1.702211548748994E-011
 -2.810000000000000E-002   -3.270191114342010E-011
 -2.800000000000000E-002   -4.768560649392813E-011
 -2.790000000000000E-002   -6.021243277143557E-011
 -2.780000000000000E-002   -6.847658817264782E-011
 -2.770000000000000E-002   -7.078811580790253E-011
 -2.760000000000000E-002   -6.574200963503502E-011
 -2.750000000000000E-002   -5.238141812452295E-011
 -2.740000000000000E-002   -3.034027543795582E-011
 -2.730000000000000E-002    4.877874918927976E-014
 -2.720000000000000E-002    3.769340534344215E-011
 -2.710000000000000E-002    8.073678851678218E-011
 -2.700000000000000E-002    1.266145592204697E-010
 -2.690000000000000E-002    1.721743791183444E-010
 -2.680000000000000E-002    2.138544655853435E-010
 -2.670000000000000E-002    2.479125175277772E-010
 -2.660000000000000E-002    2.706920818703699E-010
 -2.650000000000000E-002    2.789095870397052E-010
 -2.640000000000000E-002    2.699422792842634E-010
 -2.630000000000000E-002    2.420955492081397E-010
 -2.620000000000000E-002    1.948274491934261E-010
 -2.610000000000000E-002    1.289090601168906E-010
 -2.600000000000000E-002    4.650210905942100E-011
 -2.590000000000000E-002   -4.886134370404836E-011
 -2.580000000000000E-002   -1.524060040249647E-010
 -2.570000000000000E-002   -2.583497274872839E-010
 -2.560000000000000E-002   -3.602428320334107E-010
 -2.550000000000000E-002   -4.513950877194882E-010
 -2.540000000000000E-002   -5.253660365397503E-010
 -2.530000000000000E-002   -5.764853311071852E-010
 -2.520000000000000E-002   -6.003622126601185E-010
 -2.510000000000000E-002   -5.943389404864501E-010
 -2.500000000000000E-002   -5.578408184571073E-010
 -2.490000000000000E-002   -4.925785413040439E-010
 -2.480000000000000E-002   -4.025655878721550E-010
 -2.470000000000000E-002   -2.939264277540402E-010
 -2.460000000000000E-002   -1.744871075280859E-010
 -2.450000000000000E-002   -5.316137990332018E-011
 -2.440000000000000E-002    6.083297274987272E-011
 -2.430000000000000E-002    1.588700496584839E-010
 -2.420000000000000E-002    2.338466520533483E-010
 -2.410000000000000E-002    2.810562948428853E-010
 -2.400000000000000E-002    2.989074895617823E-010
 -2.390000000000000E-002    2.893903166199290E-010
 -2.380000000000000E-002    2.582087320840086E-010
 -2.370000000000000E-002    2.145207900311343E-010
 -2.360000000000000E-002    1.702637779215375E-010
 -2.350000000000000E-002    1.390828267912633E-010
 -2.340000000000000E-002    1.349272418694678E-010
 -2.330000000000000E-002    1.704242773132365E-010
 -2.320000000000000E-002    2.551778169393978E-010
 -2.310000000000000E-002    3.941670162294473E-010
 -2.300000000000000E-002    5.864318374950437E-010
 -2.290000000000000E-002    8.242242588462970E-010
 -2.280000000000000E-002    1.092774742162498E-009
 -2.270000000000000E-002    1.370776446926644E-009
 -2.260000000000000E-002    1.631623678718748E-009
 -2.250000000000000E-002    1.845363977689367E-009
 -2.240000000000000E-002    1.981242010399660E-009
 -2.230000000000000E-002    2.010639202896888E-009
 -2.220000000000000E-002    1.910145403224505E-009
 -2.210000000000000E-002    1.664463901100687E-009
 -2.200000000000000E-002    1.268831548533596E-009
 -2.190000000000000E-002    7.306616146174510E-010
 -2.180000000000000E-002    7.016730958557839E-011
 -2.170000000000000E-002   -6.801904769522372E-010
 -2.160000000000000E-002   -1.477479972008972E-009
 -2.150000000000000E-002   -2.271223699297274E-009
 -2.140000000000000E-002   -3.007274585907834E-009
 -2.130000000000000E-002   -3.632326813308627E-009
 -2.120000000000000E-002   -4.098661741666710E-009
 -2.110000000000000E-002   -4.368671632808365E-009
 -2.100000000000000E-002   -4.418698363805828E-009
 -2.090000000000000E-002   -4.241762305958828E-009
 -2.080000000000000E-002   -3.848844167763556E-009
 -2.070000000000000E-002   -3.268511219424224E-009
 -2.060000000000000E-002   -2.544836651570150E-009
 -2.050000000000000E-002   -1.733730326873062E-009
 -2.040000000000000E-002   -8.979747003374434E-010
 -2.030000000000000E-002   -1.013998064069392E-010
 -2.020000000000000E-002    5.972520158664702E-010
 -2.010000000000000E-002    1.150167767579864E-009
 -2.000000000000000E-002    1.525406774868394E-009
 -1.990000000000000E-002    1.710405686537109E-009
 -1.980000000000000E-002    1.713630915580335E-009
 -1.970000000000000E-002    1.564134693269222E-009
 -1.960000000000000E-002    1.308974108261063E-009
 -1.950000000000000E-002    1.008671339740537E-009
 -1.940000000000000E-002    7.310969182496624E-010
 -1.930000000000000E-002    5.443340225124610E-010
 -1.920000000000000E-002    5.092074023395666E-010
 -1.910000000000000E-002    6.722172517464294E-010
 -1.900000000000000E-002    1.059609265230311E-009
 -1.890000000000000E-002    1.673221217888283E-009
 -1.880000000000000E-002    2.488597482148828E-009
 -1.870000000000000E-002    3.455654834223767E-009
 -1.860000000000000E-002    4.501941119441335E-009
 -1.850000000000000E-002    5.538284323125896E-009
 -1.840000000000000E-002    6.466383412503271E-009
 -1.830000000000000E-002    7.187698037495871E-009
 -1.820000000000000E-002    7.612849729321553E-009
 -1.810000000000000E-002    7.670664605074209E-009
 -1.800000000000000E-002    7.316011159484872E-009
 -1.790000000000000E-002    6.535649610507855E-009
 -1.780000000000000E-002    5.351481534305741E-009
 -1.770000000000000E-002    3.820800806059750E-009
 -1.760000000000000E-002    2.033400656364996E-009
 -1.750000000000000E-002    1.056719893905819E-010
 -1.740000000000000E-002   -1.827909639048398E-009
 -1.730000000000000E-002   -3.625263745138188E-009
 -1.720000000000000E-002   -5.148320513907285E-009
 -1.710000000000000E-002   -6.274813814492917E-009
 -1.700000000000000E-002   -6.909249674615506E-009
 -1.690000000000000E-002   -6.992082788972019E-009
 -1.680000000000000E-002   -6.506249693569612E-009
 -1.670000000000000E-002   -5.480400658455441E-009
 -1.660000000000000E-002   -3.988422965007160E-009
 -1.650000000000000E-002   -2.145141485608820E-009
 -1.640000000000000E-002   -9.839776939946297E-011
 -1.630000000000000E-002    1.981979244550263E-009
 -1.620000000000000E-002    3.917517328428881E-009
 -1.610000000000000E-002    5.535736786985258E-009
 -1.600000000000000E-002    6.684893935601390E-009
 -1.590000000000000E-002    7.247579473283027E-009
 -1.580000000000000E-002    7.151969003810493E-009
 -1.570000000000000E-002    6.379635870302983E-009
 -1.560000000000000E-002    4.969105571319408E-009
 -1.550000000000000E-002    3.014641111991308E-009
 -1.540000000000000E-002    6.601600893143925E-010
 -1.530000000000000E-002   -1.911390431100743E-009
 -1.520000000000000E-002   -4.492431485022798E-009
 -1.510000000000000E-002   -6.867749026305928E-009
 -1.500000000000000E-002   -8.832593542522581E-009
 -1.490000000000000E-002   -1.021017520341836E-008
 -1.480000000000000E-002   -1.086675683891744E-008
 -1.470000000000000E-002   -1.072268243107450E-008
 -1.460000000000000E-002   -9.757892624191785E-009
 -1.450000000000000E-002   -8.010925818856450E-009
 -1.440000000000000E-002   -5.570952502161704E-009
 -1.430000000000000E-002   -2.563008200523246E-009
 -1.420000000000000E-002    8.727113673933349E-010
 -1.410000000000000E-002    4.605978344458344E-009
 -1.400000000000000E-002    8.544079412207709E-009
 -1.390000000000000E-002    1.265934467236695E-008
 -1.380000000000000E-002    1.701404880344171E-008
 -1.370000000000000E-002    2.178019239403532E-008
 -1.360000000000000E-002    2.725197610485642E-008
 -1.350000000000000E-002    3.384934082574551E-008
 -1.340000000000000E-002    4.211181225505832E-008
 -1.330000000000000E-002    5.268273221126957E-008
 -1.320000000000000E-002    6.628482410590308E-008
 -1.310000000000000E-002    8.368927016116769E-008
 -1.300000000000000E-002    1.056808578136246E-007
 -1.290000000000000E-002    1.330227216396817E-007
 -1.280000000000000E-002    1.664237656176118E-007
 -1.270000000000000E-002    2.065126746296485E-007
 -1.260000000000000E-002    2.538210219611618E-007
 -1.250000000000000E-002    3.087777969862123E-007
 -1.240000000000000E-002    3.717160634666407E-007
 -1.230000000000000E-002    4.428921027675697E-007
 -1.220000000000000E-002    5.225147678323192E-007
 -1.210000000000000E-002    6.107832706040496E-007
 -1.200000000000000E-002    7.079291237822137E-007
 -1.190000000000000E-002    8.142583906183632E-007
 -1.180000000000000E-002    9.301895135580565E-007
 -1.170000000000000E-002    1.056283254429714E-006
 -1.160000000000000E-002    1.193260510647884E-006
 -1.150000000000000E-002    1.342006265490042E-006
 -1.140000000000000E-002    1.503558495616655E-006
 -1.130000000000000E-002    1.679082971713484E-006
 -1.120000000000000E-002    1.869836018717665E-006
 -1.110000000000000E-002    2.077118362716028E-006
 -1.100000000000000E-002    2.302225863186002E-006
 -1.090000000000000E-002    2.546401296615877E-006
 -1.080000000000000E-002    2.810792500487495E-006
 -1.070000000000000E-002    3.096423709613604E-006
 -1.060000000000000E-002    3.404180020431783E-006
 -1.050000000000000E-002    3.734812203673913E-006
 -1.040000000000000E-002    4.088959243894253E-006
 -1.030000000000000E-002    4.467189026722371E-006
 -1.020000000000000E-002    4.870050791351553E-006
 -1.010000000000000E-002    5.298143247232730E-006
 -1.000000000000000E-002    5.752181923862363E-006
 -9.899999999999999E-003    6.233067294631251E-006
 -9.800000000000000E-003    6.741944921908598E-006
 -9.699999999999999E-003    7.280251490148688E-006
 -9.599999999999999E-003    7.849743980054902E-006
 -9.500000000000000E-003    8.452506324902024E-006
 -9.399999999999999E-003    9.090936656073340E-006
 -9.299999999999999E-003    9.767716187198120E-006
 -9.200000000000000E-003    1.048575617305028E-005
 -9.099999999999999E-003    1.124813790666966E-005
 -8.999999999999999E-003    1.205804627055142E-005
 -8.900000000000000E-003    1.291870356904264E-005
 -8.799999999999999E-003    1.383331318125551E-005
 -8.699999999999999E-003    1.480501626288932E-005
 -8.600000000000000E-003    1.583686671379797E-005
 -8.499999999999999E-003    1.693182937861786E-005
 -8.399999999999999E-003    1.809280154841776E-005
 -8.300000000000000E-003    1.932265682583060E-005
 -8.199999999999999E-003    2.062430695499543E-005
 -8.100000000000000E-003    2.200077634919265E-005
 -8.000000000000000E-003    2.345529021662398E-005
 -7.899999999999999E-003    2.499135279144544E-005
 -7.800000000000000E-003    2.661283359551120E-005
 -7.699999999999999E-003    2.832402919470780E-005
 -7.599999999999999E-003    3.012971042720495E-005
 -7.499999999999999E-003    3.203515205640588E-005
 -7.399999999999999E-003    3.404613540835019E-005
 -7.299999999999999E-003    3.616892531679095E-005
 -7.199999999999999E-003    3.841023170364321E-005
 -7.100000000000000E-003    4.077715580718477E-005
 -6.999999999999999E-003    4.327711938300911E-005
 -6.899999999999999E-003    4.591779554308319E-005
 -6.800000000000000E-003    4.870704571471822E-005
 -6.699999999999999E-003    5.165286333147388E-005
 -6.599999999999999E-003    5.476333756481815E-005
 -6.499999999999999E-003    5.804663873893724E-005
 -6.399999999999999E-003    6.151103665554071E-005
 -6.299999999999999E-003    6.516492253632855E-005
 -6.199999999999999E-003    6.901689813077844E-005
 -6.100000000000000E-003    7.307584274602624E-005
 -5.999999999999999E-003    7.735102081150821E-005
 -5.899999999999999E-003    8.185220493350558E-005
 -5.800000000000000E-003    8.658977221600671E-005
 -5.699999999999999E-003    9.157483026524894E-005
 -5.599999999999999E-003    9.681930797648029E-005
 -5.499999999999999E-003    1.023360310784468E-004
 -5.399999999999999E-003    1.081387641527232E-004
 -5.299999999999999E-003    1.142422568142015E-004
 -5.199999999999999E-003    1.206622107222928E-004
 -5.099999999999999E-003    1.274152582929044E-004
 -4.999999999999999E-003    1.345188915554681E-004
 -4.899999999999999E-003    1.419914412173428E-004
 -4.799999999999999E-003    1.498519323132493E-004
 -4.699999999999999E-003    1.581200385030399E-004
 -4.599999999999999E-003    1.668160271059224E-004
 -4.499999999999999E-003    1.759606826716316E-004
 -4.399999999999999E-003    1.855753116417696E-004
 -4.299999999999999E-003    1.956817129346590E-004
 -4.199999999999999E-003    2.063022544783956E-004
 -4.099999999999999E-003    2.174599429309070E-004
 -3.999999999999999E-003    2.291784995943886E-004
 -3.899999999999999E-003    2.414825058534906E-004
 -3.799999999999999E-003    2.543975156165058E-004
 -3.699999999999999E-003    2.679502195603908E-004
 -3.599999999999999E-003    2.821685936549944E-004
 -3.499999999999999E-003    2.970819386830011E-004
 -3.399999999999999E-003    3.127210624852029E-004
 -3.299999999999999E-003    3.291182804743272E-004
 -3.199999999999999E-003    3.463075338874918E-004
 -3.099999999999999E-003    3.643243153438475E-004
 -2.999999999999999E-003    3.832056057847227E-004
 -2.899999999999999E-003    4.029899271788579E-004
 -2.799999999999999E-003    4.237172567083191E-004
 -2.699999999999999E-003    4.454288700117263E-004
 -2.599999999999999E-003    4.681673194451030E-004
 -2.499999999999999E-003    4.919764543872726E-004
 -2.399999999999999E-003    5.169013703137613E-004
 -2.299999999999999E-003    5.429883482560684E-004
 -2.199999999999999E-003    5.702849915671566E-004
 -2.099999999999999E-003    5.988402679951087E-004
 -1.999999999999999E-003    6.287046747064170E-004
 -1.899999999999999E-003    6.599303301259686E-004
 -1.799999999999999E-003    6.925710962884235E-004
 -1.699999999999999E-003    7.266828516027233E-004
 -1.599999999999999E-003    7.623236045631497E-004
 -1.499999999999999E-003    7.995535104172340E-004
 -1.399999999999999E-003    8.384351276458743E-004
 -1.299999999999999E-003    8.790334852268654E-004
 -1.199999999999999E-003    9.214160415842615E-004
 -1.099999999999999E-003    9.656527861719135E-004
 -9.999999999999989E-004    1.011816011318127E-003
 -8.999999999999990E-004    1.059980630997732E-003
 -7.999999999999990E-004    1.110223841328793E-003
 -6.999999999999989E-004    1.162624986475523E-003
 -5.999999999999990E-004    1.217265826286329E-003
 -4.999999999999989E-004    1.274230097303644E-003
 -3.999999999999989E-004    1.333603915929060E-003
 -2.999999999999989E-004    1.395475512042004E-003
 -1.999999999999989E-004    1.459935306500533E-003
 -9.999999999999892E-005    1.527076170380677E-003
  1.084202172485504E-018    1.596993151061758E-003
  1.000000000000011E-004    1.669784034804077E-003
  2.000000000000011E-004    1.745549345696982E-003
  3.000000000000011E-004    1.824392304899889E-003
  4.000000000000011E-004    1.906419149833075E-003
  5.000000000000011E-004    1.991739213802655E-003
  6.000000000000011E-004    2.080465190220669E-003
  7.000000000000011E-004    2.172712660208849E-003
  8.000000000000011E-004    2.268600824291111E-003
  9.000000000000012E-004    2.368251851560283E-003
  1.000000000000001E-003    2.471791351879633E-003
  1.100000000000001E-003    2.579347629487179E-003
  1.200000000000001E-003    2.691052515165926E-003
  1.300000000000001E-003    2.807040770403432E-003
  1.400000000000001E-003    2.927449979330349E-003
  1.500000000000001E-003    3.052420716728002E-003
  1.600000000000001E-003    3.182096191713603E-003
  1.700000000000001E-003    3.316622773185843E-003
  1.800000000000001E-003    3.456149471814554E-003
  1.900000000000001E-003    3.600828331635115E-003
  2.000000000000001E-003    3.750814117610817E-003
  2.100000000000001E-003    3.906264875083092E-003
  2.200000000000001E-003    4.067342179408943E-003
  2.300000000000001E-003    4.234210094763566E-003
  2.400000000000001E-003    4.407036864395283E-003
  2.500000000000001E-003    4.585993535986178E-003
  2.600000000000001E-003    4.771254747715729E-003
  2.700000000000001E-003    4.962998472627536E-003
  2.800000000000001E-003    5.161406616836975E-003
  2.900000000000001E-003    5.366663980784163E-003
  3.000000000000001E-003    5.578958531817664E-003
  3.100000000000001E-003    5.798481493466733E-003
  3.200000000000001E-003    6.025426866425569E-003
  3.300000000000001E-003    6.259991292157968E-003
  3.400000000000001E-003    6.502373883566867E-003
  3.500000000000001E-003    6.752775782518258E-003
  3.600000000000001E-003    7.011400504175962E-003
  3.700000000000001E-003    7.278453624184851E-003
  3.800000000000001E-003    7.554142748377271E-003
  3.900000000000001E-003    7.838677021012057E-003
  4.000000000000001E-003    8.132266855242574E-003
  4.100000000000001E-003    8.435124736270949E-003
  4.200000000000001E-003    8.747465136331945E-003
  4.300000000000001E-003    9.069504340973821E-003
  4.400000000000001E-003    9.401459048667736E-003
  4.500000000000001E-003    9.743547862433826E-003
  4.600000000000002E-003    1.009599035540029E-002
  4.700000000000001E-003    1.045900850641837E-002
  4.800000000000001E-003    1.083282489891823E-002
  4.900000000000002E-003    1.121766260519090E-002
  5.000000000000001E-003    1.161374613102745E-002
  5.100000000000001E-003    1.202130046265599E-002
  5.200000000000001E-003    1.244054850192597E-002
  5.300000000000002E-003    1.287171661896262E-002
  5.400000000000001E-003    1.331502761274921E-002
  5.500000000000001E-003    1.377070433567002E-002
  5.600000000000002E-003    1.423896795351309E-002
  5.700000000000001E-003    1.472003905332396E-002
  5.800000000000001E-003    1.521413596131999E-002
  5.900000000000002E-003    1.572147423167538E-002
  6.000000000000001E-003    1.624226786794546E-002
  6.100000000000001E-003    1.677672565633027E-002
  6.200000000000002E-003    1.732505780811014E-002
  6.300000000000002E-003    1.788746725970437E-002
  6.400000000000001E-003    1.846415576112336E-002
  6.500000000000001E-003    1.905532225389833E-002
  6.600000000000002E-003    1.966115805426414E-002
  6.700000000000001E-003    2.028185276143731E-002
  6.800000000000001E-003    2.091759003199071E-002
  6.900000000000002E-003    2.156854952085223E-002
  7.000000000000001E-003    2.223490529679710E-002
  7.100000000000001E-003    2.291682453162926E-002
  7.200000000000002E-003    2.361446764362515E-002
  7.300000000000002E-003    2.432798760457877E-002
  7.400000000000001E-003    2.505753209752892E-002
  7.500000000000001E-003    2.580324075663051E-002
  7.600000000000002E-003    2.656524394448562E-002
  7.700000000000001E-003    2.734366498146689E-002
  7.800000000000001E-003    2.813861423064801E-002
  7.900000000000001E-003    2.895019754241213E-002
  8.000000000000002E-003    2.977850591308286E-002
  8.100000000000001E-003    3.062362377382639E-002
  8.200000000000001E-003    3.148561790056024E-002
  8.300000000000002E-003    3.236455180320668E-002
  8.400000000000001E-003    3.326047186452692E-002
  8.500000000000002E-003    3.417341375731833E-002
  8.600000000000002E-003    3.510339756988590E-002
  8.700000000000001E-003    3.605043066938342E-002
  8.800000000000002E-003    3.701451106729042E-002
  8.900000000000002E-003    3.799561243523177E-002
  9.000000000000001E-003    3.899370080380692E-002
  9.100000000000002E-003    4.000872268853074E-002
  9.200000000000002E-003    4.104061150328590E-002
  9.300000000000001E-003    4.208927857104378E-002
  9.400000000000002E-003    4.315462341486578E-002
  9.500000000000001E-003    4.423652129556572E-002
  9.600000000000001E-003    4.533483482850130E-002
  9.700000000000002E-003    4.644940501091042E-002
  9.800000000000001E-003    4.758005459641432E-002
  9.900000000000001E-003    4.872658214057809E-002
  1.000000000000000E-002    4.988877419859186E-002
  1.010000000000000E-002    5.106639018949629E-002
  1.020000000000000E-002    5.225917033268233E-002
  1.030000000000000E-002    5.346683201355899E-002
  1.040000000000000E-002    5.468906952450506E-002
  1.050000000000000E-002    5.592555504924011E-002
  1.060000000000000E-002    5.717593870739850E-002
  1.070000000000000E-002    5.843984630541153E-002
  1.080000000000000E-002    5.971687769591225E-002
  1.090000000000000E-002    6.100660679614504E-002
  1.100000000000000E-002    6.230858403597431E-002
  1.110000000000000E-002    6.362233829631547E-002
  1.120000000000000E-002    6.494737035589446E-002
  1.130000000000000E-002    6.628314995556905E-002
  1.140000000000000E-002    6.762911853979454E-002
  1.150000000000000E-002    6.898470162522119E-002
  1.160000000000000E-002    7.034929059654636E-002
  1.170000000000000E-002    7.172225373388055E-002
  1.180000000000000E-002    7.310292591499025E-002
  1.190000000000000E-002    7.449061830247777E-002
  1.200000000000000E-002    7.588461664974062E-002
  1.210000000000000E-002    7.728416709725730E-002
  1.220000000000000E-002    7.868850024787680E-002
  1.230000000000000E-002    8.009681294417687E-002
  1.240000000000000E-002    8.150826590650144E-002
  1.250000000000000E-002    8.292200853228579E-002
  1.260000000000000E-002    8.433713856224023E-002
  1.270000000000000E-002    8.575274658363333E-002
  1.280000000000000E-002    8.716787931655340E-002
  1.290000000000000E-002    8.858155838683109E-002
  1.300000000000000E-002    8.999278240523488E-002
  1.310000000000000E-002    9.140051812048300E-002
  1.320000000000000E-002    9.280371067468009E-002
  1.330000000000000E-002    9.420126854196896E-002
  1.340000000000000E-002    9.559207896152187E-002
  1.350000000000000E-002    9.697500275799519E-002
  1.360000000000000E-002    9.834886643925626E-002
  1.370000000000000E-002    9.971248262195348E-002
  1.380000000000000E-002    0.101064629949701     
  1.390000000000000E-002    0.102404065875138     
  1.400000000000000E-002    0.103729521030023     
  1.410000000000000E-002    0.105039707723302     
  1.420000000000000E-002    0.106333309814884     
  1.430000000000000E-002    0.107608993356225     
  1.440000000000000E-002    0.108865396219680     
  1.450000000000000E-002    0.110101139702111     
  1.460000000000000E-002    0.111314829742515     
  1.470000000000000E-002    0.112505043538162     
  1.480000000000000E-002    0.113670352802762     
  1.490000000000000E-002    0.114809298572780     
  1.500000000000000E-002    0.115920416200202     
  1.510000000000000E-002    0.117002227220601     
  1.520000000000000E-002    0.118053242325099     
  1.530000000000000E-002    0.119071955221490     
  1.540000000000000E-002    0.120056841075569     
  1.550000000000000E-002    0.121006379347242     
  1.560000000000000E-002    0.121919041621487     
  1.570000000000000E-002    0.122793293254950     
  1.580000000000000E-002    0.123627579101527     
  1.590000000000000E-002    0.124420357487237     
  1.600000000000000E-002    0.125170081183364     
  1.610000000000000E-002    0.125875196303334     
  1.620000000000000E-002    0.126534156586443     
  1.630000000000000E-002    0.127145408608987     
  1.640000000000000E-002    0.127707422665006     
  1.650000000000000E-002    0.128218653936457     
  1.660000000000000E-002    0.128677586191307     
  1.670000000000000E-002    0.129082701476038     
  1.680000000000000E-002    0.129432508346435     
  1.690000000000000E-002    0.129725508650864     
  1.700000000000000E-002    0.129960249165861     
  1.710000000000000E-002    0.130135261261602     
  1.720000000000000E-002    0.130249134460851     
  1.730000000000000E-002    0.130300447648292     
  1.740000000000000E-002    0.130287820748285     
  1.750000000000000E-002    0.130209896579173     
  1.760000000000000E-002    0.130065342785757     
  1.770000000000000E-002    0.129852865851630     
  1.780000000000000E-002    0.129571193830460     
  1.790000000000000E-002    0.129219091918207     
  1.800000000000000E-002    0.128795365110227     
  1.810000000000000E-002    0.128298866212300     
  1.820000000000000E-002    0.127728488247295     
  1.830000000000000E-002    0.127083143016818     
  1.840000000000000E-002    0.126361818108798     
  1.850000000000000E-002    0.125563536134643     
  1.860000000000000E-002    0.124687377706470     
  1.870000000000000E-002    0.123732467945661     