 -4.000000000000000E-002    0.000000000000000E+000
 -3.990000000000000E-002    0.000000000000000E+000
 -3.980000000000000E-002    0.000000000000000E+000
 -3.970000000000000E-002    0.000000000000000E+000
 -3.960000000000000E-002    0.000000000000000E+000
 -3.950000000000000E-002    0.000000000000000E+000
 -3.940000000000000E-002    0.000000000000000E+000
 -3.930000000000000E-002    0.000000000000000E+000
 -3.920000000000000E-002    0.000000000000000E+000
 -3.910000000000000E-002    0.000000000000000E+000
 -3.900000000000000E-002    0.000000000000000E+000
 -3.890000000000000E-002    0.000000000000000E+000
 -3.880000000000000E-002    0.000000000000000E+000
 -3.870000000000000E-002    0.000000000000000E+000
 -3.860000000000000E-002    0.000000000000000E+000
 -3.850000000000000E-002    0.000000000000000E+000
 -3.840000000000000E-002    0.000000000000000E+000
 -3.830000000000000E-002    0.000000000000000E+000
 -3.820000000000000E-002    0.000000000000000E+000
 -3.810000000000000E-002    0.000000000000000E+000
 -3.800000000000000E-002    0.000000000000000E+000
 -3.790000000000000E-002    0.000000000000000E+000
 -3.780000000000000E-002    0.000000000000000E+000
 -3.770000000000000E-002    0.000000000000000E+000
 -3.760000000000000E-002    0.000000000000000E+000
 -3.750000000000000E-002    0.000000000000000E+000
 -3.740000000000000E-002    0.000000000000000E+000
 -3.730000000000000E-002    0.000000000000000E+000
 -3.720000000000000E-002    0.000000000000000E+000
 -3.710000000000000E-002    0.000000000000000E+000
 -3.700000000000000E-002    0.000000000000000E+000
 -3.690000000000000E-002    0.000000000000000E+000
 -3.680000000000000E-002    0.000000000000000E+000
 -3.670000000000000E-002    0.000000000000000E+000
 -3.660000000000000E-002    0.000000000000000E+000
 -3.650000000000000E-002    0.000000000000000E+000
 -3.640000000000000E-002    0.000000000000000E+000
 -3.630000000000000E-002    0.000000000000000E+000
 -3.620000000000000E-002    0.000000000000000E+000
 -3.610000000000000E-002    0.000000000000000E+000
 -3.600000000000000E-002    0.000000000000000E+000
 -3.590000000000000E-002    0.000000000000000E+000
 -3.580000000000000E-002    0.000000000000000E+000
 -3.570000000000000E-002    0.000000000000000E+000
 -3.560000000000000E-002    0.000000000000000E+000
 -3.550000000000000E-002    0.000000000000000E+000
 -3.540000000000000E-002    0.000000000000000E+000
 -3.530000000000000E-002    0.000000000000000E+000
 -3.520000000000000E-002    0.000000000000000E+000
 -3.510000000000000E-002    0.000000000000000E+000
 -3.500000000000000E-002    0.000000000000000E+000
 -3.490000000000000E-002    0.000000000000000E+000
 -3.480000000000000E-002    0.000000000000000E+000
 -3.470000000000000E-002    0.000000000000000E+000
 -3.460000000000000E-002    0.000000000000000E+000
 -3.450000000000000E-002    0.000000000000000E+000
 -3.440000000000000E-002    0.000000000000000E+000
 -3.430000000000000E-002    0.000000000000000E+000
 -3.420000000000000E-002    0.000000000000000E+000
 -3.410000000000000E-002    0.000000000000000E+000
 -3.400000000000000E-002    0.000000000000000E+000
 -3.390000000000000E-002    0.000000000000000E+000
 -3.380000000000000E-002    0.000000000000000E+000
 -3.370000000000000E-002    0.000000000000000E+000
 -3.360000000000000E-002    0.000000000000000E+000
 -3.350000000000000E-002    0.000000000000000E+000
 -3.340000000000000E-002    0.000000000000000E+000
 -3.330000000000000E-002    0.000000000000000E+000
 -3.320000000000000E-002    0.000000000000000E+000
 -3.310000000000000E-002    0.000000000000000E+000
 -3.300000000000000E-002    0.000000000000000E+000
 -3.290000000000000E-002    0.000000000000000E+000
 -3.280000000000000E-002    0.000000000000000E+000
 -3.270000000000000E-002    0.000000000000000E+000
 -3.260000000000000E-002    0.000000000000000E+000
 -3.250000000000000E-002    0.000000000000000E+000
 -3.240000000000000E-002    0.000000000000000E+000
 -3.230000000000000E-002    0.000000000000000E+000
 -3.220000000000000E-002    0.000000000000000E+000
 -3.210000000000000E-002    0.000000000000000E+000
 -3.200000000000000E-002    0.000000000000000E+000
 -3.190000000000000E-002    0.000000000000000E+000
 -3.180000000000000E-002    0.000000000000000E+000
 -3.170000000000000E-002    0.000000000000000E+000
 -3.160000000000000E-002    0.000000000000000E+000
 -3.150000000000000E-002    0.000000000000000E+000
 -3.140000000000000E-002    0.000000000000000E+000
 -3.130000000000000E-002    0.000000000000000E+000
 -3.120000000000000E-002    0.000000000000000E+000
 -3.110000000000000E-002    0.000000000000000E+000
 -3.100000000000000E-002    0.000000000000000E+000
 -3.090000000000000E-002    0.000000000000000E+000
 -3.080000000000000E-002    0.000000000000000E+000
 -3.070000000000000E-002    0.000000000000000E+000
 -3.060000000000000E-002    0.000000000000000E+000
 -3.050000000000000E-002    0.000000000000000E+000
 -3.040000000000000E-002    0.000000000000000E+000
 -3.030000000000000E-002    0.000000000000000E+000
 -3.020000000000000E-002    0.000000000000000E+000
 -3.010000000000000E-002    0.000000000000000E+000
 -3.000000000000000E-002    0.000000000000000E+000
 -2.990000000000000E-002    0.000000000000000E+000
 -2.980000000000000E-002    0.000000000000000E+000
 -2.970000000000000E-002    0.000000000000000E+000
 -2.960000000000000E-002    0.000000000000000E+000
 -2.950000000000000E-002    0.000000000000000E+000
 -2.940000000000000E-002    0.000000000000000E+000
 -2.930000000000000E-002    0.000000000000000E+000
 -2.920000000000000E-002    0.000000000000000E+000
 -2.910000000000000E-002    0.000000000000000E+000
 -2.900000000000000E-002    0.000000000000000E+000
 -2.890000000000000E-002    0.000000000000000E+000
 -2.880000000000000E-002    0.000000000000000E+000
 -2.870000000000000E-002    0.000000000000000E+000
 -2.860000000000000E-002    0.000000000000000E+000
 -2.850000000000000E-002    0.000000000000000E+000
 -2.840000000000000E-002    0.000000000000000E+000
 -2.830000000000000E-002    0.000000000000000E+000
 -2.820000000000000E-002    0.000000000000000E+000
 -2.810000000000000E-002    0.000000000000000E+000
 -2.800000000000000E-002    0.000000000000000E+000
 -2.790000000000000E-002    0.000000000000000E+000
 -2.780000000000000E-002    0.000000000000000E+000
 -2.770000000000000E-002    0.000000000000000E+000
 -2.760000000000000E-002    0.000000000000000E+000
 -2.750000000000000E-002    0.000000000000000E+000
 -2.740000000000000E-002    0.000000000000000E+000
 -2.730000000000000E-002    0.000000000000000E+000
 -2.720000000000000E-002    0.000000000000000E+000
 -2.710000000000000E-002    0.000000000000000E+000
 -2.700000000000000E-002    0.000000000000000E+000
 -2.690000000000000E-002    0.000000000000000E+000
 -2.680000000000000E-002    0.000000000000000E+000
 -2.670000000000000E-002    0.000000000000000E+000
 -2.660000000000000E-002    0.000000000000000E+000
 -2.650000000000000E-002    0.000000000000000E+000
 -2.640000000000000E-002    0.000000000000000E+000
 -2.630000000000000E-002    0.000000000000000E+000
 -2.620000000000000E-002    0.000000000000000E+000
 -2.610000000000000E-002    0.000000000000000E+000
 -2.600000000000000E-002    0.000000000000000E+000
 -2.590000000000000E-002    0.000000000000000E+000
 -2.580000000000000E-002    0.000000000000000E+000
 -2.570000000000000E-002    0.000000000000000E+000
 -2.560000000000000E-002    0.000000000000000E+000
 -2.550000000000000E-002    0.000000000000000E+000
 -2.540000000000000E-002    0.000000000000000E+000
 -2.530000000000000E-002    0.000000000000000E+000
 -2.520000000000000E-002    0.000000000000000E+000
 -2.510000000000000E-002    0.000000000000000E+000
 -2.500000000000000E-002    0.000000000000000E+000
 -2.490000000000000E-002    0.000000000000000E+000
 -2.480000000000000E-002    0.000000000000000E+000
 -2.470000000000000E-002    0.000000000000000E+000
 -2.460000000000000E-002    0.000000000000000E+000
 -2.450000000000000E-002    0.000000000000000E+000
 -2.440000000000000E-002    0.000000000000000E+000
 -2.430000000000000E-002    0.000000000000000E+000
 -2.420000000000000E-002    0.000000000000000E+000
 -2.410000000000000E-002    0.000000000000000E+000
 -2.400000000000000E-002    0.000000000000000E+000
 -2.390000000000000E-002    0.000000000000000E+000
 -2.380000000000000E-002    0.000000000000000E+000
 -2.370000000000000E-002    0.000000000000000E+000
 -2.360000000000000E-002    0.000000000000000E+000
 -2.350000000000000E-002    0.000000000000000E+000
 -2.340000000000000E-002    0.000000000000000E+000
 -2.330000000000000E-002    0.000000000000000E+000
 -2.320000000000000E-002    0.000000000000000E+000
 -2.310000000000000E-002    0.000000000000000E+000
 -2.300000000000000E-002    0.000000000000000E+000
 -2.290000000000000E-002    0.000000000000000E+000
 -2.280000000000000E-002    0.000000000000000E+000
 -2.270000000000000E-002    0.000000000000000E+000
 -2.260000000000000E-002    0.000000000000000E+000
 -2.250000000000000E-002    0.000000000000000E+000
 -2.240000000000000E-002    0.000000000000000E+000
 -2.230000000000000E-002    0.000000000000000E+000
 -2.220000000000000E-002    0.000000000000000E+000
 -2.210000000000000E-002    0.000000000000000E+000
 -2.200000000000000E-002    0.000000000000000E+000
 -2.190000000000000E-002    0.000000000000000E+000
 -2.180000000000000E-002    0.000000000000000E+000
 -2.170000000000000E-002    0.000000000000000E+000
 -2.160000000000000E-002    0.000000000000000E+000
 -2.150000000000000E-002    0.000000000000000E+000
 -2.140000000000000E-002    0.000000000000000E+000
 -2.130000000000000E-002    0.000000000000000E+000
 -2.120000000000000E-002    0.000000000000000E+000
 -2.110000000000000E-002    0.000000000000000E+000
 -2.100000000000000E-002    0.000000000000000E+000
 -2.090000000000000E-002    0.000000000000000E+000
 -2.080000000000000E-002    0.000000000000000E+000
 -2.070000000000000E-002    0.000000000000000E+000
 -2.060000000000000E-002    0.000000000000000E+000
 -2.050000000000000E-002    0.000000000000000E+000
 -2.040000000000000E-002    0.000000000000000E+000
 -2.030000000000000E-002    0.000000000000000E+000
 -2.020000000000000E-002    0.000000000000000E+000
 -2.010000000000000E-002    0.000000000000000E+000
 -2.000000000000000E-002    0.000000000000000E+000
 -1.990000000000000E-002    0.000000000000000E+000
 -1.980000000000000E-002    0.000000000000000E+000
 -1.970000000000000E-002    0.000000000000000E+000
 -1.960000000000000E-002    0.000000000000000E+000
 -1.950000000000000E-002    0.000000000000000E+000
 -1.940000000000000E-002    0.000000000000000E+000
 -1.930000000000000E-002    0.000000000000000E+000
 -1.920000000000000E-002    0.000000000000000E+000
 -1.910000000000000E-002    0.000000000000000E+000
 -1.900000000000000E-002    0.000000000000000E+000
 -1.890000000000000E-002    0.000000000000000E+000
 -1.880000000000000E-002    0.000000000000000E+000
 -1.870000000000000E-002    0.000000000000000E+000
 -1.860000000000000E-002    0.000000000000000E+000
 -1.850000000000000E-002    0.000000000000000E+000
 -1.840000000000000E-002    0.000000000000000E+000
 -1.830000000000000E-002    0.000000000000000E+000
 -1.820000000000000E-002    0.000000000000000E+000
 -1.810000000000000E-002    0.000000000000000E+000
 -1.800000000000000E-002    0.000000000000000E+000
 -1.790000000000000E-002    0.000000000000000E+000
 -1.780000000000000E-002    0.000000000000000E+000
 -1.770000000000000E-002    0.000000000000000E+000
 -1.760000000000000E-002    0.000000000000000E+000
 -1.750000000000000E-002    0.000000000000000E+000
 -1.740000000000000E-002    0.000000000000000E+000
 -1.730000000000000E-002    0.000000000000000E+000
 -1.720000000000000E-002    0.000000000000000E+000
 -1.710000000000000E-002    0.000000000000000E+000
 -1.700000000000000E-002    0.000000000000000E+000
 -1.690000000000000E-002    0.000000000000000E+000
 -1.680000000000000E-002    0.000000000000000E+000
 -1.670000000000000E-002    0.000000000000000E+000
 -1.660000000000000E-002    0.000000000000000E+000
 -1.650000000000000E-002    0.000000000000000E+000
 -1.640000000000000E-002    0.000000000000000E+000
 -1.630000000000000E-002    0.000000000000000E+000
 -1.620000000000000E-002    0.000000000000000E+000
 -1.610000000000000E-002    0.000000000000000E+000
 -1.600000000000000E-002    0.000000000000000E+000
 -1.590000000000000E-002    0.000000000000000E+000
 -1.580000000000000E-002    0.000000000000000E+000
 -1.570000000000000E-002    0.000000000000000E+000
 -1.560000000000000E-002    0.000000000000000E+000
 -1.550000000000000E-002    0.000000000000000E+000
 -1.540000000000000E-002    0.000000000000000E+000
 -1.530000000000000E-002    0.000000000000000E+000
 -1.520000000000000E-002    0.000000000000000E+000
 -1.510000000000000E-002    0.000000000000000E+000
 -1.500000000000000E-002    0.000000000000000E+000
 -1.490000000000000E-002    0.000000000000000E+000
 -1.480000000000000E-002    0.000000000000000E+000
 -1.470000000000000E-002    0.000000000000000E+000
 -1.460000000000000E-002    0.000000000000000E+000
 -1.450000000000000E-002    0.000000000000000E+000
 -1.440000000000000E-002    0.000000000000000E+000
 -1.430000000000000E-002    0.000000000000000E+000
 -1.420000000000000E-002    0.000000000000000E+000
 -1.410000000000000E-002    0.000000000000000E+000
 -1.400000000000000E-002    0.000000000000000E+000
 -1.390000000000000E-002    0.000000000000000E+000
 -1.380000000000000E-002    0.000000000000000E+000
 -1.370000000000000E-002    0.000000000000000E+000
 -1.360000000000000E-002    0.000000000000000E+000
 -1.350000000000000E-002    0.000000000000000E+000
 -1.340000000000000E-002    0.000000000000000E+000
 -1.330000000000000E-002    0.000000000000000E+000
 -1.320000000000000E-002    0.000000000000000E+000
 -1.310000000000000E-002    0.000000000000000E+000
 -1.300000000000000E-002    0.000000000000000E+000
 -1.290000000000000E-002    0.000000000000000E+000
 -1.280000000000000E-002    0.000000000000000E+000
 -1.270000000000000E-002    0.000000000000000E+000
 -1.260000000000000E-002    0.000000000000000E+000
 -1.250000000000000E-002    0.000000000000000E+000
 -1.240000000000000E-002    0.000000000000000E+000
 -1.230000000000000E-002    0.000000000000000E+000
 -1.220000000000000E-002    0.000000000000000E+000
 -1.210000000000000E-002    0.000000000000000E+000
 -1.200000000000000E-002    0.000000000000000E+000
 -1.190000000000000E-002    0.000000000000000E+000
 -1.180000000000000E-002    0.000000000000000E+000
 -1.170000000000000E-002    0.000000000000000E+000
 -1.160000000000000E-002    0.000000000000000E+000
 -1.150000000000000E-002    0.000000000000000E+000
 -1.140000000000000E-002    0.000000000000000E+000
 -1.130000000000000E-002    0.000000000000000E+000
 -1.120000000000000E-002    0.000000000000000E+000
 -1.110000000000000E-002    0.000000000000000E+000
 -1.100000000000000E-002    0.000000000000000E+000
 -1.090000000000000E-002    0.000000000000000E+000
 -1.080000000000000E-002    0.000000000000000E+000
 -1.070000000000000E-002    0.000000000000000E+000
 -1.060000000000000E-002    0.000000000000000E+000
 -1.050000000000000E-002    0.000000000000000E+000
 -1.040000000000000E-002    0.000000000000000E+000
 -1.030000000000000E-002    0.000000000000000E+000
 -1.020000000000000E-002    0.000000000000000E+000
 -1.010000000000000E-002    0.000000000000000E+000
 -1.000000000000000E-002    0.000000000000000E+000
 -9.899999999999999E-003    0.000000000000000E+000
 -9.800000000000000E-003    0.000000000000000E+000
 -9.699999999999999E-003    0.000000000000000E+000
 -9.599999999999999E-003    0.000000000000000E+000
 -9.500000000000000E-003    0.000000000000000E+000
 -9.399999999999999E-003    0.000000000000000E+000
 -9.299999999999999E-003    0.000000000000000E+000
 -9.200000000000000E-003    0.000000000000000E+000
 -9.099999999999999E-003    0.000000000000000E+000
 -8.999999999999999E-003    0.000000000000000E+000
 -8.900000000000000E-003    0.000000000000000E+000
 -8.799999999999999E-003    0.000000000000000E+000
 -8.699999999999999E-003    0.000000000000000E+000
 -8.600000000000000E-003    0.000000000000000E+000
 -8.499999999999999E-003    0.000000000000000E+000
 -8.399999999999999E-003    0.000000000000000E+000
 -8.300000000000000E-003    0.000000000000000E+000
 -8.199999999999999E-003    0.000000000000000E+000
 -8.100000000000000E-003    0.000000000000000E+000
 -8.000000000000000E-003    0.000000000000000E+000
 -7.899999999999999E-003    0.000000000000000E+000
 -7.800000000000000E-003    0.000000000000000E+000
 -7.699999999999999E-003    0.000000000000000E+000
 -7.599999999999999E-003    0.000000000000000E+000
 -7.499999999999999E-003    0.000000000000000E+000
 -7.399999999999999E-003    0.000000000000000E+000
 -7.299999999999999E-003    0.000000000000000E+000
 -7.199999999999999E-003    0.000000000000000E+000
 -7.100000000000000E-003    0.000000000000000E+000
 -6.999999999999999E-003    0.000000000000000E+000
 -6.899999999999999E-003    0.000000000000000E+000
 -6.800000000000000E-003    0.000000000000000E+000
 -6.699999999999999E-003    0.000000000000000E+000
 -6.599999999999999E-003    0.000000000000000E+000
 -6.499999999999999E-003    0.000000000000000E+000
 -6.399999999999999E-003    0.000000000000000E+000
 -6.299999999999999E-003    0.000000000000000E+000
 -6.199999999999999E-003    0.000000000000000E+000
 -6.100000000000000E-003    0.000000000000000E+000
 -5.999999999999999E-003    0.000000000000000E+000
 -5.899999999999999E-003    0.000000000000000E+000
 -5.800000000000000E-003    0.000000000000000E+000
 -5.699999999999999E-003    0.000000000000000E+000
 -5.599999999999999E-003    0.000000000000000E+000
 -5.499999999999999E-003    0.000000000000000E+000
 -5.399999999999999E-003    0.000000000000000E+000
 -5.299999999999999E-003    0.000000000000000E+000
 -5.199999999999999E-003    0.000000000000000E+000
 -5.099999999999999E-003    0.000000000000000E+000
 -4.999999999999999E-003    2.271437257577511E-048
 -4.899999999999999E-003    1.686308909985026E-047
 -4.799999999999999E-003    3.314869415829786E-047
 -4.699999999999999E-003    5.001178325814812E-047
 -4.599999999999999E-003    6.518091914182352E-047
 -4.499999999999999E-003    7.807861776792141E-047
 -4.399999999999999E-003    7.469071133557169E-047
 -4.299999999999999E-003    5.501719984477438E-047
 -4.199999999999999E-003    1.614965892980939E-047
 -4.099999999999999E-003   -4.769626714090199E-047
 -3.999999999999999E-003   -1.307362226357811E-046
 -3.899999999999999E-003   -2.312167512719130E-046
 -3.799999999999999E-003   -3.357106902465943E-046
 -3.699999999999999E-003   -4.340677088445617E-046
 -3.599999999999999E-003   -5.168352229672081E-046
 -3.499999999999999E-003   -5.492319936866435E-046
 -3.399999999999999E-003   -5.030820850678974E-046
 -3.299999999999999E-003   -4.300020843314690E-046
 -3.199999999999999E-003   -2.827925267411328E-046
 -3.099999999999999E-003    1.131925195226183E-046
 -2.999999999999999E-003    5.901063997976942E-046
 -2.899999999999999E-003    2.308392240367690E-046
 -2.799999999999999E-003    9.297756572350189E-046
 -2.699999999999999E-003    1.656837443715273E-045
 -2.599999999999999E-003    2.359775956141538E-045
 -2.499999999999999E-003    4.160403024357567E-045
 -2.399999999999999E-003    5.412876561598715E-045
 -2.299999999999999E-003    7.259310624589047E-045
 -2.199999999999999E-003    8.557915405001666E-045
 -2.099999999999999E-003    1.009440399103927E-044
 -1.999999999999999E-003    1.067394724255138E-044
 -1.899999999999999E-003    1.023584618384258E-044
 -1.799999999999999E-003    7.581203091904535E-045
 -1.699999999999999E-003    1.938043417306840E-045
 -1.599999999999999E-003   -6.011177841034298E-045
 -1.499999999999999E-003   -1.661345256750280E-044
 -1.399999999999999E-003   -3.036475165805141E-044
 -1.299999999999999E-003   -4.602149587422857E-044
 -1.199999999999999E-003   -6.141381592867697E-044
 -1.099999999999999E-003   -7.379128319954084E-044
 -9.999999999999989E-004   -8.164853101010475E-044
 -8.999999999999990E-004   -8.071861426264194E-044
 -7.999999999999990E-004   -6.780360060144001E-044
 -6.999999999999989E-004   -4.054729786978810E-044
 -5.999999999999990E-004    5.007832879787813E-045
 -4.999999999999989E-004    6.862211735758127E-044
 -3.999999999999989E-004    1.493600541329411E-043
 -2.999999999999989E-004    2.425198409338172E-043
 -1.999999999999989E-004    3.399807803991679E-043
 -9.999999999999892E-005    4.296606238083530E-043
  1.084202172485504E-018    4.944683872838990E-043
  1.000000000000011E-004    5.165780453672095E-043
  2.000000000000011E-004    4.742946312057678E-043
  3.000000000000011E-004    3.499939674686706E-043
  4.000000000000011E-004    1.265278044617384E-043
  5.000000000000011E-004   -2.024512938856950E-043
  6.000000000000011E-004   -6.348452864185320E-043
  7.000000000000011E-004   -1.150927780384143E-042
  8.000000000000011E-004   -1.713169338171902E-042
  9.000000000000012E-004   -2.262990029296330E-042
  1.000000000000001E-003   -2.719578626331056E-042
  1.100000000000001E-003   -2.983929303940695E-042
  1.200000000000001E-003   -2.946827553327906E-042
  1.300000000000001E-003   -2.498674670075719E-042
  1.400000000000001E-003   -1.541247086529839E-042
  1.500000000000001E-003   -1.193467327803250E-044
  1.600000000000001E-003    2.102732740485802E-042
  1.700000000000001E-003    4.741459174573594E-042
  1.800000000000001E-003    7.749008407281989E-042
  1.900000000000001E-003    1.086323759285665E-041
  2.000000000000001E-003    1.371129927624629E-041
  2.100000000000001E-003    1.581682494411445E-041
  2.200000000000001E-003    1.662775882829706E-041
  2.300000000000001E-003    1.555763257220059E-041
  2.400000000000001E-003    1.205574446901251E-041
  2.500000000000001E-003    5.688195895314962E-042
  2.600000000000001E-003   -3.758685324376471E-042
  2.700000000000001E-003   -1.617636725482578E-041
  2.800000000000001E-003   -3.102771723185904E-041
  2.900000000000001E-003   -4.726750712763072E-041
  3.000000000000001E-003   -6.329384521705099E-041
  3.100000000000001E-003   -7.696503483890479E-041
  3.200000000000001E-003   -8.568031534490261E-041
  3.300000000000001E-003   -8.655715910560517E-041
  3.400000000000001E-003   -7.670559808387193E-041
  3.500000000000001E-003   -5.359579366459665E-041
  3.600000000000001E-003   -1.550902361689480E-041
  3.700000000000001E-003    3.796002824207632E-041
  3.800000000000001E-003    1.053989898221740E-040
  3.900000000000001E-003    1.831312055601009E-040
  4.000000000000001E-003    2.649087293622960E-040
  4.100000000000001E-003    3.418256166042474E-040
  4.200000000000001E-003    4.025443367824182E-040
  4.300000000000001E-003    4.339052900253136E-040
  4.400000000000001E-003    4.219699962350833E-040
  4.500000000000001E-003    3.535198205393262E-040
  4.600000000000002E-003    2.179538999584121E-040
  4.700000000000001E-003    9.495891405263982E-042
  4.800000000000001E-003   -2.704780212303565E-040
  4.900000000000002E-003   -6.112435852120642E-040
  5.000000000000001E-003   -9.909792688165176E-040
  5.100000000000001E-003   -1.375835533138246E-039
  5.200000000000001E-003   -1.720196402317462E-039
  5.300000000000002E-003   -1.968500540431183E-039
  5.400000000000001E-003   -2.058874572202349E-039
  5.500000000000001E-003   -1.928732168993686E-039
  5.600000000000002E-003   -1.522249922935055E-039
  5.700000000000001E-003   -7.993944281158169E-040
  5.800000000000001E-003    2.541202203071935E-040
  5.900000000000002E-003    1.616895629214246E-039
  6.000000000000001E-003    3.223159103440833E-039
  6.100000000000001E-003    4.956780999593390E-039
  6.200000000000002E-003    6.649587422417579E-039
  6.300000000000002E-003    8.085499459021760E-039
  6.400000000000001E-003    9.011797280953635E-039
  6.500000000000001E-003    9.158312755626670E-039
  6.600000000000002E-003    8.264649930857352E-039
  6.700000000000001E-003    6.114539673301981E-039
  6.800000000000001E-003    2.575334666907947E-039
  6.900000000000002E-003   -2.360621366020951E-039
  7.000000000000001E-003   -8.537181770956899E-039
  7.100000000000001E-003   -1.560361644526195E-038
  7.200000000000002E-003   -2.299797831874471E-038
  7.300000000000002E-003   -2.995080007162724E-038
  7.400000000000001E-003   -3.551468386249110E-038
  7.500000000000001E-003   -3.862383180166603E-038
  7.600000000000002E-003   -3.818513419917396E-038
  7.700000000000001E-003   -3.319906718365086E-038
  7.800000000000001E-003   -2.290461143013280E-038
  7.900000000000001E-003   -6.937818301419852E-039
  8.000000000000002E-003    1.451095100637182E-038
  8.100000000000001E-003    4.056010290058719E-038
  8.200000000000001E-003    6.954220405469888E-038
  8.300000000000002E-003    9.897481263563497E-038
  8.400000000000001E-003    1.256183734417251E-037
  8.500000000000002E-003    1.456387193204409E-037
  8.600000000000002E-003    1.548838433089061E-037
  8.700000000000001E-003    1.492739826717639E-037
  8.800000000000002E-003    1.252903063132806E-037
  8.900000000000002E-003    8.053190342294445E-038
  9.000000000000001E-003    1.429471838370754E-038
  9.100000000000002E-003   -7.188887622774542E-038
  9.200000000000002E-003   -1.738227858854796E-037
  9.300000000000001E-003   -2.844108878216110E-037
  9.400000000000002E-003   -3.936888751754384E-037
  9.500000000000001E-003   -4.891900725910683E-037
  9.600000000000001E-003   -5.566889979744043E-037
  9.700000000000002E-003   -5.813343046883178E-037
  9.800000000000001E-003   -5.491406192856560E-037
  9.900000000000001E-003   -4.487605226579440E-037
  1.000000000000000E-002   -2.734061490523296E-037
  1.010000000000000E-002   -2.274131470261971E-038
  1.020000000000000E-002    2.954735958623467E-037
  1.030000000000000E-002    6.642263958483222E-037
  1.040000000000000E-002    1.056831978544958E-036
  1.050000000000000E-002    1.437462472176346E-036
  1.060000000000000E-002    1.762790516843405E-036
  1.070000000000000E-002    1.984822845385117E-036
  1.080000000000000E-002    2.054883264923285E-036
  1.090000000000000E-002    1.928575362371927E-036
  1.100000000000000E-002    1.571408065941466E-036
  1.110000000000000E-002    9.646372608454497E-037
  1.120000000000000E-002    1.107512231957131E-037
  1.130000000000000E-002   -9.620326977798750E-037
  1.140000000000000E-002   -2.196934744942433E-036
  1.150000000000000E-002   -3.508046895265965E-036
  1.160000000000000E-002   -4.782547009558729E-036
  1.170000000000000E-002   -5.886000384499367E-036
  1.180000000000000E-002   -6.670810148901533E-036
  1.190000000000000E-002   -6.987585781719700E-036
  1.200000000000000E-002   -6.698881463627647E-036
  1.210000000000000E-002   -5.694460359521860E-036
  1.220000000000000E-002   -3.906962835543674E-036
  1.230000000000000E-002   -1.326697826872253E-036
  1.240000000000000E-002    1.985854323025197E-036
  1.250000000000000E-002    5.891195062747705E-036
  1.260000000000000E-002    1.016686435258264E-035
  1.270000000000000E-002    1.450944799474270E-035
  1.280000000000000E-002    1.854325972786496E-035
  1.290000000000000E-002    2.183609817435870E-035
  1.300000000000000E-002    2.392212882823477E-035
  1.310000000000000E-002    2.433160978260267E-035
  1.320000000000000E-002    2.262683859637528E-035
  1.330000000000000E-002    1.844348645332933E-035
  1.340000000000000E-002    1.153605187917191E-035
  1.350000000000000E-002    1.825920858462369E-036
  1.360000000000000E-002   -1.055011354860266E-035
  1.370000000000000E-002   -2.519375881188980E-035
  1.380000000000000E-002   -4.140525717199907E-035
  1.390000000000000E-002   -5.815479809133837E-035
  1.400000000000000E-002   -7.407170207892315E-035
  1.410000000000000E-002   -8.745923392786676E-035
  1.420000000000000E-002   -9.634408739437643E-035
  1.430000000000000E-002   -9.856955447035768E-035
  1.440000000000000E-002   -9.194115161403752E-035
  1.450000000000000E-002   -7.442993468483384E-035
  1.460000000000000E-002   -4.443467426384687E-035
  1.470000000000000E-002   -1.096419711997025E-036
  1.480000000000000E-002    5.535094404234917E-035
  1.490000000000000E-002    1.232224174992102E-034
  1.500000000000000E-002    1.990569719156354E-034
  1.510000000000000E-002    2.773800870564253E-034
  1.520000000000000E-002    3.506178229761412E-034
  1.530000000000000E-002    4.092316764250160E-034
  1.540000000000000E-002    4.421411412224236E-034
  1.550000000000000E-002    4.374873786129148E-034
  1.560000000000000E-002    3.837661666912993E-034
  1.570000000000000E-002    2.713186201472072E-034
  1.580000000000000E-002    9.411631506321499E-035
  1.590000000000000E-002   -1.482853989218516E-034
  1.600000000000000E-002   -4.488196656191935E-034
  1.610000000000000E-002   -7.912650822360645E-034
  1.620000000000000E-002   -1.149196924812232E-033
  1.630000000000000E-002   -1.485872470349873E-033
  1.640000000000000E-002   -1.755378796621285E-033
  1.650000000000000E-002   -1.905313750764306E-033
  1.660000000000000E-002   -1.881162224110975E-033
  1.670000000000000E-002   -1.632348203991951E-033
  1.680000000000000E-002   -1.119729191007252E-033
  1.690000000000000E-002   -3.240179613615804E-034
  1.700000000000000E-002    7.456556085262951E-034
  1.710000000000000E-002    2.044109493138244E-033
  1.720000000000000E-002    3.484673304308055E-033
  1.730000000000000E-002    4.937333809936372E-033
  1.740000000000000E-002    6.231800206166649E-033
  1.750000000000000E-002    7.166589749212110E-033
  1.760000000000000E-002    7.524789569518943E-033
  1.770000000000000E-002    7.096456420810090E-033
  1.780000000000000E-002    5.706759183272631E-033
  1.790000000000000E-002    3.247943928895681E-033
  1.800000000000000E-002   -2.878643858036866E-034
  1.810000000000000E-002   -4.778982116469042E-033
  1.820000000000000E-002   -9.952313627694900E-033
  1.830000000000000E-002   -1.537436296973084E-032
  1.840000000000000E-002   -2.045992362033868E-032
  1.850000000000000E-002   -2.450233093377693E-032
  1.860000000000000E-002   -2.672747148409501E-032
  1.870000000000000E-002   -2.637127350764612E-032