 -4.000000000000000E-002    0.000000000000000E+000
 -3.990000000000000E-002    0.000000000000000E+000
 -3.980000000000000E-002    0.000000000000000E+000
 -3.970000000000000E-002    0.000000000000000E+000
 -3.960000000000000E-002   -3.543660096816555E-019
 -3.950000000000000E-002   -2.887143018737833E-018
 -3.940000000000000E-002   -1.271429257922882E-017
 -3.930000000000000E-002   -3.975833443643273E-017
 -3.920000000000000E-002   -9.776944094962440E-017
 -3.910000000000000E-002   -1.978246575929565E-016
 -3.900000000000000E-002   -3.334327704246478E-016
 -3.890000000000000E-002   -4.561642793050514E-016
 -3.880000000000000E-002   -4.444708592849581E-016
 -3.870000000000000E-002   -7.393032531948857E-017
 -3.860000000000000E-002    9.963209593316447E-016
 -3.850000000000000E-002    3.200249214566657E-015
 -3.840000000000000E-002    6.980712049541089E-015
 -3.830000000000000E-002    1.262218314435423E-014
 -3.820000000000000E-002    1.998728346843353E-014
 -3.810000000000000E-002    2.816157963140659E-014
 -3.800000000000000E-002    3.503663705554374E-014
 -3.790000000000000E-002    3.689382578784548E-014
 -3.780000000000000E-002    2.808407916206908E-014
 -3.770000000000000E-002    9.288139383181094E-016
 -3.760000000000000E-002   -5.401852790372092E-014
 -3.750000000000000E-002   -1.472136554210478E-013
 -3.740000000000000E-002   -2.887629069583930E-013
 -3.730000000000000E-002   -4.864280191272407E-013
 -3.720000000000000E-002   -7.430515636868810E-013
 -3.710000000000000E-002   -1.053583048238891E-012
 -3.700000000000000E-002   -1.402018294392170E-012
 -3.690000000000000E-002   -1.758691137670793E-012
 -3.680000000000000E-002   -2.078453725691036E-012
 -3.670000000000000E-002   -2.300324544028168E-012
 -3.660000000000000E-002   -2.349145736250028E-012
 -3.650000000000000E-002   -2.139684145827113E-012
 -3.640000000000000E-002   -1.583365915689929E-012
 -3.630000000000000E-002   -5.975548825949930E-013
 -3.620000000000000E-002    8.830973224781913E-013
 -3.610000000000000E-002    2.894085341899359E-012
 -3.600000000000000E-002    5.428493033261215E-012
 -3.590000000000000E-002    8.425937619352051E-012
 -3.580000000000000E-002    1.176466861118217E-011
 -3.570000000000000E-002    1.525840129028927E-011
 -3.560000000000000E-002    1.865925340949791E-011
 -3.550000000000000E-002    2.166764486081604E-011
 -3.540000000000000E-002    2.394936783095831E-011
 -3.530000000000000E-002    2.515928454182453E-011
 -3.520000000000000E-002    2.497019075269502E-011
 -3.510000000000000E-002    2.310464882350002E-011
 -3.500000000000000E-002    1.936691410130938E-011
 -3.490000000000000E-002    1.367165630373736E-011
 -3.480000000000000E-002    6.066146822971453E-012
 -3.470000000000000E-002   -3.257165936156448E-012
 -3.460000000000000E-002   -1.396007535414499E-011
 -3.450000000000000E-002   -2.557139104249681E-011
 -3.440000000000000E-002   -3.751331231422233E-011
 -3.430000000000000E-002   -4.913999684186139E-011
 -3.420000000000000E-002   -5.978588424458515E-011
 -3.410000000000000E-002   -6.881988126710470E-011
 -3.400000000000000E-002   -7.570072477270671E-011
 -3.390000000000000E-002   -8.002828321688447E-011
 -3.380000000000000E-002   -8.158561819709937E-011
 -3.370000000000000E-002   -8.036689169549430E-011
 -3.360000000000000E-002   -7.658731560447119E-011
 -3.350000000000000E-002   -7.067239650634110E-011
 -3.340000000000000E-002   -6.322552003028573E-011
 -3.330000000000000E-002   -5.497432514224888E-011
 -3.320000000000000E-002   -4.669838840882647E-011
 -3.310000000000000E-002   -3.914220638617837E-011
 -3.300000000000000E-002   -3.291906396926878E-011
 -3.290000000000000E-002   -2.841258893549950E-011
 -3.280000000000000E-002   -2.568413503185551E-011
 -3.270000000000000E-002   -2.439421111821254E-011
 -3.260000000000000E-002   -2.374742258479458E-011
 -3.250000000000000E-002   -2.246931274175843E-011
 -3.240000000000000E-002   -1.882347018070951E-011
 -3.230000000000000E-002   -1.067579221674065E-011
 -3.220000000000000E-002    4.389572088310700E-012
 -3.210000000000000E-002    2.890073371567405E-011
 -3.200000000000000E-002    6.527721738790505E-011
 -3.190000000000000E-002    1.155651203220730E-010
 -3.180000000000000E-002    1.811402390709031E-010
 -3.170000000000000E-002    2.623979175327397E-010
 -3.160000000000000E-002    3.584532872170026E-010
 -3.150000000000000E-002    4.668806724710500E-010
 -3.140000000000000E-002    5.835240338697819E-010
 -3.130000000000000E-002    7.024109549317963E-010
 -3.120000000000000E-002    8.158010570619080E-010
 -3.110000000000000E-002    9.143925873574195E-010
 -3.100000000000000E-002    9.877029642086926E-010
 -3.090000000000000E-002    1.024624897510170E-009
 -3.080000000000000E-002    1.014144237447327E-009
 -3.070000000000000E-002    9.461870617717098E-010
 -3.060000000000000E-002    8.125475610673635E-010
 -3.050000000000000E-002    6.078298418341082E-010
 -3.040000000000000E-002    3.303267260599810E-010
 -3.030000000000000E-002   -1.725132989427358E-011
 -3.020000000000000E-002   -4.272792432018177E-010
 -3.010000000000000E-002   -8.870303802823785E-010
 -3.000000000000000E-002   -1.378856238527918E-009
 -2.990000000000000E-002   -1.880767245642213E-009
 -2.980000000000000E-002   -2.367414319798846E-009
 -2.970000000000000E-002   -2.811437944161480E-009
 -2.960000000000000E-002   -3.185112054986064E-009
 -2.950000000000000E-002   -3.462178092913841E-009
 -2.940000000000000E-002   -3.619734354099861E-009
 -2.930000000000000E-002   -3.640030070755419E-009
 -2.920000000000000E-002   -3.512007204107211E-009
 -2.910000000000000E-002   -3.232441247184299E-009
 -2.900000000000000E-002   -2.806558343148345E-009
 -2.890000000000000E-002   -2.248037098018838E-009
 -2.880000000000000E-002   -1.578361836555387E-009
 -2.870000000000000E-002   -8.255376605669550E-010
 -2.860000000000000E-002   -2.224712339869967E-011
 -2.850000000000000E-002    7.964274118074823E-010
 -2.840000000000000E-002    1.595530966990028E-009
 -2.830000000000000E-002    2.342811316081280E-009
 -2.820000000000000E-002    3.011110375645552E-009
 -2.810000000000000E-002    3.580352198263718E-009
 -2.800000000000000E-002    4.038929141997963E-009
 -2.790000000000000E-002    4.384333582225786E-009
 -2.780000000000000E-002    4.622946922673403E-009
 -2.770000000000000E-002    4.768964959864915E-009
 -2.760000000000000E-002    4.842526844916731E-009
 -2.750000000000000E-002    4.867188389111802E-009
 -2.740000000000000E-002    4.866953556766520E-009
 -2.730000000000000E-002    4.863132832466289E-009
 -2.720000000000000E-002    4.871337732602892E-009
 -2.710000000000000E-002    4.898919173061552E-009
 -2.700000000000000E-002    4.943152154056589E-009
 -2.690000000000000E-002    4.990407553408765E-009
 -2.680000000000000E-002    5.016492808548282E-009
 -2.670000000000000E-002    4.988234566456896E-009
 -2.660000000000000E-002    4.866269521365612E-009
 -2.650000000000000E-002    4.608898197435355E-009
 -2.640000000000000E-002    4.176727646317891E-009
 -2.630000000000000E-002    3.537738827974569E-009
 -2.620000000000000E-002    2.672333139272164E-009
 -2.610000000000000E-002    1.577859428616563E-009
 -2.600000000000000E-002    2.721277576090315E-010
 -2.590000000000000E-002   -1.204544333079103E-009
 -2.580000000000000E-002   -2.789136148467660E-009
 -2.570000000000000E-002   -4.397812024270689E-009
 -2.560000000000000E-002   -5.929981765307572E-009
 -2.550000000000000E-002   -7.274414941018056E-009
 -2.540000000000000E-002   -8.317103129246641E-009
 -2.530000000000000E-002   -8.950359106272743E-009
 -2.520000000000000E-002   -9.082478787051019E-009
 -2.510000000000000E-002   -8.647174302517237E-009
 -2.500000000000000E-002   -7.611894283003276E-009
 -2.490000000000000E-002   -5.984201131041650E-009
 -2.480000000000000E-002   -3.815420305364283E-009
 -2.470000000000000E-002   -1.200986561614204E-009
 -2.460000000000000E-002    1.722878251672069E-009
 -2.450000000000000E-002    4.786200970837370E-009
 -2.440000000000000E-002    7.795716365331196E-009
 -2.430000000000000E-002    1.054813522918993E-008
 -2.420000000000000E-002    1.284530068184747E-008
 -2.410000000000000E-002    1.451004294574930E-008
 -2.400000000000000E-002    1.540143139961874E-008
 -2.390000000000000E-002    1.542805100724884E-008
 -2.380000000000000E-002    1.455805677864694E-008
 -2.370000000000000E-002    1.282498850513555E-008
 -2.360000000000000E-002    1.032865372818557E-008
 -2.350000000000000E-002    7.230876207193825E-009
 -2.340000000000000E-002    3.746381975546581E-009
 -2.330000000000000E-002    1.296481462874588E-010
 -2.320000000000000E-002   -3.341075732381079E-009
 -2.310000000000000E-002   -6.380871689941320E-009
 -2.300000000000000E-002   -8.714527986305773E-009
 -2.290000000000000E-002   -1.009029622712025E-008
 -2.280000000000000E-002   -1.028921602089319E-008
 -2.270000000000000E-002   -9.128532929959187E-009
 -2.260000000000000E-002   -6.458465112753180E-009
 -2.250000000000000E-002   -2.151776770608597E-009
 -2.240000000000000E-002    3.913191438692391E-009
 -2.230000000000000E-002    1.187488801528400E-008
 -2.220000000000000E-002    2.191467490201085E-008
 -2.210000000000000E-002    3.428434477310103E-008
 -2.200000000000000E-002    4.933234269195798E-008
 -2.190000000000000E-002    6.752639678890184E-008
 -2.180000000000000E-002    8.947002942506605E-008
 -2.170000000000000E-002    1.159111682363550E-007
 -2.160000000000000E-002    1.477418988673755E-007
 -2.150000000000000E-002    1.859888607578684E-007
 -2.140000000000000E-002    2.317953660216209E-007
 -2.130000000000000E-002    2.863963203986183E-007
 -2.120000000000000E-002    3.510890291733818E-007
 -2.110000000000000E-002    4.272019486307100E-007
 -2.100000000000000E-002    5.160652434278537E-007
 -2.090000000000000E-002    6.189855862698158E-007
 -2.080000000000000E-002    7.372287426055267E-007
 -2.070000000000000E-002    8.720104739436929E-007
 -2.060000000000000E-002    1.024498366438502E-006
 -2.050000000000000E-002    1.195823217946795E-006
 -2.040000000000000E-002    1.387100138598390E-006
 -2.030000000000000E-002    1.599454885522808E-006
 -2.020000000000000E-002    1.834055624630044E-006
 -2.010000000000000E-002    2.092144778298246E-006
 -2.000000000000000E-002    2.375067041681388E-006
 -1.990000000000000E-002    2.684292231953379E-006
 -1.980000000000000E-002    3.021428854882046E-006
 -1.970000000000000E-002    3.388227524755115E-006
 -1.960000000000000E-002    3.786573251352541E-006
 -1.950000000000000E-002    4.218469086873251E-006
 -1.940000000000000E-002    4.686009748944566E-006
 -1.930000000000000E-002    5.191353799242217E-006
 -1.920000000000000E-002    5.736692219598868E-006
 -1.910000000000000E-002    6.324219759598635E-006
 -1.900000000000000E-002    6.956115893713354E-006
 -1.890000000000000E-002    7.634533074945973E-006
 -1.880000000000000E-002    8.361597920599553E-006
 -1.870000000000000E-002    9.139430073414485E-006
 -1.860000000000000E-002    9.970167231547286E-006
 -1.850000000000000E-002    1.085600873989960E-005
 -1.840000000000000E-002    1.179926420335835E-005
 -1.830000000000000E-002    1.280240513923594E-005
 -1.820000000000000E-002    1.386812511898726E-005
 -1.810000000000000E-002    1.499938401962739E-005
 -1.800000000000000E-002    1.619945258928038E-005
 -1.790000000000000E-002    1.747194286702974E-005
 -1.780000000000000E-002    1.882082316221186E-005
 -1.770000000000000E-002    2.025042056000117E-005
 -1.760000000000000E-002    2.176540979118286E-005
 -1.750000000000000E-002    2.337078202743196E-005
 -1.740000000000000E-002    2.507181932178661E-005
 -1.730000000000000E-002    2.687405829441088E-005
 -1.720000000000000E-002    2.878325453051752E-005
 -1.710000000000000E-002    3.080535402176903E-005
 -1.700000000000000E-002    3.294647057011509E-005
 -1.690000000000000E-002    3.521288890265731E-005
 -1.680000000000000E-002    3.761106961394813E-005
 -1.670000000000000E-002    4.014767881885567E-005
 -1.660000000000000E-002    4.282962728949588E-005
 -1.650000000000000E-002    4.566413036008714E-005
 -1.640000000000000E-002    4.865876807950415E-005
 -1.630000000000000E-002    5.182155912269501E-005
 -1.620000000000000E-002    5.516101909532451E-005
 -1.610000000000000E-002    5.868623039490574E-005
 -1.600000000000000E-002    6.240689559905417E-005
 -1.590000000000000E-002    6.633337841243377E-005
 -1.580000000000000E-002    7.047672482699268E-005
 -1.570000000000000E-002    7.484868377026664E-005
 -1.560000000000000E-002    7.946168478727795E-005
 -1.550000000000000E-002    8.432884281117466E-005
 -1.540000000000000E-002    8.946392336857036E-005
 -1.530000000000000E-002    9.488131576080081E-005
 -1.520000000000000E-002    1.005960054814392E-004
 -1.510000000000000E-002    1.066235513906968E-004
 -1.500000000000000E-002    1.129800737875761E-004
 -1.490000000000000E-002    1.196822595473172E-004
 -1.480000000000000E-002    1.267473867016698E-004
 -1.470000000000000E-002    1.341933562965959E-004
 -1.460000000000000E-002    1.420387422905971E-004
 -1.450000000000000E-002    1.503028869053705E-004
 -1.440000000000000E-002    1.590059598056732E-004
 -1.430000000000000E-002    1.681690731322050E-004
 -1.420000000000000E-002    1.778143804426191E-004
 -1.410000000000000E-002    1.879651732860483E-004
 -1.400000000000000E-002    1.986459770241916E-004
 -1.390000000000000E-002    2.098826611377910E-004
 -1.380000000000000E-002    2.217024733706913E-004
 -1.370000000000000E-002    2.341341393868137E-004
 -1.360000000000000E-002    2.472078633715007E-004
 -1.350000000000000E-002    2.609553979881717E-004
 -1.340000000000000E-002    2.754100077974170E-004
 -1.330000000000000E-002    2.906065100079650E-004
 -1.320000000000000E-002    3.065812072522778E-004
 -1.310000000000000E-002    3.233719470846237E-004
 -1.300000000000000E-002    3.410180778994736E-004
 -1.290000000000000E-002    3.595603775616409E-004
 -1.280000000000000E-002    3.790412274458325E-004
 -1.270000000000000E-002    3.995044526121145E-004
 -1.260000000000000E-002    4.209955379557450E-004
 -1.250000000000000E-002    4.435615965684058E-004
 -1.240000000000000E-002    4.672514590532118E-004
 -1.230000000000000E-002    4.921158999761930E-004
 -1.220000000000000E-002    5.182075771353182E-004
 -1.210000000000000E-002    5.455813046886968E-004
 -1.200000000000000E-002    5.742940939971609E-004
 -1.190000000000000E-002    6.044052712734353E-004
 -1.180000000000000E-002    6.359767046627135E-004
 -1.170000000000000E-002    6.690727116479058E-004
 -1.160000000000000E-002    7.037602118906908E-004
 -1.150000000000000E-002    7.401088337969536E-004
 -1.140000000000000E-002    7.781908116899881E-004
 -1.130000000000000E-002    8.180810859592340E-004
 -1.120000000000000E-002    8.598572300042168E-004
 -1.110000000000000E-002    9.035995279194359E-004
 -1.100000000000000E-002    9.493909705747147E-004
 -1.090000000000000E-002    9.973171707390674E-004
 -1.080000000000000E-002    1.047466496943536E-003
 -1.070000000000000E-002    1.099929961306933E-003
 -1.060000000000000E-002    1.154801620052174E-003
 -1.050000000000000E-002    1.212178423786474E-003
 -1.040000000000000E-002    1.272160335786994E-003
 -1.030000000000000E-002    1.334850737931592E-003
 -1.020000000000000E-002    1.400356352415808E-003
 -1.010000000000000E-002    1.468787585058879E-003
 -1.000000000000000E-002    1.540258763209003E-003
 -9.899999999999999E-003    1.614888034985056E-003
 -9.800000000000000E-003    1.692797942976915E-003
 -9.699999999999999E-003    1.774115071109747E-003
 -9.599999999999999E-003    1.858970443166950E-003
 -9.500000000000000E-003    1.947499479794748E-003
 -9.399999999999999E-003    2.039842021710139E-003
 -9.299999999999999E-003    2.136142203723505E-003
 -9.200000000000000E-003    2.236548534866686E-003
 -9.099999999999999E-003    2.341214131564834E-003
 -8.999999999999999E-003    2.450296156214473E-003
 -8.900000000000000E-003    2.563955998953300E-003
 -8.799999999999999E-003    2.682359583009053E-003
 -8.699999999999999E-003    2.805676973011464E-003
 -8.600000000000000E-003    2.934082987076215E-003
 -8.499999999999999E-003    3.067756427501958E-003
 -8.399999999999999E-003    3.206880968355123E-003
 -8.300000000000000E-003    3.351645144039868E-003
 -8.199999999999999E-003    3.502242310554327E-003
 -8.100000000000000E-003    3.658870846911192E-003
 -8.000000000000000E-003    3.821734207071595E-003
 -7.899999999999999E-003    3.991041376587083E-003
 -7.800000000000000E-003    4.167006553707215E-003
 -7.699999999999999E-003    4.349849201385814E-003
 -7.599999999999999E-003    4.539794583128869E-003
 -7.499999999999999E-003    4.737072868235132E-003
 -7.399999999999999E-003    4.941919825319148E-003
 -7.299999999999999E-003    5.154576454806017E-003
 -7.199999999999999E-003    5.375288798021998E-003
 -7.100000000000000E-003    5.604307528523476E-003
 -6.999999999999999E-003    5.841889034150552E-003
 -6.899999999999999E-003    6.088293621982744E-003
 -6.800000000000000E-003    6.343787197511667E-003
 -6.699999999999999E-003    6.608639989441012E-003
 -6.599999999999999E-003    6.883127421897865E-003
 -6.499999999999999E-003    7.167529237733295E-003
 -6.399999999999999E-003    7.462130164482299E-003
 -6.299999999999999E-003    7.767221003089052E-003
 -6.199999999999999E-003    8.083096277490039E-003
 -6.100000000000000E-003    8.410056431489678E-003
 -5.999999999999999E-003    8.748406537219070E-003
 -5.899999999999999E-003    9.098457159889722E-003
 -5.800000000000000E-003    9.460523745528695E-003
 -5.699999999999999E-003    9.834926156036421E-003
 -5.599999999999999E-003    1.022198919530964E-002
 -5.499999999999999E-003    1.062204241866321E-002
 -5.399999999999999E-003    1.103541979671459E-002
 -5.299999999999999E-003    1.146245804937695E-002
 -5.199999999999999E-003    1.190349791526225E-002
 -5.099999999999999E-003    1.235888298759081E-002
 -4.999999999999999E-003    1.282895985119530E-002
 -4.899999999999999E-003    1.331407801308877E-002
 -4.799999999999999E-003    1.381458861072466E-002
 -4.699999999999999E-003    1.433084431065099E-002
 -4.599999999999999E-003    1.486319951527125E-002
 -4.499999999999999E-003    1.541200872436371E-002
 -4.399999999999999E-003    1.597762973557997E-002
 -4.299999999999999E-003    1.656041909276449E-002
 -4.199999999999999E-003    1.716073502321157E-002
 -4.099999999999999E-003    1.777893385538002E-002
 -3.999999999999999E-003    1.841537519803076E-002
 -3.899999999999999E-003    1.907041547291823E-002
 -3.799999999999999E-003    1.974441000959811E-002
 -3.699999999999999E-003    2.043771539002233E-002
 -3.599999999999999E-003    2.115068443309614E-002
 -3.499999999999999E-003    2.188366700562539E-002
 -3.399999999999999E-003    2.263701178578722E-002
 -3.299999999999999E-003    2.341106419941258E-002
 -3.199999999999999E-003    2.420616599655712E-002
 -3.099999999999999E-003    2.502265163146779E-002
 -2.999999999999999E-003    2.586085424891719E-002
 -2.899999999999999E-003    2.672109712595953E-002
 -2.799999999999999E-003    2.760369994334299E-002
 -2.699999999999999E-003    2.850897344612363E-002
 -2.599999999999999E-003    2.943721830091475E-002
 -2.499999999999999E-003    3.038873055649368E-002
 -2.399999999999999E-003    3.136379261507018E-002
 -2.299999999999999E-003    3.236267867034477E-002
 -2.199999999999999E-003    3.338565070443521E-002
 -2.099999999999999E-003    3.443295952689455E-002
 -1.999999999999999E-003    3.550484254676591E-002
 -1.899999999999999E-003    3.660152075156196E-002
 -1.799999999999999E-003    3.772320520516394E-002
 -1.699999999999999E-003    3.887008696261293E-002
 -1.599999999999999E-003    4.004234283862552E-002
 -1.499999999999999E-003    4.124012894043207E-002
 -1.399999999999999E-003    4.246358781834030E-002
 -1.299999999999999E-003    4.371284150527302E-002
 -1.199999999999999E-003    4.498798864971380E-002
 -1.099999999999999E-003    4.628910753222875E-002
 -9.999999999999989E-004    4.761625675298983E-002
 -8.999999999999990E-004    4.896947162609888E-002
 -7.999999999999990E-004    5.034876179795304E-002
 -6.999999999999989E-004    5.175411313915817E-002
 -5.999999999999990E-004    5.318548316750082E-002
 -4.999999999999989E-004    5.464280612819371E-002
 -3.999999999999989E-004    5.612597761084907E-002
 -2.999999999999989E-004    5.763487278107082E-002
 -1.999999999999989E-004    5.916933466367100E-002
 -9.999999999999892E-005    6.072916649870672E-002
  1.084202172485504E-018    6.231414622810399E-002
  1.000000000000011E-004    6.392401349162652E-002
  2.000000000000011E-004    6.555847371205123E-002
  3.000000000000011E-004    6.721718711255213E-002
  4.000000000000011E-004    6.889978779727850E-002
  5.000000000000011E-004    7.060585707218300E-002
  6.000000000000011E-004    7.233495405397392E-002
  7.000000000000011E-004    7.408657778067816E-002
  8.000000000000011E-004    7.586019160557890E-002
  9.000000000000012E-004    7.765521625470849E-002
  1.000000000000001E-003    7.947103299931411E-002
  1.100000000000001E-003    8.130696200995612E-002
  1.200000000000001E-003    8.316228766794680E-002
  1.300000000000001E-003    8.503623526076705E-002
  1.400000000000001E-003    8.692798941130220E-002
  1.500000000000001E-003    8.883668346180618E-002
  1.600000000000001E-003    9.076139192932364E-002
  1.700000000000001E-003    9.270113330381050E-002
  1.800000000000001E-003    9.465488804844834E-002
  1.900000000000001E-003    9.662156671925809E-002
  2.000000000000001E-003    9.860002326812474E-002
  2.100000000000001E-003    0.100589060201792     
  2.200000000000001E-003    0.102587419471623     
  2.300000000000001E-003    0.104593779227554     
  2.400000000000001E-003    0.106606766784826     
  2.500000000000001E-003    0.108624935653511     
  2.600000000000001E-003    0.110646793516120     
  2.700000000000001E-003    0.112670767144897     
  2.800000000000001E-003    0.114695240161010     
  2.900000000000001E-003    0.116718518037694     
  3.000000000000001E-003    0.118738850848359     
  3.100000000000001E-003    0.120754420232595     
  3.200000000000001E-003    0.122763338765782     
  3.300000000000001E-003    0.124763658658401     
  3.400000000000001E-003    0.126753364058105     
  3.500000000000001E-003    0.128730379394937     
  3.600000000000001E-003    0.130692555558170     
  3.700000000000001E-003    0.132637664724418     
  3.800000000000001E-003    0.134563434050985     
  3.900000000000001E-003    0.136467507450777     
  4.000000000000001E-003    0.138347465423193     
  4.100000000000001E-003    0.140200836612393     
  4.200000000000001E-003    0.142025055928505     
  4.300000000000001E-003    0.143817521838374     
  4.400000000000001E-003    0.145575551078915     
  4.500000000000001E-003    0.147296394358032     
  4.600000000000002E-003    0.148977247925929     
  4.700000000000001E-003    0.150615231781033     
  4.800000000000001E-003    0.152207419559583     
  4.900000000000002E-003    0.153750812811710     
  5.000000000000001E-003    0.155242351930637     
  5.100000000000001E-003    0.156678908914621     
  5.200000000000001E-003    0.158057327869223     
  5.300000000000002E-003    0.159374358705577     
  5.400000000000001E-003    0.160626720347141     
  5.500000000000001E-003    0.161811060311492     
  5.600000000000002E-003    0.162923990772221     
  5.700000000000001E-003    0.163962045167002     
  5.800000000000001E-003    0.164921740863252     
  5.900000000000002E-003    0.165799534760306     
  6.000000000000001E-003    0.166591832446524     
  6.100000000000001E-003    0.167295001565465     
  6.200000000000002E-003    0.167905384387438     
  6.300000000000002E-003    0.168419266384177     
  6.400000000000001E-003    0.168832902144675     
  6.500000000000001E-003    0.169142527198605     
  6.600000000000002E-003    0.169344331305737     
  6.700000000000001E-003    0.169434498068875     
  6.800000000000001E-003    0.169409165324121     
  6.900000000000002E-003    0.169264453964016     
  7.000000000000001E-003    0.168996496209821     
  7.100000000000001E-003    0.168601376652673     
  7.200000000000002E-003    0.168075181435318     
  7.300000000000002E-003    0.167413994713129     
  7.400000000000001E-003    0.166613894149859     
  7.500000000000001E-003    0.165670962267524     
  7.600000000000002E-003    0.164581285027464     
  7.700000000000001E-003    0.163340968131686     
  7.800000000000001E-003    0.161946107408550     
  7.900000000000001E-003    0.160392829076391     
  8.000000000000002E-003    0.158677304141262     
  8.100000000000001E-003    0.156795701528596     
  8.200000000000001E-003    0.154744232218588     
  8.300000000000002E-003    0.152519144724093     
  8.400000000000001E-003    0.150116728143146     
  8.500000000000002E-003    0.147533326889358     
  8.600000000000002E-003    0.144765311540896     
  8.700000000000001E-003    0.141809143557562     
  8.800000000000002E-003    0.138661307873244     
  8.900000000000002E-003    0.135318374499376     
  9.000000000000001E-003    0.131776975750072     
  9.100000000000002E-003    0.128033828823674     
  9.200000000000002E-003    0.124085737205751     
  9.300000000000001E-003    0.119929579695046     
  9.400000000000002E-003    0.115562313972345     
  9.500000000000001E-003    0.110981025507280     
  9.600000000000001E-003    0.106182884225063     
  9.700000000000002E-003    0.101165168766282     
  9.800000000000001E-003    9.592527447220640E-002
  9.900000000000001E-003    9.046071597467183E-002
  1.000000000000000E-002    8.476913093736849E-002
  1.010000000000000E-002    7.884828540913870E-002
  1.020000000000000E-002    7.269608127294959E-002
  1.030000000000000E-002    6.631056939971887E-002
  1.040000000000000E-002    5.968993305367371E-002
  1.050000000000000E-002    5.283250837227127E-002
  1.060000000000000E-002    4.573678984201523E-002
  1.070000000000000E-002    3.840143677955028E-002
  1.080000000000000E-002    3.082526622900098E-002
  1.090000000000000E-002    2.300727021056845E-002
  1.100000000000000E-002    1.494661807754221E-002
  1.110000000000000E-002    6.642656066897777E-003
  1.120000000000000E-002   -1.905080031654570E-003
  1.130000000000000E-002   -1.069687232972004E-002
  1.140000000000000E-002   -1.973280197235035E-002
  1.150000000000000E-002   -2.901275440681289E-002
  1.160000000000000E-002   -3.853641277951175E-002
  1.170000000000000E-002   -4.830324859968145E-002
  1.180000000000000E-002   -5.831252150576946E-002
  1.190000000000000E-002   -6.856328407071245E-002
  1.200000000000000E-002   -7.905436576690822E-002
  1.210000000000000E-002   -8.978436783091343E-002
  1.220000000000000E-002   -0.100751678423405     
  1.230000000000000E-002   -0.111954452607517     
  1.240000000000000E-002   -0.123390605757678     
  1.250000000000000E-002   -0.135057836457060     
  1.260000000000000E-002   -0.146953583815724     
  1.270000000000000E-002   -0.159075066938125     
  1.280000000000000E-002   -0.171419267107529     
  1.290000000000000E-002   -0.183982910204804     
  1.300000000000000E-002   -0.196762475433231     
  1.310000000000000E-002   -0.209754190966612     
  1.320000000000000E-002   -0.222954079631628     
  1.330000000000000E-002   -0.236357869788098     
  1.340000000000000E-002   -0.249961052048459     
  1.350000000000000E-002   -0.263758871455588     
  1.360000000000000E-002   -0.277746333308457     
  1.370000000000000E-002   -0.291918197862387     
  1.380000000000000E-002   -0.306268942858135     
  1.390000000000000E-002   -0.320792817686352     
  1.400000000000000E-002   -0.335483834202029     
  1.410000000000000E-002   -0.350335744458874     
  1.420000000000000E-002   -0.365342058151047     
  1.430000000000000E-002   -0.380496042318853     
  1.440000000000000E-002   -0.395790737216000     
  1.450000000000000E-002   -0.411218926440102     
  1.460000000000000E-002   -0.426773141519178     
  1.470000000000000E-002   -0.442445722800966     
  1.480000000000000E-002   -0.458228745323289     
  1.490000000000000E-002   -0.474114107241539     
  1.500000000000000E-002   -0.490093421773992     
  1.510000000000000E-002   -0.506158148287976     
  1.520000000000000E-002   -0.522299469227812     
  1.530000000000000E-002   -0.538508399175811     
  1.540000000000000E-002   -0.554775742610102     
  1.550000000000000E-002   -0.571092108222030     
  1.560000000000000E-002   -0.587447853806910     
  1.570000000000000E-002   -0.603833236987637     
  1.580000000000000E-002   -0.620238309798419     
  1.590000000000000E-002   -0.636652909207466     
  1.600000000000000E-002   -0.653066714392830     
  1.610000000000000E-002   -0.669469296548593     
  1.620000000000000E-002   -0.685849980972436     
  1.630000000000000E-002   -0.702198063177508     
  1.640000000000000E-002   -0.718502564439812     
  1.650000000000000E-002   -0.734752483023728     
  1.660000000000000E-002   -0.750936664485490     
  1.670000000000000E-002   -0.767043844033720     
  1.680000000000000E-002   -0.783062596610008     
  1.690000000000000E-002   -0.798981439002106     
  1.700000000000000E-002   -0.814788794834485     
  1.710000000000000E-002   -0.830473077188749     
  1.720000000000000E-002   -0.846022547815591     
  1.730000000000000E-002   -0.861425381303227     
  1.740000000000000E-002   -0.876669768538729     
  1.750000000000000E-002   -0.891743847354762     
  1.760000000000000E-002   -0.906635733298470     
  1.770000000000000E-002   -0.921333477133750     
  1.780000000000000E-002   -0.935825126583505     
  1.790000000000000E-002   -0.950098772380853     
  1.800000000000000E-002   -0.964142494028121     
  1.810000000000000E-002   -0.977944390953006     
  1.820000000000000E-002   -0.991492563927731     
  1.830000000000000E-002    -1.00477519350592     
  1.840000000000000E-002    -1.01778045062490     
  1.850000000000000E-002    -1.03049663513539     
  1.860000000000000E-002    -1.04291221661082     
  1.870000000000000E-002    -1.05501552916967     