 -4.000000000000000E-002    0.000000000000000E+000
 -3.990000000000000E-002    0.000000000000000E+000
 -3.980000000000000E-002    0.000000000000000E+000
 -3.970000000000000E-002    0.000000000000000E+000
 -3.960000000000000E-002    0.000000000000000E+000
 -3.950000000000000E-002    0.000000000000000E+000
 -3.940000000000000E-002    0.000000000000000E+000
 -3.930000000000000E-002    0.000000000000000E+000
 -3.920000000000000E-002    0.000000000000000E+000
 -3.910000000000000E-002    0.000000000000000E+000
 -3.900000000000000E-002    0.000000000000000E+000
 -3.890000000000000E-002    0.000000000000000E+000
 -3.880000000000000E-002    0.000000000000000E+000
 -3.870000000000000E-002    0.000000000000000E+000
 -3.860000000000000E-002    0.000000000000000E+000
 -3.850000000000000E-002    0.000000000000000E+000
 -3.840000000000000E-002    0.000000000000000E+000
 -3.830000000000000E-002    0.000000000000000E+000
 -3.820000000000000E-002    0.000000000000000E+000
 -3.810000000000000E-002    0.000000000000000E+000
 -3.800000000000000E-002    0.000000000000000E+000
 -3.790000000000000E-002    0.000000000000000E+000
 -3.780000000000000E-002    0.000000000000000E+000
 -3.770000000000000E-002    0.000000000000000E+000
 -3.760000000000000E-002    0.000000000000000E+000
 -3.750000000000000E-002    0.000000000000000E+000
 -3.740000000000000E-002    0.000000000000000E+000
 -3.730000000000000E-002    0.000000000000000E+000
 -3.720000000000000E-002    0.000000000000000E+000
 -3.710000000000000E-002    0.000000000000000E+000
 -3.700000000000000E-002    0.000000000000000E+000
 -3.690000000000000E-002    0.000000000000000E+000
 -3.680000000000000E-002    0.000000000000000E+000
 -3.670000000000000E-002    0.000000000000000E+000
 -3.660000000000000E-002    0.000000000000000E+000
 -3.650000000000000E-002    0.000000000000000E+000
 -3.640000000000000E-002    0.000000000000000E+000
 -3.630000000000000E-002    0.000000000000000E+000
 -3.620000000000000E-002    0.000000000000000E+000
 -3.610000000000000E-002    0.000000000000000E+000
 -3.600000000000000E-002    0.000000000000000E+000
 -3.590000000000000E-002    0.000000000000000E+000
 -3.580000000000000E-002    0.000000000000000E+000
 -3.570000000000000E-002    0.000000000000000E+000
 -3.560000000000000E-002    0.000000000000000E+000
 -3.550000000000000E-002    0.000000000000000E+000
 -3.540000000000000E-002    0.000000000000000E+000
 -3.530000000000000E-002    0.000000000000000E+000
 -3.520000000000000E-002    0.000000000000000E+000
 -3.510000000000000E-002    0.000000000000000E+000
 -3.500000000000000E-002    0.000000000000000E+000
 -3.490000000000000E-002    0.000000000000000E+000
 -3.480000000000000E-002    0.000000000000000E+000
 -3.470000000000000E-002    0.000000000000000E+000
 -3.460000000000000E-002    0.000000000000000E+000
 -3.450000000000000E-002    0.000000000000000E+000
 -3.440000000000000E-002    0.000000000000000E+000
 -3.430000000000000E-002    0.000000000000000E+000
 -3.420000000000000E-002    0.000000000000000E+000
 -3.410000000000000E-002    0.000000000000000E+000
 -3.400000000000000E-002    0.000000000000000E+000
 -3.390000000000000E-002    0.000000000000000E+000
 -3.380000000000000E-002    0.000000000000000E+000
 -3.370000000000000E-002    0.000000000000000E+000
 -3.360000000000000E-002    0.000000000000000E+000
 -3.350000000000000E-002    0.000000000000000E+000
 -3.340000000000000E-002    0.000000000000000E+000
 -3.330000000000000E-002    0.000000000000000E+000
 -3.320000000000000E-002    0.000000000000000E+000
 -3.310000000000000E-002    0.000000000000000E+000
 -3.300000000000000E-002    0.000000000000000E+000
 -3.290000000000000E-002    0.000000000000000E+000
 -3.280000000000000E-002    0.000000000000000E+000
 -3.270000000000000E-002    0.000000000000000E+000
 -3.260000000000000E-002    0.000000000000000E+000
 -3.250000000000000E-002    0.000000000000000E+000
 -3.240000000000000E-002    0.000000000000000E+000
 -3.230000000000000E-002    0.000000000000000E+000
 -3.220000000000000E-002    0.000000000000000E+000
 -3.210000000000000E-002    0.000000000000000E+000
 -3.200000000000000E-002    0.000000000000000E+000
 -3.190000000000000E-002    0.000000000000000E+000
 -3.180000000000000E-002    0.000000000000000E+000
 -3.170000000000000E-002    0.000000000000000E+000
 -3.160000000000000E-002    0.000000000000000E+000
 -3.150000000000000E-002    0.000000000000000E+000
 -3.140000000000000E-002    0.000000000000000E+000
 -3.130000000000000E-002    0.000000000000000E+000
 -3.120000000000000E-002    0.000000000000000E+000
 -3.110000000000000E-002    0.000000000000000E+000
 -3.100000000000000E-002    0.000000000000000E+000
 -3.090000000000000E-002    0.000000000000000E+000
 -3.080000000000000E-002    0.000000000000000E+000
 -3.070000000000000E-002    0.000000000000000E+000
 -3.060000000000000E-002    0.000000000000000E+000
 -3.050000000000000E-002    0.000000000000000E+000
 -3.040000000000000E-002    0.000000000000000E+000
 -3.030000000000000E-002    0.000000000000000E+000
 -3.020000000000000E-002    0.000000000000000E+000
 -3.010000000000000E-002    0.000000000000000E+000
 -3.000000000000000E-002    0.000000000000000E+000
 -2.990000000000000E-002    0.000000000000000E+000
 -2.980000000000000E-002    0.000000000000000E+000
 -2.970000000000000E-002    0.000000000000000E+000
 -2.960000000000000E-002    0.000000000000000E+000
 -2.950000000000000E-002    0.000000000000000E+000
 -2.940000000000000E-002    0.000000000000000E+000
 -2.930000000000000E-002    0.000000000000000E+000
 -2.920000000000000E-002    0.000000000000000E+000
 -2.910000000000000E-002    0.000000000000000E+000
 -2.900000000000000E-002    0.000000000000000E+000
 -2.890000000000000E-002    0.000000000000000E+000
 -2.880000000000000E-002    0.000000000000000E+000
 -2.870000000000000E-002    0.000000000000000E+000
 -2.860000000000000E-002    0.000000000000000E+000
 -2.850000000000000E-002    0.000000000000000E+000
 -2.840000000000000E-002    0.000000000000000E+000
 -2.830000000000000E-002    0.000000000000000E+000
 -2.820000000000000E-002    0.000000000000000E+000
 -2.810000000000000E-002    0.000000000000000E+000
 -2.800000000000000E-002    0.000000000000000E+000
 -2.790000000000000E-002    0.000000000000000E+000
 -2.780000000000000E-002    0.000000000000000E+000
 -2.770000000000000E-002    0.000000000000000E+000
 -2.760000000000000E-002    0.000000000000000E+000
 -2.750000000000000E-002    0.000000000000000E+000
 -2.740000000000000E-002    0.000000000000000E+000
 -2.730000000000000E-002    0.000000000000000E+000
 -2.720000000000000E-002    0.000000000000000E+000
 -2.710000000000000E-002    0.000000000000000E+000
 -2.700000000000000E-002    0.000000000000000E+000
 -2.690000000000000E-002    0.000000000000000E+000
 -2.680000000000000E-002    0.000000000000000E+000
 -2.670000000000000E-002    0.000000000000000E+000
 -2.660000000000000E-002    0.000000000000000E+000
 -2.650000000000000E-002    0.000000000000000E+000
 -2.640000000000000E-002    0.000000000000000E+000
 -2.630000000000000E-002    0.000000000000000E+000
 -2.620000000000000E-002    0.000000000000000E+000
 -2.610000000000000E-002    0.000000000000000E+000
 -2.600000000000000E-002    0.000000000000000E+000
 -2.590000000000000E-002    0.000000000000000E+000
 -2.580000000000000E-002    0.000000000000000E+000
 -2.570000000000000E-002    0.000000000000000E+000
 -2.560000000000000E-002    0.000000000000000E+000
 -2.550000000000000E-002    0.000000000000000E+000
 -2.540000000000000E-002    0.000000000000000E+000
 -2.530000000000000E-002    0.000000000000000E+000
 -2.520000000000000E-002    0.000000000000000E+000
 -2.510000000000000E-002    0.000000000000000E+000
 -2.500000000000000E-002    0.000000000000000E+000
 -2.490000000000000E-002    0.000000000000000E+000
 -2.480000000000000E-002    0.000000000000000E+000
 -2.470000000000000E-002    0.000000000000000E+000
 -2.460000000000000E-002    0.000000000000000E+000
 -2.450000000000000E-002    0.000000000000000E+000
 -2.440000000000000E-002    0.000000000000000E+000
 -2.430000000000000E-002    0.000000000000000E+000
 -2.420000000000000E-002    0.000000000000000E+000
 -2.410000000000000E-002    0.000000000000000E+000
 -2.400000000000000E-002    0.000000000000000E+000
 -2.390000000000000E-002    0.000000000000000E+000
 -2.380000000000000E-002    0.000000000000000E+000
 -2.370000000000000E-002    0.000000000000000E+000
 -2.360000000000000E-002    0.000000000000000E+000
 -2.350000000000000E-002    0.000000000000000E+000
 -2.340000000000000E-002    0.000000000000000E+000
 -2.330000000000000E-002    0.000000000000000E+000
 -2.320000000000000E-002    0.000000000000000E+000
 -2.310000000000000E-002    0.000000000000000E+000
 -2.300000000000000E-002    0.000000000000000E+000
 -2.290000000000000E-002    0.000000000000000E+000
 -2.280000000000000E-002    0.000000000000000E+000
 -2.270000000000000E-002    0.000000000000000E+000
 -2.260000000000000E-002    0.000000000000000E+000
 -2.250000000000000E-002    0.000000000000000E+000
 -2.240000000000000E-002    0.000000000000000E+000
 -2.230000000000000E-002    0.000000000000000E+000
 -2.220000000000000E-002    0.000000000000000E+000
 -2.210000000000000E-002    0.000000000000000E+000
 -2.200000000000000E-002    0.000000000000000E+000
 -2.190000000000000E-002    0.000000000000000E+000
 -2.180000000000000E-002    0.000000000000000E+000
 -2.170000000000000E-002    0.000000000000000E+000
 -2.160000000000000E-002    0.000000000000000E+000
 -2.150000000000000E-002    0.000000000000000E+000
 -2.140000000000000E-002    0.000000000000000E+000
 -2.130000000000000E-002    0.000000000000000E+000
 -2.120000000000000E-002    0.000000000000000E+000
 -2.110000000000000E-002    0.000000000000000E+000
 -2.100000000000000E-002    0.000000000000000E+000
 -2.090000000000000E-002    0.000000000000000E+000
 -2.080000000000000E-002    0.000000000000000E+000
 -2.070000000000000E-002    0.000000000000000E+000
 -2.060000000000000E-002    0.000000000000000E+000
 -2.050000000000000E-002    0.000000000000000E+000
 -2.040000000000000E-002    0.000000000000000E+000
 -2.030000000000000E-002    0.000000000000000E+000
 -2.020000000000000E-002    0.000000000000000E+000
 -2.010000000000000E-002    0.000000000000000E+000
 -2.000000000000000E-002    0.000000000000000E+000
 -1.990000000000000E-002    0.000000000000000E+000
 -1.980000000000000E-002    0.000000000000000E+000
 -1.970000000000000E-002    0.000000000000000E+000
 -1.960000000000000E-002    0.000000000000000E+000
 -1.950000000000000E-002    0.000000000000000E+000
 -1.940000000000000E-002    0.000000000000000E+000
 -1.930000000000000E-002    0.000000000000000E+000
 -1.920000000000000E-002    0.000000000000000E+000
 -1.910000000000000E-002    0.000000000000000E+000
 -1.900000000000000E-002    0.000000000000000E+000
 -1.890000000000000E-002    0.000000000000000E+000
 -1.880000000000000E-002    0.000000000000000E+000
 -1.870000000000000E-002    0.000000000000000E+000
 -1.860000000000000E-002    0.000000000000000E+000
 -1.850000000000000E-002    0.000000000000000E+000
 -1.840000000000000E-002    0.000000000000000E+000
 -1.830000000000000E-002    0.000000000000000E+000
 -1.820000000000000E-002    0.000000000000000E+000
 -1.810000000000000E-002    0.000000000000000E+000
 -1.800000000000000E-002    0.000000000000000E+000
 -1.790000000000000E-002    0.000000000000000E+000
 -1.780000000000000E-002    0.000000000000000E+000
 -1.770000000000000E-002    0.000000000000000E+000
 -1.760000000000000E-002    0.000000000000000E+000
 -1.750000000000000E-002    0.000000000000000E+000
 -1.740000000000000E-002    0.000000000000000E+000
 -1.730000000000000E-002    0.000000000000000E+000
 -1.720000000000000E-002    0.000000000000000E+000
 -1.710000000000000E-002    0.000000000000000E+000
 -1.700000000000000E-002    0.000000000000000E+000
 -1.690000000000000E-002    0.000000000000000E+000
 -1.680000000000000E-002    0.000000000000000E+000
 -1.670000000000000E-002    0.000000000000000E+000
 -1.660000000000000E-002    0.000000000000000E+000
 -1.650000000000000E-002    0.000000000000000E+000
 -1.640000000000000E-002    4.795886367264270E-048
 -1.630000000000000E-002    9.591772734528541E-048
 -1.620000000000000E-002    1.438765910179281E-047
 -1.610000000000000E-002    1.438765910179281E-047
 -1.600000000000000E-002    1.438765910179281E-047
 -1.590000000000000E-002    7.956811500044375E-048
 -1.580000000000000E-002   -3.269922468968332E-048
 -1.570000000000000E-002    1.079231523313238E-047
 -1.560000000000000E-002   -1.659094935463368E-047
 -1.550000000000000E-002   -5.194357849365823E-048
 -1.540000000000000E-002   -1.018872246502272E-047
 -1.530000000000000E-002   -1.851247610246413E-047
 -1.520000000000000E-002    4.509873601471975E-048
 -1.510000000000000E-002    2.006929709406021E-047
 -1.500000000000000E-002   -4.220979913698415E-047
 -1.490000000000000E-002   -6.357396034843003E-047
 -1.480000000000000E-002   -3.337612296001728E-047
 -1.470000000000000E-002   -4.481911265821135E-047
 -1.460000000000000E-002   -3.662234838528328E-047
 -1.450000000000000E-002   -1.891279819735151E-047
 -1.440000000000000E-002    1.159291240176989E-046
 -1.430000000000000E-002    2.626211608664937E-046
 -1.420000000000000E-002    5.138468858468542E-046
 -1.410000000000000E-002    7.800431225118798E-046
 -1.400000000000000E-002    1.266101315865587E-045
 -1.390000000000000E-002    1.505705893242100E-045
 -1.380000000000000E-002    1.874096357109569E-045
 -1.370000000000000E-002    1.910814447455268E-045
 -1.360000000000000E-002    1.853437162342699E-045
 -1.350000000000000E-002    1.800879333951966E-045
 -1.340000000000000E-002    1.164100588146998E-045
 -1.330000000000000E-002   -8.456135202158636E-046
 -1.320000000000000E-002   -3.254852167098221E-045
 -1.310000000000000E-002   -6.348618920762678E-045
 -1.300000000000000E-002   -1.006659919748065E-044
 -1.290000000000000E-002   -1.376774957159387E-044
 -1.280000000000000E-002   -1.730736214036275E-044
 -1.270000000000000E-002   -1.975570318143441E-044
 -1.260000000000000E-002   -2.066483906658046E-044
 -1.250000000000000E-002   -1.826452782244991E-044
 -1.240000000000000E-002   -1.192944463953751E-044
 -1.230000000000000E-002   -3.455350950240554E-046
 -1.220000000000000E-002    1.700431787507534E-044
 -1.210000000000000E-002    4.034900667594711E-044
 -1.200000000000000E-002    6.948390671444806E-044
 -1.190000000000000E-002    1.023865731430070E-043
 -1.180000000000000E-002    1.361539035117450E-043
 -1.170000000000000E-002    1.646986578934548E-043
 -1.160000000000000E-002    1.799538281325971E-043
 -1.150000000000000E-002    1.747903872975695E-043
 -1.140000000000000E-002    1.379810211962287E-043
 -1.130000000000000E-002    5.961460594494528E-044
 -1.120000000000000E-002   -6.770781127070349E-044
 -1.110000000000000E-002   -2.485882563742385E-043
 -1.100000000000000E-002   -4.802977280175805E-043
 -1.090000000000000E-002   -7.506617558614354E-043
 -1.080000000000000E-002   -1.035869919441005E-042
 -1.070000000000000E-002   -1.296578258501100E-042
 -1.060000000000000E-002   -1.480369051851429E-042
 -1.050000000000000E-002   -1.518390352625914E-042
 -1.040000000000000E-002   -1.335687852435291E-042
 -1.030000000000000E-002   -8.521316134297288E-043
 -1.020000000000000E-002    3.216843277527026E-046
 -1.010000000000000E-002    1.266212188866968E-042
 -1.000000000000000E-002    2.944660183741862E-042
 -9.899999999999999E-003    4.969349528885621E-042
 -9.800000000000000E-003    7.187897606404161E-042
 -9.699999999999999E-003    9.348357130421047E-042
 -9.599999999999999E-003    1.108648050680021E-041
 -9.500000000000000E-003    1.193544993599014E-041
 -9.399999999999999E-003    1.134744932121370E-041
 -9.299999999999999E-003    8.744955715700555E-042
 -9.200000000000000E-003    3.593191842593917E-042
 -9.099999999999999E-003   -4.494396909789802E-042
 -8.999999999999999E-003   -1.563069979957348E-041
 -8.900000000000000E-003   -2.951707224811425E-041
 -8.799999999999999E-003   -4.529657636172504E-041
 -8.699999999999999E-003   -6.143973086127356E-041
 -8.600000000000000E-003   -7.567504201110610E-041
 -8.499999999999999E-003   -8.500378486160812E-041
 -8.399999999999999E-003   -8.583039675805561E-041
 -8.300000000000000E-003   -7.424474668840568E-041
 -8.199999999999999E-003   -4.646824964777266E-041
 -8.100000000000000E-003    5.191159245033480E-043
 -8.000000000000000E-003    6.819852924505692E-041
 -7.899999999999999E-003    1.556245453703716E-040
 -7.800000000000000E-003    2.585198321184946E-040
 -7.699999999999999E-003    3.684776966214284E-040
 -7.599999999999999E-003    4.724428665917552E-040
 -7.499999999999999E-003    5.526550900450989E-040
 -7.399999999999999E-003    5.872646320231696E-040
 -7.299999999999999E-003    5.518115541984878E-040
 -7.199999999999999E-003    4.216976041181389E-040
 -7.100000000000000E-003    1.757106970437018E-040
 -6.999999999999999E-003   -1.994942304385470E-040
 -6.899999999999999E-003   -7.042102742058476E-040
 -6.800000000000000E-003   -1.320262622502436E-039
 -6.699999999999999E-003   -2.006065200531264E-039
 -6.599999999999999E-003   -2.693028831174384E-039
 -6.499999999999999E-003   -3.284409513859765E-039
 -6.399999999999999E-003   -3.657719472073137E-039
 -6.299999999999999E-003   -3.671773994720942E-039
 -6.199999999999999E-003   -3.179189727655682E-039
 -6.100000000000000E-003   -2.044704938009010E-039
 -5.999999999999999E-003   -1.689882307609586E-040
 -5.899999999999999E-003    2.483315115803969E-039
 -5.800000000000000E-003    5.853607699064598E-039
 -5.699999999999999E-003    9.760921671629745E-039
 -5.599999999999999E-003    1.387964772629041E-038
 -5.499999999999999E-003    1.772884545272462E-038
 -5.399999999999999E-003    2.067905393612781E-038
 -5.299999999999999E-003    2.198217762411132E-038
 -5.199999999999999E-003    2.082897183999633E-038
 -5.099999999999999E-003    1.643642997011605E-038
 -4.999999999999999E-003    8.164076754428650E-039
 -4.899999999999999E-003   -4.346161198003161E-039
 -4.799999999999999E-003   -2.101710511624965E-038
 -4.699999999999999E-003   -4.118662261324850E-038
 -4.599999999999999E-003   -6.348256936866138E-038
 -4.499999999999999E-003   -8.574826711070887E-038
 -4.399999999999999E-003   -1.050465529143632E-037
 -4.299999999999999E-003   -1.177697213599728E-037
 -4.199999999999999E-003   -1.198777085724357E-037
 -4.099999999999999E-003   -1.072778076695173E-037
 -3.999999999999999E-003   -7.634361534899883E-038
 -3.899999999999999E-003   -2.455284506407538E-038
 -3.799999999999999E-003    4.880065089255852E-038
 -3.699999999999999E-003    1.418893586183652E-037
 -3.599999999999999E-003    2.497221397597784E-037
 -3.499999999999999E-003    3.637143508899073E-037
 -3.399999999999999E-003    4.715804392235001E-037
 -3.299999999999999E-003    5.576708834153444E-037
 -3.199999999999999E-003    6.038531221150175E-037
 -3.099999999999999E-003    5.910013376232096E-037
 -2.999999999999999E-003    5.010960413511286E-037
 -2.899999999999999E-003    3.198571695822365E-037
 -2.799999999999999E-003    3.974166649948656E-038
 -2.699999999999999E-003   -3.369675065115310E-037
 -2.599999999999999E-003   -7.953484556503961E-037
 -2.499999999999999E-003   -1.305748432967936E-036
 -2.399999999999999E-003   -1.822901944558387E-036
 -2.299999999999999E-003   -2.286734788576141E-036
 -2.199999999999999E-003   -2.625265040270580E-036
 -2.099999999999999E-003   -2.759851207178528E-036
 -1.999999999999999E-003   -2.612812602549973E-036
 -1.899999999999999E-003   -2.117159309020792E-036
 -1.799999999999999E-003   -1.227803973622111E-036
 -1.699999999999999E-003    6.672579818071191E-038
 -1.599999999999999E-003    1.733406229403350E-036
 -1.499999999999999E-003    3.686264891500735E-036
 -1.399999999999999E-003    5.782066207105415E-036
 -1.299999999999999E-003    7.821829216128058E-036
 -1.199999999999999E-003    9.559494697618705E-036
 -1.099999999999999E-003    1.071859523442692E-035
 -9.999999999999989E-004    1.101687551107310E-035
 -8.999999999999990E-004    1.019786376478053E-035
 -7.999999999999990E-004    8.067159736508995E-036
 -6.999999999999989E-004    4.530082440768054E-036
 -5.999999999999990E-004   -3.737270728287134E-037
 -4.999999999999989E-004   -6.443820951842429E-036
 -3.999999999999989E-004   -1.330580669564834E-035
 -2.999999999999989E-004   -2.041636392166175E-035
 -1.999999999999989E-004   -2.708976370834152E-035
 -9.999999999999892E-005   -3.254730168265237E-035
  1.084202172485504E-018   -3.598814706268059E-035
  1.000000000000011E-004   -3.667683790517718E-035
  2.000000000000011E-004   -3.403923051667229E-035
  3.000000000000011E-004   -2.775557009356642E-035
  4.000000000000011E-004   -1.783733561895191E-035
  5.000000000000011E-004   -4.673574124298811E-036
  6.000000000000011E-004    1.096582679648030E-035
  7.000000000000011E-004    2.797933815565882E-035
  8.000000000000011E-004    4.503800845863845E-035
  9.000000000000012E-004    6.073963219003619E-035
  1.000000000000001E-003    7.379743629829562E-035
  1.100000000000001E-003    8.323850745571785E-035
  1.200000000000001E-003    8.857763888686094E-035
  1.300000000000001E-003    8.992737013774040E-035
  1.400000000000001E-003    8.800450910952787E-035
  1.500000000000001E-003    8.399973804065810E-035
  1.600000000000001E-003    7.929154961905521E-035
  1.700000000000001E-003    7.500872504193350E-035
  1.800000000000001E-003    7.147638873682786E-035
  1.900000000000001E-003    6.761440455407598E-035
  2.000000000000001E-003    6.039454768541324E-035
  2.100000000000001E-003    4.449090107699718E-035
  2.200000000000001E-003    1.227862109985044E-035
  2.300000000000001E-003   -4.566794691661026E-035
  2.400000000000001E-003   -1.394514143339629E-034
  2.500000000000001E-003   -2.780392963014433E-034
  2.600000000000001E-003   -4.667896151830944E-034
  2.700000000000001E-003   -7.044682436705323E-034
  2.800000000000001E-003   -9.800542669316435E-034
  2.900000000000001E-003   -1.269788037233452E-033
  3.000000000000001E-003   -1.535053080027294E-033
  3.100000000000001E-003   -1.721781295453460E-033
  3.200000000000001E-003   -1.762106017132683E-033
  3.300000000000001E-003   -1.578907053182951E-033
  3.400000000000001E-003   -1.093706785498697E-033
  3.500000000000001E-003   -2.380255114687628E-034
  3.600000000000001E-003    1.032154643872456E-033
  3.700000000000001E-003    2.719774837946535E-033
  3.800000000000001E-003    4.769564087553661E-033
  3.900000000000001E-003    7.052662478298557E-033
  4.000000000000001E-003    9.355887989479890E-033
  4.100000000000001E-003    1.137886968334934E-032
  4.200000000000001E-003    1.274234369237752E-032
  4.300000000000001E-003    1.301045180261594E-032
  4.400000000000001E-003    1.172897770530233E-032
  4.500000000000001E-003    8.479841755325247E-033
  4.600000000000002E-003    2.950195948970332E-033
  4.700000000000001E-003   -4.988328104255989E-033
  4.800000000000001E-003   -1.519729305435026E-032
  4.900000000000002E-003   -2.719609431461589E-032
  5.000000000000001E-003   -4.010591011653903E-032
  5.100000000000001E-003   -5.262690189750602E-032
  5.200000000000001E-003   -6.306256384244045E-032
  5.300000000000002E-003   -6.940366686717797E-032
  5.400000000000001E-003   -6.948019319534528E-032
  5.500000000000001E-003   -6.118346658786827E-032
  5.600000000000002E-003   -4.275250783687219E-032
  5.700000000000001E-003   -1.310809783602015E-032
  5.800000000000001E-003    2.779319013062708E-032
  5.900000000000002E-003    7.862360066695547E-032
  6.000000000000001E-003    1.364161671914375E-031
  6.100000000000001E-003    1.964182853870233E-031
  6.200000000000002E-003    2.521229578177838E-031
  6.300000000000002E-003    2.955273679580667E-031
  6.400000000000001E-003    3.176554658315267E-031
  6.500000000000001E-003    3.093582219377003E-031
  6.600000000000002E-003    2.623745051369170E-031
  6.700000000000001E-003    1.705986208986717E-031
  6.800000000000001E-003    3.145820099182991E-032
  6.900000000000002E-003   -1.527350366060072E-031
  7.000000000000001E-003   -3.736357268905648E-031
  7.100000000000001E-003   -6.161144254219376E-031
  7.200000000000002E-003   -8.581129567399673E-031
  7.300000000000002E-003   -1.071293587175435E-030
  7.400000000000001E-003   -1.222629513521575E-030
  7.500000000000001E-003   -1.277004823371738E-030
  7.600000000000002E-003   -1.200791206697733E-030
  7.700000000000001E-003   -9.662401018108714E-031
  7.800000000000001E-003   -5.563844747893223E-031
  7.900000000000001E-003    2.999803863665676E-032
  8.000000000000002E-003    7.739426374804356E-031
  8.100000000000001E-003    1.633044818798865E-030
  8.200000000000001E-003    2.540106591579631E-030
  8.300000000000002E-003    3.404351890137119E-030
  8.400000000000001E-003    4.115744461353708E-030
  8.500000000000002E-003    4.552710616991104E-030
  8.600000000000002E-003    4.593246901382463E-030
  8.700000000000001E-003    4.128979097706157E-030
  8.800000000000002E-003    3.081263571345203E-030
  8.900000000000002E-003    1.417969347665755E-030
  9.000000000000001E-003   -8.308764438449124E-031
  9.100000000000002E-003   -3.560704545962772E-030
  9.200000000000002E-003   -6.585561669602030E-030
  9.300000000000001E-003   -9.639012281840742E-030
  9.400000000000002E-003   -1.238461003397380E-029
  9.500000000000001E-003   -1.443711641879133E-029
  9.600000000000001E-003   -1.539459702161615E-029
  9.700000000000002E-003   -1.488037686715731E-029
  9.800000000000001E-003   -1.259232746809917E-029
  9.900000000000001E-003   -8.355565292493366E-030
  1.000000000000000E-002   -2.173203669858509E-030
  1.010000000000000E-002    5.731170766077576E-030
  1.020000000000000E-002    1.488623490430702E-029
  1.030000000000000E-002    2.456766448347954E-029
  1.040000000000000E-002    3.382070430861674E-029
  1.050000000000000E-002    4.151451556184754E-029
  1.060000000000000E-002    4.642942925681322E-029
  1.070000000000000E-002    4.737472314949389E-029
  1.080000000000000E-002    4.333041232945199E-029
  1.090000000000000E-002    3.360215497641653E-029
  1.100000000000000E-002    1.797444364855204E-029
  1.110000000000000E-002   -3.155943995631112E-030
  1.120000000000000E-002   -2.868616296661661E-029
  1.130000000000000E-002   -5.677298530340448E-029
  1.140000000000000E-002   -8.487515801705445E-029
  1.150000000000000E-002   -1.098849292402026E-028
  1.160000000000000E-002   -1.283532618338686E-028
  1.170000000000000E-002   -1.368038521208593E-028
  1.180000000000000E-002   -1.321192956570876E-028
  1.190000000000000E-002   -1.119709201137513E-028
  1.200000000000000E-002   -7.525269581923449E-029
  1.210000000000000E-002   -2.246988868714007E-029
  1.220000000000000E-002    4.397143180059101E-029
  1.230000000000000E-002    1.196289598227696E-028
  1.240000000000000E-002    1.980914101392643E-028
  1.250000000000000E-002    2.712832013734123E-028
  1.260000000000000E-002    3.300235039787554E-028
  1.270000000000000E-002    3.648277215975873E-028
  1.280000000000000E-002    3.669120532662844E-028
  1.290000000000000E-002    3.293274147216374E-028
  1.300000000000000E-002    2.481204574331006E-028
  1.310000000000000E-002    1.233943239060612E-028
  1.320000000000000E-002   -3.987378286292632E-029
  1.330000000000000E-002   -2.314010170559517E-028
  1.340000000000000E-002   -4.356819837799401E-028
  1.350000000000000E-002   -6.326826465336093E-028
  1.360000000000000E-002   -7.991885483703059E-028
  1.370000000000000E-002   -9.107854113136420E-028
  1.380000000000000E-002   -9.443725440306063E-028
  1.390000000000000E-002   -8.810273671062548E-028
  1.400000000000000E-002   -7.089624975625549E-028
  1.410000000000000E-002   -4.262545887531391E-028
  1.420000000000000E-002   -4.298639734440303E-029
  1.430000000000000E-002    4.175604663151100E-028
  1.440000000000000E-002    9.189825028561151E-028
  1.450000000000000E-002    1.413345446174215E-027
  1.460000000000000E-002    1.844397223811101E-027
  1.470000000000000E-002    2.152351385665742E-027
  1.480000000000000E-002    2.279991213497490E-027
  1.490000000000000E-002    2.179646516604621E-027
  1.500000000000000E-002    1.820408310785480E-027
  1.510000000000000E-002    1.194791201750821E-027
  1.520000000000000E-002    3.239711933793166E-028
  1.530000000000000E-002   -7.392812992757641E-028
  1.540000000000000E-002   -1.910744018504075E-027
  1.550000000000000E-002   -3.078532315921584E-027
  1.560000000000000E-002   -4.110781196043556E-027
  1.570000000000000E-002   -4.867057753314732E-027
  1.580000000000000E-002   -5.212885718081736E-027
  1.590000000000000E-002   -5.036265606785924E-027
  1.600000000000000E-002   -4.264651444545107E-027
  1.610000000000000E-002   -2.880477865506956E-027
  1.620000000000000E-002   -9.331688157877535E-028
  1.630000000000000E-002    1.454440489321860E-027
  1.640000000000000E-002    4.087042304810554E-027
  1.650000000000000E-002    6.706422664830421E-027
  1.660000000000000E-002    9.010105989555139E-027
  1.670000000000000E-002    1.067858502924432E-026
  1.680000000000000E-002    1.140949760914745E-026
  1.690000000000000E-002    1.095601730362949E-026
  1.700000000000000E-002    9.165698912943114E-027
  1.710000000000000E-002    6.015290969473760E-027
  1.720000000000000E-002    1.636624714929070E-027
  1.730000000000000E-002   -3.671093275919922E-027
  1.740000000000000E-002   -9.446557683184022E-027
  1.750000000000000E-002   -1.509179212601906E-026
  1.760000000000000E-002   -1.991844646059643E-026
  1.770000000000000E-002   -2.321325072084007E-026
  1.780000000000000E-002   -2.431837606348724E-026
  1.790000000000000E-002   -2.271987241931706E-026
  1.800000000000000E-002   -1.813504126944798E-026
  1.810000000000000E-002   -1.058819701507215E-026
  1.820000000000000E-002   -4.634881418912978E-028
  1.830000000000000E-002    1.147567304987700E-026
  1.840000000000000E-002    2.410918779690175E-026
  1.850000000000000E-002    3.602993220605059E-026
  1.860000000000000E-002    4.566080271375351E-026
  1.870000000000000E-002    5.141393106346740E-026