 -4.000000000000000E-002    0.000000000000000E+000
 -3.990000000000000E-002    0.000000000000000E+000
 -3.980000000000000E-002    0.000000000000000E+000
 -3.970000000000000E-002    0.000000000000000E+000
 -3.960000000000000E-002    0.000000000000000E+000
 -3.950000000000000E-002    0.000000000000000E+000
 -3.940000000000000E-002    0.000000000000000E+000
 -3.930000000000000E-002    0.000000000000000E+000
 -3.920000000000000E-002    0.000000000000000E+000
 -3.910000000000000E-002    0.000000000000000E+000
 -3.900000000000000E-002    0.000000000000000E+000
 -3.890000000000000E-002    0.000000000000000E+000
 -3.880000000000000E-002    0.000000000000000E+000
 -3.870000000000000E-002    0.000000000000000E+000
 -3.860000000000000E-002    0.000000000000000E+000
 -3.850000000000000E-002    0.000000000000000E+000
 -3.840000000000000E-002    0.000000000000000E+000
 -3.830000000000000E-002    0.000000000000000E+000
 -3.820000000000000E-002    0.000000000000000E+000
 -3.810000000000000E-002    0.000000000000000E+000
 -3.800000000000000E-002    0.000000000000000E+000
 -3.790000000000000E-002    0.000000000000000E+000
 -3.780000000000000E-002    0.000000000000000E+000
 -3.770000000000000E-002    0.000000000000000E+000
 -3.760000000000000E-002    0.000000000000000E+000
 -3.750000000000000E-002    0.000000000000000E+000
 -3.740000000000000E-002    0.000000000000000E+000
 -3.730000000000000E-002    0.000000000000000E+000
 -3.720000000000000E-002    0.000000000000000E+000
 -3.710000000000000E-002    0.000000000000000E+000
 -3.700000000000000E-002    0.000000000000000E+000
 -3.690000000000000E-002    0.000000000000000E+000
 -3.680000000000000E-002    0.000000000000000E+000
 -3.670000000000000E-002    0.000000000000000E+000
 -3.660000000000000E-002    0.000000000000000E+000
 -3.650000000000000E-002    0.000000000000000E+000
 -3.640000000000000E-002    0.000000000000000E+000
 -3.630000000000000E-002    0.000000000000000E+000
 -3.620000000000000E-002    0.000000000000000E+000
 -3.610000000000000E-002    0.000000000000000E+000
 -3.600000000000000E-002    0.000000000000000E+000
 -3.590000000000000E-002    0.000000000000000E+000
 -3.580000000000000E-002    0.000000000000000E+000
 -3.570000000000000E-002    0.000000000000000E+000
 -3.560000000000000E-002    0.000000000000000E+000
 -3.550000000000000E-002    0.000000000000000E+000
 -3.540000000000000E-002    0.000000000000000E+000
 -3.530000000000000E-002    0.000000000000000E+000
 -3.520000000000000E-002    0.000000000000000E+000
 -3.510000000000000E-002    0.000000000000000E+000
 -3.500000000000000E-002    0.000000000000000E+000
 -3.490000000000000E-002    0.000000000000000E+000
 -3.480000000000000E-002    0.000000000000000E+000
 -3.470000000000000E-002    0.000000000000000E+000
 -3.460000000000000E-002    0.000000000000000E+000
 -3.450000000000000E-002    0.000000000000000E+000
 -3.440000000000000E-002    0.000000000000000E+000
 -3.430000000000000E-002    0.000000000000000E+000
 -3.420000000000000E-002    0.000000000000000E+000
 -3.410000000000000E-002    0.000000000000000E+000
 -3.400000000000000E-002    0.000000000000000E+000
 -3.390000000000000E-002    0.000000000000000E+000
 -3.380000000000000E-002    0.000000000000000E+000
 -3.370000000000000E-002    0.000000000000000E+000
 -3.360000000000000E-002    0.000000000000000E+000
 -3.350000000000000E-002    0.000000000000000E+000
 -3.340000000000000E-002    0.000000000000000E+000
 -3.330000000000000E-002    0.000000000000000E+000
 -3.320000000000000E-002    0.000000000000000E+000
 -3.310000000000000E-002    0.000000000000000E+000
 -3.300000000000000E-002    0.000000000000000E+000
 -3.290000000000000E-002    0.000000000000000E+000
 -3.280000000000000E-002    0.000000000000000E+000
 -3.270000000000000E-002    0.000000000000000E+000
 -3.260000000000000E-002    0.000000000000000E+000
 -3.250000000000000E-002    0.000000000000000E+000
 -3.240000000000000E-002    0.000000000000000E+000
 -3.230000000000000E-002    0.000000000000000E+000
 -3.220000000000000E-002    0.000000000000000E+000
 -3.210000000000000E-002    0.000000000000000E+000
 -3.200000000000000E-002    4.719654771388408E-048
 -3.190000000000000E-002    1.104828273364289E-047
 -3.180000000000000E-002    5.170321852657582E-047
 -3.170000000000000E-002    9.707780909089716E-047
 -3.160000000000000E-002    1.424523996552185E-046
 -3.150000000000000E-002    2.091335611137838E-046
 -3.140000000000000E-002    2.434598689444622E-046
 -3.130000000000000E-002    1.717787559184430E-046
 -3.120000000000000E-002   -4.664543472055825E-047
 -3.110000000000000E-002   -6.687471911066300E-046
 -3.100000000000000E-002   -1.986096952952299E-045
 -3.090000000000000E-002   -4.056166921350204E-045
 -3.080000000000000E-002   -7.179127840892704E-045
 -3.070000000000000E-002   -1.150791078789171E-044
 -3.060000000000000E-002   -1.716960240914921E-044
 -3.050000000000000E-002   -2.308808919518841E-044
 -3.040000000000000E-002   -2.711826143646003E-044
 -3.030000000000000E-002   -2.524200820981322E-044
 -3.020000000000000E-002   -1.129339157324915E-044
 -3.010000000000000E-002    2.523468188384870E-044
 -3.000000000000000E-002    9.689205448255089E-044
 -2.990000000000000E-002    2.208991330686612E-043
 -2.980000000000000E-002    4.154804055630700E-043
 -2.970000000000000E-002    6.925749360914609E-043
 -2.960000000000000E-002    1.053099435244780E-042
 -2.950000000000000E-002    1.468886846881989E-042
 -2.940000000000000E-002    1.863261371564914E-042
 -2.930000000000000E-002    2.083123989601145E-042
 -2.920000000000000E-002    1.865538350934156E-042
 -2.910000000000000E-002    8.102648392296656E-043
 -2.900000000000000E-002   -1.636573749562474E-042
 -2.890000000000000E-002   -6.168265031387778E-042
 -2.880000000000000E-002   -1.354596849134011E-041
 -2.870000000000000E-002   -2.443240183337252E-041
 -2.860000000000000E-002   -3.910275259327361E-041
 -2.850000000000000E-002   -5.698581737407914E-041
 -2.840000000000000E-002   -7.601786727795284E-041
 -2.830000000000000E-002   -9.182772713741465E-041
 -2.820000000000000E-002   -9.682394846573020E-041
 -2.810000000000000E-002   -7.935157490719490E-041
 -2.800000000000000E-002   -2.322078658651678E-041
 -2.790000000000000E-002    9.193608562067494E-041
 -2.780000000000000E-002    2.888657596896673E-040
 -2.770000000000000E-002    5.886791817004640E-040
 -2.760000000000000E-002    1.003815679282458E-039
 -2.750000000000000E-002    1.527293603271583E-039
 -2.740000000000000E-002    2.117955278587860E-039
 -2.730000000000000E-002    2.682226918529938E-039
 -2.720000000000000E-002    3.054208966835209E-039
 -2.710000000000000E-002    2.977798685749110E-039
 -2.700000000000000E-002    2.096960358215149E-039
 -2.690000000000000E-002   -3.700497135755403E-041
 -2.680000000000000E-002   -3.929672264337630E-039
 -2.670000000000000E-002   -1.006585943596839E-038
 -2.660000000000000E-002   -1.877684327734471E-038
 -2.650000000000000E-002   -3.004242867956406E-038
 -2.640000000000000E-002   -4.322598841906835E-038
 -2.630000000000000E-002   -5.675506194684386E-038
 -2.620000000000000E-002   -6.778205431657979E-038
 -2.610000000000000E-002   -7.188919480930121E-038
 -2.600000000000000E-002   -6.293748742696017E-038
 -2.590000000000000E-002   -3.319714990632044E-038
 -2.580000000000000E-002    2.607054340163336E-038
 -2.570000000000000E-002    1.233937835842262E-037
 -2.560000000000000E-002    2.650613467303822E-037
 -2.550000000000000E-002    4.521752806118306E-037
 -2.540000000000000E-002    6.768048654329542E-037
 -2.530000000000000E-002    9.174716355491497E-037
 -2.520000000000000E-002    1.134493436115071E-036
 -2.510000000000000E-002    1.266092731470233E-036
 -2.500000000000000E-002    1.226601982243585E-036
 -2.490000000000000E-002    9.085122473269622E-037
 -2.480000000000000E-002    1.904183577582990E-037
 -2.470000000000000E-002   -1.047021556201464E-036
 -2.460000000000000E-002   -2.895335501129493E-036
 -2.450000000000000E-002   -5.381838732117007E-036
 -2.440000000000000E-002   -8.423398077342898E-036
 -2.430000000000000E-002   -1.177368150204144E-035
 -2.420000000000000E-002   -1.497056533137384E-035
 -2.410000000000000E-002   -1.729436712330778E-035
 -2.400000000000000E-002   -1.775177125851816E-035
 -2.390000000000000E-002   -1.510401182119011E-035
 -2.380000000000000E-002   -7.959983034112370E-036
 -2.370000000000000E-002    5.045824599808149E-036
 -2.360000000000000E-002    2.497582338221302E-035
 -2.350000000000000E-002    5.220856437553899E-035
 -2.340000000000000E-002    8.596900260078806E-035
 -2.330000000000000E-002    1.238093897775824E-034
 -2.320000000000000E-002    1.611121736406723E-034
 -2.310000000000000E-002    1.907217883637799E-034
 -2.300000000000000E-002    2.028467063431540E-034
 -2.290000000000000E-002    1.853992295551757E-034
 -2.280000000000000E-002    1.249491738220665E-034
 -2.270000000000000E-002    8.446854797555467E-036
 -2.260000000000000E-002   -1.741896125984347E-034
 -2.250000000000000E-002   -4.266386517339858E-034
 -2.240000000000000E-002   -7.420727434151711E-034
 -2.230000000000000E-002   -1.098789477576155E-033
 -2.220000000000000E-002   -1.456234179553482E-033
 -2.210000000000000E-002   -1.752339984795986E-033
 -2.200000000000000E-002   -1.903347768336215E-033
 -2.190000000000000E-002   -1.807407508031881E-033
 -2.180000000000000E-002   -1.353239715361959E-033
 -2.170000000000000E-002   -4.348630071544044E-034
 -2.160000000000000E-002    1.027193587989899E-033
 -2.150000000000000E-002    3.058728211633663E-033
 -2.140000000000000E-002    5.600615939140247E-033
 -2.130000000000000E-002    8.476970022014749E-033
 -2.120000000000000E-002    1.136802525912770E-032
 -2.110000000000000E-002    1.379478015084659E-032
 -2.100000000000000E-002    1.512375389275390E-032
 -2.090000000000000E-002    1.460066110234803E-032
 -2.080000000000000E-002    1.142093694082172E-032
 -2.070000000000000E-002    4.842345473378614E-033
 -2.060000000000000E-002   -5.659955364110225E-033
 -2.050000000000000E-002   -2.020269608497890E-032
 -2.040000000000000E-002   -3.828426291855478E-032
 -2.030000000000000E-002   -5.858185557437972E-032
 -2.020000000000000E-002   -7.879398938325873E-032
 -2.010000000000000E-002   -9.557580300057536E-032
 -2.000000000000000E-002   -1.046202590248440E-031
 -1.990000000000000E-002   -1.009372732922060E-031
 -1.980000000000000E-002   -7.937260614843468E-032
 -1.970000000000000E-002   -3.538614102818918E-032
 -1.960000000000000E-002    3.392580318073343E-032
 -1.950000000000000E-002    1.286274380180607E-031
 -1.940000000000000E-002    2.446811817937333E-031
 -1.930000000000000E-002    3.728101260233989E-031
 -1.920000000000000E-002    4.977284211210985E-031
 -1.910000000000000E-002    5.980258170042119E-031
 -1.900000000000000E-002    6.470065031302803E-031
 -1.890000000000000E-002    6.147521580147985E-031
 -1.880000000000000E-002    4.715906949654220E-031
 -1.870000000000000E-002    1.929967361058965E-031
 -1.860000000000000E-002   -2.342748566041293E-031
 -1.850000000000000E-002   -8.053066565651455E-031
 -1.840000000000000E-002   -1.490195636467161E-030
 -1.830000000000000E-002   -2.228422690681729E-030
 -1.820000000000000E-002   -2.925817835038293E-030
 -1.810000000000000E-002   -3.455680383505188E-030
 -1.800000000000000E-002   -3.665569439950380E-030
 -1.790000000000000E-002   -3.390982816789727E-030
 -1.780000000000000E-002   -2.476516220479475E-030
 -1.770000000000000E-002   -8.041326808796252E-031
 -1.760000000000000E-002    1.673120955722050E-030
 -1.750000000000000E-002    4.895147787692289E-030
 -1.740000000000000E-002    8.661404075407975E-030
 -1.730000000000000E-002    1.260638670686960E-029
 -1.720000000000000E-002    1.619137475907374E-029
 -1.710000000000000E-002    1.872009987557683E-029
 -1.700000000000000E-002    1.938520441591245E-029
 -1.690000000000000E-002    1.735015163627681E-029
 -1.680000000000000E-002    1.186744554930079E-029
 -1.670000000000000E-002    2.428661391043573E-030
 -1.660000000000000E-002   -1.106493239296562E-029
 -1.650000000000000E-002   -2.812982867037325E-029
 -1.640000000000000E-002   -4.755185607192728E-029
 -1.630000000000000E-002   -6.729392786459823E-029
 -1.620000000000000E-002   -8.449529178986748E-029
 -1.610000000000000E-002   -9.559662662800254E-029
 -1.600000000000000E-002   -9.661855039106248E-029
 -1.590000000000000E-002   -8.360772557437038E-029
 -1.580000000000000E-002   -5.324412206568243E-029
 -1.570000000000000E-002   -3.576026479203364E-030
 -1.560000000000000E-002    6.518242009885276E-029
 -1.550000000000000E-002    1.498893664401850E-028
 -1.540000000000000E-002    2.438772498174722E-028
 -1.530000000000000E-002    3.366680579413161E-028
 -1.520000000000000E-002    4.141567241806633E-028
 -1.510000000000000E-002    4.594022845962821E-028
 -1.500000000000000E-002    4.541236252239461E-028
 -1.490000000000000E-002    3.809251439526120E-028
 -1.480000000000000E-002    2.261766475300438E-028
 -1.470000000000000E-002   -1.665219304545402E-029
 -1.460000000000000E-002   -3.435397946907322E-028
 -1.450000000000000E-002   -7.368138601245493E-028
 -1.440000000000000E-002   -1.162985694773742E-027
 -1.430000000000000E-002   -1.572157565340985E-027
 -1.420000000000000E-002   -1.899627494503182E-027
 -1.410000000000000E-002   -2.070203989552127E-027
 -1.400000000000000E-002   -2.005514180458359E-027
 -1.390000000000000E-002   -1.634247228511297E-027
 -1.380000000000000E-002   -9.048213474924529E-028
 -1.370000000000000E-002    2.005594569403972E-028
 -1.360000000000000E-002    1.652040406887748E-027
 -1.350000000000000E-002    3.360514896762761E-027
 -1.340000000000000E-002    5.170711189427673E-027
 -1.330000000000000E-002    6.861500651119988E-027
 -1.320000000000000E-002    8.155738154637535E-027
 -1.310000000000000E-002    8.741312809264828E-027
 -1.300000000000000E-002    8.304012805144512E-027
 -1.290000000000000E-002    6.571298783297314E-027
 -1.280000000000000E-002    3.364221933720275E-027
 -1.270000000000000E-002   -1.347321744911376E-027
 -1.260000000000000E-002   -7.392803871304341E-027
 -1.250000000000000E-002   -1.436119697192139E-026
 -1.240000000000000E-002   -2.158242257141345E-026
 -1.230000000000000E-002   -2.813941873910445E-026
 -1.220000000000000E-002   -3.291865133085586E-026
 -1.210000000000000E-002   -3.470387317168949E-026
 -1.200000000000000E-002   -3.231330634556797E-026
 -1.190000000000000E-002   -2.477430095523054E-026
 -1.180000000000000E-002   -1.152249175289516E-026
 -1.170000000000000E-002    7.394974384629471E-027
 -1.160000000000000E-002    3.113926791000474E-026
 -1.150000000000000E-002    5.795483841878884E-026
 -1.140000000000000E-002    8.513347924672028E-026
 -1.130000000000000E-002    1.090991269019881E-025
 -1.120000000000000E-002    1.256376051559445E-025
 -1.110000000000000E-002    1.302825140434667E-025
 -1.100000000000000E-002    1.188500165708208E-025
 -1.090000000000000E-002    8.809261664090714E-026
 -1.080000000000000E-002    3.641667035720594E-026
 -1.070000000000000E-002   -3.541633663017179E-026
 -1.060000000000000E-002   -1.237056495323776E-025
 -1.050000000000000E-002   -2.214580255860873E-025
 -1.040000000000000E-002   -3.183800916267406E-025
 -1.030000000000000E-002   -4.013162359147715E-025
 -1.020000000000000E-002   -4.551991836042517E-025
 -1.010000000000000E-002   -4.645295553806263E-025
 -1.000000000000000E-002   -4.153326190543288E-025
 -9.899999999999999E-003   -2.974614520747059E-025
 -9.800000000000000E-003   -1.070314668968128E-025
 -9.699999999999999E-003    1.513058644330661E-025
 -9.599999999999999E-003    4.626014328334496E-025
 -9.500000000000000E-003    8.007379159943627E-025
 -9.399999999999999E-003    1.128811925522833E-024
 -9.299999999999999E-003    1.401061121696793E-024
 -9.200000000000000E-003    1.566498096471269E-024
 -9.099999999999999E-003    1.574228853491074E-024
 -8.999999999999999E-003    1.380199130941525E-024
 -8.900000000000000E-003    9.548527778286681E-025
 -8.799999999999999E-003    2.909254754063618E-025
 -8.699999999999999E-003   -5.896272334879945E-025
 -8.600000000000000E-003   -1.630718619669146E-024
 -8.499999999999999E-003   -2.740421212879934E-024
 -8.399999999999999E-003   -3.793528669724411E-024
 -8.300000000000000E-003   -4.639170396643033E-024
 -8.199999999999999E-003   -5.113791447036091E-024
 -8.100000000000000E-003   -5.059177771537727E-024
 -8.000000000000000E-003   -4.344460167542590E-024
 -7.899999999999999E-003   -2.890219929918778E-024
 -7.800000000000000E-003   -6.920699424426815E-025
 -7.699999999999999E-003    2.159524388790392E-024
 -7.599999999999999E-003    5.466741142666287E-024
 -7.499999999999999E-003    8.922713546368456E-024
 -7.399999999999999E-003    1.212360687029214E-023
 -7.299999999999999E-003    1.459635305872607E-023
 -7.199999999999999E-003    1.584234631981772E-023
 -7.100000000000000E-003    1.539538308109174E-023
 -6.999999999999999E-003    1.288984465520254E-023
 -6.899999999999999E-003    8.132784189433471E-024
 -6.800000000000000E-003    1.171514278781785E-024
 -6.699999999999999E-003   -7.653203913788358E-024
 -6.599999999999999E-003   -1.767878470810420E-023
 -6.499999999999999E-003   -2.792701435634183E-023
 -6.399999999999999E-003   -3.715241666714304E-023
 -6.299999999999999E-003   -4.393677665563255E-023
 -6.199999999999999E-003   -4.682876821325735E-023
 -6.100000000000000E-003   -4.452152057963190E-023
 -5.999999999999999E-003   -3.605435844858811E-023
 -5.899999999999999E-003   -2.101852178870324E-023
 -5.800000000000000E-003    2.586583616702153E-025
 -5.699999999999999E-003    2.657988470246874E-023
 -5.599999999999999E-003    5.582343143709024E-023
 -5.499999999999999E-003    8.499379233421565E-023
 -5.399999999999999E-003    1.103957066687326E-022
 -5.299999999999999E-003    1.279382133238842E-022
 -5.199999999999999E-003    1.335602828774293E-022
 -5.099999999999999E-003    1.237520806835771E-022
 -4.999999999999999E-003    9.612761902780795E-023
 -4.899999999999999E-003    4.998784824885903E-023
 -4.799999999999999E-003   -1.319954401035746E-023
 -4.699999999999999E-003   -8.948366866075560E-023
 -4.599999999999999E-003   -1.723547856443100E-022
 -4.499999999999999E-003   -2.529740205154568E-022
 -4.399999999999999E-003   -3.207488043728781E-022
 -4.299999999999999E-003   -3.642598842367040E-022
 -4.199999999999999E-003   -3.725024565585553E-022
 -4.099999999999999E-003   -3.363559076444325E-022
 -3.999999999999999E-003   -2.501490304538872E-022
 -3.899999999999999E-003   -1.131454393021413E-022
 -3.799999999999999E-003    6.925428064372253E-023
 -3.699999999999999E-003    2.848070594129825E-022
 -3.599999999999999E-003    5.144161863833004E-022
 -3.499999999999999E-003    7.329687932025716E-022
 -3.399999999999999E-003    9.111037212149130E-022
 -3.299999999999999E-003    1.017893968371463E-021
 -3.199999999999999E-003    1.024309436724564E-021
 -3.099999999999999E-003    9.072008869882210E-022
 -2.999999999999999E-003    6.534249525718586E-022
 -2.899999999999999E-003    2.636318795542824E-022
 -2.799999999999999E-003   -2.448230003355012E-022
 -2.699999999999999E-003   -8.363887001866523E-022
 -2.599999999999999E-003   -1.457733598595754E-021
 -2.499999999999999E-003   -2.040417845775970E-021
 -2.399999999999999E-003   -2.505971299888381E-021
 -2.299999999999999E-003   -2.773260831219849E-021
 -2.199999999999999E-003   -2.767726063650995E-021
 -2.099999999999999E-003   -2.431747828131086E-021
 -1.999999999999999E-003   -1.735122696528679E-021
 -1.899999999999999E-003   -6.843964602659535E-022
 -1.799999999999999E-003    6.703092663444028E-022
 -1.699999999999999E-003    2.232311885764146E-021
 -1.599999999999999E-003    3.860363807163841E-021
 -1.499999999999999E-003    5.376393944379027E-021
 -1.399999999999999E-003    6.579216891703507E-021
 -1.299999999999999E-003    7.263754673919742E-021
 -1.199999999999999E-003    7.244560794290919E-021
 -1.099999999999999E-003    6.381679999646303E-021
 -9.999999999999989E-004    4.606211234654946E-021
 -8.999999999999990E-004    1.942459381900205E-021
 -7.999999999999990E-004   -1.476627949423330E-021
 -6.999999999999989E-004   -5.403881787598650E-021
 -5.999999999999990E-004   -9.484755080195317E-021
 -4.999999999999989E-004   -1.327815845214524E-020
 -3.999999999999989E-004   -1.629148792616490E-020
 -2.999999999999989E-004   -1.802838945428885E-020
 -1.999999999999989E-004   -1.804600742993876E-020
 -9.999999999999892E-005   -1.601673612521061E-020
  1.084202172485504E-018   -1.178800892224465E-020
  1.000000000000011E-004   -5.432715878831087E-021
  2.000000000000011E-004    2.717446689696350E-021
  3.000000000000011E-004    1.206276623751295E-020
  4.000000000000011E-004    2.175595510923875E-020
  5.000000000000011E-004    3.075526184343607E-020
  6.000000000000011E-004    3.790994127345627E-020
  7.000000000000011E-004    4.207390529396468E-020
  8.000000000000011E-004    4.223928547352240E-020
  9.000000000000012E-004    3.767779721946998E-020
  1.000000000000001E-003    2.807474613660117E-020
  1.100000000000001E-003    1.363863789507664E-020
  1.200000000000001E-003   -4.830752339907887E-021
  1.300000000000001E-003   -2.593116067698356E-020
  1.400000000000001E-003   -4.771474049230118E-020
  1.500000000000001E-003   -6.781840225122787E-020
  1.600000000000001E-003   -8.366508501750093E-020
  1.700000000000001E-003   -9.272481994435123E-020
  1.800000000000001E-003   -9.281535977169050E-020
  1.900000000000001E-003   -8.241412003105512E-020
  2.000000000000001E-003   -6.094694999836855E-020
  2.100000000000001E-003   -2.901601021713980E-020
  2.200000000000001E-003    1.147022569704925E-020
  2.300000000000001E-003    5.729669609762378E-020
  2.400000000000001E-003    1.040932932013078E-019
  2.500000000000001E-003    1.466462693501252E-019
  2.600000000000001E-003    1.793602499910767E-019
  2.700000000000001E-003    1.968424048757940E-019
  2.800000000000001E-003    1.945612726864753E-019
  2.900000000000001E-003    1.695160852727752E-019
  3.000000000000001E-003    1.208403995713082E-019
  3.100000000000001E-003    5.025886454522574E-020
  3.200000000000001E-003   -3.768051198363464E-020
  3.300000000000001E-003   -1.356630025972901E-019
  3.400000000000001E-003   -2.339941542898149E-019
  3.500000000000001E-003   -3.213270244038568E-019
  3.600000000000001E-003   -3.857016776940607E-019
  3.700000000000001E-003   -4.158280971308661E-019
  3.800000000000001E-003   -4.025042597118482E-019
  3.900000000000001E-003   -3.400272391727911E-019
  4.000000000000001E-003   -2.274335458054516E-019
  4.100000000000001E-003   -6.939697848215099E-020
  4.200000000000001E-003    1.233754529133394E-019
  4.300000000000001E-003    3.343774081855014E-019
  4.400000000000001E-003    5.422428982087100E-019
  4.500000000000001E-003    7.223987186509906E-019
  4.600000000000002E-003    8.493561506036612E-019
  4.700000000000001E-003    8.994828080690628E-019
  4.800000000000001E-003    8.540154989173431E-019
  4.900000000000002E-003    7.020084101679395E-019
  5.000000000000001E-003    4.428700117403823E-019
  5.100000000000001E-003    8.813353351036248E-020
  5.200000000000001E-003   -3.378636914087830E-019
  5.300000000000002E-003   -7.986434421203706E-019
  5.400000000000001E-003   -1.247731972121593E-018
  5.500000000000001E-003   -1.632280175868224E-018
  5.600000000000002E-003   -1.897984651365568E-018
  5.700000000000001E-003   -1.994960217066249E-018
  5.800000000000001E-003   -1.884053376480682E-018
  5.900000000000002E-003   -1.542957558487259E-018
  6.000000000000001E-003   -9.714130971197447E-019
  6.100000000000001E-003   -1.947680408856261E-019
  6.200000000000002E-003    7.347529634800674E-019
  6.300000000000002E-003    1.739567429464372E-018
  6.400000000000001E-003    2.721303784949583E-018
  6.500000000000001E-003    3.568380202745708E-018
  6.600000000000002E-003    4.166216537198502E-018
  6.700000000000001E-003    4.409349018790974E-018
  6.800000000000001E-003    4.214402840971092E-018
  6.900000000000002E-003    3.532620838185776E-018
  7.000000000000001E-003    2.360506558236102E-018
  7.100000000000001E-003    7.471305608634892E-019
  7.200000000000002E-003   -1.203196130232043E-018
  7.300000000000002E-003   -3.333860177261678E-018
  7.400000000000001E-003   -5.445003203354532E-018
  7.500000000000001E-003   -7.308608241222874E-018
  7.600000000000002E-003   -8.688856361103759E-018
  7.700000000000001E-003   -9.366307487694953E-018
  7.800000000000001E-003   -9.163839074617595E-018
  7.900000000000001E-003   -7.971786308279320E-018
  8.000000000000002E-003   -5.769453830977755E-018
  8.100000000000001E-003   -2.640161088584177E-018
  8.200000000000001E-003    1.222715253708186E-018
  8.300000000000002E-003    5.520621153828838E-018
  8.400000000000001E-003    9.866631390116379E-018
  8.500000000000002E-003    1.381404447917979E-017
  8.600000000000002E-003    1.689533342568498E-017
  8.700000000000001E-003    1.866870953719854E-017
  8.800000000000002E-003    1.876836408917378E-017
  8.900000000000002E-003    1.695352199790338E-017
  9.000000000000001E-003    1.315090204673922E-017
  9.100000000000002E-003    7.485168701613194E-018
  9.200000000000002E-003    2.925018465369014E-019
  9.300000000000001E-003   -7.886416399726002E-018
  9.400000000000002E-003   -1.633600680848698E-017
  9.500000000000001E-003   -2.421783293295188E-017
  9.600000000000001E-003   -3.064253049323992E-017
  9.700000000000002E-003   -3.475656808593852E-017
  9.800000000000001E-003   -3.583660885413585E-017
  9.900000000000001E-003   -3.338240774820703E-017
  1.000000000000000E-002   -2.719821883384915E-017
  1.010000000000000E-002   -1.745256547288178E-017
  1.020000000000000E-002   -4.707233644272686E-018
  1.030000000000000E-002    1.009154738701619E-017
  1.040000000000000E-002    2.566366783197929E-017
  1.050000000000000E-002    4.048742824720230E-017
  1.060000000000000E-002    5.292909116361698E-017
  1.070000000000000E-002    6.140070560083787E-017
  1.080000000000000E-002    6.453306629643495E-017
  1.090000000000000E-002    6.134734844519204E-017
  1.100000000000000E-002    5.140708145183931E-017
  1.110000000000000E-002    3.493183453869117E-017
  1.120000000000000E-002    1.285571227873798E-017
  1.130000000000000E-002   -1.318246758817423E-017
  1.140000000000000E-002   -4.092487607121489E-017
  1.150000000000000E-002   -6.765667449311465E-017
  1.160000000000000E-002   -9.043668399196225E-017
  1.170000000000000E-002   -1.063808214299869E-016
  1.180000000000000E-002   -1.129747960761249E-016
  1.190000000000000E-002   -1.083865446693836E-016
  1.200000000000000E-002   -9.174511998463855E-017
  1.210000000000000E-002   -6.335223399930052E-017
  1.220000000000000E-002   -2.479558485572263E-017
  1.230000000000000E-002    2.106037154872306E-017
  1.240000000000000E-002    7.022052807227368E-017
  1.250000000000000E-002    1.178436238263397E-016
  1.260000000000000E-002    1.586522006499558E-016
  1.270000000000000E-002    1.874401041582776E-016
  1.280000000000000E-002    1.996356876488719E-016
  1.290000000000000E-002    1.918679074002038E-016
  1.300000000000000E-002    1.624753559040616E-016
  1.310000000000000E-002    1.118971293658753E-016
  1.320000000000000E-002    4.288917822048796E-017
  1.330000000000000E-002   -3.947865698845539E-017
  1.340000000000000E-002   -1.280720130677031E-016
  1.350000000000000E-002   -2.141920571127856E-016
  1.360000000000000E-002   -2.883044654909970E-016
  1.370000000000000E-002   -3.409485447197709E-016
  1.380000000000000E-002   -3.637524886181456E-016
  1.390000000000000E-002   -3.504604885274896E-016
  1.400000000000000E-002   -2.978640381311703E-016
  1.410000000000000E-002   -2.065268992495905E-016
  1.420000000000000E-002   -8.120116712397667E-017
  1.430000000000000E-002    6.914821346898020E-017
  1.440000000000000E-002    2.317619106873343E-016
  1.450000000000000E-002    3.909584696697045E-016
  1.460000000000000E-002    5.294248115273440E-016
  1.470000000000000E-002    6.298404356017121E-016
  1.480000000000000E-002    6.767053734917904E-016
  1.490000000000000E-002    6.582040902542928E-016
  1.500000000000000E-002    5.679132491085939E-016
  1.510000000000000E-002    4.061538030535873E-016
  1.520000000000000E-002    1.808010782103301E-016
  1.530000000000000E-002   -9.259960031337561E-017
  1.540000000000000E-002   -3.915093677014616E-016
  1.550000000000000E-002   -6.878906706467064E-016
  1.560000000000000E-002   -9.504640358862923E-016
  1.570000000000000E-002   -1.147582702399248E-015
  1.580000000000000E-002   -1.250499071224870E-015
  1.590000000000000E-002   -1.236727603985004E-015
  1.600000000000000E-002   -1.093163290046777E-015
  1.610000000000000E-002   -8.185989709605254E-016
  1.620000000000000E-002   -4.253044814087221E-016
  1.630000000000000E-002    6.061107766188441E-017
  1.640000000000000E-002    6.002386946732309E-016
  1.650000000000000E-002    1.144370558873840E-015
  1.660000000000000E-002    1.637376262998277E-015
  1.670000000000000E-002    2.022213915777243E-015
  1.680000000000000E-002    2.246187098084718E-015
  1.690000000000000E-002    2.266935233919417E-015
  1.700000000000000E-002    2.058059210613321E-015
  1.710000000000000E-002    1.613751610658079E-015
  1.720000000000000E-002    9.518308394685404E-016
  1.730000000000000E-002    1.146744685706964E-016
  1.740000000000000E-002   -8.322914069666444E-016
  1.750000000000000E-002   -1.804675368108973E-015
  1.760000000000000E-002   -2.705650335068515E-015
  1.770000000000000E-002   -3.434532329109463E-015
  1.780000000000000E-002   -3.896753051472288E-015
  1.790000000000000E-002   -4.014345557417612E-015
  1.800000000000000E-002   -3.735911819554251E-015
  1.810000000000000E-002   -3.044972280684773E-015
  1.820000000000000E-002   -1.965644778811185E-015
  1.830000000000000E-002   -5.647551032114291E-016
  1.840000000000000E-002    1.050244076589093E-015
  1.850000000000000E-002    2.737804690471704E-015
  1.860000000000000E-002    4.333086192989206E-015
  1.870000000000000E-002    5.662386066979641E-015