 -4.000000000000000E-002    0.000000000000000E+000
 -3.990000000000000E-002    0.000000000000000E+000
 -3.980000000000000E-002    0.000000000000000E+000
 -3.970000000000000E-002    0.000000000000000E+000
 -3.960000000000000E-002    0.000000000000000E+000
 -3.950000000000000E-002    0.000000000000000E+000
 -3.940000000000000E-002    0.000000000000000E+000
 -3.930000000000000E-002    0.000000000000000E+000
 -3.920000000000000E-002    0.000000000000000E+000
 -3.910000000000000E-002    0.000000000000000E+000
 -3.900000000000000E-002    0.000000000000000E+000
 -3.890000000000000E-002    0.000000000000000E+000
 -3.880000000000000E-002    0.000000000000000E+000
 -3.870000000000000E-002    0.000000000000000E+000
 -3.860000000000000E-002    0.000000000000000E+000
 -3.850000000000000E-002    0.000000000000000E+000
 -3.840000000000000E-002    0.000000000000000E+000
 -3.830000000000000E-002    0.000000000000000E+000
 -3.820000000000000E-002    0.000000000000000E+000
 -3.810000000000000E-002    0.000000000000000E+000
 -3.800000000000000E-002    0.000000000000000E+000
 -3.790000000000000E-002    0.000000000000000E+000
 -3.780000000000000E-002    0.000000000000000E+000
 -3.770000000000000E-002    0.000000000000000E+000
 -3.760000000000000E-002    0.000000000000000E+000
 -3.750000000000000E-002    0.000000000000000E+000
 -3.740000000000000E-002    0.000000000000000E+000
 -3.730000000000000E-002    0.000000000000000E+000
 -3.720000000000000E-002    0.000000000000000E+000
 -3.710000000000000E-002    0.000000000000000E+000
 -3.700000000000000E-002    0.000000000000000E+000
 -3.690000000000000E-002    0.000000000000000E+000
 -3.680000000000000E-002    0.000000000000000E+000
 -3.670000000000000E-002    0.000000000000000E+000
 -3.660000000000000E-002    0.000000000000000E+000
 -3.650000000000000E-002    0.000000000000000E+000
 -3.640000000000000E-002    0.000000000000000E+000
 -3.630000000000000E-002    0.000000000000000E+000
 -3.620000000000000E-002    0.000000000000000E+000
 -3.610000000000000E-002    0.000000000000000E+000
 -3.600000000000000E-002    0.000000000000000E+000
 -3.590000000000000E-002    0.000000000000000E+000
 -3.580000000000000E-002    0.000000000000000E+000
 -3.570000000000000E-002    0.000000000000000E+000
 -3.560000000000000E-002    0.000000000000000E+000
 -3.550000000000000E-002    0.000000000000000E+000
 -3.540000000000000E-002    0.000000000000000E+000
 -3.530000000000000E-002    0.000000000000000E+000
 -3.520000000000000E-002    0.000000000000000E+000
 -3.510000000000000E-002    0.000000000000000E+000
 -3.500000000000000E-002    0.000000000000000E+000
 -3.490000000000000E-002    0.000000000000000E+000
 -3.480000000000000E-002    0.000000000000000E+000
 -3.470000000000000E-002    0.000000000000000E+000
 -3.460000000000000E-002    0.000000000000000E+000
 -3.450000000000000E-002    0.000000000000000E+000
 -3.440000000000000E-002    0.000000000000000E+000
 -3.430000000000000E-002    0.000000000000000E+000
 -3.420000000000000E-002    0.000000000000000E+000
 -3.410000000000000E-002    0.000000000000000E+000
 -3.400000000000000E-002    0.000000000000000E+000
 -3.390000000000000E-002    0.000000000000000E+000
 -3.380000000000000E-002    0.000000000000000E+000
 -3.370000000000000E-002    0.000000000000000E+000
 -3.360000000000000E-002    0.000000000000000E+000
 -3.350000000000000E-002    0.000000000000000E+000
 -3.340000000000000E-002    0.000000000000000E+000
 -3.330000000000000E-002    0.000000000000000E+000
 -3.320000000000000E-002    0.000000000000000E+000
 -3.310000000000000E-002    0.000000000000000E+000
 -3.300000000000000E-002    0.000000000000000E+000
 -3.290000000000000E-002    0.000000000000000E+000
 -3.280000000000000E-002    0.000000000000000E+000
 -3.270000000000000E-002    0.000000000000000E+000
 -3.260000000000000E-002    0.000000000000000E+000
 -3.250000000000000E-002    0.000000000000000E+000
 -3.240000000000000E-002    0.000000000000000E+000
 -3.230000000000000E-002    0.000000000000000E+000
 -3.220000000000000E-002    0.000000000000000E+000
 -3.210000000000000E-002    0.000000000000000E+000
 -3.200000000000000E-002    0.000000000000000E+000
 -3.190000000000000E-002    0.000000000000000E+000
 -3.180000000000000E-002    0.000000000000000E+000
 -3.170000000000000E-002    0.000000000000000E+000
 -3.160000000000000E-002    0.000000000000000E+000
 -3.150000000000000E-002    0.000000000000000E+000
 -3.140000000000000E-002    0.000000000000000E+000
 -3.130000000000000E-002    0.000000000000000E+000
 -3.120000000000000E-002    0.000000000000000E+000
 -3.110000000000000E-002    0.000000000000000E+000
 -3.100000000000000E-002    0.000000000000000E+000
 -3.090000000000000E-002    0.000000000000000E+000
 -3.080000000000000E-002    0.000000000000000E+000
 -3.070000000000000E-002    0.000000000000000E+000
 -3.060000000000000E-002    0.000000000000000E+000
 -3.050000000000000E-002    0.000000000000000E+000
 -3.040000000000000E-002    0.000000000000000E+000
 -3.030000000000000E-002    0.000000000000000E+000
 -3.020000000000000E-002    0.000000000000000E+000
 -3.010000000000000E-002    0.000000000000000E+000
 -3.000000000000000E-002    0.000000000000000E+000
 -2.990000000000000E-002    0.000000000000000E+000
 -2.980000000000000E-002    0.000000000000000E+000
 -2.970000000000000E-002    0.000000000000000E+000
 -2.960000000000000E-002    0.000000000000000E+000
 -2.950000000000000E-002    0.000000000000000E+000
 -2.940000000000000E-002    0.000000000000000E+000
 -2.930000000000000E-002    0.000000000000000E+000
 -2.920000000000000E-002    0.000000000000000E+000
 -2.910000000000000E-002    0.000000000000000E+000
 -2.900000000000000E-002    0.000000000000000E+000
 -2.890000000000000E-002    0.000000000000000E+000
 -2.880000000000000E-002    0.000000000000000E+000
 -2.870000000000000E-002    0.000000000000000E+000
 -2.860000000000000E-002    0.000000000000000E+000
 -2.850000000000000E-002    0.000000000000000E+000
 -2.840000000000000E-002    0.000000000000000E+000
 -2.830000000000000E-002    0.000000000000000E+000
 -2.820000000000000E-002    0.000000000000000E+000
 -2.810000000000000E-002    0.000000000000000E+000
 -2.800000000000000E-002    0.000000000000000E+000
 -2.790000000000000E-002    0.000000000000000E+000
 -2.780000000000000E-002    0.000000000000000E+000
 -2.770000000000000E-002    0.000000000000000E+000
 -2.760000000000000E-002    0.000000000000000E+000
 -2.750000000000000E-002    0.000000000000000E+000
 -2.740000000000000E-002    0.000000000000000E+000
 -2.730000000000000E-002    0.000000000000000E+000
 -2.720000000000000E-002    0.000000000000000E+000
 -2.710000000000000E-002    0.000000000000000E+000
 -2.700000000000000E-002    0.000000000000000E+000
 -2.690000000000000E-002    0.000000000000000E+000
 -2.680000000000000E-002    0.000000000000000E+000
 -2.670000000000000E-002    0.000000000000000E+000
 -2.660000000000000E-002    0.000000000000000E+000
 -2.650000000000000E-002    0.000000000000000E+000
 -2.640000000000000E-002    0.000000000000000E+000
 -2.630000000000000E-002    0.000000000000000E+000
 -2.620000000000000E-002    0.000000000000000E+000
 -2.610000000000000E-002    0.000000000000000E+000
 -2.600000000000000E-002    0.000000000000000E+000
 -2.590000000000000E-002    0.000000000000000E+000
 -2.580000000000000E-002    0.000000000000000E+000
 -2.570000000000000E-002    0.000000000000000E+000
 -2.560000000000000E-002    0.000000000000000E+000
 -2.550000000000000E-002    0.000000000000000E+000
 -2.540000000000000E-002    0.000000000000000E+000
 -2.530000000000000E-002    0.000000000000000E+000
 -2.520000000000000E-002    0.000000000000000E+000
 -2.510000000000000E-002    0.000000000000000E+000
 -2.500000000000000E-002    0.000000000000000E+000
 -2.490000000000000E-002    0.000000000000000E+000
 -2.480000000000000E-002    0.000000000000000E+000
 -2.470000000000000E-002    0.000000000000000E+000
 -2.460000000000000E-002    0.000000000000000E+000
 -2.450000000000000E-002    0.000000000000000E+000
 -2.440000000000000E-002    0.000000000000000E+000
 -2.430000000000000E-002    0.000000000000000E+000
 -2.420000000000000E-002    0.000000000000000E+000
 -2.410000000000000E-002    0.000000000000000E+000
 -2.400000000000000E-002    0.000000000000000E+000
 -2.390000000000000E-002    0.000000000000000E+000
 -2.380000000000000E-002    0.000000000000000E+000
 -2.370000000000000E-002    0.000000000000000E+000
 -2.360000000000000E-002    0.000000000000000E+000
 -2.350000000000000E-002    0.000000000000000E+000
 -2.340000000000000E-002    0.000000000000000E+000
 -2.330000000000000E-002    0.000000000000000E+000
 -2.320000000000000E-002    0.000000000000000E+000
 -2.310000000000000E-002    0.000000000000000E+000
 -2.300000000000000E-002    0.000000000000000E+000
 -2.290000000000000E-002    0.000000000000000E+000
 -2.280000000000000E-002    0.000000000000000E+000
 -2.270000000000000E-002    0.000000000000000E+000
 -2.260000000000000E-002    0.000000000000000E+000
 -2.250000000000000E-002    0.000000000000000E+000
 -2.240000000000000E-002    0.000000000000000E+000
 -2.230000000000000E-002    0.000000000000000E+000
 -2.220000000000000E-002    0.000000000000000E+000
 -2.210000000000000E-002    0.000000000000000E+000
 -2.200000000000000E-002    0.000000000000000E+000
 -2.190000000000000E-002    0.000000000000000E+000
 -2.180000000000000E-002    0.000000000000000E+000
 -2.170000000000000E-002    0.000000000000000E+000
 -2.160000000000000E-002    0.000000000000000E+000
 -2.150000000000000E-002    0.000000000000000E+000
 -2.140000000000000E-002    0.000000000000000E+000
 -2.130000000000000E-002    0.000000000000000E+000
 -2.120000000000000E-002    0.000000000000000E+000
 -2.110000000000000E-002    0.000000000000000E+000
 -2.100000000000000E-002    0.000000000000000E+000
 -2.090000000000000E-002    0.000000000000000E+000
 -2.080000000000000E-002    0.000000000000000E+000
 -2.070000000000000E-002    0.000000000000000E+000
 -2.060000000000000E-002    0.000000000000000E+000
 -2.050000000000000E-002    0.000000000000000E+000
 -2.040000000000000E-002    0.000000000000000E+000
 -2.030000000000000E-002    0.000000000000000E+000
 -2.020000000000000E-002    0.000000000000000E+000
 -2.010000000000000E-002    0.000000000000000E+000
 -2.000000000000000E-002    0.000000000000000E+000
 -1.990000000000000E-002    0.000000000000000E+000
 -1.980000000000000E-002    0.000000000000000E+000
 -1.970000000000000E-002    0.000000000000000E+000
 -1.960000000000000E-002    0.000000000000000E+000
 -1.950000000000000E-002    0.000000000000000E+000
 -1.940000000000000E-002    0.000000000000000E+000
 -1.930000000000000E-002    0.000000000000000E+000
 -1.920000000000000E-002    0.000000000000000E+000
 -1.910000000000000E-002    0.000000000000000E+000
 -1.900000000000000E-002    0.000000000000000E+000
 -1.890000000000000E-002    0.000000000000000E+000
 -1.880000000000000E-002    0.000000000000000E+000
 -1.870000000000000E-002    0.000000000000000E+000
 -1.860000000000000E-002    0.000000000000000E+000
 -1.850000000000000E-002    0.000000000000000E+000
 -1.840000000000000E-002    0.000000000000000E+000
 -1.830000000000000E-002    0.000000000000000E+000
 -1.820000000000000E-002    0.000000000000000E+000
 -1.810000000000000E-002    0.000000000000000E+000
 -1.800000000000000E-002    0.000000000000000E+000
 -1.790000000000000E-002    0.000000000000000E+000
 -1.780000000000000E-002    0.000000000000000E+000
 -1.770000000000000E-002    0.000000000000000E+000
 -1.760000000000000E-002    0.000000000000000E+000
 -1.750000000000000E-002    0.000000000000000E+000
 -1.740000000000000E-002    0.000000000000000E+000
 -1.730000000000000E-002    0.000000000000000E+000
 -1.720000000000000E-002    0.000000000000000E+000
 -1.710000000000000E-002    0.000000000000000E+000
 -1.700000000000000E-002    0.000000000000000E+000
 -1.690000000000000E-002    0.000000000000000E+000
 -1.680000000000000E-002    0.000000000000000E+000
 -1.670000000000000E-002    0.000000000000000E+000
 -1.660000000000000E-002    0.000000000000000E+000
 -1.650000000000000E-002    0.000000000000000E+000
 -1.640000000000000E-002    0.000000000000000E+000
 -1.630000000000000E-002    0.000000000000000E+000
 -1.620000000000000E-002    0.000000000000000E+000
 -1.610000000000000E-002    0.000000000000000E+000
 -1.600000000000000E-002    0.000000000000000E+000
 -1.590000000000000E-002    0.000000000000000E+000
 -1.580000000000000E-002    0.000000000000000E+000
 -1.570000000000000E-002    0.000000000000000E+000
 -1.560000000000000E-002    0.000000000000000E+000
 -1.550000000000000E-002    0.000000000000000E+000
 -1.540000000000000E-002    0.000000000000000E+000
 -1.530000000000000E-002    0.000000000000000E+000
 -1.520000000000000E-002    0.000000000000000E+000
 -1.510000000000000E-002    0.000000000000000E+000
 -1.500000000000000E-002    0.000000000000000E+000
 -1.490000000000000E-002    0.000000000000000E+000
 -1.480000000000000E-002    0.000000000000000E+000
 -1.470000000000000E-002    4.464964760684711E-048
 -1.460000000000000E-002    8.929929521369422E-048
 -1.450000000000000E-002    1.339489428205413E-047
 -1.440000000000000E-002    1.339489428205413E-047
 -1.430000000000000E-002    1.339489428205413E-047
 -1.420000000000000E-002    8.929929521369422E-048
 -1.410000000000000E-002   -1.522147052291724E-048
 -1.400000000000000E-002   -1.643918838663758E-047
 -1.390000000000000E-002   -1.243403026876714E-047
 -1.380000000000000E-002   -2.521098073468015E-047
 -1.370000000000000E-002   -1.460076698769215E-047
 -1.360000000000000E-002   -1.478555001151117E-047
 -1.350000000000000E-002   -3.114031107204814E-047
 -1.340000000000000E-002   -4.620746601045262E-047
 -1.330000000000000E-002   -2.965317227156767E-047
 -1.320000000000000E-002   -4.135836146395656E-047
 -1.310000000000000E-002   -3.148089551196723E-047
 -1.300000000000000E-002   -4.871078882534651E-048
 -1.290000000000000E-002   -1.037705089554674E-047
 -1.280000000000000E-002   -1.142608171714227E-047
 -1.270000000000000E-002    1.830045658116035E-046
 -1.260000000000000E-002    3.425802894140403E-046
 -1.250000000000000E-002    5.633245630961796E-046
 -1.240000000000000E-002    7.183564487439586E-046
 -1.230000000000000E-002    1.049888143647727E-045
 -1.220000000000000E-002    1.200355979117846E-045
 -1.210000000000000E-002    1.354139343851346E-045
 -1.200000000000000E-002    1.500583902870061E-045
 -1.190000000000000E-002    1.319347279318307E-045
 -1.180000000000000E-002    6.036201975807153E-046
 -1.170000000000000E-002    1.788524315736114E-046
 -1.160000000000000E-002   -9.226165152578672E-046
 -1.150000000000000E-002   -2.175796370563122E-045
 -1.140000000000000E-002   -4.325091386161968E-045
 -1.130000000000000E-002   -6.267533579882460E-045
 -1.120000000000000E-002   -8.918529127596653E-045
 -1.110000000000000E-002   -1.167123586220623E-044
 -1.100000000000000E-002   -1.402267922647851E-044
 -1.090000000000000E-002   -1.505044035811813E-044
 -1.080000000000000E-002   -1.395018532789614E-044
 -1.070000000000000E-002   -9.904826699864719E-045
 -1.060000000000000E-002   -2.513090098640783E-045
 -1.050000000000000E-002    9.345661979219831E-045
 -1.040000000000000E-002    2.581813947976645E-044
 -1.030000000000000E-002    4.560611184815327E-044
 -1.020000000000000E-002    6.897343168262194E-044
 -1.010000000000000E-002    9.298877867396569E-044
 -1.000000000000000E-002    1.140364579009944E-043
 -9.899999999999999E-003    1.276260795400302E-043
 -9.800000000000000E-003    1.281660533529816E-043
 -9.699999999999999E-003    1.085059254915442E-043
 -9.599999999999999E-003    6.243136212318629E-044
 -9.500000000000000E-003   -1.597415854970250E-044
 -9.399999999999999E-003   -1.303712927858037E-043
 -9.299999999999999E-003   -2.801839157327198E-043
 -9.200000000000000E-003   -4.593885818378601E-043
 -9.099999999999999E-003   -6.531611191931907E-043
 -8.999999999999999E-003   -8.389924623839884E-043
 -8.900000000000000E-003   -9.830588374479360E-043
 -8.799999999999999E-003   -1.045294705691178E-042
 -8.699999999999999E-003   -9.766978285650215E-043
 -8.600000000000000E-003   -7.255284562492201E-043
 -8.499999999999999E-003   -2.454909477729549E-043
 -8.399999999999999E-003    4.964743879720418E-043
 -8.300000000000000E-003    1.508512220036976E-042
 -8.199999999999999E-003    2.762785809730828E-042
 -8.100000000000000E-003    4.178918073233522E-042
 -8.000000000000000E-003    5.616714845326345E-042
 -7.899999999999999E-003    6.870759575629982E-042
 -7.800000000000000E-003    7.667431041966045E-042
 -7.699999999999999E-003    7.680708686730419E-042
 -7.599999999999999E-003    6.557033320626016E-042
 -7.499999999999999E-003    3.953800935654994E-042
 -7.399999999999999E-003   -4.021888887741960E-043
 -7.299999999999999E-003   -6.644714692883569E-042
 -7.199999999999999E-003   -1.468663103276905E-041
 -7.100000000000000E-003   -2.413831194486189E-041
 -6.999999999999999E-003   -3.423027903472405E-041
 -6.899999999999999E-003   -4.376804109788226E-041
 -6.800000000000000E-003   -5.111973405438283E-041
 -6.699999999999999E-003   -5.427285953249575E-041
 -6.599999999999999E-003   -5.096357980867287E-041
 -6.499999999999999E-003   -3.889884763516430E-041
 -6.399999999999999E-003   -1.607847065439378E-041
 -6.299999999999999E-003    1.879535182239581E-041
 -6.199999999999999E-003    6.583416867658903E-041
 -6.100000000000000E-003    1.234585300228762E-040
 -5.999999999999999E-003    1.879252475938080E-040
 -5.899999999999999E-003    2.529662523608753E-040
 -5.800000000000000E-003    3.096500403333963E-040
 -5.699999999999999E-003    3.465623843842177E-040
 -5.599999999999999E-003    3.504088887628176E-040
 -5.499999999999999E-003    3.071299703254751E-040
 -5.399999999999999E-003    2.035654129937763E-040
 -5.299999999999999E-003    2.965083257896286E-041
 -5.199999999999999E-003   -2.189475969478215E-040
 -5.099999999999999E-003   -5.379690316041730E-040
 -4.999999999999999E-003   -9.117684549598453E-040
 -4.899999999999999E-003   -1.311024516311265E-039
 -4.799999999999999E-003   -1.691447421467401E-039
 -4.699999999999999E-003   -1.994050910589755E-039
 -4.599999999999999E-003   -2.147547599591550E-039
 -4.499999999999999E-003   -2.073333753533620E-039
 -4.399999999999999E-003   -1.693353255212098E-039
 -4.299999999999999E-003   -9.408370946537819E-040
 -4.199999999999999E-003    2.264676704300423E-040
 -4.099999999999999E-003    1.811470507078233E-039
 -3.999999999999999E-003    3.762721019918668E-039
 -3.899999999999999E-003    5.961158137408702E-039
 -3.799999999999999E-003    8.211051691081382E-039
 -3.699999999999999E-003    1.023784453009096E-038
 -3.599999999999999E-003    1.169565529159707E-038
 -3.499999999999999E-003    1.218687946914004E-038
 -3.399999999999999E-003    1.129554019536685E-038
 -3.299999999999999E-003    8.634830930557059E-039
 -3.199999999999999E-003    3.907527976098740E-039
 -3.099999999999999E-003   -3.024201885066194E-039
 -2.999999999999999E-003   -1.206547001103131E-038
 -2.899999999999999E-003   -2.282015302126600E-038
 -2.799999999999999E-003   -3.453771843779777E-038
 -2.699999999999999E-003   -4.608737093400284E-038
 -2.599999999999999E-003   -5.597194592830293E-038
 -2.499999999999999E-003   -6.239302184327645E-038
 -2.399999999999999E-003   -6.337553151132501E-038
 -2.299999999999999E-003   -5.695560923938367E-038
 -2.199999999999999E-003   -4.142818575950452E-038
 -2.099999999999999E-003   -1.564216313187941E-038
 -1.999999999999999E-003    2.067873966047678E-038
 -1.899999999999999E-003    6.662144582580218E-038
 -1.799999999999999E-003    1.198168052065910E-037
 -1.699999999999999E-003    1.762679810745057E-037
 -1.599999999999999E-003    2.303249386719328E-037
 -1.499999999999999E-003    2.748513369114447E-037
 -1.399999999999999E-003    3.016221703446875E-037
 -1.299999999999999E-003    3.019707589430265E-037
 -1.199999999999999E-003    2.676800628961939E-037
 -1.099999999999999E-003    1.920813293071809E-037
 -9.999999999999989E-004    7.128684090944703E-038
 -8.999999999999990E-004   -9.455290277597667E-038
 -7.999999999999990E-004   -3.001103556639844E-037
 -6.999999999999989E-004   -5.340281323778891E-037
 -5.999999999999990E-004   -7.785291476178915E-037
 -4.999999999999989E-004   -1.009659083944001E-036
 -3.999999999999989E-004   -1.198298047871765E-036
 -2.999999999999989E-004   -1.312020262088077E-036
 -1.999999999999989E-004   -1.317802793679989E-036
 -9.999999999999892E-005   -1.185479842043940E-036
  1.084202172485504E-018   -8.917318937719653E-037
  1.000000000000011E-004   -4.242818761613425E-037
  2.000000000000011E-004    2.141208267755163E-037
  3.000000000000011E-004    1.002425229437091E-036
  4.000000000000011E-004    1.899221137300436E-036
  5.000000000000011E-004    2.842378272718857E-036
  6.000000000000011E-004    3.750764948512343E-036
  7.000000000000011E-004    4.528242542230386E-036
  8.000000000000011E-004    5.069935011167153E-036
  9.000000000000012E-004    5.270482067161713E-036
  1.000000000000001E-003    5.033725724724760E-036
  1.100000000000001E-003    4.283038442566719E-036
  1.200000000000001E-003    2.971304108501437E-036
  1.300000000000001E-003    1.089521115152206E-036
  1.400000000000001E-003   -1.326966891289811E-036
  1.500000000000001E-003   -4.195364894842834E-036
  1.600000000000001E-003   -7.385834903494254E-036
  1.700000000000001E-003   -1.072533401573650E-035
  1.800000000000001E-003   -1.400428640903073E-035
  1.900000000000001E-003   -1.698498002651603E-035
  2.000000000000001E-003   -1.941027201088676E-035
  2.100000000000001E-003   -2.101113125836756E-035
  2.200000000000001E-003   -2.151186607862657E-035
  2.300000000000001E-003   -2.063257525509320E-035
  2.400000000000001E-003   -1.808952333634254E-035
  2.500000000000001E-003   -1.359576514185740E-035
  2.600000000000001E-003   -6.865811511211287E-036
  2.700000000000001E-003    2.370275132018396E-036
  2.800000000000001E-003    1.433700702944471E-035
  2.900000000000001E-003    2.916142773295652E-035
  3.000000000000001E-003    4.679409605215055E-035
  3.100000000000001E-003    6.690147401852804E-035
  3.200000000000001E-003    8.873304961121025E-035
  3.300000000000001E-003    1.109741712333847E-034
  3.400000000000001E-003    1.316037662018185E-034
  3.500000000000001E-003    1.477855367190498E-034
  3.600000000000001E-003    1.558294489725428E-034
  3.700000000000001E-003    1.512668178984153E-034
  3.800000000000001E-003    1.290833614336125E-034
  3.900000000000001E-003    8.414966823999537E-035
  4.000000000000001E-003    1.187408789728929E-035
  4.100000000000001E-003   -9.091847129840689E-035
  4.200000000000001E-003   -2.249157305932477E-034
  4.300000000000001E-003   -3.871273558700312E-034
  4.400000000000001E-003   -5.696994370505926E-034
  4.500000000000001E-003   -7.589050520014981E-034
  4.600000000000002E-003   -9.345294493626578E-034
  4.700000000000001E-003   -1.069894548209140E-033
  4.800000000000001E-003   -1.132772013778803E-033
  4.900000000000002E-003   -1.087408956584374E-033
  5.000000000000001E-003   -8.978131356442728E-034
  5.100000000000001E-003   -5.323304116877842E-034
  5.200000000000001E-003    3.062319391549892E-035
  5.300000000000002E-003    7.960147767228145E-034
  5.400000000000001E-003    1.745413054736106E-033
  5.500000000000001E-003    2.830791029110630E-033
  5.600000000000002E-003    3.969930583007628E-033
  5.700000000000001E-003    5.044611139569246E-033
  5.800000000000001E-003    5.902789296619384E-033
  5.900000000000002E-003    6.365859550241604E-033
  6.000000000000001E-003    6.241813090390495E-033
  6.100000000000001E-003    5.344591453953947E-033
  6.200000000000002E-003    3.519239557618239E-033
  6.300000000000002E-003    6.715745146682366E-034
  6.400000000000001E-003   -3.199921879687803E-033
  6.500000000000001E-003   -7.973297704144333E-033
  6.600000000000002E-003   -1.337766761560753E-032
  6.700000000000001E-003   -1.897801516769665E-032
  6.800000000000001E-003   -2.417548215550910E-032
  6.900000000000002E-003   -2.822796327441450E-032
  7.000000000000001E-003   -3.029490987590264E-032
  7.100000000000001E-003   -2.950824891714378E-032
  7.200000000000002E-003   -2.506878089639754E-032
  7.300000000000002E-003   -1.636393403770751E-032
  7.400000000000001E-003   -3.098869689451633E-033
  7.500000000000001E-003    1.457113998883409E-032
  7.600000000000002E-003    3.592289621967257E-032
  7.700000000000001E-003    5.958090053415889E-032
  7.800000000000001E-003    8.348662054923628E-032
  7.900000000000001E-003    1.049409303722037E-031
  8.000000000000002E-003    1.207361435143749E-031
  8.100000000000001E-003    1.273877181886692E-031
  8.200000000000001E-003    1.214663081400097E-031
  8.300000000000002E-003    1.000189482135209E-031
  8.400000000000001E-003    6.105422773658129E-032
  8.500000000000002E-003    4.051016465061110E-033
  8.600000000000002E-003   -6.956354897272746E-032
  8.700000000000001E-003   -1.560331841429856E-031
  8.800000000000002E-003   -2.490604878628770E-031
  8.900000000000002E-003   -3.398371650916647E-031
  9.000000000000001E-003   -4.173790215309917E-031
  9.100000000000002E-003   -4.692090569021008E-031
  9.200000000000002E-003   -4.824028779807657E-031
  9.300000000000001E-003   -4.449705207636873E-031
  9.400000000000002E-003   -3.475011050851523E-031
  9.500000000000001E-003   -1.849459374468840E-031
  9.600000000000001E-003    4.163263406013721E-032
  9.700000000000002E-003    3.235639050407295E-031
  9.800000000000001E-003    6.435629323936333E-031
  9.900000000000001E-003    9.754669955145126E-031
  1.000000000000000E-002    1.284935017403391E-030
  1.010000000000000E-002    1.531279221104426E-030
  1.020000000000000E-002    1.670506438197959E-030
  1.030000000000000E-002    1.659522287875516E-030
  1.040000000000000E-002    1.461302211289897E-030
  1.050000000000000E-002    1.050674027732994E-030
  1.060000000000000E-002    4.201878694809262E-031
  1.070000000000000E-002   -4.145854554048881E-031
  1.080000000000000E-002   -1.411087393868291E-030
  1.090000000000000E-002   -2.497932281447872E-030
  1.100000000000000E-002   -3.575922951076179E-030
  1.110000000000000E-002   -4.522521362785974E-030
  1.120000000000000E-002   -5.200087529119465E-030
  1.130000000000000E-002   -5.467855212087215E-030
  1.140000000000000E-002   -5.197165330749382E-030
  1.150000000000000E-002   -4.288975294138762E-030
  1.160000000000000E-002   -2.692177295472116E-030
  1.170000000000000E-002   -4.207983240419655E-031
  1.180000000000000E-002    2.432165494447072E-030
  1.190000000000000E-002    5.686663023848132E-030
  1.200000000000000E-002    9.075536260721476E-030
  1.210000000000000E-002    1.225436673149005E-029
  1.220000000000000E-002    1.482243751239061E-029
  1.230000000000000E-002    1.635492867150083E-029
  1.240000000000000E-002    1.644525012347615E-029
  1.250000000000000E-002    1.475502176196087E-029
  1.260000000000000E-002    1.106765573064310E-029
  1.270000000000000E-002    5.340302180063996E-030
  1.280000000000000E-002   -2.252223823225994E-030
  1.290000000000000E-002   -1.128833146756917E-029
  1.300000000000000E-002   -2.109194736584253E-029
  1.310000000000000E-002   -3.075198659541801E-029
  1.320000000000000E-002   -3.917264490966148E-029
  1.330000000000000E-002   -4.515572133698699E-029
  1.340000000000000E-002   -4.751249713448061E-029
  1.350000000000000E-002   -4.519898103856881E-029
  1.360000000000000E-002   -3.746412814033998E-029
  1.370000000000000E-002   -2.399701437270211E-029
  1.380000000000000E-002   -5.055949147155291E-030
  1.390000000000000E-002    1.843899191395419E-029
  1.400000000000000E-002    4.486836798188552E-029
  1.410000000000000E-002    7.194663383256556E-029
  1.420000000000000E-002    9.683753298012424E-029
  1.430000000000000E-002    1.163556689290838E-028
  1.440000000000000E-002    1.272496232413751E-028
  1.450000000000000E-002    1.265513260575196E-028
  1.460000000000000E-002    1.119657988563237E-028
  1.470000000000000E-002    8.226546276374527E-029
  1.480000000000000E-002    3.764508760808399E-029
  1.490000000000000E-002   -2.001084609452739E-029
  1.500000000000000E-002   -8.699674971008304E-029
  1.510000000000000E-002   -1.578328866775788E-028
  1.520000000000000E-002   -2.255214709380376E-028
  1.530000000000000E-002   -2.820248552213667E-028
  1.540000000000000E-002   -3.189563828018296E-028
  1.550000000000000E-002   -3.284474294046368E-028
  1.560000000000000E-002   -3.041278751363143E-028
  1.570000000000000E-002   -2.421304892557655E-028
  1.580000000000000E-002   -1.420102953205769E-028
  1.590000000000000E-002   -7.457755885235369E-030
  1.600000000000000E-002    1.533159147368477E-028
  1.610000000000000E-002    3.276286365366482E-028
  1.620000000000000E-002    4.988909649893990E-028
  1.630000000000000E-002    6.477195750645158E-028
  1.640000000000000E-002    7.535783781431252E-028
  1.650000000000000E-002    7.968617918500518E-028
  1.660000000000000E-002    7.612685069513710E-028
  1.670000000000000E-002    6.362487174976080E-028
  1.680000000000000E-002    4.192605292304796E-028
  1.690000000000000E-002    1.175408251690758E-028
  1.700000000000000E-002   -2.509010927393582E-028
  1.710000000000000E-002   -6.573300189608458E-028
  1.720000000000000E-002   -1.063557148253457E-027
  1.730000000000000E-002   -1.424524255965743E-027
  1.740000000000000E-002   -1.692144460570417E-027
  1.750000000000000E-002   -1.820195855107189E-027
  1.760000000000000E-002   -1.769894373723601E-027
  1.770000000000000E-002   -1.515636871981921E-027
  1.780000000000000E-002   -1.050279225893054E-027
  1.790000000000000E-002   -3.892559765904663E-028
  1.800000000000000E-002    4.271414011880146E-028
  1.810000000000000E-002    1.333937909523707E-027
  1.820000000000000E-002    2.244516615054140E-027
  1.830000000000000E-002    3.056704576941913E-027
  1.840000000000000E-002    3.661753214840030E-027
  1.850000000000000E-002    3.955687255130069E-027
  1.860000000000000E-002    3.852139781664884E-027
  1.870000000000000E-002    3.295439172946565E-027