 -4.000000000000000E-002    0.000000000000000E+000
 -3.990000000000000E-002    0.000000000000000E+000
 -3.980000000000000E-002    0.000000000000000E+000
 -3.970000000000000E-002    0.000000000000000E+000
 -3.960000000000000E-002    0.000000000000000E+000
 -3.950000000000000E-002   -1.948754925701585E-020
 -3.940000000000000E-002   -1.965749430285949E-019
 -3.930000000000000E-002   -1.062055069848593E-018
 -3.920000000000000E-002   -4.062400233243645E-018
 -3.910000000000000E-002   -1.227395377828691E-017
 -3.900000000000000E-002   -3.098207725199916E-017
 -3.890000000000000E-002   -6.742685575754017E-017
 -3.880000000000000E-002   -1.286512137734107E-016
 -3.870000000000000E-002   -2.162081578096592E-016
 -3.860000000000000E-002   -3.167040962338985E-016
 -3.850000000000000E-002   -3.879567817048031E-016
 -3.840000000000000E-002   -3.420024680100722E-016
 -3.830000000000000E-002   -2.819060581431678E-017
 -3.820000000000000E-002    7.781673121975312E-016
 -3.810000000000000E-002    2.374210947303704E-015
 -3.800000000000000E-002    5.106679120936019E-015
 -3.790000000000000E-002    9.320176727288055E-015
 -3.780000000000000E-002    1.527180700268277E-014
 -3.770000000000000E-002    2.301260773876569E-014
 -3.760000000000000E-002    3.224344103683922E-014
 -3.750000000000000E-002    4.216139553651559E-014
 -3.740000000000000E-002    5.132100406656077E-014
 -3.730000000000000E-002    5.754104279331187E-014
 -3.720000000000000E-002    5.789068100591400E-014
 -3.710000000000000E-002    4.878674752579272E-014
 -3.700000000000000E-002    2.622616626626416E-014
 -3.690000000000000E-002   -1.383588833862206E-014
 -3.680000000000000E-002   -7.496991673770879E-014
 -3.670000000000000E-002   -1.596470107137667E-013
 -3.660000000000000E-002   -2.685550912008108E-013
 -3.650000000000000E-002   -3.999255994339829E-013
 -3.640000000000000E-002   -5.489525245267713E-013
 -3.630000000000000E-002   -7.073913490803327E-013
 -3.620000000000000E-002   -8.634211773195628E-013
 -3.610000000000000E-002   -1.001840181756496E-012
 -3.600000000000000E-002   -1.104643480083883E-012
 -3.590000000000000E-002   -1.152003063686546E-012
 -3.580000000000000E-002   -1.123638354987440E-012
 -3.570000000000000E-002   -1.000530618793884E-012
 -3.560000000000000E-002   -7.668995256098365E-013
 -3.550000000000000E-002   -4.123267981842560E-013
 -3.540000000000000E-002    6.611983048165415E-014
 -3.530000000000000E-002    6.619395825473317E-013
 -3.520000000000000E-002    1.357629452634136E-012
 -3.510000000000000E-002    2.123717156645508E-012
 -3.500000000000000E-002    2.918624206113568E-012
 -3.490000000000000E-002    3.689584368054886E-012
 -3.480000000000000E-002    4.374808177961073E-012
 -3.470000000000000E-002    4.907019612648734E-012
 -3.460000000000000E-002    5.218389169746222E-012
 -3.450000000000000E-002    5.246740170960623E-012
 -3.440000000000000E-002    4.942723785520130E-012
 -3.430000000000000E-002    4.277444482139656E-012
 -3.420000000000000E-002    3.249809268683593E-012
 -3.410000000000000E-002    1.892680386783386E-012
 -3.400000000000000E-002    2.767892691100591E-013
 -3.390000000000000E-002   -1.488651627338163E-012
 -3.380000000000000E-002   -3.259588176003642E-012
 -3.370000000000000E-002   -4.865681858789629E-012
 -3.360000000000000E-002   -6.124002450555170E-012
 -3.350000000000000E-002   -6.857470122719690E-012
 -3.340000000000000E-002   -6.916959815657824E-012
 -3.330000000000000E-002   -6.205225380307146E-012
 -3.320000000000000E-002   -4.700142463587664E-012
 -3.310000000000000E-002   -2.474254243353174E-012
 -3.300000000000000E-002    2.926160151936145E-013
 -3.290000000000000E-002    3.310763956270236E-012
 -3.280000000000000E-002    6.190507386531917E-012
 -3.270000000000000E-002    8.466054973231868E-012
 -3.260000000000000E-002    9.633370472840275E-012
 -3.250000000000000E-002    9.200339949625866E-012
 -3.240000000000000E-002    6.745774020135325E-012
 -3.230000000000000E-002    1.981997665308059E-012
 -3.220000000000000E-002   -5.185505078393883E-012
 -3.210000000000000E-002   -1.460879724914167E-011
 -3.200000000000000E-002   -2.586590728910591E-011
 -3.190000000000000E-002   -3.825347127118939E-011
 -3.180000000000000E-002   -5.080833484051211E-011
 -3.170000000000000E-002   -6.236023201880380E-011
 -3.160000000000000E-002   -7.161445165729243E-011
 -3.150000000000000E-002   -7.725986483640183E-011
 -3.140000000000000E-002   -7.809425169102625E-011
 -3.130000000000000E-002   -7.315586371362736E-011
 -3.120000000000000E-002   -6.184824964716475E-011
 -3.110000000000000E-002   -4.404433201966519E-011
 -3.100000000000000E-002   -2.015665595354241E-011
 -3.090000000000000E-002    8.837362271851790E-012
 -3.080000000000000E-002    4.142255063519898E-011
 -3.070000000000000E-002    7.562830735459359E-011
 -3.060000000000000E-002    1.091632703492428E-010
 -3.050000000000000E-002    1.395941072536906E-010
 -3.040000000000000E-002    1.645547931527370E-010
 -3.030000000000000E-002    1.819687501109132E-010
 -3.020000000000000E-002    1.902632352336529E-010
 -3.010000000000000E-002    1.885547895751868E-010
 -3.000000000000000E-002    1.767854013646187E-010
 -2.990000000000000E-002    1.557925683258020E-010
 -2.980000000000000E-002    1.273009092893137E-010
 -2.970000000000000E-002    9.382949954967141E-011
 -2.960000000000000E-002    5.851630178626071E-011
 -2.950000000000000E-002    2.486811424335062E-011
 -2.940000000000000E-002   -3.548439545312199E-012
 -2.930000000000000E-002   -2.345309862060221E-011
 -2.920000000000000E-002   -3.220934534894828E-011
 -2.910000000000000E-002   -2.816358548365932E-011
 -2.900000000000000E-002   -1.093620434198112E-011
 -2.890000000000000E-002    1.836459773848393E-011
 -2.880000000000000E-002    5.703228971495646E-011
 -2.870000000000000E-002    1.007753668252686E-010
 -2.860000000000000E-002    1.438689081877192E-010
 -2.850000000000000E-002    1.794496611789288E-010
 -2.840000000000000E-002    1.999507779654899E-010
 -2.830000000000000E-002    1.976607272256720E-010
 -2.820000000000000E-002    1.653804833005454E-010
 -2.810000000000000E-002    9.714116205318881E-011
 -2.800000000000000E-002   -1.106572698847913E-011
 -2.790000000000000E-002   -1.606025369161100E-010
 -2.780000000000000E-002   -3.496064663216527E-010
 -2.770000000000000E-002   -5.725814447097796E-010
 -2.760000000000000E-002   -8.202226320702393E-010
 -2.750000000000000E-002   -1.079524487549615E-009
 -2.740000000000000E-002   -1.334208723298118E-009
 -2.730000000000000E-002   -1.565486523131570E-009
 -2.720000000000000E-002   -1.753140674655415E-009
 -2.710000000000000E-002   -1.876884256846146E-009
 -2.700000000000000E-002   -1.917918202399231E-009
 -2.690000000000000E-002   -1.860579532531715E-009
 -2.680000000000000E-002   -1.693948858389644E-009
 -2.670000000000000E-002   -1.413267771228337E-009
 -2.660000000000000E-002   -1.021013652172294E-009
 -2.650000000000000E-002   -5.274921002528182E-010
 -2.640000000000000E-002    4.916688644739562E-011
 -2.630000000000000E-002    6.836785598656740E-010
 -2.620000000000000E-002    1.344953399491089E-009
 -2.610000000000000E-002    1.998073613727718E-009
 -2.600000000000000E-002    2.606777959046847E-009
 -2.590000000000000E-002    3.136267520576620E-009
 -2.580000000000000E-002    3.556094217856775E-009
 -2.570000000000000E-002    3.842860192406395E-009
 -2.560000000000000E-002    3.982443958610660E-009
 -2.550000000000000E-002    3.971494120654966E-009
 -2.540000000000000E-002    3.817974438776958E-009
 -2.530000000000000E-002    3.540629279003381E-009
 -2.520000000000000E-002    3.167334938279352E-009
 -2.510000000000000E-002    2.732419709901214E-009
 -2.500000000000000E-002    2.273150515758478E-009
 -2.490000000000000E-002    1.825691196946157E-009
 -2.480000000000000E-002    1.420927139351757E-009
 -2.470000000000000E-002    1.080591767262197E-009
 -2.460000000000000E-002    8.141445767516940E-010
 -2.450000000000000E-002    6.168054229037155E-010
 -2.440000000000000E-002    4.690603737736316E-010
 -2.430000000000000E-002    3.378248499195839E-010
 -2.420000000000000E-002    1.792854657916994E-010
 -2.410000000000000E-002   -5.673605981037830E-011
 -2.400000000000000E-002   -4.212306167216267E-010
 -2.390000000000000E-002   -9.597471641962147E-010
 -2.380000000000000E-002   -1.706044304463345E-009
 -2.370000000000000E-002   -2.676307610233819E-009
 -2.360000000000000E-002   -3.864591940912009E-009
 -2.350000000000000E-002   -5.240072520234960E-009
 -2.340000000000000E-002   -6.746537545378313E-009
 -2.330000000000000E-002   -8.304372247182437E-009
 -2.320000000000000E-002   -9.815027949365156E-009
 -2.310000000000000E-002   -1.116773532295639E-008
 -2.300000000000000E-002   -1.224796527956903E-008
 -2.290000000000000E-002   -1.294693723320364E-008
 -2.280000000000000E-002   -1.317132943430008E-008
 -2.270000000000000E-002   -1.285227752816229E-008
 -2.260000000000000E-002   -1.195274500245802E-008
 -2.250000000000000E-002   -1.047250075215723E-008
 -2.240000000000000E-002   -8.450092113008195E-009
 -2.230000000000000E-002   -5.961478438537096E-009
 -2.220000000000000E-002   -3.115319121892051E-009
 -2.210000000000000E-002   -4.519381242171620E-011
 -2.200000000000000E-002    3.100625816998562E-009
 -2.190000000000000E-002    6.170993470405617E-009
 -2.180000000000000E-002    9.024244909364284E-009
 -2.170000000000000E-002    1.153995213791479E-008
 -2.160000000000000E-002    1.362895688461809E-008
 -2.150000000000000E-002    1.524068343239735E-008
 -2.140000000000000E-002    1.636696388407278E-008
 -2.130000000000000E-002    1.704191202431135E-008
 -2.120000000000000E-002    1.733773691275302E-008
 -2.110000000000000E-002    1.735677472648725E-008
 -2.100000000000000E-002    1.722037054805085E-008
 -2.090000000000000E-002    1.705556739698461E-008
 -2.080000000000000E-002    1.698078378600539E-008
 -2.070000000000000E-002    1.709180239443563E-008
 -2.060000000000000E-002    1.744940003435168E-008
 -2.050000000000000E-002    1.806985195620078E-008
 -2.040000000000000E-002    1.891931153022697E-008
 -2.030000000000000E-002    1.991276819441896E-008
 -2.020000000000000E-002    2.091788494489778E-008
 -2.010000000000000E-002    2.176361430571714E-008
 -2.000000000000000E-002    2.225304554969640E-008
 -1.990000000000000E-002    2.217956886246700E-008
 -1.980000000000000E-002    2.134510528906925E-008
 -1.970000000000000E-002    1.957893742346325E-008
 -1.960000000000000E-002    1.675556162318721E-008
 -1.950000000000000E-002    1.281002709695661E-008
 -1.940000000000000E-002    7.749361156489788E-009
 -1.930000000000000E-002    1.658967798157963E-009
 -1.920000000000000E-002   -5.296719186870338E-009
 -1.910000000000000E-002   -1.287959117450874E-008
 -1.900000000000000E-002   -2.078901156199496E-008
 -1.890000000000000E-002   -2.867799391687280E-008
 -1.880000000000000E-002   -3.617320577536734E-008
 -1.870000000000000E-002   -4.289721911012200E-008
 -1.860000000000000E-002   -4.849113965842625E-008
 -1.850000000000000E-002   -5.263560730804979E-008
 -1.840000000000000E-002   -5.506821519253189E-008
 -1.830000000000000E-002   -5.559562501121382E-008
 -1.820000000000000E-002   -5.409894575530101E-008
 -1.810000000000000E-002   -5.053153027748873E-008
 -1.800000000000000E-002   -4.490894664389018E-008
 -1.790000000000000E-002   -3.729156689118569E-008
 -1.780000000000000E-002   -2.776081102817443E-008
 -1.770000000000000E-002   -1.639092321987199E-008
 -1.760000000000000E-002   -3.218442039833923E-009
 -1.750000000000000E-002    1.178786211174641E-008
 -1.740000000000000E-002    2.875403568605622E-008
 -1.730000000000000E-002    4.792212737515706E-008
 -1.720000000000000E-002    6.966332827041775E-008
 -1.710000000000000E-002    9.448142831151798E-008
 -1.700000000000000E-002    1.230055177932541E-007
 -1.690000000000000E-002    1.559723633060147E-007
 -1.680000000000000E-002    1.941990897278954E-007
 -1.670000000000000E-002    2.385486133849601E-007
 -1.660000000000000E-002    2.898905663446482E-007
 -1.650000000000000E-002    3.490611303334347E-007
 -1.640000000000000E-002    4.168257578820062E-007
 -1.630000000000000E-002    4.938487186005496E-007
 -1.620000000000000E-002    5.806726808286764E-007
 -1.610000000000000E-002    6.777111003379607E-007
 -1.600000000000000E-002    7.852548487780056E-007
 -1.590000000000000E-002    9.034940117444238E-007
 -1.580000000000000E-002    1.032552903539107E-006
 -1.570000000000000E-002    1.172536448695517E-006
 -1.560000000000000E-002    1.323583904842301E-006
 -1.550000000000000E-002    1.485925530715510E-006
 -1.540000000000000E-002    1.659936808968706E-006
 -1.530000000000000E-002    1.846185303401273E-006
 -1.520000000000000E-002    2.045464607856772E-006
 -1.510000000000000E-002    2.258813583861039E-006
 -1.500000000000000E-002    2.487515512599485E-006
 -1.490000000000000E-002    2.733079435074000E-006
 -1.480000000000000E-002    2.997203060820246E-006
 -1.470000000000000E-002    3.281720388267938E-006
 -1.460000000000000E-002    3.588539100848364E-006
 -1.450000000000000E-002    3.919574025292278E-006
 -1.440000000000000E-002    4.276681270183662E-006
 -1.430000000000000E-002    4.661601294012479E-006
 -1.420000000000000E-002    5.075916850868215E-006
 -1.410000000000000E-002    5.521029211235240E-006
 -1.400000000000000E-002    5.998156427512248E-006
 -1.390000000000000E-002    6.508355736304681E-006
 -1.380000000000000E-002    7.052566539499993E-006
 -1.370000000000000E-002    7.631674818729440E-006
 -1.360000000000000E-002    8.246585521629159E-006
 -1.350000000000000E-002    8.898307366583000E-006
 -1.340000000000000E-002    9.588033607774292E-006
 -1.330000000000000E-002    1.031721556859687E-005
 -1.320000000000000E-002    1.108762241838134E-005
 -1.310000000000000E-002    1.190137776809614E-005
 -1.300000000000000E-002    1.276098124245565E-005
 -1.290000000000000E-002    1.366929512556326E-005
 -1.280000000000000E-002    1.462951986223089E-005
 -1.270000000000000E-002    1.564514335169043E-005
 -1.260000000000000E-002    1.671988343725388E-005
 -1.250000000000000E-002    1.785762031181329E-005
 -1.240000000000000E-002    1.906234045299144E-005
 -1.230000000000000E-002    2.033807600188115E-005
 -1.220000000000000E-002    2.168887876955813E-005
 -1.210000000000000E-002    2.311879812288600E-005
 -1.200000000000000E-002    2.463189929330338E-005
 -1.190000000000000E-002    2.623229228030695E-005
 -1.180000000000000E-002    2.792418836502618E-005
 -1.170000000000000E-002    2.971197047843242E-005
 -1.160000000000000E-002    3.160027811247003E-005
 -1.150000000000000E-002    3.359408769992277E-005
 -1.140000000000000E-002    3.569878982157762E-005
 -1.130000000000000E-002    3.792024842013693E-005
 -1.120000000000000E-002    4.026485735952623E-005
 -1.110000000000000E-002    4.273955001176104E-005
 -1.100000000000000E-002    4.535179260962920E-005
 -1.090000000000000E-002    4.810956971349758E-005
 -1.080000000000000E-002    5.102133090159279E-005
 -1.070000000000000E-002    5.409592755466635E-005
 -1.060000000000000E-002    5.734255154330146E-005
 -1.050000000000000E-002    6.077066113317021E-005
 -1.040000000000000E-002    6.438993885756360E-005
 -1.030000000000000E-002    6.821024280202919E-005
 -1.020000000000000E-002    7.224159618000035E-005
 -1.010000000000000E-002    7.649420019955285E-005
 -1.000000000000000E-002    8.097846319755991E-005
 -9.899999999999999E-003    8.570506057717345E-005
 -9.800000000000000E-003    9.068503288158538E-005
 -9.699999999999999E-003    9.592986739893739E-005
 -9.599999999999999E-003    1.014516055507809E-004
 -9.500000000000000E-003    1.072629351442439E-004
 -9.399999999999999E-003    1.133773102981388E-004
 -9.299999999999999E-003    1.198090091233431E-004
 -9.200000000000000E-003    1.265731991661255E-004
 -9.099999999999999E-003    1.336859764404429E-004
 -8.999999999999999E-003    1.411643915068521E-004
 -8.900000000000000E-003    1.490264417218240E-004
 -8.799999999999999E-003    1.572910224555620E-004
 -8.699999999999999E-003    1.659779154538329E-004
 -8.600000000000000E-003    1.751077686752824E-004
 -8.499999999999999E-003    1.847020304935866E-004
 -8.399999999999999E-003    1.947829221730238E-004
 -8.300000000000000E-003    2.053734174017681E-004
 -8.199999999999999E-003    2.164972701460196E-004
 -8.100000000000000E-003    2.281790030918354E-004
 -8.000000000000000E-003    2.404439239053496E-004
 -7.899999999999999E-003    2.533182431688023E-004
 -7.800000000000000E-003    2.668291318454398E-004
 -7.699999999999999E-003    2.810047312055851E-004
 -7.599999999999999E-003    2.958743603650683E-004
 -7.499999999999999E-003    3.114685681439865E-004
 -7.399999999999999E-003    3.278192056754401E-004
 -7.299999999999999E-003    3.449595626980036E-004
 -7.199999999999999E-003    3.629244219705288E-004
 -7.100000000000000E-003    3.817501489933342E-004
 -6.999999999999999E-003    4.014747295016879E-004
 -6.899999999999999E-003    4.221378283415679E-004
 -6.800000000000000E-003    4.437807835524173E-004
 -6.699999999999999E-003    4.664466566999589E-004
 -6.599999999999999E-003    4.901801097795989E-004
 -6.499999999999999E-003    5.150275727763945E-004
 -6.399999999999999E-003    5.410370095952193E-004
 -6.299999999999999E-003    5.682580637162531E-004
 -6.199999999999999E-003    5.967418795175100E-004
 -6.100000000000000E-003    6.265411935673913E-004
 -5.999999999999999E-003    6.577103264513673E-004
 -5.899999999999999E-003    6.903051336131843E-004
 -5.800000000000000E-003    7.243831482022700E-004
 -5.699999999999999E-003    7.600035361153443E-004
 -5.599999999999999E-003    7.972272190830637E-004
 -5.499999999999999E-003    8.361170610586429E-004
 -5.399999999999999E-003    8.767379238033157E-004
 -5.299999999999999E-003    9.191568188690017E-004
 -5.199999999999999E-003    9.634430891832119E-004
 -5.099999999999999E-003    1.009668526708626E-003
 -4.999999999999999E-003    1.057907464798395E-003
 -4.899999999999999E-003    1.108237102011070E-003
 -4.799999999999999E-003    1.160737228411603E-003
 -4.699999999999999E-003    1.215490530349480E-003
 -4.599999999999999E-003    1.272582506265753E-003
 -4.499999999999999E-003    1.332101518412266E-003
 -4.399999999999999E-003    1.394138541897827E-003
 -4.299999999999999E-003    1.458787299582312E-003
 -4.199999999999999E-003    1.526144115183329E-003
 -4.099999999999999E-003    1.596307607023659E-003
 -3.999999999999999E-003    1.669378943700967E-003
 -3.899999999999999E-003    1.745461671146103E-003
 -3.799999999999999E-003    1.824661626096558E-003
 -3.699999999999999E-003    1.907087039461685E-003
 -3.599999999999999E-003    1.992848627917259E-003
 -3.499999999999999E-003    2.082059901682987E-003
 -3.399999999999999E-003    2.174836959578334E-003
 -3.299999999999999E-003    2.271298751139655E-003
 -3.199999999999999E-003    2.371567601528117E-003
 -3.099999999999999E-003    2.475768925097670E-003
 -2.999999999999999E-003    2.584031694495503E-003
 -2.899999999999999E-003    2.696488333934969E-003
 -2.799999999999999E-003    2.813275193793895E-003
 -2.699999999999999E-003    2.934531958116853E-003
 -2.599999999999999E-003    3.060401942209610E-003
 -2.499999999999999E-003    3.191032182854327E-003
 -2.399999999999999E-003    3.326572931421743E-003
 -2.299999999999999E-003    3.467177785474140E-003
 -2.199999999999999E-003    3.613003311789487E-003
 -2.099999999999999E-003    3.764209189955749E-003
 -1.999999999999999E-003    3.920957842978473E-003
 -1.899999999999999E-003    4.083414646807848E-003
 -1.799999999999999E-003    4.251747740180608E-003
 -1.699999999999999E-003    4.426127936276531E-003
 -1.599999999999999E-003    4.606729005033431E-003
 -1.499999999999999E-003    4.793727858071061E-003
 -1.399999999999999E-003    4.987304215064753E-003
 -1.299999999999999E-003    5.187640774586469E-003
 -1.199999999999999E-003    5.394924529341065E-003
 -1.099999999999999E-003    5.609344757779084E-003
 -9.999999999999989E-004    5.831095123097080E-003
 -8.999999999999990E-004    6.060371832072194E-003
 -7.999999999999990E-004    6.297374374924200E-003
 -6.999999999999989E-004    6.542306120223135E-003
 -5.999999999999990E-004    6.795372850242338E-003
 -4.999999999999989E-004    7.056783071811232E-003
 -3.999999999999989E-004    7.326747558664483E-003
 -2.999999999999989E-004    7.605479964263444E-003
 -1.999999999999989E-004    7.893195176724271E-003
 -9.999999999999892E-005    8.190111620575535E-003
  1.084202172485504E-018    8.496447800792138E-003
  1.000000000000011E-004    8.812425046237186E-003
  2.000000000000011E-004    9.138266215742577E-003
  3.000000000000011E-004    9.474196675295754E-003
  4.000000000000011E-004    9.820443051234574E-003
  5.000000000000011E-004    1.017723388433345E-002
  6.000000000000011E-004    1.054479913803086E-002
  7.000000000000011E-004    1.092337091936428E-002
  8.000000000000011E-004    1.131318374075509E-002
  9.000000000000012E-004    1.171447199555989E-002
  1.000000000000001E-003    1.212747225007976E-002
  1.100000000000001E-003    1.255242211451495E-002
  1.200000000000001E-003    1.298955842446995E-002
  1.300000000000001E-003    1.343911876269548E-002
  1.400000000000001E-003    1.390134013322403E-002
  1.500000000000001E-003    1.437645868273834E-002
  1.600000000000001E-003    1.486470936658345E-002
  1.700000000000001E-003    1.536632492608708E-002
  1.800000000000001E-003    1.588153795301632E-002
  1.900000000000001E-003    1.641057602639114E-002
  2.000000000000001E-003    1.695366646269940E-002
  2.100000000000001E-003    1.751103307219166E-002
  2.200000000000001E-003    1.808289749778575E-002
  2.300000000000001E-003    1.866947929629903E-002
  2.400000000000001E-003    1.927099253685648E-002
  2.500000000000001E-003    1.988765180847564E-002
  2.600000000000001E-003    2.051966350153125E-002
  2.700000000000001E-003    2.116723407430512E-002
  2.800000000000001E-003    2.183056162786949E-002
  2.900000000000001E-003    2.250984100732707E-002
  3.000000000000001E-003    2.320526166518673E-002
  3.100000000000001E-003    2.391700632976966E-002
  3.200000000000001E-003    2.464525003191967E-002
  3.300000000000001E-003    2.539016281424189E-002
  3.400000000000001E-003    2.615190598696089E-002
  3.500000000000001E-003    2.693063103162765E-002
  3.600000000000001E-003    2.772648183442908E-002
  3.700000000000001E-003    2.853959369172770E-002
  3.800000000000001E-003    2.937009281950901E-002
  3.900000000000001E-003    3.021809329388894E-002
  4.000000000000001E-003    3.108370003538321E-002
  4.100000000000001E-003    3.196701024823002E-002
  4.200000000000001E-003    3.286810769758482E-002
  4.300000000000001E-003    3.378706610621111E-002
  4.400000000000001E-003    3.472394173938496E-002
  4.500000000000001E-003    3.567878774441411E-002
  4.600000000000002E-003    3.665163759997951E-002
  4.700000000000001E-003    3.764250924381701E-002
  4.800000000000001E-003    3.865141156117297E-002
  4.900000000000002E-003    3.967833708588576E-002
  5.000000000000001E-003    4.072325892103847E-002
  5.100000000000001E-003    4.178613875345136E-002
  5.200000000000001E-003    4.286691643382443E-002
  5.300000000000002E-003    4.396551783011531E-002
  5.400000000000001E-003    4.508184966044156E-002
  5.500000000000001E-003    4.621580147286312E-002
  5.600000000000002E-003    4.736724019052669E-002
  5.700000000000001E-003    4.853602300029227E-002
  5.800000000000001E-003    4.972197922213787E-002
  5.900000000000002E-003    5.092492526200294E-002
  6.000000000000001E-003    5.214465331367384E-002
  6.100000000000001E-003    5.338093295280193E-002
  6.200000000000002E-003    5.463352037957014E-002
  6.300000000000002E-003    5.590214593271209E-002
  6.400000000000001E-003    5.718651693591703E-002
  6.500000000000001E-003    5.848631605202460E-002
  6.600000000000002E-003    5.980120988216135E-002
  6.700000000000001E-003    6.113083294707233E-002
  6.800000000000001E-003    6.247480133013719E-002
  6.900000000000002E-003    6.383270270137080E-002
  7.000000000000001E-003    6.520410240151149E-002
  7.100000000000001E-003    6.658854165515823E-002
  7.200000000000002E-003    6.798553483136674E-002
  7.300000000000002E-003    6.939456704323725E-002
  7.400000000000001E-003    7.081510315107532E-002
  7.500000000000001E-003    7.224657680295256E-002
  7.600000000000002E-003    7.368840593872482E-002
  7.700000000000001E-003    7.513997733987499E-002
  7.800000000000001E-003    7.660064358337128E-002
  7.900000000000001E-003    7.806975124870075E-002
  8.000000000000002E-003    7.954660119582339E-002
  8.100000000000001E-003    8.103047775297283E-002
  8.200000000000001E-003    8.252063387715815E-002
  8.300000000000002E-003    8.401629389141710E-002
  8.400000000000001E-003    8.551666808146208E-002
  8.500000000000002E-003    8.702092515381261E-002
  8.600000000000002E-003    8.852821021775684E-002
  8.700000000000001E-003    9.003764351044818E-002
  8.800000000000002E-003    9.154832307727474E-002
  8.900000000000002E-003    9.305930966014778E-002
  9.000000000000001E-003    9.456964564805778E-002
  9.100000000000002E-003    9.607835007095786E-002
  9.200000000000002E-003    9.758441210772927E-002
  9.300000000000001E-003    9.908680435893140E-002
  9.400000000000002E-003    0.100584462894136     
  9.500000000000001E-003    0.102076308719795     
  9.600000000000001E-003    0.103561240548615     
  9.700000000000002E-003    0.105038131178963     
  9.800000000000001E-003    0.106505831449817     
  9.900000000000001E-003    0.107963175046264     
  1.000000000000000E-002    0.109408965900683     
  1.010000000000000E-002    0.110841998778288     
  1.020000000000000E-002    0.112261039571208     
  1.030000000000000E-002    0.113664830745733     
  1.040000000000000E-002    0.115052104822600     
  1.050000000000000E-002    0.116421576701412     
  1.060000000000000E-002    0.117771937497151     
  1.070000000000000E-002    0.119101869011605     
  1.080000000000000E-002    0.120410036991806     
  1.090000000000000E-002    0.121695096977203     
  1.100000000000000E-002    0.122955692351429     
  1.110000000000000E-002    0.124190450778548     
  1.120000000000000E-002    0.125398000965962     
  1.130000000000000E-002    0.126576955152170     
  1.140000000000000E-002    0.127725925347587     
  1.150000000000000E-002    0.128843513789133     
  1.160000000000000E-002    0.129928314867544     
  1.170000000000000E-002    0.130978929187302     
  1.180000000000000E-002    0.131993959244958     
  1.190000000000000E-002    0.132971990704883     
  1.200000000000000E-002    0.133911634752894     
  1.210000000000000E-002    0.134811488962133     
  1.220000000000000E-002    0.135670158679027     
  1.230000000000000E-002    0.136486262533277     
  1.240000000000000E-002    0.137258419934716     
  1.250000000000000E-002    0.137985276236286     
  1.260000000000000E-002    0.138665459566899     
  1.270000000000000E-002    0.139297655115310     
  1.280000000000000E-002    0.139880526652734     
  1.290000000000000E-002    0.140412788212154     
  1.300000000000000E-002    0.140893142254108     
  1.310000000000000E-002    0.141320354201580     
  1.320000000000000E-002    0.141693176591261     
  1.330000000000000E-002    0.142010413383035     
  1.340000000000000E-002    0.142270888857929     
  1.350000000000000E-002    0.142473444291859     
  1.360000000000000E-002    0.142616977435932     
  1.370000000000000E-002    0.142700419510034     
  1.380000000000000E-002    0.142722704915901     
  1.390000000000000E-002    0.142682850804044     
  1.400000000000000E-002    0.142579894440391     
  1.410000000000000E-002    0.142412902447009     
  1.420000000000000E-002    0.142180999857180     
  1.430000000000000E-002    0.141883365472901     
  1.440000000000000E-002    0.141519225062750     
  1.450000000000000E-002    0.141087830631051     
  1.460000000000000E-002    0.140588516659993     
  1.470000000000000E-002    0.140020664690181     
  1.480000000000000E-002    0.139383710067125     
  1.490000000000000E-002    0.138677147248452     
  1.500000000000000E-002    0.137900528155449     
  1.510000000000000E-002    0.137053481193958     
  1.520000000000000E-002    0.136135697788386     
  1.530000000000000E-002    0.135146908728817     
  1.540000000000000E-002    0.134086941038709     
  1.550000000000000E-002    0.132955677460116     
  1.560000000000000E-002    0.131753068713914     
  1.570000000000000E-002    0.130479140646073     
  1.580000000000000E-002    0.129133989627265     
  1.590000000000000E-002    0.127717792014240     
  1.600000000000000E-002    0.126230795515671     
  1.610000000000000E-002    0.124673316987556     
  1.620000000000000E-002    0.123045767931967     
  1.630000000000000E-002    0.121348629940153     
  1.640000000000000E-002    0.119582457194478     
  1.650000000000000E-002    0.117747894234933     
  1.660000000000000E-002    0.115845670132720     
  1.670000000000000E-002    0.113876577999205     
  1.680000000000000E-002    0.111841514448779     
  1.690000000000000E-002    0.109741444913852     
  1.700000000000000E-002    0.107577421891309     
  1.710000000000000E-002    0.105350583221684     
  1.720000000000000E-002    0.103062145602347     
  1.730000000000000E-002    0.100713395317417     
  1.740000000000000E-002    9.830572265357548E-002
  1.750000000000000E-002    9.584058324455007E-002
  1.760000000000000E-002    9.331951483077411E-002
  1.770000000000000E-002    9.074413188101130E-002
  1.780000000000000E-002    8.811613351951095E-002
  1.790000000000000E-002    8.543729013126379E-002
  1.800000000000000E-002    8.270945582616118E-002
  1.810000000000000E-002    7.993455813143362E-002
  1.820000000000000E-002    7.711459734239696E-002
  1.830000000000000E-002    7.425164693063530E-002
  1.840000000000000E-002    7.134784867911070E-002
  1.850000000000000E-002    6.840541071518391E-002
  1.860000000000000E-002    6.542661452457352E-002
  1.870000000000000E-002    6.241379608804705E-002