 -4.000000000000000E-002    0.000000000000000E+000
 -3.990000000000000E-002    0.000000000000000E+000
 -3.980000000000000E-002    0.000000000000000E+000
 -3.970000000000000E-002    0.000000000000000E+000
 -3.960000000000000E-002    0.000000000000000E+000
 -3.950000000000000E-002    0.000000000000000E+000
 -3.940000000000000E-002    0.000000000000000E+000
 -3.930000000000000E-002    0.000000000000000E+000
 -3.920000000000000E-002    0.000000000000000E+000
 -3.910000000000000E-002    0.000000000000000E+000
 -3.900000000000000E-002    0.000000000000000E+000
 -3.890000000000000E-002    0.000000000000000E+000
 -3.880000000000000E-002    0.000000000000000E+000
 -3.870000000000000E-002    0.000000000000000E+000
 -3.860000000000000E-002    0.000000000000000E+000
 -3.850000000000000E-002    0.000000000000000E+000
 -3.840000000000000E-002    0.000000000000000E+000
 -3.830000000000000E-002    0.000000000000000E+000
 -3.820000000000000E-002    0.000000000000000E+000
 -3.810000000000000E-002    0.000000000000000E+000
 -3.800000000000000E-002    0.000000000000000E+000
 -3.790000000000000E-002    0.000000000000000E+000
 -3.780000000000000E-002    0.000000000000000E+000
 -3.770000000000000E-002    0.000000000000000E+000
 -3.760000000000000E-002    0.000000000000000E+000
 -3.750000000000000E-002    0.000000000000000E+000
 -3.740000000000000E-002    0.000000000000000E+000
 -3.730000000000000E-002    0.000000000000000E+000
 -3.720000000000000E-002    0.000000000000000E+000
 -3.710000000000000E-002    0.000000000000000E+000
 -3.700000000000000E-002    0.000000000000000E+000
 -3.690000000000000E-002    0.000000000000000E+000
 -3.680000000000000E-002    0.000000000000000E+000
 -3.670000000000000E-002    0.000000000000000E+000
 -3.660000000000000E-002    0.000000000000000E+000
 -3.650000000000000E-002    0.000000000000000E+000
 -3.640000000000000E-002    0.000000000000000E+000
 -3.630000000000000E-002    0.000000000000000E+000
 -3.620000000000000E-002    0.000000000000000E+000
 -3.610000000000000E-002    0.000000000000000E+000
 -3.600000000000000E-002    0.000000000000000E+000
 -3.590000000000000E-002    0.000000000000000E+000
 -3.580000000000000E-002    0.000000000000000E+000
 -3.570000000000000E-002    0.000000000000000E+000
 -3.560000000000000E-002    0.000000000000000E+000
 -3.550000000000000E-002    0.000000000000000E+000
 -3.540000000000000E-002    0.000000000000000E+000
 -3.530000000000000E-002    0.000000000000000E+000
 -3.520000000000000E-002    0.000000000000000E+000
 -3.510000000000000E-002    0.000000000000000E+000
 -3.500000000000000E-002    0.000000000000000E+000
 -3.490000000000000E-002    0.000000000000000E+000
 -3.480000000000000E-002    0.000000000000000E+000
 -3.470000000000000E-002    0.000000000000000E+000
 -3.460000000000000E-002    0.000000000000000E+000
 -3.450000000000000E-002    0.000000000000000E+000
 -3.440000000000000E-002    0.000000000000000E+000
 -3.430000000000000E-002    0.000000000000000E+000
 -3.420000000000000E-002    0.000000000000000E+000
 -3.410000000000000E-002    0.000000000000000E+000
 -3.400000000000000E-002    0.000000000000000E+000
 -3.390000000000000E-002    0.000000000000000E+000
 -3.380000000000000E-002    0.000000000000000E+000
 -3.370000000000000E-002    0.000000000000000E+000
 -3.360000000000000E-002    0.000000000000000E+000
 -3.350000000000000E-002    0.000000000000000E+000
 -3.340000000000000E-002    0.000000000000000E+000
 -3.330000000000000E-002    0.000000000000000E+000
 -3.320000000000000E-002    0.000000000000000E+000
 -3.310000000000000E-002    0.000000000000000E+000
 -3.300000000000000E-002    0.000000000000000E+000
 -3.290000000000000E-002    0.000000000000000E+000
 -3.280000000000000E-002    0.000000000000000E+000
 -3.270000000000000E-002    0.000000000000000E+000
 -3.260000000000000E-002    0.000000000000000E+000
 -3.250000000000000E-002    0.000000000000000E+000
 -3.240000000000000E-002    0.000000000000000E+000
 -3.230000000000000E-002    0.000000000000000E+000
 -3.220000000000000E-002    0.000000000000000E+000
 -3.210000000000000E-002    0.000000000000000E+000
 -3.200000000000000E-002    0.000000000000000E+000
 -3.190000000000000E-002    0.000000000000000E+000
 -3.180000000000000E-002    0.000000000000000E+000
 -3.170000000000000E-002    0.000000000000000E+000
 -3.160000000000000E-002    0.000000000000000E+000
 -3.150000000000000E-002    0.000000000000000E+000
 -3.140000000000000E-002    0.000000000000000E+000
 -3.130000000000000E-002    0.000000000000000E+000
 -3.120000000000000E-002    0.000000000000000E+000
 -3.110000000000000E-002    0.000000000000000E+000
 -3.100000000000000E-002    0.000000000000000E+000
 -3.090000000000000E-002    0.000000000000000E+000
 -3.080000000000000E-002    0.000000000000000E+000
 -3.070000000000000E-002    0.000000000000000E+000
 -3.060000000000000E-002    0.000000000000000E+000
 -3.050000000000000E-002    0.000000000000000E+000
 -3.040000000000000E-002    0.000000000000000E+000
 -3.030000000000000E-002    0.000000000000000E+000
 -3.020000000000000E-002    0.000000000000000E+000
 -3.010000000000000E-002    0.000000000000000E+000
 -3.000000000000000E-002    0.000000000000000E+000
 -2.990000000000000E-002    0.000000000000000E+000
 -2.980000000000000E-002    0.000000000000000E+000
 -2.970000000000000E-002    0.000000000000000E+000
 -2.960000000000000E-002    0.000000000000000E+000
 -2.950000000000000E-002    0.000000000000000E+000
 -2.940000000000000E-002    0.000000000000000E+000
 -2.930000000000000E-002    0.000000000000000E+000
 -2.920000000000000E-002    0.000000000000000E+000
 -2.910000000000000E-002    0.000000000000000E+000
 -2.900000000000000E-002    0.000000000000000E+000
 -2.890000000000000E-002    0.000000000000000E+000
 -2.880000000000000E-002    0.000000000000000E+000
 -2.870000000000000E-002    0.000000000000000E+000
 -2.860000000000000E-002    0.000000000000000E+000
 -2.850000000000000E-002    0.000000000000000E+000
 -2.840000000000000E-002    0.000000000000000E+000
 -2.830000000000000E-002    0.000000000000000E+000
 -2.820000000000000E-002    0.000000000000000E+000
 -2.810000000000000E-002    0.000000000000000E+000
 -2.800000000000000E-002    0.000000000000000E+000
 -2.790000000000000E-002    0.000000000000000E+000
 -2.780000000000000E-002    0.000000000000000E+000
 -2.770000000000000E-002    0.000000000000000E+000
 -2.760000000000000E-002    0.000000000000000E+000
 -2.750000000000000E-002    0.000000000000000E+000
 -2.740000000000000E-002    0.000000000000000E+000
 -2.730000000000000E-002    0.000000000000000E+000
 -2.720000000000000E-002    0.000000000000000E+000
 -2.710000000000000E-002    0.000000000000000E+000
 -2.700000000000000E-002    0.000000000000000E+000
 -2.690000000000000E-002    0.000000000000000E+000
 -2.680000000000000E-002    0.000000000000000E+000
 -2.670000000000000E-002    0.000000000000000E+000
 -2.660000000000000E-002    0.000000000000000E+000
 -2.650000000000000E-002    0.000000000000000E+000
 -2.640000000000000E-002    0.000000000000000E+000
 -2.630000000000000E-002    0.000000000000000E+000
 -2.620000000000000E-002    0.000000000000000E+000
 -2.610000000000000E-002    0.000000000000000E+000
 -2.600000000000000E-002    0.000000000000000E+000
 -2.590000000000000E-002    0.000000000000000E+000
 -2.580000000000000E-002    0.000000000000000E+000
 -2.570000000000000E-002    0.000000000000000E+000
 -2.560000000000000E-002    0.000000000000000E+000
 -2.550000000000000E-002    0.000000000000000E+000
 -2.540000000000000E-002    0.000000000000000E+000
 -2.530000000000000E-002    0.000000000000000E+000
 -2.520000000000000E-002    0.000000000000000E+000
 -2.510000000000000E-002    0.000000000000000E+000
 -2.500000000000000E-002    0.000000000000000E+000
 -2.490000000000000E-002    0.000000000000000E+000
 -2.480000000000000E-002    0.000000000000000E+000
 -2.470000000000000E-002    0.000000000000000E+000
 -2.460000000000000E-002    0.000000000000000E+000
 -2.450000000000000E-002    0.000000000000000E+000
 -2.440000000000000E-002    0.000000000000000E+000
 -2.430000000000000E-002    0.000000000000000E+000
 -2.420000000000000E-002    0.000000000000000E+000
 -2.410000000000000E-002    0.000000000000000E+000
 -2.400000000000000E-002    0.000000000000000E+000
 -2.390000000000000E-002    0.000000000000000E+000
 -2.380000000000000E-002    0.000000000000000E+000
 -2.370000000000000E-002    0.000000000000000E+000
 -2.360000000000000E-002    0.000000000000000E+000
 -2.350000000000000E-002    0.000000000000000E+000
 -2.340000000000000E-002    0.000000000000000E+000
 -2.330000000000000E-002    0.000000000000000E+000
 -2.320000000000000E-002    0.000000000000000E+000
 -2.310000000000000E-002    0.000000000000000E+000
 -2.300000000000000E-002    0.000000000000000E+000
 -2.290000000000000E-002    0.000000000000000E+000
 -2.280000000000000E-002    0.000000000000000E+000
 -2.270000000000000E-002    0.000000000000000E+000
 -2.260000000000000E-002    0.000000000000000E+000
 -2.250000000000000E-002    0.000000000000000E+000
 -2.240000000000000E-002    0.000000000000000E+000
 -2.230000000000000E-002    0.000000000000000E+000
 -2.220000000000000E-002    0.000000000000000E+000
 -2.210000000000000E-002    0.000000000000000E+000
 -2.200000000000000E-002    0.000000000000000E+000
 -2.190000000000000E-002    0.000000000000000E+000
 -2.180000000000000E-002    0.000000000000000E+000
 -2.170000000000000E-002    0.000000000000000E+000
 -2.160000000000000E-002    0.000000000000000E+000
 -2.150000000000000E-002    0.000000000000000E+000
 -2.140000000000000E-002    0.000000000000000E+000
 -2.130000000000000E-002    0.000000000000000E+000
 -2.120000000000000E-002    0.000000000000000E+000
 -2.110000000000000E-002    0.000000000000000E+000
 -2.100000000000000E-002    0.000000000000000E+000
 -2.090000000000000E-002    0.000000000000000E+000
 -2.080000000000000E-002    0.000000000000000E+000
 -2.070000000000000E-002    0.000000000000000E+000
 -2.060000000000000E-002    0.000000000000000E+000
 -2.050000000000000E-002    0.000000000000000E+000
 -2.040000000000000E-002    0.000000000000000E+000
 -2.030000000000000E-002    0.000000000000000E+000
 -2.020000000000000E-002    0.000000000000000E+000
 -2.010000000000000E-002    0.000000000000000E+000
 -2.000000000000000E-002    0.000000000000000E+000
 -1.990000000000000E-002    0.000000000000000E+000
 -1.980000000000000E-002    0.000000000000000E+000
 -1.970000000000000E-002    0.000000000000000E+000
 -1.960000000000000E-002    0.000000000000000E+000
 -1.950000000000000E-002    0.000000000000000E+000
 -1.940000000000000E-002    0.000000000000000E+000
 -1.930000000000000E-002    0.000000000000000E+000
 -1.920000000000000E-002    0.000000000000000E+000
 -1.910000000000000E-002    0.000000000000000E+000
 -1.900000000000000E-002    0.000000000000000E+000
 -1.890000000000000E-002    0.000000000000000E+000
 -1.880000000000000E-002    0.000000000000000E+000
 -1.870000000000000E-002    0.000000000000000E+000
 -1.860000000000000E-002    0.000000000000000E+000
 -1.850000000000000E-002    0.000000000000000E+000
 -1.840000000000000E-002    0.000000000000000E+000
 -1.830000000000000E-002    0.000000000000000E+000
 -1.820000000000000E-002    0.000000000000000E+000
 -1.810000000000000E-002    0.000000000000000E+000
 -1.800000000000000E-002    0.000000000000000E+000
 -1.790000000000000E-002    0.000000000000000E+000
 -1.780000000000000E-002    0.000000000000000E+000
 -1.770000000000000E-002    0.000000000000000E+000
 -1.760000000000000E-002    0.000000000000000E+000
 -1.750000000000000E-002    0.000000000000000E+000
 -1.740000000000000E-002    0.000000000000000E+000
 -1.730000000000000E-002    0.000000000000000E+000
 -1.720000000000000E-002    0.000000000000000E+000
 -1.710000000000000E-002    0.000000000000000E+000
 -1.700000000000000E-002    0.000000000000000E+000
 -1.690000000000000E-002    0.000000000000000E+000
 -1.680000000000000E-002    0.000000000000000E+000
 -1.670000000000000E-002    0.000000000000000E+000
 -1.660000000000000E-002    0.000000000000000E+000
 -1.650000000000000E-002    0.000000000000000E+000
 -1.640000000000000E-002    0.000000000000000E+000
 -1.630000000000000E-002    0.000000000000000E+000
 -1.620000000000000E-002    0.000000000000000E+000
 -1.610000000000000E-002    0.000000000000000E+000
 -1.600000000000000E-002    0.000000000000000E+000
 -1.590000000000000E-002    0.000000000000000E+000
 -1.580000000000000E-002    0.000000000000000E+000
 -1.570000000000000E-002    0.000000000000000E+000
 -1.560000000000000E-002    0.000000000000000E+000
 -1.550000000000000E-002    0.000000000000000E+000
 -1.540000000000000E-002    0.000000000000000E+000
 -1.530000000000000E-002    0.000000000000000E+000
 -1.520000000000000E-002    0.000000000000000E+000
 -1.510000000000000E-002    0.000000000000000E+000
 -1.500000000000000E-002    0.000000000000000E+000
 -1.490000000000000E-002    0.000000000000000E+000
 -1.480000000000000E-002    0.000000000000000E+000
 -1.470000000000000E-002    0.000000000000000E+000
 -1.460000000000000E-002    0.000000000000000E+000
 -1.450000000000000E-002    0.000000000000000E+000
 -1.440000000000000E-002    0.000000000000000E+000
 -1.430000000000000E-002    0.000000000000000E+000
 -1.420000000000000E-002    0.000000000000000E+000
 -1.410000000000000E-002    0.000000000000000E+000
 -1.400000000000000E-002    0.000000000000000E+000
 -1.390000000000000E-002    0.000000000000000E+000
 -1.380000000000000E-002    0.000000000000000E+000
 -1.370000000000000E-002    0.000000000000000E+000
 -1.360000000000000E-002    0.000000000000000E+000
 -1.350000000000000E-002    0.000000000000000E+000
 -1.340000000000000E-002    0.000000000000000E+000
 -1.330000000000000E-002    0.000000000000000E+000
 -1.320000000000000E-002    0.000000000000000E+000
 -1.310000000000000E-002    0.000000000000000E+000
 -1.300000000000000E-002    0.000000000000000E+000
 -1.290000000000000E-002    0.000000000000000E+000
 -1.280000000000000E-002    0.000000000000000E+000
 -1.270000000000000E-002    0.000000000000000E+000
 -1.260000000000000E-002    0.000000000000000E+000
 -1.250000000000000E-002    0.000000000000000E+000
 -1.240000000000000E-002    0.000000000000000E+000
 -1.230000000000000E-002    0.000000000000000E+000
 -1.220000000000000E-002    0.000000000000000E+000
 -1.210000000000000E-002    0.000000000000000E+000
 -1.200000000000000E-002    0.000000000000000E+000
 -1.190000000000000E-002    0.000000000000000E+000
 -1.180000000000000E-002    0.000000000000000E+000
 -1.170000000000000E-002    0.000000000000000E+000
 -1.160000000000000E-002    0.000000000000000E+000
 -1.150000000000000E-002    0.000000000000000E+000
 -1.140000000000000E-002    0.000000000000000E+000
 -1.130000000000000E-002    0.000000000000000E+000
 -1.120000000000000E-002    0.000000000000000E+000
 -1.110000000000000E-002    0.000000000000000E+000
 -1.100000000000000E-002    0.000000000000000E+000
 -1.090000000000000E-002    0.000000000000000E+000
 -1.080000000000000E-002    0.000000000000000E+000
 -1.070000000000000E-002    0.000000000000000E+000
 -1.060000000000000E-002    0.000000000000000E+000
 -1.050000000000000E-002    0.000000000000000E+000
 -1.040000000000000E-002    0.000000000000000E+000
 -1.030000000000000E-002    0.000000000000000E+000
 -1.020000000000000E-002    0.000000000000000E+000
 -1.010000000000000E-002    0.000000000000000E+000
 -1.000000000000000E-002    0.000000000000000E+000
 -9.899999999999999E-003    0.000000000000000E+000
 -9.800000000000000E-003    0.000000000000000E+000
 -9.699999999999999E-003    0.000000000000000E+000
 -9.599999999999999E-003    0.000000000000000E+000
 -9.500000000000000E-003    0.000000000000000E+000
 -9.399999999999999E-003    0.000000000000000E+000
 -9.299999999999999E-003    0.000000000000000E+000
 -9.200000000000000E-003    0.000000000000000E+000
 -9.099999999999999E-003    0.000000000000000E+000
 -8.999999999999999E-003    0.000000000000000E+000
 -8.900000000000000E-003    0.000000000000000E+000
 -8.799999999999999E-003    0.000000000000000E+000
 -8.699999999999999E-003    0.000000000000000E+000
 -8.600000000000000E-003    0.000000000000000E+000
 -8.499999999999999E-003    0.000000000000000E+000
 -8.399999999999999E-003    0.000000000000000E+000
 -8.300000000000000E-003    0.000000000000000E+000
 -8.199999999999999E-003    0.000000000000000E+000
 -8.100000000000000E-003    0.000000000000000E+000
 -8.000000000000000E-003    0.000000000000000E+000
 -7.899999999999999E-003    0.000000000000000E+000
 -7.800000000000000E-003    0.000000000000000E+000
 -7.699999999999999E-003    0.000000000000000E+000
 -7.599999999999999E-003    0.000000000000000E+000
 -7.499999999999999E-003    0.000000000000000E+000
 -7.399999999999999E-003    0.000000000000000E+000
 -7.299999999999999E-003    0.000000000000000E+000
 -7.199999999999999E-003    0.000000000000000E+000
 -7.100000000000000E-003    0.000000000000000E+000
 -6.999999999999999E-003    0.000000000000000E+000
 -6.899999999999999E-003    0.000000000000000E+000
 -6.800000000000000E-003    0.000000000000000E+000
 -6.699999999999999E-003    0.000000000000000E+000
 -6.599999999999999E-003    0.000000000000000E+000
 -6.499999999999999E-003    0.000000000000000E+000
 -6.399999999999999E-003    0.000000000000000E+000
 -6.299999999999999E-003    0.000000000000000E+000
 -6.199999999999999E-003    0.000000000000000E+000
 -6.100000000000000E-003    0.000000000000000E+000
 -5.999999999999999E-003    0.000000000000000E+000
 -5.899999999999999E-003    0.000000000000000E+000
 -5.800000000000000E-003    0.000000000000000E+000
 -5.699999999999999E-003    0.000000000000000E+000
 -5.599999999999999E-003    0.000000000000000E+000
 -5.499999999999999E-003    0.000000000000000E+000
 -5.399999999999999E-003    0.000000000000000E+000
 -5.299999999999999E-003   -1.693953216174856E-048
 -5.199999999999999E-003   -3.387906432349712E-048
 -5.099999999999999E-003   -3.387906432349712E-048
 -4.999999999999999E-003   -3.387906432349712E-048
 -4.899999999999999E-003   -3.387906432349712E-048
 -4.799999999999999E-003   -1.693953216174856E-048
 -4.699999999999999E-003    1.693953216174856E-048
 -4.599999999999999E-003   -7.238354936170667E-048
 -4.499999999999999E-003   -8.050279330604706E-048
 -4.399999999999999E-003   -7.745734550266544E-048
 -4.299999999999999E-003   -7.441189769928381E-048
 -4.199999999999999E-003   -5.383188706675456E-048
 -4.099999999999999E-003   -8.466550358687006E-048
 -3.999999999999999E-003   -1.150189214590167E-047
 -3.899999999999999E-003   -2.521564128759251E-048
 -3.799999999999999E-003    4.822570004118600E-047
 -3.699999999999999E-003    8.369300288037467E-047
 -3.599999999999999E-003    1.236330758074116E-046
 -3.499999999999999E-003    1.662924625393820E-046
 -3.399999999999999E-003    2.016952773976942E-046
 -3.299999999999999E-003    2.096304319891535E-046
 -3.199999999999999E-003    1.776695031754555E-046
 -3.099999999999999E-003    1.076057864179133E-046
 -2.999999999999999E-003    1.714125610748458E-048
 -2.899999999999999E-003   -2.435741033501746E-046
 -2.799999999999999E-003    3.383731882397791E-046
 -2.699999999999999E-003    3.790685337925847E-046
 -2.599999999999999E-003    2.616797522611814E-046
 -2.499999999999999E-003    1.967080537982123E-046
 -2.399999999999999E-003   -7.730323981863668E-046
 -2.299999999999999E-003   -9.284494282389391E-046
 -2.199999999999999E-003   -1.830053714571560E-045
 -2.099999999999999E-003   -3.318328766888118E-045
 -1.999999999999999E-003   -4.524019283517248E-045
 -1.899999999999999E-003   -6.411602132140014E-045
 -1.799999999999999E-003   -7.298472321706768E-045
 -1.699999999999999E-003   -6.897341049653494E-045
 -1.599999999999999E-003   -6.050419984343899E-045
 -1.499999999999999E-003   -3.393375100883561E-045
 -1.399999999999999E-003    5.364178241642930E-046
 -1.299999999999999E-003    6.456558362109932E-045
 -1.199999999999999E-003    1.398268369776218E-044
 -1.099999999999999E-003    2.352314123747578E-044
 -9.999999999999989E-004    3.390867531776230E-044
 -8.999999999999990E-004    4.399319422361590E-044
 -7.999999999999990E-004    5.160882039050413E-044
 -6.999999999999989E-004    5.530357080317436E-044
 -5.999999999999990E-004    5.244766657058468E-044
 -4.999999999999989E-004    4.101217631335093E-044
 -3.999999999999989E-004    1.900664241147431E-044
 -2.999999999999989E-004   -1.565583534082362E-044
 -1.999999999999989E-004   -6.291247267355055E-044
 -9.999999999999892E-005   -1.211364338146519E-043
  1.084202172485504E-018   -1.870667627168565E-043
  1.000000000000011E-004   -2.556497892826437E-043
  2.000000000000011E-004   -3.176441886846307E-043
  3.000000000000011E-004   -3.610305644807010E-043
  4.000000000000011E-004   -3.724406651693481E-043
  5.000000000000011E-004   -3.360622969435136E-043
  6.000000000000011E-004   -2.372088879194949E-043
  7.000000000000011E-004   -6.287116694314610E-044
  8.000000000000011E-004    1.940255693357100E-043
  9.000000000000012E-004    5.318227824392262E-043
  1.000000000000001E-003    9.382593267150710E-043
  1.100000000000001E-003    1.383247250625455E-042
  1.200000000000001E-003    1.820540091599133E-042
  1.300000000000001E-003    2.185638775097687E-042
  1.400000000000001E-003    2.397444370627233E-042
  1.500000000000001E-003    2.362755122664820E-042
  1.600000000000001E-003    1.986705826792728E-042
  1.700000000000001E-003    1.181749919818936E-042
  1.800000000000001E-003   -1.135715020112615E-043
  1.900000000000001E-003   -1.917963103439375E-042
  2.000000000000001E-003   -4.185129296594686E-042
  2.100000000000001E-003   -6.786791921630203E-042
  2.200000000000001E-003   -9.497736732566501E-042
  2.300000000000001E-003   -1.198530837793172E-041
  2.400000000000001E-003   -1.381820451457831E-041
  2.500000000000001E-003   -1.448684937735973E-041
  2.600000000000001E-003   -1.344427639271964E-041
  2.700000000000001E-003   -1.016460016072699E-041
  2.800000000000001E-003   -4.226976704787230E-042
  2.900000000000001E-003    4.584744429898651E-042
  3.000000000000001E-003    1.617809259641064E-041
  3.100000000000001E-003    3.004202314322850E-041
  3.200000000000001E-003    4.515918368735940E-041
  3.300000000000001E-003    5.995813767524121E-041
  3.400000000000001E-003    7.231682218113126E-041
  3.500000000000001E-003    7.964793461625347E-041
  3.600000000000001E-003    7.907754436290516E-041
  3.700000000000001E-003    6.773524649444221E-041
  3.800000000000001E-003    4.314246820543506E-041
  3.900000000000001E-003    3.697866069554392E-042
  4.000000000000001E-003   -5.078458821852513E-041
  4.100000000000001E-003   -1.185373569828523E-040
  4.200000000000001E-003   -1.953649208619119E-040
  4.300000000000001E-003   -2.743358284689583E-040
  4.400000000000001E-003   -3.457335950951059E-040
  4.500000000000001E-003   -3.973668733375092E-040
  4.600000000000002E-003   -4.153319987984662E-040
  4.700000000000001E-003   -3.852650759395898E-040
  4.800000000000001E-003   -2.941119831872670E-040
  4.900000000000002E-003   -1.323306602570825E-040
  5.000000000000001E-003    1.036030936178854E-040
  5.100000000000001E-003    4.086330555095745E-040
  5.200000000000001E-003    7.668262124027418E-040
  5.300000000000002E-003    1.149740107326764E-039
  5.400000000000001E-003    1.515905706741015E-039
  5.500000000000001E-003    1.811878996662116E-039
  5.600000000000002E-003    1.975242011501284E-039
  5.700000000000001E-003    1.939812392232902E-039
  5.800000000000001E-003    1.643102454616424E-039
  5.900000000000002E-003    1.035784254906759E-039
  6.000000000000001E-003    9.255204305986055E-041
  6.100000000000001E-003   -1.176597301283724E-039
  6.200000000000002E-003   -2.716037127440906E-039
  6.300000000000002E-003   -4.416818982878652E-039
  6.400000000000001E-003   -6.113504260482450E-039
  6.500000000000001E-003   -7.587398729016100E-039
  6.600000000000002E-003   -8.577829606062063E-039
  6.700000000000001E-003   -8.802548980012984E-039
  6.800000000000001E-003   -7.987487288417265E-039
  6.900000000000002E-003   -5.904888344002086E-039
  7.000000000000001E-003   -2.417447094452334E-039
  7.100000000000001E-003    2.475468212418526E-039
  7.200000000000002E-003    8.594953978760393E-039
  7.300000000000002E-003    1.554972503975637E-038
  7.400000000000001E-003    2.272072736974864E-038
  7.500000000000001E-003    2.927057619538797E-038
  7.600000000000002E-003    3.418420812174002E-038
  7.700000000000001E-003    3.634491269931738E-038
  7.800000000000001E-003    3.464658453062367E-038
  7.900000000000001E-003    2.813839449783390E-038
  8.000000000000002E-003    1.619274038875538E-038
  8.100000000000001E-003   -1.318383861448825E-039
  8.200000000000001E-003   -2.385922197806189E-038
  8.300000000000002E-003   -5.010308706029696E-038
  8.400000000000001E-003   -7.786970481651180E-038
  8.500000000000002E-003   -1.041538730661588E-037
  8.600000000000002E-003   -1.252683267251037E-037
  8.700000000000001E-003   -1.371150003839432E-037
  8.800000000000002E-003   -1.355864933247779E-037
  8.900000000000002E-003   -1.170827368880638E-037
  9.000000000000001E-003   -7.910836181651974E-038
  9.100000000000002E-003   -2.089678600559713E-038
  9.200000000000002E-003    5.601300371413862E-038
  9.300000000000001E-003    1.473338755858881E-037
  9.400000000000002E-003    2.458167086326654E-037
  9.500000000000001E-003    3.413554589771662E-037
  9.600000000000001E-003    4.214843744944215E-037
  9.700000000000002E-003    4.723089584439418E-037
  9.800000000000001E-003    4.798675102533789E-037
  9.900000000000001E-003    4.318615049602712E-037
  1.000000000000000E-002    3.196305430949318E-037
  1.010000000000000E-002    1.401804872382844E-037
  1.020000000000000E-002   -1.019823553475133E-037
  1.030000000000000E-002   -3.934977133196742E-037
  1.040000000000000E-002   -7.115768513497612E-037
  1.050000000000000E-002   -1.024478176748458E-036
  1.060000000000000E-002   -1.293239715511184E-036
  1.070000000000000E-002   -1.474757122636136E-036
  1.080000000000000E-002   -1.526145855357509E-036
  1.090000000000000E-002   -1.410139802297630E-036
  1.100000000000000E-002   -1.101080036822663E-036
  1.110000000000000E-002   -5.908628038898831E-037
  1.120000000000000E-002    1.059377720198447E-037
  1.130000000000000E-002    9.486351481279385E-037
  1.140000000000000E-002    1.869526775491146E-036
  1.150000000000000E-002    2.776241532921011E-036
  1.160000000000000E-002    3.557775163105359E-036
  1.170000000000000E-002    4.094284475890127E-036
  1.180000000000000E-002    4.270200114750081E-036
  1.190000000000000E-002    3.989684095950551E-036
  1.200000000000000E-002    3.192908027161774E-036
  1.210000000000000E-002    1.871163896499548E-036
  1.220000000000000E-002    7.853091556517723E-038
  1.230000000000000E-002   -2.062229117361763E-036
  1.240000000000000E-002   -4.361605930023570E-036
  1.250000000000000E-002   -6.574549101775293E-036
  1.260000000000000E-002   -8.421395948830990E-036
  1.270000000000000E-002   -9.617739283711313E-036
  1.280000000000000E-002   -9.910968116876797E-036
  1.290000000000000E-002   -9.119786729163452E-036
  1.300000000000000E-002   -7.171714395271736E-036
  1.310000000000000E-002   -4.132789561747183E-036
  1.320000000000000E-002   -2.234515285332369E-037
  1.330000000000000E-002    4.184676604072956E-036
  1.340000000000000E-002    8.594793554540202E-036
  1.350000000000000E-002    1.243482083860924E-035
  1.360000000000000E-002    1.512888989612228E-035
  1.370000000000000E-002    1.618425096418478E-035
  1.380000000000000E-002    1.528355779105508E-035
  1.390000000000000E-002    1.236919017840894E-035
  1.400000000000000E-002    7.704099421648476E-036
  1.410000000000000E-002    1.893681004331239E-036
  1.420000000000000E-002   -4.144844440492499E-036
  1.430000000000000E-002   -9.273880085892315E-036
  1.440000000000000E-002   -1.228858549464651E-035
  1.450000000000000E-002   -1.212265780862923E-035
  1.460000000000000E-002   -8.086497836958802E-036
  1.470000000000000E-002   -1.066635972832313E-037
  1.480000000000000E-002    1.107363660644361E-035
  1.490000000000000E-002    2.377886225599773E-035
  1.500000000000000E-002    3.541496301104794E-035
  1.510000000000000E-002    4.265029027141171E-035
  1.520000000000000E-002    4.178457385840971E-035
  1.530000000000000E-002    2.930278595383470E-035
  1.540000000000000E-002    2.580080676809080E-036
  1.550000000000000E-002   -3.933115151504589E-035
  1.560000000000000E-002   -9.493511663897955E-035
  1.570000000000000E-002   -1.596787889742653E-034
  1.580000000000000E-002   -2.256386805751564E-034
  1.590000000000000E-002   -2.816544778306214E-034
  1.600000000000000E-002   -3.140313074668030E-034
  1.610000000000000E-002   -3.078823636657373E-034
  1.620000000000000E-002   -2.491047737594838E-034
  1.630000000000000E-002   -1.268852534433921E-034
  1.640000000000000E-002    6.348375348325315E-035
  1.650000000000000E-002    3.178074025430080E-034
  1.660000000000000E-002    6.206423755495334E-034
  1.670000000000000E-002    9.438927348682476E-034
  1.680000000000000E-002    1.246849851934536E-033
  1.690000000000000E-002    1.478114423096975E-033
  1.700000000000000E-002    1.579693914255780E-033
  1.710000000000000E-002    1.493338152630094E-033
  1.720000000000000E-002    1.168868109552973E-033
  1.730000000000000E-002    5.738941059482080E-034
  1.740000000000000E-002   -2.960561649812198E-034
  1.750000000000000E-002   -1.408325341413991E-033
  1.760000000000000E-002   -2.686403110655039E-033
  1.770000000000000E-002   -4.007369647084842E-033
  1.780000000000000E-002   -5.205063491374933E-033
  1.790000000000000E-002   -6.080181669409522E-033
  1.800000000000000E-002   -6.417882611230664E-033
  1.810000000000000E-002   -6.012571293565519E-033
  1.820000000000000E-002   -4.698477302236962E-033
  1.830000000000000E-002   -2.383433410962800E-033
  1.840000000000000E-002    9.178667331874220E-034
  1.850000000000000E-002    5.055813100823587E-033
  1.860000000000000E-002    9.728243304144393E-033
  1.870000000000000E-002    1.447842963886694E-032