 -4.000000000000000E-002    0.000000000000000E+000
 -3.990000000000000E-002    0.000000000000000E+000
 -3.980000000000000E-002    0.000000000000000E+000
 -3.970000000000000E-002    0.000000000000000E+000
 -3.960000000000000E-002    0.000000000000000E+000
 -3.950000000000000E-002    0.000000000000000E+000
 -3.940000000000000E-002    0.000000000000000E+000
 -3.930000000000000E-002    0.000000000000000E+000
 -3.920000000000000E-002    0.000000000000000E+000
 -3.910000000000000E-002    0.000000000000000E+000
 -3.900000000000000E-002    0.000000000000000E+000
 -3.890000000000000E-002    0.000000000000000E+000
 -3.880000000000000E-002    0.000000000000000E+000
 -3.870000000000000E-002    0.000000000000000E+000
 -3.860000000000000E-002    0.000000000000000E+000
 -3.850000000000000E-002    0.000000000000000E+000
 -3.840000000000000E-002    0.000000000000000E+000
 -3.830000000000000E-002    0.000000000000000E+000
 -3.820000000000000E-002    0.000000000000000E+000
 -3.810000000000000E-002    0.000000000000000E+000
 -3.800000000000000E-002    0.000000000000000E+000
 -3.790000000000000E-002    0.000000000000000E+000
 -3.780000000000000E-002    0.000000000000000E+000
 -3.770000000000000E-002    0.000000000000000E+000
 -3.760000000000000E-002    0.000000000000000E+000
 -3.750000000000000E-002    0.000000000000000E+000
 -3.740000000000000E-002    0.000000000000000E+000
 -3.730000000000000E-002    0.000000000000000E+000
 -3.720000000000000E-002    0.000000000000000E+000
 -3.710000000000000E-002    0.000000000000000E+000
 -3.700000000000000E-002    0.000000000000000E+000
 -3.690000000000000E-002    0.000000000000000E+000
 -3.680000000000000E-002    0.000000000000000E+000
 -3.670000000000000E-002    0.000000000000000E+000
 -3.660000000000000E-002    0.000000000000000E+000
 -3.650000000000000E-002    0.000000000000000E+000
 -3.640000000000000E-002    0.000000000000000E+000
 -3.630000000000000E-002    0.000000000000000E+000
 -3.620000000000000E-002    0.000000000000000E+000
 -3.610000000000000E-002    0.000000000000000E+000
 -3.600000000000000E-002    0.000000000000000E+000
 -3.590000000000000E-002    0.000000000000000E+000
 -3.580000000000000E-002    0.000000000000000E+000
 -3.570000000000000E-002    0.000000000000000E+000
 -3.560000000000000E-002    0.000000000000000E+000
 -3.550000000000000E-002    0.000000000000000E+000
 -3.540000000000000E-002    0.000000000000000E+000
 -3.530000000000000E-002    0.000000000000000E+000
 -3.520000000000000E-002    0.000000000000000E+000
 -3.510000000000000E-002    0.000000000000000E+000
 -3.500000000000000E-002    0.000000000000000E+000
 -3.490000000000000E-002    0.000000000000000E+000
 -3.480000000000000E-002    0.000000000000000E+000
 -3.470000000000000E-002    0.000000000000000E+000
 -3.460000000000000E-002    0.000000000000000E+000
 -3.450000000000000E-002    0.000000000000000E+000
 -3.440000000000000E-002    0.000000000000000E+000
 -3.430000000000000E-002    0.000000000000000E+000
 -3.420000000000000E-002    0.000000000000000E+000
 -3.410000000000000E-002    0.000000000000000E+000
 -3.400000000000000E-002    0.000000000000000E+000
 -3.390000000000000E-002    0.000000000000000E+000
 -3.380000000000000E-002    0.000000000000000E+000
 -3.370000000000000E-002    0.000000000000000E+000
 -3.360000000000000E-002    0.000000000000000E+000
 -3.350000000000000E-002    0.000000000000000E+000
 -3.340000000000000E-002    0.000000000000000E+000
 -3.330000000000000E-002    0.000000000000000E+000
 -3.320000000000000E-002    0.000000000000000E+000
 -3.310000000000000E-002    0.000000000000000E+000
 -3.300000000000000E-002    0.000000000000000E+000
 -3.290000000000000E-002    0.000000000000000E+000
 -3.280000000000000E-002    0.000000000000000E+000
 -3.270000000000000E-002    0.000000000000000E+000
 -3.260000000000000E-002    0.000000000000000E+000
 -3.250000000000000E-002    0.000000000000000E+000
 -3.240000000000000E-002    0.000000000000000E+000
 -3.230000000000000E-002    0.000000000000000E+000
 -3.220000000000000E-002    0.000000000000000E+000
 -3.210000000000000E-002    0.000000000000000E+000
 -3.200000000000000E-002    0.000000000000000E+000
 -3.190000000000000E-002    0.000000000000000E+000
 -3.180000000000000E-002    0.000000000000000E+000
 -3.170000000000000E-002    0.000000000000000E+000
 -3.160000000000000E-002    0.000000000000000E+000
 -3.150000000000000E-002    0.000000000000000E+000
 -3.140000000000000E-002    0.000000000000000E+000
 -3.130000000000000E-002    0.000000000000000E+000
 -3.120000000000000E-002    0.000000000000000E+000
 -3.110000000000000E-002    0.000000000000000E+000
 -3.100000000000000E-002    0.000000000000000E+000
 -3.090000000000000E-002    0.000000000000000E+000
 -3.080000000000000E-002    0.000000000000000E+000
 -3.070000000000000E-002    0.000000000000000E+000
 -3.060000000000000E-002    0.000000000000000E+000
 -3.050000000000000E-002    0.000000000000000E+000
 -3.040000000000000E-002    0.000000000000000E+000
 -3.030000000000000E-002    0.000000000000000E+000
 -3.020000000000000E-002    0.000000000000000E+000
 -3.010000000000000E-002    0.000000000000000E+000
 -3.000000000000000E-002    0.000000000000000E+000
 -2.990000000000000E-002    0.000000000000000E+000
 -2.980000000000000E-002    0.000000000000000E+000
 -2.970000000000000E-002    0.000000000000000E+000
 -2.960000000000000E-002    0.000000000000000E+000
 -2.950000000000000E-002    0.000000000000000E+000
 -2.940000000000000E-002    0.000000000000000E+000
 -2.930000000000000E-002    0.000000000000000E+000
 -2.920000000000000E-002    0.000000000000000E+000
 -2.910000000000000E-002    0.000000000000000E+000
 -2.900000000000000E-002    0.000000000000000E+000
 -2.890000000000000E-002    0.000000000000000E+000
 -2.880000000000000E-002    0.000000000000000E+000
 -2.870000000000000E-002    0.000000000000000E+000
 -2.860000000000000E-002    0.000000000000000E+000
 -2.850000000000000E-002    0.000000000000000E+000
 -2.840000000000000E-002    0.000000000000000E+000
 -2.830000000000000E-002    0.000000000000000E+000
 -2.820000000000000E-002    0.000000000000000E+000
 -2.810000000000000E-002    0.000000000000000E+000
 -2.800000000000000E-002    0.000000000000000E+000
 -2.790000000000000E-002    0.000000000000000E+000
 -2.780000000000000E-002    0.000000000000000E+000
 -2.770000000000000E-002    0.000000000000000E+000
 -2.760000000000000E-002    0.000000000000000E+000
 -2.750000000000000E-002    0.000000000000000E+000
 -2.740000000000000E-002    0.000000000000000E+000
 -2.730000000000000E-002    0.000000000000000E+000
 -2.720000000000000E-002    0.000000000000000E+000
 -2.710000000000000E-002    0.000000000000000E+000
 -2.700000000000000E-002    0.000000000000000E+000
 -2.690000000000000E-002    0.000000000000000E+000
 -2.680000000000000E-002    0.000000000000000E+000
 -2.670000000000000E-002    0.000000000000000E+000
 -2.660000000000000E-002    0.000000000000000E+000
 -2.650000000000000E-002    0.000000000000000E+000
 -2.640000000000000E-002    0.000000000000000E+000
 -2.630000000000000E-002    0.000000000000000E+000
 -2.620000000000000E-002    0.000000000000000E+000
 -2.610000000000000E-002    0.000000000000000E+000
 -2.600000000000000E-002    0.000000000000000E+000
 -2.590000000000000E-002    0.000000000000000E+000
 -2.580000000000000E-002    0.000000000000000E+000
 -2.570000000000000E-002    0.000000000000000E+000
 -2.560000000000000E-002    0.000000000000000E+000
 -2.550000000000000E-002    0.000000000000000E+000
 -2.540000000000000E-002    0.000000000000000E+000
 -2.530000000000000E-002    0.000000000000000E+000
 -2.520000000000000E-002    0.000000000000000E+000
 -2.510000000000000E-002    0.000000000000000E+000
 -2.500000000000000E-002    0.000000000000000E+000
 -2.490000000000000E-002    0.000000000000000E+000
 -2.480000000000000E-002    0.000000000000000E+000
 -2.470000000000000E-002    0.000000000000000E+000
 -2.460000000000000E-002    0.000000000000000E+000
 -2.450000000000000E-002    0.000000000000000E+000
 -2.440000000000000E-002    0.000000000000000E+000
 -2.430000000000000E-002    0.000000000000000E+000
 -2.420000000000000E-002   -1.036007063753470E-047
 -2.410000000000000E-002   -3.144412749698334E-047
 -2.400000000000000E-002   -1.611839783276750E-047
 -2.390000000000000E-002   -1.115273880608635E-047
 -2.380000000000000E-002   -6.187079779405208E-048
 -2.370000000000000E-002   -1.221420752724063E-048
 -2.360000000000000E-002   -6.245719849739883E-048
 -2.350000000000000E-002   -1.623567797343685E-047
 -2.340000000000000E-002    7.453887015421449E-047
 -2.330000000000000E-002    2.608364799744818E-047
 -2.320000000000000E-002   -6.584805564745656E-047
 -2.310000000000000E-002   -2.578219914180777E-046
 -2.300000000000000E-002   -2.223633978495222E-046
 -2.290000000000000E-002   -1.623260509937144E-046
 -2.280000000000000E-002    2.778280152739387E-047
 -2.270000000000000E-002    2.362138942788860E-046
 -2.260000000000000E-002    1.066609395088070E-045
 -2.250000000000000E-002    1.693622580616448E-045
 -2.240000000000000E-002    2.608796137777461E-045
 -2.230000000000000E-002    3.062078701292284E-045
 -2.220000000000000E-002    3.496715900400533E-045
 -2.210000000000000E-002    4.198056499287152E-045
 -2.200000000000000E-002    4.581564400160931E-045
 -2.190000000000000E-002    3.603770741305014E-045
 -2.180000000000000E-002    2.049827704722889E-045
 -2.170000000000000E-002   -1.639294203336551E-045
 -2.160000000000000E-002   -5.732042682791935E-045
 -2.150000000000000E-002   -1.245854984111403E-044
 -2.140000000000000E-002   -2.072393548281485E-044
 -2.130000000000000E-002   -2.954479776462250E-044
 -2.120000000000000E-002   -3.840132794001210E-044
 -2.110000000000000E-002   -4.512811369324880E-044
 -2.100000000000000E-002   -4.666711191672730E-044
 -2.090000000000000E-002   -4.093632781709480E-044
 -2.080000000000000E-002   -2.393469911349488E-044
 -2.070000000000000E-002    8.300354043151148E-045
 -2.060000000000000E-002    5.878640142256585E-044
 -2.050000000000000E-002    1.311417242271396E-043
 -2.040000000000000E-002    2.229101549460071E-043
 -2.030000000000000E-002    3.300217944524925E-043
 -2.020000000000000E-002    4.418315207001663E-043
 -2.010000000000000E-002    5.391921701618125E-043
 -2.000000000000000E-002    5.963024674418460E-043
 -1.990000000000000E-002    5.766210441437175E-043
 -1.980000000000000E-002    4.358000044602154E-043
 -1.970000000000000E-002    1.289347590272268E-043
 -1.960000000000000E-002   -3.888330309399722E-043
 -1.950000000000000E-002   -1.147529259462132E-042
 -1.940000000000000E-002   -2.149849931860165E-042
 -1.930000000000000E-002   -3.355893913349270E-042
 -1.920000000000000E-002   -4.661744635546531E-042
 -1.910000000000000E-002   -5.883518596569248E-042
 -1.900000000000000E-002   -6.747392326088678E-042
 -1.890000000000000E-002   -6.879230351353134E-042
 -1.880000000000000E-002   -5.823824227916710E-042
 -1.870000000000000E-002   -3.077966685924976E-042
 -1.860000000000000E-002    1.841515192117940E-042
 -1.850000000000000E-002    9.300816578734710E-042
 -1.840000000000000E-002    1.941050255326901E-041
 -1.830000000000000E-002    3.186209083525790E-041
 -1.820000000000000E-002    4.574090790168620E-041
 -1.810000000000000E-002    5.935010461331019E-041
 -1.800000000000000E-002    7.007535826502809E-041
 -1.790000000000000E-002    7.433805902765589E-041
 -1.780000000000000E-002    6.769940877079010E-041
 -1.770000000000000E-002    4.517995115559348E-041
 -1.760000000000000E-002    1.849175155928426E-042
 -1.750000000000000E-002   -6.626679289276878E-041
 -1.740000000000000E-002   -1.609451920676386E-040
 -1.730000000000000E-002   -2.802460592175828E-040
 -1.720000000000000E-002   -4.168154091466474E-040
 -1.710000000000000E-002   -5.562301906462467E-040
 -1.700000000000000E-002   -6.756912324027242E-040
 -1.690000000000000E-002   -7.434900095410286E-040
 -1.680000000000000E-002   -7.197452440121432E-040
 -1.670000000000000E-002   -5.589559092592546E-040
 -1.660000000000000E-002   -2.148856356436668E-040
 -1.650000000000000E-002    3.518521442182243E-040
 -1.640000000000000E-002    1.163414436604191E-039
 -1.630000000000000E-002    2.211900007825020E-039
 -1.620000000000000E-002    3.444999359015454E-039
 -1.610000000000000E-002    4.751823605733149E-039
 -1.600000000000000E-002    5.951410346287849E-039
 -1.590000000000000E-002    6.787236126217925E-039
 -1.580000000000000E-002    6.931698663041484E-039
 -1.570000000000000E-002    6.004817142306205E-039
 -1.560000000000000E-002    3.611175382694348E-039
 -1.550000000000000E-002   -6.021066766863653E-040
 -1.540000000000000E-002   -6.865563567277243E-039
 -1.530000000000000E-002   -1.518841782800954E-038
 -1.520000000000000E-002   -2.524738110798279E-038
 -1.510000000000000E-002   -3.627584336761354E-038
 -1.500000000000000E-002   -4.697188828725568E-038
 -1.490000000000000E-002   -5.544953941422437E-038
 -1.480000000000000E-002   -5.926180444590044E-038
 -1.470000000000000E-002   -5.552628210124041E-038
 -1.460000000000000E-002   -4.118157639690585E-038
 -1.450000000000000E-002   -1.339437349114518E-038
 -1.440000000000000E-002    2.987760199759811E-038
 -1.430000000000000E-002    8.918547780652203E-038
 -1.420000000000000E-002    1.628007804687808E-037
 -1.410000000000000E-002    2.459249788284884E-037
 -1.400000000000000E-002    3.300235061923455E-037
 -1.390000000000000E-002    4.024475653887741E-037
 -1.380000000000000E-002    4.465365729439593E-037
 -1.370000000000000E-002    4.424028763204063E-037
 -1.360000000000000E-002    3.685825036499260E-037
 -1.350000000000000E-002    2.046815913445742E-037
 -1.340000000000000E-002   -6.495839355653405E-038
 -1.330000000000000E-002   -4.466972381012241E-037
 -1.320000000000000E-002   -9.324564017631342E-037
 -1.310000000000000E-002   -1.494560263576543E-036
 -1.300000000000000E-002   -2.081353840291800E-036
 -1.290000000000000E-002   -2.614628584356122E-036
 -1.280000000000000E-002   -2.990042756794760E-036
 -1.270000000000000E-002   -3.081770269276320E-036
 -1.260000000000000E-002   -2.752481692692418E-036
 -1.250000000000000E-002   -1.869404086623388E-036
 -1.240000000000000E-002   -3.265483982593812E-037
 -1.230000000000000E-002    1.927668765274521E-036
 -1.220000000000000E-002    4.859410801416220E-036
 -1.210000000000000E-002    8.318348640147691E-036
 -1.200000000000000E-002    1.201128864121840E-035
 -1.190000000000000E-002    1.548649502680455E-035
 -1.180000000000000E-002    1.813559225876836E-035
 -1.170000000000000E-002    1.922000042048147E-035
 -1.160000000000000E-002    1.792807758768886E-035
 -1.150000000000000E-002    1.346681466011283E-035
 -1.140000000000000E-002    5.188441146315340E-036
 -1.130000000000000E-002   -7.253180137222155E-036
 -1.120000000000000E-002   -2.372776640169705E-035
 -1.110000000000000E-002   -4.345446538062229E-035
 -1.100000000000000E-002   -6.485490987904490E-035
 -1.090000000000000E-002   -8.546618125650907E-035
 -1.080000000000000E-002   -1.019510678367620E-034
 -1.070000000000000E-002   -1.102426773184323E-034
 -1.060000000000000E-002   -1.058546415501800E-034
 -1.050000000000000E-002   -8.437650119603120E-035
 -1.040000000000000E-002   -4.215280985113222E-035
 -1.030000000000000E-002    2.288277207860163E-035
 -1.020000000000000E-002    1.102816842061332E-034
 -1.010000000000000E-002    2.161647672313572E-034
 -1.000000000000000E-002    3.324549648722585E-034
 -9.899999999999999E-003    4.464296236398221E-034
 -9.800000000000000E-003    5.407794489708004E-034
 -9.699999999999999E-003    5.943597423992187E-034
 -9.599999999999999E-003    5.837862158160305E-034
 -9.500000000000000E-003    4.859614319999096E-034
 -9.399999999999999E-003    2.815147230320569E-034
 -9.299999999999999E-003   -4.100211075900605E-035
 -9.200000000000000E-003   -4.804913182306194E-034
 -9.099999999999999E-003   -1.018768548486409E-033
 -8.999999999999999E-003   -1.616789610328742E-033
 -8.900000000000000E-003   -2.212474550209950E-033
 -8.799999999999999E-003   -2.721022393825650E-033
 -8.699999999999999E-003   -3.038594930133309E-033
 -8.600000000000000E-003   -3.050040119952880E-033
 -8.499999999999999E-003   -2.641041983749090E-033
 -8.399999999999999E-003   -1.714535233100924E-033
 -8.300000000000000E-003   -2.105918601668454E-034
 -8.199999999999999E-003    1.871812384881315E-033
 -8.100000000000000E-003    4.453569941966766E-033
 -8.000000000000000E-003    7.357928326156654E-033
 -7.899999999999999E-003    1.030050555719113E-032
 -7.800000000000000E-003    1.289082911771694E-032
 -7.699999999999999E-003    1.464921977671300E-032
 -7.599999999999999E-003    1.504199894235923E-032
 -7.499999999999999E-003    1.353635712568608E-032
 -7.399999999999999E-003    9.674033875104338E-033
 -7.299999999999999E-003    3.159914772910588E-033
 -7.199999999999999E-003   -6.041654739588244E-033
 -7.100000000000000E-003   -1.761364356515748E-032
 -6.999999999999999E-003   -3.081010074012170E-032
 -6.899999999999999E-003   -4.441325050576772E-032
 -6.800000000000000E-003   -5.674080129888257E-032
 -6.699999999999999E-003   -6.571921590461059E-032
 -6.599999999999999E-003   -6.903469774846516E-032
 -6.499999999999999E-003   -6.436644612492832E-032
 -6.399999999999999E-003   -4.969727810897149E-032
 -6.299999999999999E-003   -2.368423787509099E-032
 -6.199999999999999E-003    1.394226046248181E-032
 -6.100000000000000E-003    6.199590899553307E-032
 -5.999999999999999E-003    1.175260661308468E-031
 -5.899999999999999E-003    1.756491236059988E-031
 -5.800000000000000E-003    2.295869559886593E-031
 -5.699999999999999E-003    2.709723413547377E-031
 -5.599999999999999E-003    2.904640867254111E-031
 -5.499999999999999E-003    2.786851129778535E-031
 -5.399999999999999E-003    2.274569539911664E-031
 -5.299999999999999E-003    1.312549942653477E-031
 -5.199999999999999E-003   -1.124356908812500E-032
 -5.099999999999999E-003   -1.957005587990915E-031
 -4.999999999999999E-003   -4.109695129650392E-031
 -4.899999999999999E-003   -6.385121016003003E-031
 -4.799999999999999E-003   -8.526241391379471E-031
 -4.699999999999999E-003   -1.021688496114919E-030
 -4.599999999999999E-003   -1.110592092442204E-030
 -4.499999999999999E-003   -1.084328270861826E-030
 -4.399999999999999E-003   -9.126539358901615E-031
 -4.299999999999999E-003   -5.754856908955312E-031
 -4.199999999999999E-003   -6.852497343942236E-032
 -4.099999999999999E-003    5.915766909331294E-031
 -3.999999999999999E-003    1.363344673143532E-030
 -3.899999999999999E-003    2.178803354230772E-030
 -3.799999999999999E-003    2.944854521837861E-030
 -3.699999999999999E-003    3.548416919637621E-030
 -3.599999999999999E-003    3.865725601632620E-030
 -3.499999999999999E-003    3.775727390751989E-030
 -3.399999999999999E-003    3.176958941688227E-030
 -3.299999999999999E-003    2.006608240314584E-030
 -3.199999999999999E-003    2.598188431684396E-031
 -3.099999999999999E-003   -1.993314942758000E-030
 -2.999999999999999E-003   -4.596020537467610E-030
 -2.899999999999999E-003   -7.301486203552967E-030
 -2.799999999999999E-003   -9.780698652666762E-030
 -2.699999999999999E-003   -1.164360310864910E-029
 -2.599999999999999E-003   -1.247452327781992E-029
 -2.499999999999999E-003   -1.188102440436508E-029
 -2.399999999999999E-003   -9.553425491796940E-030
 -2.299999999999999E-003   -5.329874596209208E-030
 -2.199999999999999E-003    7.403095760005944E-031
 -2.099999999999999E-003    8.344143924203182E-030
 -1.999999999999999E-003    1.687355369578692E-029
 -1.899999999999999E-003    2.542524783385081E-029
 -1.799999999999999E-003    3.284075728707743E-029
 -1.699999999999999E-003    3.779259963093264E-029
 -1.599999999999999E-003    3.891770048568555E-029
 -1.499999999999999E-003    3.499350345517921E-029
 -1.399999999999999E-003    2.514452609706269E-029
 -1.299999999999999E-003    9.060113536328061E-030
 -1.199999999999999E-003   -1.280321038878507E-029
 -1.099999999999999E-003   -3.906660006115694E-029
 -9.999999999999989E-004   -6.735543756326607E-029
 -8.999999999999990E-004   -9.434033196572673E-029
 -7.999999999999990E-004   -1.159194165765130E-028
 -6.999999999999989E-004   -1.275571420273241E-028
 -5.999999999999990E-004   -1.247775329542290E-028
 -4.999999999999989E-004   -1.037889196100494E-028
 -3.999999999999989E-004   -6.219284445246998E-029
 -2.999999999999989E-004    2.945014462182113E-031
 -1.999999999999989E-004    8.120186137824786E-029
 -9.999999999999892E-005    1.748516056169103E-028
  1.084202172485504E-018    2.722106657999183E-028
  1.000000000000011E-004    3.611482419260539E-028
  2.000000000000011E-004    4.271779564333311E-028
  3.000000000000011E-004    4.547209763635409E-028
  4.000000000000011E-004    4.288675167478487E-028
  5.000000000000011E-004    3.375403009231189E-028
  6.000000000000011E-004    1.738858361705910E-028
  7.000000000000011E-004   -6.135700395414573E-029
  8.000000000000011E-004   -3.578286779464650E-028
  9.000000000000012E-004   -6.942186431739105E-028
  1.000000000000001E-003   -1.037996127965800E-027
  1.100000000000001E-003   -1.346521875088947E-027
  1.200000000000001E-003   -1.569773946779509E-027
  1.300000000000001E-003   -1.654764853960865E-027
  1.400000000000001E-003   -1.551534320043125E-027
  1.500000000000001E-003   -1.220369748925868E-027
  1.600000000000001E-003   -6.396550864501710E-028
  1.700000000000001E-003    1.864943194337625E-028
  1.800000000000001E-003    1.221829897455048E-027
  1.900000000000001E-003    2.393947464409266E-027
  2.000000000000001E-003    3.593769386842503E-027
  2.100000000000001E-003    4.679506850998932E-027
  2.200000000000001E-003    5.485759900369715E-027
  2.300000000000001E-003    5.837930288048694E-027
  2.400000000000001E-003    5.571506854783843E-027
  2.500000000000001E-003    4.555040988169350E-027
  2.600000000000001E-003    2.714888316783502E-027
  2.700000000000001E-003    5.907596541617329E-029
  2.800000000000001E-003   -3.302887221125655E-027
  2.900000000000001E-003   -7.147710706551920E-027
  3.000000000000001E-003   -1.113692492938834E-026
  3.100000000000001E-003   -1.482924364368095E-026
  3.200000000000001E-003   -1.770854916319592E-026
  3.300000000000001E-003   -1.922786712516771E-026
  3.400000000000001E-003   -1.886780355556150E-026
  3.500000000000001E-003   -1.620583731321648E-026
  3.600000000000001E-003   -1.099056790718732E-026
  3.700000000000001E-003   -3.213075108115833E-027
  3.800000000000001E-003    6.833972755267374E-027
  3.900000000000001E-003    1.851949764790259E-026
  4.000000000000001E-003    3.086923008988550E-026
  4.100000000000001E-003    4.260096714585924E-026
  4.200000000000001E-003    5.220490174401771E-026
  4.300000000000001E-003    5.806976212297758E-026
  4.400000000000001E-003    5.865007965680510E-026
  4.500000000000001E-003    5.266379459098440E-026
  4.600000000000002E-003    3.930340386417960E-026
  4.700000000000001E-003    1.843830519396252E-026
  4.800000000000001E-003   -9.217798592913206E-027
  4.900000000000002E-003   -4.200238402643816E-026
  5.000000000000001E-003   -7.728890098118690E-026
  5.100000000000001E-003   -1.115823351068566E-025
  5.200000000000001E-003   -1.407384950548532E-025
  5.300000000000002E-003   -1.603080610406329E-025
  5.400000000000001E-003   -1.659910695961659E-025
  5.500000000000001E-003   -1.541718741493586E-025
  5.600000000000002E-003   -1.224880696846714E-025
  5.700000000000001E-003   -7.037281785758438E-026
  5.800000000000001E-003    4.995833262582147E-028
  5.900000000000002E-003    8.593836666302642E-026
  6.000000000000001E-003    1.791998537447853E-025
  6.100000000000001E-003    2.712446767390055E-025
  6.200000000000002E-003    3.513184207583905E-025
  6.300000000000002E-003    4.078560369723529E-025
  6.400000000000001E-003    4.296664770256587E-025
  6.500000000000001E-003    4.073171851773413E-025
  6.600000000000002E-003    3.345930548289523E-025
  6.700000000000001E-003    2.098725685560986E-025
  6.800000000000001E-003    3.723971682615992E-026
  6.900000000000002E-003   -1.728540570555822E-025
  7.000000000000001E-003   -4.035474014930474E-025
  7.100000000000001E-003   -6.322770358720533E-025
  7.200000000000002E-003   -8.323009043284534E-025
  7.300000000000002E-003   -9.750194023418163E-025
  7.400000000000001E-003   -1.032977323803826E-024
  7.500000000000001E-003   -9.833217448241442E-025
  7.600000000000002E-003   -8.113971458488362E-025
  7.700000000000001E-003   -5.140705441213688E-025
  7.800000000000001E-003   -1.023399704977720E-025
  7.900000000000001E-003    3.972302977144398E-025
  8.000000000000002E-003    9.426466841102900E-025
  8.100000000000001E-003    1.478493070323244E-024
  8.200000000000001E-003    1.939927999954873E-024
  8.300000000000002E-003    2.258584835298754E-024
  8.400000000000001E-003    2.370040069147738E-024
  8.500000000000002E-003    2.222256871728985E-024
  8.600000000000002E-003    1.784180791228578E-024
  8.700000000000001E-003    1.053485178721906E-024
  8.800000000000002E-003    6.236787791400311E-026
  8.900000000000002E-003   -1.119673674906854E-024
  9.000000000000001E-003   -2.387012595284978E-024
  9.100000000000002E-003   -3.603627927706492E-024
  9.200000000000002E-003   -4.613605894635523E-024
  9.300000000000001E-003   -5.256056762367221E-024
  9.400000000000002E-003   -5.383521850266411E-024
  9.500000000000001E-003   -4.882303904645086E-024
  9.600000000000001E-003   -3.692676885559116E-024
  9.700000000000002E-003   -1.826491833722286E-024
  9.800000000000001E-003    6.204274581706409E-025
  9.900000000000001E-003    3.463598217270394E-024
  1.000000000000000E-002    6.434961415128009E-024
  1.010000000000000E-002    9.198995715930012E-024
  1.020000000000000E-002    1.138006556108502E-023
  1.030000000000000E-002    1.259985026149758E-023
  1.040000000000000E-002    1.252234695500236E-023
  1.050000000000000E-002    1.090247416447568E-023
  1.060000000000000E-002    7.633153811941605E-024
  1.070000000000000E-002    2.784931954505457E-024
  1.080000000000000E-002   -3.368019729758419E-024
  1.090000000000000E-002   -1.034124926568666E-023
  1.100000000000000E-002   -1.745722470006389E-023
  1.110000000000000E-002   -2.388883359597002E-023
  1.120000000000000E-002   -2.872912396366944E-023
  1.130000000000000E-002   -3.108392642903487E-023
  1.140000000000000E-002   -3.018063111722226E-023
  1.150000000000000E-002   -2.548348572773296E-023
  1.160000000000000E-002   -1.680273342635442E-023
  1.170000000000000E-002   -4.383694426872381E-024
  1.180000000000000E-002    1.103859948405205E-023
  1.190000000000000E-002    2.823217020415114E-023
  1.200000000000000E-002    4.551801771857673E-023
  1.210000000000000E-002    6.088199309386081E-023
  1.220000000000000E-002    7.214722445166995E-023
  1.230000000000000E-002    7.719793006223424E-023
  1.240000000000000E-002    7.423830049630800E-023
  1.250000000000000E-002    6.206239299600212E-023
  1.260000000000000E-002    4.030570111009822E-023
  1.270000000000000E-002    9.645702299371647E-024
  1.280000000000000E-002   -2.808143045482503E-023
  1.290000000000000E-002   -6.987683082860233E-023
  1.300000000000000E-002   -1.117087759200053E-022
  1.310000000000000E-002   -1.487858957157219E-022
  1.320000000000000E-002   -1.759679675688183E-022
  1.330000000000000E-002   -1.882918904139277E-022
  1.340000000000000E-002   -1.815733121358651E-022
  1.350000000000000E-002   -1.530277898385680E-022
  1.360000000000000E-002   -1.018439794810091E-022
  1.370000000000000E-002   -2.963424010033296E-023
  1.380000000000000E-002    5.931072301592831E-023
  1.390000000000000E-002    1.580268328105965E-022
  1.400000000000000E-002    2.571872761532627E-022
  1.410000000000000E-002    3.457365595070808E-022
  1.420000000000000E-002    4.118332046539707E-022
  1.430000000000000E-002    4.440467588887306E-022
  1.440000000000000E-002    4.327191199165665E-022
  1.450000000000000E-002    3.713625179965488E-022
  1.460000000000000E-002    2.579436167969467E-022
  1.470000000000000E-002    9.588768017168577E-023
  1.480000000000000E-002   -1.053577947428153E-022
  1.490000000000000E-002   -3.303394527171976E-022
  1.500000000000000E-002   -5.582920507087363E-022
  1.510000000000000E-002   -7.645436821893460E-022
  1.520000000000000E-002   -9.226005044718940E-022
  1.530000000000000E-002   -1.006784971492810E-021
  1.540000000000000E-002   -9.952273288060626E-022
  1.550000000000000E-002   -8.729365869661105E-022
  1.560000000000000E-002   -6.346155446477808E-022
  1.570000000000000E-002   -2.868667080716117E-022
  1.580000000000000E-002    1.505586335954656E-022
  1.590000000000000E-002    6.447658712014336E-022
  1.600000000000000E-002    1.151178494320866E-021
  1.610000000000000E-002    1.616538673266489E-021
  1.620000000000000E-002    1.983350718682741E-021
  1.630000000000000E-002    2.195519443521567E-021
  1.640000000000000E-002    2.204745173156331E-021
  1.650000000000000E-002    1.977086469366416E-021
  1.660000000000000E-002    1.498993351041790E-021
  1.670000000000000E-002    7.820618636193478E-022
  1.680000000000000E-002   -1.342262347302208E-022
  1.690000000000000E-002   -1.182390003576666E-021
  1.700000000000000E-002   -2.269901491508095E-021
  1.710000000000000E-002   -3.285343946770801E-021
  1.720000000000000E-002   -4.107609682998426E-021
  1.730000000000000E-002   -4.617595929809508E-021
  1.740000000000000E-002   -4.711502339095141E-021
  1.750000000000000E-002   -4.314505630985368E-021
  1.760000000000000E-002   -3.393387636611828E-021
  1.770000000000000E-002   -1.966549758347393E-021
  1.780000000000000E-002   -1.099310243252454E-022
  1.790000000000000E-002    2.042452312884883E-021
  1.800000000000000E-002    4.304214733329848E-021
  1.810000000000000E-002    6.448882798683977E-021
  1.820000000000000E-002    8.228393547171377E-021
  1.830000000000000E-002    9.396725832396767E-021
  1.840000000000000E-002    9.736852371674033E-021
  1.850000000000000E-002    9.088564881159252E-021
  1.860000000000000E-002    7.374260519720137E-021
  1.870000000000000E-002    4.619596590882772E-021