 -4.000000000000000E-002    0.000000000000000E+000
 -3.990000000000000E-002    0.000000000000000E+000
 -3.980000000000000E-002    0.000000000000000E+000
 -3.970000000000000E-002    0.000000000000000E+000
 -3.960000000000000E-002    0.000000000000000E+000
 -3.950000000000000E-002    0.000000000000000E+000
 -3.940000000000000E-002    0.000000000000000E+000
 -3.930000000000000E-002    0.000000000000000E+000
 -3.920000000000000E-002    0.000000000000000E+000
 -3.910000000000000E-002    0.000000000000000E+000
 -3.900000000000000E-002    0.000000000000000E+000
 -3.890000000000000E-002    0.000000000000000E+000
 -3.880000000000000E-002    0.000000000000000E+000
 -3.870000000000000E-002    0.000000000000000E+000
 -3.860000000000000E-002    0.000000000000000E+000
 -3.850000000000000E-002    0.000000000000000E+000
 -3.840000000000000E-002    0.000000000000000E+000
 -3.830000000000000E-002    0.000000000000000E+000
 -3.820000000000000E-002    0.000000000000000E+000
 -3.810000000000000E-002    0.000000000000000E+000
 -3.800000000000000E-002    0.000000000000000E+000
 -3.790000000000000E-002    0.000000000000000E+000
 -3.780000000000000E-002    0.000000000000000E+000
 -3.770000000000000E-002    1.973937916322535E-047
 -3.760000000000000E-002    2.850723044508672E-047
 -3.750000000000000E-002   -2.119278021407251E-046
 -3.740000000000000E-002   -1.313321564009407E-045
 -3.730000000000000E-002   -7.742439559779615E-045
 -3.720000000000000E-002   -3.815741251985768E-044
 -3.710000000000000E-002   -1.635667502577345E-043
 -3.700000000000000E-002   -6.247810286895016E-043
 -3.690000000000000E-002   -2.176469513563130E-042
 -3.680000000000000E-002   -7.025212239255969E-042
 -3.670000000000000E-002   -2.118483069230540E-041
 -3.660000000000000E-002   -6.004367628030913E-041
 -3.650000000000000E-002   -1.606785919259118E-040
 -3.640000000000000E-002   -4.073507647405137E-040
 -3.630000000000000E-002   -9.808281370958640E-040
 -3.620000000000000E-002   -2.246837367672145E-039
 -3.610000000000000E-002   -4.901079547654612E-039
 -3.600000000000000E-002   -1.017998271619357E-038
 -3.590000000000000E-002   -2.011127109870685E-038
 -3.580000000000000E-002   -3.768652008433718E-038
 -3.570000000000000E-002   -6.664002359774809E-038
 -3.560000000000000E-002   -1.101449721758321E-037
 -3.550000000000000E-002   -1.671058106104588E-037
 -3.540000000000000E-002   -2.237636692827340E-037
 -3.530000000000000E-002   -2.370502813870933E-037
 -3.520000000000000E-002   -1.047168543198267E-037
 -3.510000000000000E-002    3.836912289178139E-037
 -3.500000000000000E-002    1.620225840182346E-036
 -3.490000000000000E-002    4.276979278300258E-036
 -3.480000000000000E-002    9.418533603915931E-036
 -3.470000000000000E-002    1.859379445153019E-035
 -3.460000000000000E-002    3.383163880772434E-035
 -3.450000000000000E-002    5.740143169275962E-035
 -3.440000000000000E-002    9.111172960801336E-035
 -3.430000000000000E-002    1.348139755985395E-034
 -3.420000000000000E-002    1.836732293646283E-034
 -3.410000000000000E-002    2.237070523456265E-034
 -3.400000000000000E-002    2.251562912478007E-034
 -3.390000000000000E-002    1.335455034982805E-034
 -3.380000000000000E-002   -1.410152974799896E-034
 -3.370000000000000E-002   -7.344611540240244E-034
 -3.360000000000000E-002   -1.835479342247372E-033
 -3.350000000000000E-002   -3.681511580680929E-033
 -3.340000000000000E-002   -6.533545528495450E-033
 -3.330000000000000E-002   -1.061502558470875E-032
 -3.320000000000000E-002   -1.599649224062447E-032
 -3.310000000000000E-002   -2.240584933410350E-032
 -3.300000000000000E-002   -2.894693198768951E-032
 -3.290000000000000E-002   -3.371951329024014E-032
 -3.280000000000000E-002   -3.335600691499889E-032
 -3.270000000000000E-002   -2.252866009996557E-032
 -3.260000000000000E-002    6.462570890636953E-033
 -3.250000000000000E-002    6.383304129604004E-032
 -3.240000000000000E-002    1.619056924515786E-031
 -3.230000000000000E-002    3.137713100962079E-031
 -3.220000000000000E-002    5.305543619235037E-031
 -3.210000000000000E-002    8.167858686327168E-031
 -3.200000000000000E-002    1.163447708656494E-030
 -3.190000000000000E-002    1.538474863453485E-030
 -3.180000000000000E-002    1.874942016151973E-030
 -3.170000000000000E-002    2.057881552351026E-030
 -3.160000000000000E-002    1.911739282337431E-030
 -3.150000000000000E-002    1.191846467542749E-030
 -3.140000000000000E-002   -4.151170130413848E-031
 -3.130000000000000E-002   -3.274988716327747E-030
 -3.120000000000000E-002   -7.766293113980289E-030
 -3.110000000000000E-002   -1.420802825305296E-029
 -3.100000000000000E-002   -2.274719611347057E-029
 -3.090000000000000E-002   -3.320120912533721E-029
 -3.080000000000000E-002   -4.485634589433542E-029
 -3.070000000000000E-002   -5.623333580707745E-029
 -3.060000000000000E-002   -6.484512904351670E-029
 -3.050000000000000E-002   -6.699018573095423E-029
 -3.040000000000000E-002   -5.764591039204711E-029
 -3.030000000000000E-002   -3.054876072643622E-029
 -3.020000000000000E-002    2.143295250346377E-029
 -3.010000000000000E-002    1.055184075793927E-028
 -3.000000000000000E-002    2.277155101469996E-028
 -2.990000000000000E-002    3.909239389727382E-028
 -2.980000000000000E-002    5.924250284496827E-028
 -2.970000000000000E-002    8.208498039190436E-028
 -2.960000000000000E-002    1.052867592273777E-027
 -2.950000000000000E-002    1.250036206856671E-027
 -2.940000000000000E-002    1.356484056459782E-027
 -2.930000000000000E-002    1.298341912753010E-027
 -2.920000000000000E-002    9.860448059452628E-028
 -2.910000000000000E-002    3.207817542945497E-028
 -2.900000000000000E-002   -7.937144269329228E-028
 -2.890000000000000E-002   -2.433035665893239E-027
 -2.880000000000000E-002   -4.627298229679956E-027
 -2.870000000000000E-002   -7.330293803670674E-027
 -2.860000000000000E-002   -1.038468840386165E-026
 -2.850000000000000E-002   -1.348723790697507E-026
 -2.840000000000000E-002   -1.616014772742079E-026
 -2.830000000000000E-002   -1.773698399356943E-026
 -2.820000000000000E-002   -1.737365887529253E-026
 -2.810000000000000E-002   -1.409591652064175E-026
 -2.800000000000000E-002   -6.894850990654990E-027
 -2.790000000000000E-002    5.120728583695827E-027
 -2.780000000000000E-002    2.251155569451638E-026
 -2.770000000000000E-002    4.524015126576873E-026
 -2.760000000000000E-002    7.236588316715468E-026
 -2.750000000000000E-002    1.017371321936601E-025
 -2.740000000000000E-002    1.297325164512503E-025
 -2.730000000000000E-002    1.511226101225973E-025
 -2.720000000000000E-002    1.591383362967939E-025
 -2.710000000000000E-002    1.458407292437575E-025
 -2.700000000000000E-002    1.028818106070397E-025
 -2.690000000000000E-002    2.272401707459855E-026
 -2.680000000000000E-002   -9.966147441907390E-026
 -2.670000000000000E-002   -2.646699486973685E-025
 -2.660000000000000E-002   -4.656670150155732E-025
 -2.650000000000000E-002   -6.865991504936481E-025
 -2.640000000000000E-002   -9.000286155183574E-025
 -2.630000000000000E-002   -1.066142366380917E-024
 -2.620000000000000E-002   -1.133386621174658E-024
 -2.610000000000000E-002   -1.041421580813670E-024
 -2.600000000000000E-002   -7.270350111273731E-025
 -2.590000000000000E-002   -1.334388629670559E-025
 -2.580000000000000E-002    7.769710452912453E-025
 -2.570000000000000E-002    2.006868056645649E-024
 -2.560000000000000E-002    3.506487651942015E-024
 -2.550000000000000E-002    5.156418456050673E-024
 -2.540000000000000E-002    6.753705320736163E-024
 -2.530000000000000E-002    8.005108800918720E-024
 -2.520000000000000E-002    8.531950996528930E-024
 -2.510000000000000E-002    7.891170090995065E-024
 -2.500000000000000E-002    5.616571498563995E-024
 -2.490000000000000E-002    1.282903489171927E-024
 -2.480000000000000E-002   -5.407216456144049E-024
 -2.470000000000000E-002   -1.451701575786572E-023
 -2.460000000000000E-002   -2.575815282614059E-023
 -2.450000000000000E-002   -3.837565357233878E-023
 -2.440000000000000E-002   -5.105419802540058E-023
 -2.430000000000000E-002   -6.186948729296116E-023
 -2.420000000000000E-002   -6.831160369818601E-023
 -2.410000000000000E-002   -6.740748995424621E-023
 -2.400000000000000E-002   -5.596564098061996E-023
 -2.390000000000000E-002   -3.095735438633827E-023
 -2.380000000000000E-002    9.966169432810830E-024
 -2.370000000000000E-002    6.784218022044492E-023
 -2.360000000000000E-002    1.416973709071522E-022
 -2.350000000000000E-002    2.278568597619902E-022
 -2.340000000000000E-002    3.193659888965226E-022
 -2.330000000000000E-002    4.056529059210338E-022
 -2.320000000000000E-002    4.725748557190089E-022
 -2.310000000000000E-002    5.029904068447797E-022
 -2.300000000000000E-002    4.779755361263887E-022
 -2.290000000000000E-002    3.787555342233380E-022
 -2.280000000000000E-002    1.893479085644244E-022
 -2.270000000000000E-002   -1.001921950642011E-022
 -2.260000000000000E-002   -4.901567146442563E-022
 -2.250000000000000E-002   -9.675684189748659E-022
 -2.240000000000000E-002   -1.503063859304688E-021
 -2.230000000000000E-002   -2.048883114713670E-021
 -2.220000000000000E-002   -2.538631790809876E-021
 -2.210000000000000E-002   -2.889466658179488E-021
 -2.200000000000000E-002   -3.007241815775931E-021
 -2.190000000000000E-002   -2.794931632642676E-021
 -2.180000000000000E-002   -2.164296584187748E-021
 -2.170000000000000E-002   -1.050313805430630E-021
 -2.160000000000000E-002    5.726488299099367E-022
 -2.150000000000000E-002    2.674502084031229E-021
 -2.140000000000000E-002    5.155074572843169E-021
 -2.130000000000000E-002    7.834253728265810E-021
 -2.120000000000000E-002    1.044937517131478E-020
 -2.110000000000000E-002    1.266248504166718E-020
 -2.100000000000000E-002    1.407960151199447E-020
 -2.090000000000000E-002    1.428315925768610E-020
 -2.080000000000000E-002    1.287742528089825E-020
 -2.070000000000000E-002    9.544883780408713E-021
 -2.060000000000000E-002    4.109532296617369E-021
 -2.050000000000000E-002   -3.399095373127670E-021
 -2.040000000000000E-002   -1.268929689569083E-020
 -2.030000000000000E-002   -2.316747770991863E-020
 -2.020000000000000E-002   -3.392539907893417E-020
 -2.010000000000000E-002   -4.376382907901142E-020
 -2.000000000000000E-002   -5.125991983926134E-020
 -1.990000000000000E-002   -5.488200251465711E-020
 -1.980000000000000E-002   -5.315027704901207E-020
 -1.970000000000000E-002   -4.483554859391930E-020
 -1.960000000000000E-002   -2.918074930534009E-020
 -1.950000000000000E-002   -6.123038471690509E-021
 -1.940000000000000E-002    2.351202301630700E-020
 -1.930000000000000E-002    5.787686214322398E-020
 -1.920000000000000E-002    9.406249262428391E-020
 -1.910000000000000E-002    1.281835444263682E-019
 -1.900000000000000E-002    1.556099690733406E-019
 -1.890000000000000E-002    1.713546587107506E-019
 -1.880000000000000E-002    1.706077397716987E-019
 -1.870000000000000E-002    1.493874786505826E-019
 -1.860000000000000E-002    1.052542452597400E-019
 -1.850000000000000E-002    3.801176928317262E-020
 -1.840000000000000E-002   -4.969782725120409E-020
 -1.830000000000000E-002   -1.520094778508506E-019
 -1.820000000000000E-002   -2.597644623032586E-019
 -1.810000000000000E-002   -3.608430957465281E-019
 -1.800000000000000E-002   -4.409601892707423E-019
 -1.790000000000000E-002   -4.849390244353874E-019
 -1.780000000000000E-002   -4.784196528956966E-019
 -1.770000000000000E-002   -4.098927915220943E-019
 -1.760000000000000E-002   -2.728774484954875E-019
 -1.750000000000000E-002   -6.800064208391124E-020
 -1.740000000000000E-002    1.953128331113082E-019
 -1.730000000000000E-002    4.978542582119469E-019
 -1.720000000000000E-002    8.106482263741000E-019
 -1.710000000000000E-002    1.096218177975981E-018
 -1.700000000000000E-002    1.311246587694592E-018
 -1.690000000000000E-002    1.410630804424422E-018
 -1.680000000000000E-002    1.352760372524109E-018
 -1.670000000000000E-002    1.105640883667172E-018
 -1.660000000000000E-002    6.532954561766805E-019
 -1.650000000000000E-002    1.699876526233950E-021
 -1.640000000000000E-002   -8.166074968589658E-019
 -1.630000000000000E-002   -1.740138511758068E-018
 -1.620000000000000E-002   -2.679118731110046E-018
 -1.610000000000000E-002   -3.519838946570885E-018
 -1.600000000000000E-002   -4.133020682091386E-018
 -1.590000000000000E-002   -4.386094855660227E-018
 -1.580000000000000E-002   -4.158775096571484E-018
 -1.570000000000000E-002   -3.360766560449147E-018
 -1.560000000000000E-002   -1.949911992226554E-018
 -1.550000000000000E-002    5.136178401025737E-020
 -1.540000000000000E-002    2.543697494302111E-018
 -1.530000000000000E-002    5.345010516522853E-018
 -1.520000000000000E-002    8.193411758188909E-018
 -1.510000000000000E-002    1.076044763794324E-017
 -1.500000000000000E-002    1.267534423869393E-017
 -1.490000000000000E-002    1.355973661027755E-017
 -1.480000000000000E-002    1.307101000497920E-017
 -1.470000000000000E-002    1.095088030017051E-017
 -1.460000000000000E-002    7.074541887620559E-018
 -1.450000000000000E-002    1.494606316218099E-018
 -1.440000000000000E-002   -5.526510786220055E-018
 -1.430000000000000E-002   -1.350206349004915E-017
 -1.420000000000000E-002   -2.172975512485775E-017
 -1.410000000000000E-002   -2.932769120362365E-017
 -1.400000000000000E-002   -3.529880459673235E-017
 -1.390000000000000E-002   -3.862205367390458E-017
 -1.380000000000000E-002   -3.836510538396122E-017
 -1.370000000000000E-002   -3.380963465550926E-017
 -1.360000000000000E-002   -2.457709030145382E-017
 -1.350000000000000E-002   -1.074037743558218E-017
 -1.340000000000000E-002    7.094382713605425E-018
 -1.330000000000000E-002    2.775134147910709E-017
 -1.320000000000000E-002    4.950673061034420E-017
 -1.310000000000000E-002    7.017761390476526E-017
 -1.300000000000000E-002    8.728024699441895E-017
 -1.290000000000000E-002    9.825293682876660E-017
 -1.280000000000000E-002    1.007298193524458E-016
 -1.270000000000000E-002    9.284367521570084E-017
 -1.260000000000000E-002    7.352833458645677E-017
 -1.250000000000000E-002    4.278590433733412E-017
 -1.240000000000000E-002    1.881797332587445E-018
 -1.230000000000000E-002   -4.656781251530185E-017
 -1.220000000000000E-002   -9.864553628804659E-017
 -1.210000000000000E-002   -1.493382736156613E-016
 -1.200000000000000E-002   -1.929026590156561E-016
 -1.190000000000000E-002   -2.233773724666764E-016
 -1.180000000000000E-002   -2.352096290045764E-016
 -1.170000000000000E-002   -2.239444376415465E-016
 -1.160000000000000E-002   -1.869094357031494E-016
 -1.150000000000000E-002   -1.238164092921687E-016
 -1.140000000000000E-002   -3.719750972514252E-017
 -1.130000000000000E-002    6.740183568055534E-017
 -1.120000000000000E-002    1.815359235212020E-016
 -1.110000000000000E-002    2.943165844462977E-016
 -1.100000000000000E-002    3.932215209489954E-016
 -1.090000000000000E-002    4.652200964674319E-016
 -1.080000000000000E-002    4.981418552890754E-016
 -1.070000000000000E-002    4.821738215996161E-016
 -1.060000000000000E-002    4.113376686613104E-016
 -1.050000000000000E-002    2.847777741454087E-016
 -1.040000000000000E-002    1.076838289963056E-016
 -1.030000000000000E-002   -1.083146200120552E-016
 -1.020000000000000E-002   -3.454119964349603E-016
 -1.010000000000000E-002   -5.806246477120920E-016
 -1.000000000000000E-002   -7.875284540153362E-016
 -9.899999999999999E-003   -9.386595173904710E-016
 -9.800000000000000E-003   -1.008412703413542E-015
 -9.699999999999999E-003   -9.761955060721716E-016
 -9.599999999999999E-003   -8.295209931448790E-016
 -9.500000000000000E-003   -5.666873069772872E-016
 -9.399999999999999E-003   -1.986788967597552E-016
 -9.299999999999999E-003    2.500444027895017E-016
 -9.200000000000000E-003    7.421322605202037E-016
 -9.099999999999999E-003    1.229449821325544E-015
 -8.999999999999999E-003    1.656710161335970E-015
 -8.900000000000000E-003    1.966463868221714E-015
 -8.799999999999999E-003    2.105106926696415E-015
 -8.699999999999999E-003    2.029398509000627E-015
 -8.600000000000000E-003    1.712850402423757E-015
 -8.499999999999999E-003    1.151267538890992E-015
 -8.399999999999999E-003    3.667039015363861E-016
 -8.300000000000000E-003   -5.908401351638188E-016
 -8.199999999999999E-003   -1.644503212787403E-015
 -8.100000000000000E-003   -2.694729816913259E-015
 -8.000000000000000E-003   -3.626530401493031E-015
 -7.899999999999999E-003   -4.319503027319351E-015
 -7.800000000000000E-003   -4.659955672623856E-015
 -7.699999999999999E-003   -4.554119551423619E-015
 -7.599999999999999E-003   -3.941205638765412E-015
 -7.499999999999999E-003   -2.804881461438250E-015
 -7.399999999999999E-003   -1.181713382953499E-015
 -7.299999999999999E-003    8.347635787229839E-016
 -7.199999999999999E-003    3.095401850085771E-015
 -7.100000000000000E-003    5.402858069432071E-015
 -6.999999999999999E-003    7.525141007593390E-015
 -6.899999999999999E-003    9.214731206433406E-015
 -6.800000000000000E-003    1.023204001266464E-014
 -6.699999999999999E-003    1.037134119904297E-014
 -6.599999999999999E-003    9.486837722266004E-015
 -6.499999999999999E-003    7.516124187017009E-015
 -6.399999999999999E-003    4.498280987053762E-015
 -6.299999999999999E-003    5.839865860072316E-016
 -6.199999999999999E-003   -3.964471419950680E-015
 -6.100000000000000E-003   -8.784626302205355E-015
 -5.999999999999999E-003   -1.343704584335593E-014
 -5.899999999999999E-003   -1.743947409598442E-014
 -5.800000000000000E-003   -2.030982199640185E-014
 -5.699999999999999E-003   -2.161475076819315E-014
 -5.599999999999999E-003   -2.101956885791489E-014
 -5.499999999999999E-003   -1.833452939790941E-014
 -5.399999999999999E-003   -1.355231511450529E-014
 -5.299999999999999E-003   -6.871807909705855E-015
 -5.199999999999999E-003    1.296025270653214E-015
 -5.099999999999999E-003    1.034293093553636E-014
 -4.999999999999999E-003    1.949991572219937E-014
 -4.899999999999999E-003    2.789448290483301E-014
 -4.799999999999999E-003    3.462524508840306E-014
 -4.699999999999999E-003    3.884848093801829E-014
 -4.599999999999999E-003    3.986922298394607E-014
 -4.499999999999999E-003    3.722819737207512E-014
 -4.399999999999999E-003    3.077525546272170E-014
 -4.299999999999999E-003    2.072020900639827E-014
 -4.199999999999999E-003    7.653235675800375E-015
 -4.099999999999999E-003   -7.470854431323901E-015
 -3.999999999999999E-003   -2.338716235841988E-014
 -3.899999999999999E-003   -3.861302128780648E-014
 -3.799999999999999E-003   -5.157318185560235E-014
 -3.699999999999999E-003   -6.074887049849015E-014
 -3.599999999999999E-003   -6.483831127026737E-014
 -3.499999999999999E-003   -6.291362327367651E-014
 -3.399999999999999E-003   -5.455752842426232E-014
 -3.299999999999999E-003   -3.996354190468581E-014
 -3.199999999999999E-003   -1.998497338395542E-014
 -3.099999999999999E-003    3.878274761710716E-015
 -2.999999999999999E-003    2.956112242442818E-014
 -2.899999999999999E-003    5.458264717321249E-014
 -2.799999999999999E-003    7.625587353157618E-014
 -2.699999999999999E-003    9.194368592919396E-014
 -2.599999999999999E-003    9.933973507165460E-014
 -2.499999999999999E-003    9.674828590771899E-014
 -2.399999999999999E-003    8.333399643442644E-014
 -2.299999999999999E-003    5.931187076037369E-014
 -2.199999999999999E-003    2.605064798939695E-014
 -2.099999999999999E-003   -1.393178615135242E-014
 -1.999999999999999E-003   -5.709357665183786E-014
 -1.899999999999999E-003   -9.911645744908715E-014
 -1.799999999999999E-003   -1.352649137885423E-013
 -1.699999999999999E-003   -1.608337036611289E-013
 -1.599999999999999E-003   -1.716475681698427E-013
 -1.499999999999999E-003   -1.645685771580793E-013
 -1.399999999999999E-003   -1.379586762583806E-013
 -1.299999999999999E-003   -9.204424415510520E-014
 -1.199999999999999E-003   -2.913276035924633E-014
 -1.099999999999999E-003    4.635948721706540E-014
 -9.999999999999989E-004    1.280951010432654E-013
 -8.999999999999990E-004    2.082259498924514E-013
 -7.999999999999990E-004    2.780121755682119E-013
 -6.999999999999989E-004    3.286118174886681E-013
 -5.999999999999990E-004    3.519809993641669E-013
 -4.999999999999989E-004    3.418064341020577E-013
 -3.999999999999989E-004    2.943785186286823E-013
 -2.999999999999989E-004    2.093079514322723E-013
 -1.999999999999989E-004    8.999385172223809E-014
 -9.999999999999892E-005   -5.623526396145987E-014
  1.084202172485504E-018   -2.183619308851979E-013
  1.000000000000011E-004   -3.823238939281569E-013
  2.000000000000011E-004   -5.320449187220510E-013
  3.000000000000011E-004   -6.507952668961477E-013
  4.000000000000011E-004   -7.227827454479718E-013
  5.000000000000011E-004   -7.348420503553124E-013
  6.000000000000011E-004   -6.780620571487018E-013
  7.000000000000011E-004   -5.491810670275516E-013
  8.000000000000011E-004   -3.515821186186532E-013
  9.000000000000012E-004   -9.574201408820853E-014
  1.000000000000001E-003    2.009738541385635E-013
  1.100000000000001E-003    5.152241014686921E-013
  1.200000000000001E-003    8.192995849939530E-013
  1.300000000000001E-003    1.083344498432745E-012
  1.400000000000001E-003    1.278033523702474E-012
  1.500000000000001E-003    1.377490289214656E-012
  1.600000000000001E-003    1.362176621633246E-012
  1.700000000000001E-003    1.221464900241575E-012
  1.800000000000001E-003    9.555999374632456E-013
  1.900000000000001E-003    5.767898003231421E-013
  2.000000000000001E-003    1.092270716883369E-013
  2.100000000000001E-003   -4.120729463164472E-013
  2.200000000000001E-003   -9.436204350607205E-013
  2.300000000000001E-003   -1.436870757415433E-012
  2.400000000000001E-003   -1.842478517636117E-012
  2.500000000000001E-003   -2.115040984924736E-012
  2.600000000000001E-003   -2.217903688987985E-012
  2.700000000000001E-003   -2.127545835505321E-012
  2.800000000000001E-003   -1.837067147894592E-012
  2.900000000000001E-003   -1.358334785413047E-012
  3.000000000000001E-003   -7.224469159622033E-013
  3.100000000000001E-003    2.169245223221990E-014
  3.200000000000001E-003    8.107182674987063E-013
  3.300000000000001E-003    1.571907721727204E-012
  3.400000000000001E-003    2.229681012279063E-012
  3.500000000000001E-003    2.712966364929499E-012
  3.600000000000001E-003    2.962748298171407E-012
  3.700000000000001E-003    2.939043624808080E-012
  3.800000000000001E-003    2.626532806302156E-012
  3.900000000000001E-003    2.038143380332202E-012
  4.000000000000001E-003    1.216029583330297E-012
  4.100000000000001E-003    2.296107507873973E-013
  4.200000000000001E-003   -8.293938237897368E-013
  4.300000000000001E-003   -1.854687341921998E-012
  4.400000000000001E-003   -2.735317713236318E-012
  4.500000000000001E-003   -3.366962953565769E-012
  4.600000000000002E-003   -3.663520285472466E-012
  4.700000000000001E-003   -3.567809939626046E-012
  4.800000000000001E-003   -3.060184892960179E-012
  4.900000000000002E-003   -2.163953316788611E-012
  5.000000000000001E-003   -9.467429030878025E-013
  5.100000000000001E-003    4.827092785983254E-013
  5.200000000000001E-003    1.982430833906115E-012
  5.300000000000002E-003    3.389353288884115E-012
  5.400000000000001E-003    4.534837774782008E-012
  5.500000000000001E-003    5.262270486963425E-012
  5.600000000000002E-003    5.445059453674398E-012
  5.700000000000001E-003    5.003183921434397E-012
  5.800000000000001E-003    3.916412365075474E-012
  5.900000000000002E-003    2.232485425381601E-012
  6.000000000000001E-003    6.892239904320267E-014
  6.100000000000001E-003   -2.392340854159379E-012
  6.200000000000002E-003   -4.917603003386843E-012
  6.300000000000002E-003   -7.240721836215802E-012
  6.400000000000001E-003   -9.087707488457758E-012
  6.500000000000001E-003   -1.020456178695082E-011
  6.600000000000002E-003   -1.038575398707626E-011
  6.700000000000001E-003   -9.500467017968157E-012
  6.800000000000001E-003   -7.513694624567210E-012
  6.900000000000002E-003   -4.499539084596639E-012
  7.000000000000001E-003   -6.446246924759345E-013
  7.100000000000001E-003    3.759632537048464E-012
  7.200000000000002E-003    8.336114650885356E-012
  7.300000000000002E-003    1.265155974177929E-011
  7.400000000000001E-003    1.625450202542633E-011
  7.500000000000001E-003    1.871851899314254E-011
  7.600000000000002E-003    1.968687815106367E-011
  7.700000000000001E-003    1.891421387146938E-011
  7.800000000000001E-003    1.630079333821000E-011
  7.900000000000001E-003    1.191531762564396E-011
  8.000000000000002E-003    6.003004507718960E-012
  8.100000000000001E-003   -1.023058729211060E-012
  8.200000000000001E-003   -8.607797339939054E-012
  8.300000000000002E-003   -1.609608332727038E-011
  8.400000000000001E-003   -2.278784990332722E-011
  8.500000000000002E-003   -2.800191625217087E-011
  8.600000000000002E-003   -3.114292383703484E-011
  8.700000000000001E-003   -3.176497533053077E-011
  8.800000000000002E-003   -2.962547926915565E-011
  8.900000000000002E-003   -2.472312387284257E-011
  9.000000000000001E-003   -1.731512219024925E-011
  9.100000000000002E-003   -7.910536383950536E-012
  9.200000000000002E-003    2.761340332130312E-012
  9.300000000000001E-003    1.380615847364945E-011
  9.400000000000002E-003    2.423941206842633E-011
  9.500000000000001E-003    3.307501598819027E-011
  9.600000000000001E-003    3.941974336432775E-011
  9.700000000000002E-003    4.256454001725347E-011
  9.800000000000001E-003    4.206357894194229E-011
  9.900000000000001E-003    3.779239611688850E-011
  1.000000000000000E-002    2.997806724282508E-011
  1.010000000000000E-002    1.919667957842346E-011
  1.020000000000000E-002    6.336346910687355E-012
  1.030000000000000E-002   -7.472676321164928E-012
  1.040000000000000E-002   -2.095581270940791E-011
  1.050000000000000E-002   -3.281187225119509E-011
  1.060000000000000E-002   -4.184006746044326E-011
  1.070000000000000E-002   -4.706418026086176E-011
  1.080000000000000E-002   -4.784130807078160E-011
  1.090000000000000E-002   -4.394329307783978E-011
  1.100000000000000E-002   -3.560108933840894E-011
  1.110000000000000E-002   -2.350536427157845E-011
  1.120000000000000E-002   -8.760666281032331E-012
  1.130000000000000E-002    7.204961905481980E-012
  1.140000000000000E-002    2.276845325120572E-011
  1.150000000000000E-002    3.626751006325422E-011
  1.160000000000000E-002    4.616959079660124E-011
  1.170000000000000E-002    5.123770744497060E-011
  1.180000000000000E-002    5.067594858352767E-011
  1.190000000000000E-002    4.423869033291866E-011
  1.200000000000000E-002    3.229009700058142E-011
  1.210000000000000E-002    1.580473000034944E-011
  1.220000000000000E-002   -3.694535313727651E-012
  1.230000000000000E-002   -2.425894179446885E-011
  1.240000000000000E-002   -4.368807333084912E-011
  1.250000000000000E-002   -5.974151292729614E-011
  1.260000000000000E-002   -7.036876502229031E-011
  1.270000000000000E-002   -7.393549824079484E-011
  1.280000000000000E-002   -6.942272889550346E-011
  1.290000000000000E-002   -5.657715190410339E-011
  1.300000000000000E-002   -3.599414416729516E-011
  1.310000000000000E-002   -9.120577044669661E-012
  1.320000000000000E-002    2.182814830708519E-011
  1.330000000000000E-002    5.403425423841204E-011
  1.340000000000000E-002    8.431581649049346E-011
  1.350000000000000E-002    1.094181040308362E-010
  1.360000000000000E-002    1.263324824695904E-010
  1.370000000000000E-002    1.326131756978782E-010
  1.380000000000000E-002    1.266600606489040E-010
  1.390000000000000E-002    1.079377719076296E-010
  1.400000000000000E-002    7.710509599369394E-011
  1.410000000000000E-002    3.603628887884791E-011
  1.420000000000000E-002   -1.227454492407981E-011
  1.430000000000000E-002   -6.392409106920126E-011
  1.440000000000000E-002   -1.144120345404733E-010
  1.450000000000000E-002   -1.590304911768293E-010
  1.460000000000000E-002   -1.932976745470124E-010
  1.470000000000000E-002   -2.133961199818379E-010
  1.480000000000000E-002   -2.165734956468051E-010
  1.490000000000000E-002   -2.014646499925223E-010
  1.500000000000000E-002   -1.682996895952323E-010
  1.510000000000000E-002   -1.189711255988470E-010
  1.520000000000000E-002   -5.694618691065625E-011
  1.530000000000000E-002    1.297595295982166E-011
  1.540000000000000E-002    8.504668190301997E-011
  1.550000000000000E-002    1.530608006216910E-010
  1.560000000000000E-002    2.109177235915338E-010
  1.570000000000000E-002    2.532000897225159E-010
  1.580000000000000E-002    2.757148847078971E-010
  1.590000000000000E-002    2.759423300459893E-010
  1.600000000000000E-002    2.533445078941590E-010
  1.610000000000000E-002    2.094965185681054E-010
  1.620000000000000E-002    1.480186300867315E-010
  1.630000000000000E-002    7.430614942899703E-011
  1.640000000000000E-002   -4.926540393782949E-012
  1.650000000000000E-002   -8.225228385655214E-011
  1.660000000000000E-002   -1.502357064149421E-010
  1.670000000000000E-002   -2.021714818074527E-010
  1.680000000000000E-002   -2.327852858577677E-010
  1.690000000000000E-002   -2.388261130876551E-010
  1.700000000000000E-002   -2.194856919345844E-010
  1.710000000000000E-002   -1.765947276777316E-010
  1.720000000000000E-002   -1.145640464029071E-010
  1.730000000000000E-002   -4.006335699854105E-011
  1.740000000000000E-002    3.854518848254698E-011
  1.750000000000000E-002    1.119760789231341E-010
  1.760000000000000E-002    1.709272971460067E-010
  1.770000000000000E-002    2.070431478209320E-010
  1.780000000000000E-002    2.138414244571589E-010
  1.790000000000000E-002    1.875116440180366E-010
  1.800000000000000E-002    1.274985023260548E-010
  1.810000000000000E-002    3.680122276666407E-011
  1.820000000000000E-002   -7.805705408313235E-011
  1.830000000000000E-002   -2.074059476069369E-010
  1.840000000000000E-002   -3.391340406195425E-010
  1.850000000000000E-002   -4.596758668296849E-010
  1.860000000000000E-002   -5.552009245089609E-010
  1.870000000000000E-002   -6.129029102812207E-010