 -4.000000000000000E-002    0.000000000000000E+000
 -3.990000000000000E-002    0.000000000000000E+000
 -3.980000000000000E-002    0.000000000000000E+000
 -3.970000000000000E-002    0.000000000000000E+000
 -3.960000000000000E-002    0.000000000000000E+000
 -3.950000000000000E-002    0.000000000000000E+000
 -3.940000000000000E-002    0.000000000000000E+000
 -3.930000000000000E-002    0.000000000000000E+000
 -3.920000000000000E-002    0.000000000000000E+000
 -3.910000000000000E-002    0.000000000000000E+000
 -3.900000000000000E-002    0.000000000000000E+000
 -3.890000000000000E-002    0.000000000000000E+000
 -3.880000000000000E-002    0.000000000000000E+000
 -3.870000000000000E-002    0.000000000000000E+000
 -3.860000000000000E-002    0.000000000000000E+000
 -3.850000000000000E-002    0.000000000000000E+000
 -3.840000000000000E-002    0.000000000000000E+000
 -3.830000000000000E-002    0.000000000000000E+000
 -3.820000000000000E-002    0.000000000000000E+000
 -3.810000000000000E-002    0.000000000000000E+000
 -3.800000000000000E-002    0.000000000000000E+000
 -3.790000000000000E-002    0.000000000000000E+000
 -3.780000000000000E-002    0.000000000000000E+000
 -3.770000000000000E-002    0.000000000000000E+000
 -3.760000000000000E-002    0.000000000000000E+000
 -3.750000000000000E-002    0.000000000000000E+000
 -3.740000000000000E-002    0.000000000000000E+000
 -3.730000000000000E-002    0.000000000000000E+000
 -3.720000000000000E-002    0.000000000000000E+000
 -3.710000000000000E-002    0.000000000000000E+000
 -3.700000000000000E-002    0.000000000000000E+000
 -3.690000000000000E-002    0.000000000000000E+000
 -3.680000000000000E-002    0.000000000000000E+000
 -3.670000000000000E-002    0.000000000000000E+000
 -3.660000000000000E-002    0.000000000000000E+000
 -3.650000000000000E-002    0.000000000000000E+000
 -3.640000000000000E-002    0.000000000000000E+000
 -3.630000000000000E-002    0.000000000000000E+000
 -3.620000000000000E-002    0.000000000000000E+000
 -3.610000000000000E-002    0.000000000000000E+000
 -3.600000000000000E-002    0.000000000000000E+000
 -3.590000000000000E-002    0.000000000000000E+000
 -3.580000000000000E-002    0.000000000000000E+000
 -3.570000000000000E-002    0.000000000000000E+000
 -3.560000000000000E-002    0.000000000000000E+000
 -3.550000000000000E-002    0.000000000000000E+000
 -3.540000000000000E-002    0.000000000000000E+000
 -3.530000000000000E-002    0.000000000000000E+000
 -3.520000000000000E-002    0.000000000000000E+000
 -3.510000000000000E-002    0.000000000000000E+000
 -3.500000000000000E-002    0.000000000000000E+000
 -3.490000000000000E-002    0.000000000000000E+000
 -3.480000000000000E-002    0.000000000000000E+000
 -3.470000000000000E-002    0.000000000000000E+000
 -3.460000000000000E-002    0.000000000000000E+000
 -3.450000000000000E-002    0.000000000000000E+000
 -3.440000000000000E-002    0.000000000000000E+000
 -3.430000000000000E-002    0.000000000000000E+000
 -3.420000000000000E-002    0.000000000000000E+000
 -3.410000000000000E-002    0.000000000000000E+000
 -3.400000000000000E-002    0.000000000000000E+000
 -3.390000000000000E-002    0.000000000000000E+000
 -3.380000000000000E-002    0.000000000000000E+000
 -3.370000000000000E-002    0.000000000000000E+000
 -3.360000000000000E-002    0.000000000000000E+000
 -3.350000000000000E-002    0.000000000000000E+000
 -3.340000000000000E-002    0.000000000000000E+000
 -3.330000000000000E-002    0.000000000000000E+000
 -3.320000000000000E-002    0.000000000000000E+000
 -3.310000000000000E-002    0.000000000000000E+000
 -3.300000000000000E-002    0.000000000000000E+000
 -3.290000000000000E-002    0.000000000000000E+000
 -3.280000000000000E-002    0.000000000000000E+000
 -3.270000000000000E-002    0.000000000000000E+000
 -3.260000000000000E-002    0.000000000000000E+000
 -3.250000000000000E-002    0.000000000000000E+000
 -3.240000000000000E-002    0.000000000000000E+000
 -3.230000000000000E-002    0.000000000000000E+000
 -3.220000000000000E-002    0.000000000000000E+000
 -3.210000000000000E-002    0.000000000000000E+000
 -3.200000000000000E-002    0.000000000000000E+000
 -3.190000000000000E-002    0.000000000000000E+000
 -3.180000000000000E-002    0.000000000000000E+000
 -3.170000000000000E-002    0.000000000000000E+000
 -3.160000000000000E-002    0.000000000000000E+000
 -3.150000000000000E-002    0.000000000000000E+000
 -3.140000000000000E-002    0.000000000000000E+000
 -3.130000000000000E-002    0.000000000000000E+000
 -3.120000000000000E-002    0.000000000000000E+000
 -3.110000000000000E-002    0.000000000000000E+000
 -3.100000000000000E-002    0.000000000000000E+000
 -3.090000000000000E-002    0.000000000000000E+000
 -3.080000000000000E-002    0.000000000000000E+000
 -3.070000000000000E-002    0.000000000000000E+000
 -3.060000000000000E-002    0.000000000000000E+000
 -3.050000000000000E-002    0.000000000000000E+000
 -3.040000000000000E-002    0.000000000000000E+000
 -3.030000000000000E-002    0.000000000000000E+000
 -3.020000000000000E-002    0.000000000000000E+000
 -3.010000000000000E-002    0.000000000000000E+000
 -3.000000000000000E-002    0.000000000000000E+000
 -2.990000000000000E-002    0.000000000000000E+000
 -2.980000000000000E-002    0.000000000000000E+000
 -2.970000000000000E-002    0.000000000000000E+000
 -2.960000000000000E-002    0.000000000000000E+000
 -2.950000000000000E-002    0.000000000000000E+000
 -2.940000000000000E-002    0.000000000000000E+000
 -2.930000000000000E-002    0.000000000000000E+000
 -2.920000000000000E-002    0.000000000000000E+000
 -2.910000000000000E-002    0.000000000000000E+000
 -2.900000000000000E-002    0.000000000000000E+000
 -2.890000000000000E-002    0.000000000000000E+000
 -2.880000000000000E-002    0.000000000000000E+000
 -2.870000000000000E-002    0.000000000000000E+000
 -2.860000000000000E-002    0.000000000000000E+000
 -2.850000000000000E-002    0.000000000000000E+000
 -2.840000000000000E-002    0.000000000000000E+000
 -2.830000000000000E-002    0.000000000000000E+000
 -2.820000000000000E-002    0.000000000000000E+000
 -2.810000000000000E-002    0.000000000000000E+000
 -2.800000000000000E-002    0.000000000000000E+000
 -2.790000000000000E-002    0.000000000000000E+000
 -2.780000000000000E-002    0.000000000000000E+000
 -2.770000000000000E-002    0.000000000000000E+000
 -2.760000000000000E-002    0.000000000000000E+000
 -2.750000000000000E-002    0.000000000000000E+000
 -2.740000000000000E-002    0.000000000000000E+000
 -2.730000000000000E-002    0.000000000000000E+000
 -2.720000000000000E-002    0.000000000000000E+000
 -2.710000000000000E-002    0.000000000000000E+000
 -2.700000000000000E-002    0.000000000000000E+000
 -2.690000000000000E-002    0.000000000000000E+000
 -2.680000000000000E-002    0.000000000000000E+000
 -2.670000000000000E-002    0.000000000000000E+000
 -2.660000000000000E-002    0.000000000000000E+000
 -2.650000000000000E-002    0.000000000000000E+000
 -2.640000000000000E-002    0.000000000000000E+000
 -2.630000000000000E-002    0.000000000000000E+000
 -2.620000000000000E-002    0.000000000000000E+000
 -2.610000000000000E-002    0.000000000000000E+000
 -2.600000000000000E-002    0.000000000000000E+000
 -2.590000000000000E-002    0.000000000000000E+000
 -2.580000000000000E-002    0.000000000000000E+000
 -2.570000000000000E-002    0.000000000000000E+000
 -2.560000000000000E-002    0.000000000000000E+000
 -2.550000000000000E-002    0.000000000000000E+000
 -2.540000000000000E-002    0.000000000000000E+000
 -2.530000000000000E-002    0.000000000000000E+000
 -2.520000000000000E-002    0.000000000000000E+000
 -2.510000000000000E-002    0.000000000000000E+000
 -2.500000000000000E-002    0.000000000000000E+000
 -2.490000000000000E-002    0.000000000000000E+000
 -2.480000000000000E-002    0.000000000000000E+000
 -2.470000000000000E-002    0.000000000000000E+000
 -2.460000000000000E-002    0.000000000000000E+000
 -2.450000000000000E-002    0.000000000000000E+000
 -2.440000000000000E-002    0.000000000000000E+000
 -2.430000000000000E-002    0.000000000000000E+000
 -2.420000000000000E-002    0.000000000000000E+000
 -2.410000000000000E-002    0.000000000000000E+000
 -2.400000000000000E-002    0.000000000000000E+000
 -2.390000000000000E-002    0.000000000000000E+000
 -2.380000000000000E-002    0.000000000000000E+000
 -2.370000000000000E-002    0.000000000000000E+000
 -2.360000000000000E-002    0.000000000000000E+000
 -2.350000000000000E-002    0.000000000000000E+000
 -2.340000000000000E-002    0.000000000000000E+000
 -2.330000000000000E-002    0.000000000000000E+000
 -2.320000000000000E-002    0.000000000000000E+000
 -2.310000000000000E-002    0.000000000000000E+000
 -2.300000000000000E-002    0.000000000000000E+000
 -2.290000000000000E-002    0.000000000000000E+000
 -2.280000000000000E-002    0.000000000000000E+000
 -2.270000000000000E-002    0.000000000000000E+000
 -2.260000000000000E-002    0.000000000000000E+000
 -2.250000000000000E-002    0.000000000000000E+000
 -2.240000000000000E-002    0.000000000000000E+000
 -2.230000000000000E-002    0.000000000000000E+000
 -2.220000000000000E-002    0.000000000000000E+000
 -2.210000000000000E-002    0.000000000000000E+000
 -2.200000000000000E-002    0.000000000000000E+000
 -2.190000000000000E-002    0.000000000000000E+000
 -2.180000000000000E-002    0.000000000000000E+000
 -2.170000000000000E-002    0.000000000000000E+000
 -2.160000000000000E-002    0.000000000000000E+000
 -2.150000000000000E-002    0.000000000000000E+000
 -2.140000000000000E-002    5.401623025679658E-048
 -2.130000000000000E-002    1.080324605135932E-047
 -2.120000000000000E-002    1.080324605135932E-047
 -2.110000000000000E-002    1.080324605135932E-047
 -2.100000000000000E-002    5.401623025679658E-048
 -2.090000000000000E-002   -7.243085390293825E-048
 -2.080000000000000E-002    8.405519016740201E-048
 -2.070000000000000E-002    3.751471778272884E-048
 -2.060000000000000E-002    2.383057670174759E-047
 -2.050000000000000E-002    2.544849234433511E-047
 -2.040000000000000E-002    2.166478496124298E-047
 -2.030000000000000E-002    2.751001933648782E-047
 -2.020000000000000E-002    3.260767792452033E-047
 -2.010000000000000E-002   -2.083766421586024E-048
 -2.000000000000000E-002   -3.656510438185078E-047
 -1.990000000000000E-002   -5.993020558854829E-047
 -1.980000000000000E-002   -1.314853741468435E-046
 -1.970000000000000E-002   -1.424835168815831E-046
 -1.960000000000000E-002   -4.105112160196243E-047
 -1.950000000000000E-002    1.989742168461491E-046
 -1.940000000000000E-002    4.557653065763018E-046
 -1.930000000000000E-002    7.217981686324699E-046
 -1.920000000000000E-002    1.253212307620418E-045
 -1.910000000000000E-002    9.426770661317113E-046
 -1.900000000000000E-002    1.356840802455610E-045
 -1.890000000000000E-002    2.214134580409544E-045
 -1.880000000000000E-002    2.364689048579051E-045
 -1.870000000000000E-002    2.821950852132126E-045
 -1.860000000000000E-002    2.361140234399489E-045
 -1.850000000000000E-002    1.393862644916784E-045
 -1.840000000000000E-002   -1.066098906940027E-045
 -1.830000000000000E-002   -4.880044127929813E-045
 -1.820000000000000E-002   -9.575535620600184E-045
 -1.810000000000000E-002   -1.463811956801986E-044
 -1.800000000000000E-002   -2.105435712539130E-044
 -1.790000000000000E-002   -2.578131856023380E-044
 -1.780000000000000E-002   -2.996619673205755E-044
 -1.770000000000000E-002   -3.035461705262622E-044
 -1.760000000000000E-002   -2.628200936485606E-044
 -1.750000000000000E-002   -1.402604511289185E-044
 -1.740000000000000E-002    7.193477255531591E-045
 -1.730000000000000E-002    3.905622647965219E-044
 -1.720000000000000E-002    8.366158475560411E-044
 -1.710000000000000E-002    1.383777202591757E-043
 -1.700000000000000E-002    2.002941584295704E-043
 -1.690000000000000E-002    2.606141290003787E-043
 -1.680000000000000E-002    3.085786836681380E-043
 -1.670000000000000E-002    3.284077361592365E-043
 -1.660000000000000E-002    2.994087934131874E-043
 -1.650000000000000E-002    1.985958332260908E-043
 -1.640000000000000E-002    1.980468243022431E-045
 -1.630000000000000E-002   -3.085742691699682E-043
 -1.620000000000000E-002   -7.415487654055138E-043
 -1.610000000000000E-002   -1.290040551175195E-042
 -1.600000000000000E-002   -1.920209898296040E-042
 -1.590000000000000E-002   -2.566966184077787E-042
 -1.580000000000000E-002   -3.122805280601595E-042
 -1.570000000000000E-002   -3.438721808962208E-042
 -1.560000000000000E-002   -3.324644744285916E-042
 -1.550000000000000E-002   -2.560545418703322E-042
 -1.540000000000000E-002   -9.228428075754722E-043
 -1.530000000000000E-002    1.784532718720027E-042
 -1.520000000000000E-002    5.675152932931889E-042
 -1.510000000000000E-002    1.072028603976640E-041
 -1.500000000000000E-002    1.667751631818646E-041
 -1.490000000000000E-002    2.301626074671914E-041
 -1.480000000000000E-002    2.885688582363594E-041
 -1.470000000000000E-002    3.293978867483111E-041
 -1.460000000000000E-002    3.363983460295331E-041
 -1.450000000000000E-002    2.905135222411880E-041
 -1.440000000000000E-002    1.716684183575137E-041
 -1.430000000000000E-002   -3.839936562947127E-042
 -1.420000000000000E-002   -3.521080656040409E-041
 -1.410000000000000E-002   -7.709842622492613E-041
 -1.400000000000000E-002   -1.279873818167810E-040
 -1.390000000000000E-002   -1.841024109968706E-040
 -1.380000000000000E-002   -2.388962615470326E-040
 -1.370000000000000E-002   -2.827435766309990E-040
 -1.360000000000000E-002   -3.029903943163345E-040
 -1.350000000000000E-002   -2.845282112296655E-040
 -1.340000000000000E-002   -2.110539913751313E-040
 -1.330000000000000E-002   -6.713575507737205E-041
 -1.320000000000000E-002    1.588550587562662E-040
 -1.310000000000000E-002    4.710157452138125E-040
 -1.300000000000000E-002    8.616124949147843E-040
 -1.290000000000000E-002    1.306635415705100E-039
 -1.280000000000000E-002    1.761860310397990E-039
 -1.270000000000000E-002    2.160296821439720E-039
 -1.260000000000000E-002    2.412077567506855E-039
 -1.250000000000000E-002    2.407956144967993E-039
 -1.240000000000000E-002    2.027524929697768E-039
 -1.230000000000000E-002    1.153033028364389E-039
 -1.220000000000000E-002   -3.108190163216846E-040
 -1.210000000000000E-002   -2.411524094524027E-039
 -1.200000000000000E-002   -5.119312214760632E-039
 -1.190000000000000E-002   -8.296417801498290E-039
 -1.180000000000000E-002   -1.166930524780157E-038
 -1.170000000000000E-002   -1.480959198565002E-038
 -1.160000000000000E-002   -1.713054876322689E-038
 -1.150000000000000E-002   -1.790667010017283E-038
 -1.140000000000000E-002   -1.632353458607744E-038
 -1.130000000000000E-002   -1.156359364574797E-038
 -1.120000000000000E-002   -2.930358400565005E-039
 -1.110000000000000E-002    9.991402745764621E-039
 -1.100000000000000E-002    2.714852112782494E-038
 -1.090000000000000E-002    4.782248203302372E-038
 -1.080000000000000E-002    7.044872534490800E-038
 -1.070000000000000E-002    9.248694635712444E-038
 -1.060000000000000E-002    1.103842415487946E-037
 -1.050000000000000E-002    1.196761107640941E-037
 -1.040000000000000E-002    1.152689117145852E-037
 -1.030000000000000E-002    9.193737255135131E-038
 -1.020000000000000E-002    4.505253207588217E-038
 -1.010000000000000E-002   -2.847350965876087E-038
 -1.000000000000000E-002   -1.290777108975006E-037
 -9.899999999999999E-003   -2.533696958784157E-037
 -9.800000000000000E-003   -3.930380107690117E-037
 -9.699999999999999E-003   -5.340367594023708E-037
 -9.599999999999999E-003   -6.562897503643116E-037
 -9.500000000000000E-003   -7.341668079468944E-037
 -9.399999999999999E-003   -7.379771102127511E-037
 -9.299999999999999E-003   -6.366684814772385E-037
 -9.200000000000000E-003   -4.018211729306676E-037
 -9.099999999999999E-003   -1.286431025202011E-038
 -8.999999999999999E-003    5.367619016582273E-037
 -8.900000000000000E-003    1.233030893877257E-036
 -8.799999999999999E-003    2.035134312320077E-036
 -8.699999999999999E-003    2.870731331466685E-036
 -8.600000000000000E-003    3.633891102383025E-036
 -8.499999999999999E-003    4.187089763974681E-036
 -8.399999999999999E-003    4.368543172267655E-036
 -8.300000000000000E-003    4.005873121834205E-036
 -8.199999999999999E-003    2.936593935780509E-036
 -8.100000000000000E-003    1.035051477626502E-036
 -8.000000000000000E-003   -1.755553680868176E-036
 -7.899999999999999E-003   -5.388744443028718E-036
 -7.800000000000000E-003   -9.681947870054088E-036
 -7.699999999999999E-003   -1.429054587394144E-035
 -7.599999999999999E-003   -1.869508045714029E-035
 -7.499999999999999E-003   -2.220827203651359E-035
 -7.399999999999999E-003   -2.400825134930434E-035
 -7.299999999999999E-003   -2.320291129735246E-035
 -7.199999999999999E-003   -1.892776903081333E-035
 -7.100000000000000E-003   -1.047577825799227E-035
 -6.999999999999999E-003    2.547455506259926E-036
 -6.899999999999999E-003    2.005561963348535E-035
 -6.800000000000000E-003    4.131957957356912E-035
 -6.699999999999999E-003    6.483583509199854E-035
 -6.599999999999999E-003    8.825462844753174E-035
 -6.499999999999999E-003    1.083987605326059E-034
 -6.399999999999999E-003    1.214021741992604E-034
 -6.299999999999999E-003    1.229910751170825E-034
 -6.199999999999999E-003    1.089184341252605E-034
 -6.100000000000000E-003    7.554518019845158E-035
 -5.999999999999999E-003    2.053878981555833E-035
 -5.899999999999999E-003   -5.636591528960694E-035
 -5.800000000000000E-003   -1.526264347469550E-034
 -5.699999999999999E-003   -2.622800286987216E-034
 -5.599999999999999E-003   -3.755849002035738E-034
 -5.499999999999999E-003   -4.790481255327229E-034
 -5.399999999999999E-003   -5.559641859496343E-034
 -5.299999999999999E-003   -5.875596623352921E-034
 -5.199999999999999E-003   -5.547873575099842E-034
 -5.099999999999999E-003   -4.407395600766130E-034
 -4.999999999999999E-003   -2.335563377256580E-034
 -4.899999999999999E-003    7.040245313290388E-035
 -4.799999999999999E-003    4.634628562448011E-034
 -4.699999999999999E-003    9.240580385843695E-034
 -4.599999999999999E-003    1.415171502003931E-033
 -4.499999999999999E-003    1.884330898445978E-033
 -4.399999999999999E-003    2.265631597053009E-033
 -4.299999999999999E-003    2.484151828990911E-033
 -4.199999999999999E-003    2.462897716378395E-033
 -4.099999999999999E-003    2.132130286830193E-033
 -3.999999999999999E-003    1.440548410402144E-033
 -3.899999999999999E-003    3.674003914212543E-034
 -3.799999999999999E-003   -1.065817005120614E-033
 -3.699999999999999E-003   -2.785747409985505E-033
 -3.599999999999999E-003   -4.661556901468353E-033
 -3.499999999999999E-003   -6.505227865736796E-033
 -3.399999999999999E-003   -8.079469537739148E-033
 -3.299999999999999E-003   -9.114367281400220E-033
 -3.199999999999999E-003   -9.333102547382468E-033
 -3.099999999999999E-003   -8.485886843787039E-033
 -2.999999999999999E-003   -6.389887470984137E-033
 -2.899999999999999E-003   -2.971466764578221E-033
 -2.799999999999999E-003    1.694309083872392E-033
 -2.699999999999999E-003    7.353036785357644E-033
 -2.599999999999999E-003    1.355592178476856E-032
 -2.499999999999999E-003    1.966668807222752E-032
 -2.399999999999999E-003    2.489576419400802E-032
 -2.299999999999999E-003    2.836460106502912E-032
 -2.199999999999999E-003    2.919977353209107E-032
 -2.099999999999999E-003    2.665205601286567E-032
 -1.999999999999999E-003    2.023088886994394E-032
 -1.899999999999999E-003    9.839682752363950E-033
 -1.799999999999999E-003   -4.106903387757866E-033
 -1.699999999999999E-003   -2.060544584433914E-032
 -1.599999999999999E-003   -3.804827901597152E-032
 -1.499999999999999E-003   -5.428999616271578E-032
 -1.399999999999999E-003   -6.680971315629591E-032
 -1.299999999999999E-003   -7.297328132848855E-032
 -1.199999999999999E-003   -7.038591961866231E-032
 -1.099999999999999E-003   -5.731046433349841E-032
 -9.999999999999989E-004   -3.310862994728112E-032
 -8.999999999999990E-004    1.352424610962154E-033
 -7.999999999999990E-004    4.339920910166472E-032
 -6.999999999999989E-004    8.843266178589668E-032
 -5.999999999999990E-004    1.300632520248660E-031
 -4.999999999999989E-004    1.605578360103105E-031
 -3.999999999999989E-004    1.716272342418623E-031
 -2.999999999999989E-004    1.555420449471709E-031
 -1.999999999999989E-004    1.065128035647256E-031
 -9.999999999999892E-005    2.221064476217346E-032
  1.084202172485504E-018   -9.475356677899433E-032
  1.000000000000011E-004   -2.356242570515800E-031
  2.000000000000011E-004   -3.848382030145887E-031
  3.000000000000011E-004   -5.201708845871228E-031
  4.000000000000011E-004   -6.139346417005665E-031
  5.000000000000011E-004   -6.353839963323788E-031
  6.000000000000011E-004   -5.543678445835646E-031
  7.000000000000011E-004   -3.460967120299778E-031
  8.000000000000011E-004    3.310765470352665E-033
  9.000000000000012E-004    4.910498907384083E-031
  1.000000000000001E-003    1.092376178450250E-030
  1.100000000000001E-003    1.756797746391434E-030
  1.200000000000001E-003    2.406714248268864E-030
  1.300000000000001E-003    2.939483573875315E-030
  1.400000000000001E-003    3.233711186838925E-030
  1.500000000000001E-003    3.160233966146715E-030
  1.600000000000001E-003    2.597758101450779E-030
  1.700000000000001E-003    1.452450699938472E-030
  1.800000000000001E-003   -3.199485854100555E-031
  1.900000000000001E-003   -2.691748111951772E-030
  2.000000000000001E-003   -5.543603164938932E-030
  2.100000000000001E-003   -8.650987689226792E-030
  2.200000000000001E-003   -1.168057932664052E-029
  2.300000000000001E-003   -1.420006711301318E-029
  2.400000000000001E-003   -1.570419233640115E-029
  2.500000000000001E-003   -1.565849157598602E-029
  2.600000000000001E-003   -1.356034045411166E-029
  2.700000000000001E-003   -9.014480393720510E-030
  2.800000000000001E-003   -1.817519686028779E-030
  2.900000000000001E-003    7.956960017379324E-030
  3.000000000000001E-003    1.988342660007634E-029
  3.100000000000001E-003    3.313224408427767E-029
  3.200000000000001E-003    4.645365108810232E-029
  3.300000000000001E-003    5.821036573212205E-029
  3.400000000000001E-003    6.646866686066677E-029
  3.500000000000001E-003    6.915319685837558E-029
  3.600000000000001E-003    6.426396033138089E-029
  3.700000000000001E-003    5.014595384980413E-029
  3.800000000000001E-003    2.579238754992821E-029
  3.900000000000001E-003   -8.846898105250179E-030
  4.000000000000001E-003   -5.258875837529681E-029
  4.100000000000001E-003   -1.028146796311935E-028
  4.200000000000001E-003   -1.553887339730115E-028
  4.300000000000001E-003   -2.047381492083410E-028
  4.400000000000001E-003   -2.441302922800386E-028
  4.500000000000001E-003   -2.661654411986781E-028
  4.600000000000002E-003   -2.634817109260536E-028
  4.700000000000001E-003   -2.296437377416494E-028
  4.800000000000001E-003   -1.601548675603024E-028
  4.900000000000002E-003   -5.350294026677615E-029
  5.000000000000001E-003    8.787706115856727E-029
  5.100000000000001E-003    2.568612465507713E-028
  5.200000000000001E-003    4.412612893078210E-028
  5.300000000000002E-003    6.239519753499763E-028
  5.400000000000001E-003    7.836156141667032E-028
  5.500000000000001E-003    8.961674446643392E-028
  5.600000000000002E-003    9.368627897424827E-028
  5.700000000000001E-003    8.830058616583968E-028
  5.800000000000001E-003    7.170862319462284E-028
  5.900000000000002E-003    4.300775312265395E-028
  6.000000000000001E-003    2.454944902715083E-029
  6.100000000000001E-003   -4.828186300554404E-028
  6.200000000000002E-003   -1.059761371923929E-027
  6.300000000000002E-003   -1.658406593022659E-027
  6.400000000000001E-003   -2.217058892164186E-027
  6.500000000000001E-003   -2.664000219299415E-027
  6.600000000000002E-003   -2.923336102320486E-027
  6.700000000000001E-003   -2.922678419408108E-027
  6.800000000000001E-003   -2.602195568222057E-027
  6.900000000000002E-003   -1.924287968058104E-027
  7.000000000000001E-003   -8.829045912371226E-028
  7.100000000000001E-003    4.886535313124053E-028
  7.200000000000002E-003    2.112699773884497E-027
  7.300000000000002E-003    3.866087557421628E-027
  7.400000000000001E-003    5.584105607948167E-027
  7.500000000000001E-003    7.069985800060447E-027
  7.600000000000002E-003    8.110151115809370E-027
  7.700000000000001E-003    8.494696515532984E-027
  7.800000000000001E-003    8.041860483247146E-027
  7.900000000000001E-003    6.624532130184620E-027
  8.000000000000002E-003    4.196160386235658E-027
  8.100000000000001E-003    8.129508918245302E-028
  8.200000000000001E-003   -3.350987609875967E-027
  8.300000000000002E-003   -7.998790329072048E-027
  8.400000000000001E-003   -1.271898375574850E-026
  8.500000000000002E-003   -1.700837717819189E-026
  8.600000000000002E-003   -2.031013425477599E-026
  8.700000000000001E-003   -2.206573898471044E-026
  8.800000000000002E-003   -2.177769025238758E-026
  8.900000000000002E-003   -1.907788369315567E-026
  9.000000000000001E-003   -1.379491184928289E-026
  9.100000000000002E-003   -6.012331384017847E-027
  9.200000000000002E-003    3.890727443109584E-027
  9.300000000000001E-003    1.522476337886626E-026
  9.400000000000002E-003    2.700779797907830E-026
  9.500000000000001E-003    3.802034307415045E-026
  9.600000000000001E-003    4.689834357001239E-026
  9.700000000000002E-003    5.226080685898562E-026
  9.800000000000001E-003    5.286401988087332E-026
  9.900000000000001E-003    4.776957160121485E-026
  1.000000000000000E-002    3.650931630958579E-026
  1.010000000000000E-002    1.922744655487376E-026
  1.020000000000000E-002   -3.221338404693030E-027
  1.030000000000000E-002   -2.923749900794366E-026
  1.040000000000000E-002   -5.652234790539878E-026
  1.050000000000000E-002   -8.221372132639177E-026
  1.060000000000000E-002   -1.031129080910750E-025
  1.070000000000000E-002   -1.159934389672043E-025
  1.080000000000000E-002   -1.179709275068896E-025
  1.090000000000000E-002   -1.069019422629685E-025
  1.100000000000000E-002   -8.177030303550656E-026
  1.110000000000000E-002   -4.301267956783110E-026
  1.120000000000000E-002    7.266379820534047E-027
  1.130000000000000E-002    6.523661809356228E-026
  1.140000000000000E-002    1.254775446178436E-025
  1.150000000000000E-002    1.813276936304044E-025
  1.160000000000000E-002    2.254464721431486E-025
  1.170000000000000E-002    2.505611107281727E-025
  1.180000000000000E-002    2.503446120574907E-025
  1.190000000000000E-002    2.203442953849612E-025
  1.200000000000000E-002    1.588590175481023E-025
  1.210000000000000E-002    6.765043265924687E-026
  1.220000000000000E-002   -4.762862293126255E-026
  1.230000000000000E-002   -1.773933923935443E-025
  1.240000000000000E-002   -3.085521067442580E-025
  1.250000000000000E-002   -4.254332812978768E-025
  1.260000000000000E-002   -5.111990967843027E-025
  1.270000000000000E-002   -5.496657759301520E-025
  1.280000000000000E-002   -5.273883870197757E-025
  1.290000000000000E-002   -4.358088994569026E-025
  1.300000000000000E-002   -2.732195075179717E-025
  1.310000000000000E-002   -4.626745408384855E-026
  1.320000000000000E-002    2.292647245781275E-025
  1.330000000000000E-002    5.286409631025109E-025
  1.340000000000000E-002    8.194720243095197E-025
  1.350000000000000E-002    1.064195687721609E-024
  1.360000000000000E-002    1.223658599345182E-024
  1.370000000000000E-002    1.261580893303126E-024
  1.380000000000000E-002    1.149529381538957E-024
  1.390000000000000E-002    8.719001775481600E-025
  1.400000000000000E-002    4.303065359998443E-025
  1.410000000000000E-002   -1.532701319592360E-025
  1.420000000000000E-002   -8.351839250877801E-025
  1.430000000000000E-002   -1.551196765704617E-024
  1.440000000000000E-002   -2.220247581098192E-024
  1.450000000000000E-002   -2.750981895022559E-024
  1.460000000000000E-002   -3.050784992075101E-024
  1.470000000000000E-002   -3.036725865791995E-024
  1.480000000000000E-002   -2.647455811254333E-024
  1.490000000000000E-002   -1.854828810285545E-024
  1.500000000000000E-002   -6.737922121152531E-025
  1.510000000000000E-002    8.309609066536130E-025
  1.520000000000000E-002    2.542994117382036E-024
  1.530000000000000E-002    4.297925874537224E-024
  1.540000000000000E-002    5.893661206747828E-024
  1.550000000000000E-002    7.107106158812270E-024
  1.560000000000000E-002    7.716591146569855E-024
  1.570000000000000E-002    7.528455975628678E-024
  1.580000000000000E-002    6.405447681792197E-024
  1.590000000000000E-002    4.293918038978437E-024
  1.600000000000000E-002    1.246389966280321E-024
  1.610000000000000E-002   -2.564042504053771E-024
  1.620000000000000E-002   -6.840708501134721E-024
  1.630000000000000E-002   -1.117429025842181E-023
  1.640000000000000E-002   -1.506897658030173E-023
  1.650000000000000E-002   -1.798372848572474E-023
  1.660000000000000E-002   -1.938663694756096E-023
  1.670000000000000E-002   -1.881849856592703E-023
  1.680000000000000E-002   -1.595995553093037E-023
  1.690000000000000E-002   -1.069509631324687E-023
  1.700000000000000E-002   -3.163426848912388E-024
  1.710000000000000E-002    6.207844237620757E-024
  1.720000000000000E-002    1.669871795003339E-023
  1.730000000000000E-002    2.732398094372617E-023
  1.740000000000000E-002    3.689640863752280E-023
  1.750000000000000E-002    4.412475926538228E-023
  1.760000000000000E-002    4.774179437338198E-023
  1.770000000000000E-002    4.665307052923413E-023
  1.780000000000000E-002    4.009335523334739E-023
  1.790000000000000E-002    2.777418568041407E-023
  1.800000000000000E-002    1.000409047798722E-023
  1.810000000000000E-002   -1.223695012513447E-023
  1.820000000000000E-002   -3.728561204877718E-023
  1.830000000000000E-002   -6.285836313600418E-023
  1.840000000000000E-002   -8.619592289327316E-023
  1.850000000000000E-002   -1.042870666753812E-022
  1.860000000000000E-002   -1.141607757238907E-022
  1.870000000000000E-002   -1.132256094457142E-022