 -4.000000000000000E-002    0.000000000000000E+000
 -3.990000000000000E-002    0.000000000000000E+000
 -3.980000000000000E-002    0.000000000000000E+000
 -3.970000000000000E-002    0.000000000000000E+000
 -3.960000000000000E-002    0.000000000000000E+000
 -3.950000000000000E-002    0.000000000000000E+000
 -3.940000000000000E-002    0.000000000000000E+000
 -3.930000000000000E-002    0.000000000000000E+000
 -3.920000000000000E-002    0.000000000000000E+000
 -3.910000000000000E-002    0.000000000000000E+000
 -3.900000000000000E-002    0.000000000000000E+000
 -3.890000000000000E-002    0.000000000000000E+000
 -3.880000000000000E-002    0.000000000000000E+000
 -3.870000000000000E-002    0.000000000000000E+000
 -3.860000000000000E-002    0.000000000000000E+000
 -3.850000000000000E-002    0.000000000000000E+000
 -3.840000000000000E-002    0.000000000000000E+000
 -3.830000000000000E-002    0.000000000000000E+000
 -3.820000000000000E-002    0.000000000000000E+000
 -3.810000000000000E-002    0.000000000000000E+000
 -3.800000000000000E-002    0.000000000000000E+000
 -3.790000000000000E-002    0.000000000000000E+000
 -3.780000000000000E-002    0.000000000000000E+000
 -3.770000000000000E-002    0.000000000000000E+000
 -3.760000000000000E-002    0.000000000000000E+000
 -3.750000000000000E-002    0.000000000000000E+000
 -3.740000000000000E-002    0.000000000000000E+000
 -3.730000000000000E-002    0.000000000000000E+000
 -3.720000000000000E-002    0.000000000000000E+000
 -3.710000000000000E-002    0.000000000000000E+000
 -3.700000000000000E-002    0.000000000000000E+000
 -3.690000000000000E-002    1.870335700999560E-047
 -3.680000000000000E-002   -2.588514002881868E-048
 -3.670000000000000E-002    3.029816010865511E-047
 -3.660000000000000E-002    1.406284070263474E-046
 -3.650000000000000E-002    6.140258327503143E-046
 -3.640000000000000E-002    1.613614299649916E-045
 -3.630000000000000E-002    4.712863261676300E-045
 -3.620000000000000E-002    1.267578832921249E-044
 -3.610000000000000E-002    3.126024326726303E-044
 -3.600000000000000E-002    7.369236213999807E-044
 -3.590000000000000E-002    1.660832090640215E-043
 -3.580000000000000E-002    3.560824617607957E-043
 -3.570000000000000E-002    7.281368660921658E-043
 -3.560000000000000E-002    1.407185673883643E-042
 -3.550000000000000E-002    2.558706247920344E-042
 -3.540000000000000E-002    4.319117135131424E-042
 -3.530000000000000E-002    6.600430911538058E-042
 -3.520000000000000E-002    8.595778899654501E-042
 -3.510000000000000E-002    7.740821282837190E-042
 -3.500000000000000E-002   -2.305401072851155E-042
 -3.490000000000000E-002   -3.523979157849322E-041
 -3.480000000000000E-002   -1.179393905711042E-040
 -3.470000000000000E-002   -2.991246087071546E-040
 -3.460000000000000E-002   -6.607419605748975E-040
 -3.450000000000000E-002   -1.330241399477674E-039
 -3.440000000000000E-002   -2.488294652130587E-039
 -3.430000000000000E-002   -4.360087529325432E-039
 -3.420000000000000E-002   -7.167976549504296E-039
 -3.410000000000000E-002   -1.100847341186744E-038
 -3.400000000000000E-002   -1.559770798806534E-038
 -3.390000000000000E-002   -1.980987914249558E-038
 -3.380000000000000E-002   -2.092038410157720E-038
 -3.370000000000000E-002   -1.347374194211382E-038
 -3.360000000000000E-002    1.224964106437812E-038
 -3.350000000000000E-002    7.205997580261469E-038
 -3.340000000000000E-002    1.896111618464358E-037
 -3.330000000000000E-002    3.972787192830286E-037
 -3.320000000000000E-002    7.347147113222180E-037
 -3.310000000000000E-002    1.242758053053460E-036
 -3.300000000000000E-002    1.949354085518609E-036
 -3.290000000000000E-002    2.843151298082649E-036
 -3.280000000000000E-002    3.829862720374830E-036
 -3.270000000000000E-002    4.666985838358915E-036
 -3.260000000000000E-002    4.874929963300700E-036
 -3.250000000000000E-002    3.628302172962882E-036
 -3.240000000000000E-002   -3.585620905076062E-037
 -3.230000000000000E-002   -8.921596292676516E-036
 -3.220000000000000E-002   -2.445921064849209E-035
 -3.210000000000000E-002   -4.978459001610143E-035
 -3.200000000000000E-002   -8.770353313379843E-035
 -3.190000000000000E-002   -1.401744983740614E-034
 -3.180000000000000E-002   -2.068917585491977E-034
 -3.170000000000000E-002   -2.831492198932743E-034
 -3.160000000000000E-002   -3.569114300900076E-034
 -3.150000000000000E-002   -4.051664007741398E-034
 -3.140000000000000E-002   -3.898923579825973E-034
 -3.130000000000000E-002   -2.543586934837851E-034
 -3.120000000000000E-002    7.899844741345684E-035
 -3.110000000000000E-002    7.072459149892882E-034
 -3.100000000000000E-002    1.739594997234561E-033
 -3.090000000000000E-002    3.280867266265788E-033
 -3.080000000000000E-002    5.402296309256952E-033
 -3.070000000000000E-002    8.096468775429662E-033
 -3.060000000000000E-002    1.121449707899628E-032
 -3.050000000000000E-002    1.438607718238263E-032
 -3.040000000000000E-002    1.692753435975516E-032
 -3.030000000000000E-002    1.774949679291265E-032
 -3.020000000000000E-002    1.528441363035202E-032
 -3.010000000000000E-002    7.464464009803399E-033
 -3.000000000000000E-002   -8.208529192995152E-033
 -2.990000000000000E-002   -3.445013398106709E-032
 -2.980000000000000E-002   -7.378051073093707E-032
 -2.970000000000000E-002   -1.278573748586102E-031
 -2.960000000000000E-002   -1.965174800647299E-031
 -2.950000000000000E-002   -2.765216706021871E-031
 -2.940000000000000E-002   -3.600572755406859E-031
 -2.930000000000000E-002   -4.331368168515824E-031
 -2.920000000000000E-002   -4.741428744627509E-031
 -2.910000000000000E-002   -4.529020353843395E-031
 -2.900000000000000E-002   -3.308173304921531E-031
 -2.890000000000000E-002   -6.271208166632104E-032
 -2.880000000000000E-002    3.988702353234139E-031
 -2.870000000000000E-002    1.096178805315317E-030
 -2.860000000000000E-002    2.055019036020056E-030
 -2.850000000000000E-002    3.269537346919087E-030
 -2.840000000000000E-002    4.683454156033922E-030
 -2.830000000000000E-002    6.169092401087477E-030
 -2.820000000000000E-002    7.506774183086019E-030
 -2.810000000000000E-002    8.368604807792277E-030
 -2.800000000000000E-002    8.312365845429233E-030
 -2.790000000000000E-002    6.792544367382934E-030
 -2.780000000000000E-002    3.196695766405169E-030
 -2.770000000000000E-002   -3.084710875842930E-030
 -2.760000000000000E-002   -1.254823963823514E-029
 -2.750000000000000E-002   -2.542383450697138E-029
 -2.740000000000000E-002   -4.148067629194513E-029
 -2.730000000000000E-002   -5.980440297519269E-029
 -2.720000000000000E-002   -7.856989890604794E-029
 -2.710000000000000E-002   -9.484820751719630E-029
 -2.700000000000000E-002   -1.045017222599371E-028
 -2.690000000000000E-002   -1.022359007359123E-028
 -2.680000000000000E-002   -8.188541151317796E-029
 -2.670000000000000E-002   -3.701339903118808E-029
 -2.660000000000000E-002    3.811143139613306E-029
 -2.650000000000000E-002    1.471279266294101E-028
 -2.640000000000000E-002    2.898095477952077E-028
 -2.630000000000000E-002    4.600135449069345E-028
 -2.620000000000000E-002    6.435679375258740E-028
 -2.610000000000000E-002    8.164386870473850E-028
 -2.600000000000000E-002    9.436533069913821E-028
 -2.590000000000000E-002    9.795787909046386E-028
 -2.580000000000000E-002    8.702180987583681E-028
 -2.570000000000000E-002    5.581894852659146E-028
 -2.560000000000000E-002   -9.075070085264641E-030
 -2.550000000000000E-002   -8.676720633786676E-028
 -2.540000000000000E-002   -2.022353970834149E-027
 -2.530000000000000E-002   -3.429373401049071E-027
 -2.520000000000000E-002   -4.978835964196350E-027
 -2.510000000000000E-002   -6.479409954293894E-027
 -2.500000000000000E-002   -7.649200080925632E-027
 -2.490000000000000E-002   -8.117512503439007E-027
 -2.480000000000000E-002   -7.442677605505660E-027
 -2.470000000000000E-002   -5.150964527044659E-027
 -2.460000000000000E-002   -8.004822844968629E-028
 -2.450000000000000E-002    5.928388682452067E-027
 -2.440000000000000E-002    1.511811151410609E-026
 -2.430000000000000E-002    2.648204568665401E-026
 -2.420000000000000E-002    3.922903364182650E-026
 -2.410000000000000E-002    5.194529654780994E-026
 -2.400000000000000E-002    6.252145409210739E-026
 -2.390000000000000E-002    6.815796605940831E-026
 -2.380000000000000E-002    6.548526465255326E-026
 -2.370000000000000E-002    5.083288606481504E-026
 -2.360000000000000E-002    2.067323565316278E-026
 -2.350000000000000E-002   -2.774982522448546E-026
 -2.340000000000000E-002   -9.562410878046671E-026
 -2.330000000000000E-002   -1.816524463250388E-025
 -2.320000000000000E-002   -2.811075352265024E-025
 -2.310000000000000E-002   -3.849929769840045E-025
 -2.300000000000000E-002   -4.794884916450737E-025
 -2.290000000000000E-002   -5.458894442110056E-025
 -2.280000000000000E-002   -5.612661515861368E-025
 -2.270000000000000E-002   -5.000517059381543E-025
 -2.260000000000000E-002   -3.367166440027975E-025
 -2.250000000000000E-002   -4.958558739657291E-026
 -2.240000000000000E-002    3.742990234496560E-025
 -2.230000000000000E-002    9.335543236140823E-025
 -2.220000000000000E-002    1.606599565644467E-024
 -2.210000000000000E-002    2.346337452128789E-024
 -2.200000000000000E-002    3.076373510565585E-024
 -2.190000000000000E-002    3.689947873566376E-024
 -2.180000000000000E-002    4.052816858970706E-024
 -2.170000000000000E-002    4.011228489645280E-024
 -2.160000000000000E-002    3.405830114685346E-024
 -2.150000000000000E-002    2.091814838590002E-024
 -2.140000000000000E-002   -3.518714065058110E-026
 -2.130000000000000E-002   -3.008963389339294E-024
 -2.120000000000000E-002   -6.761000898256333E-024
 -2.110000000000000E-002   -1.109108949801138E-023
 -2.100000000000000E-002   -1.564524946694731E-023
 -2.090000000000000E-002   -1.990676163563021E-023
 -2.080000000000000E-002   -2.320634023690438E-023
 -2.070000000000000E-002   -2.475691664234478E-023
 -2.060000000000000E-002   -2.371703982654798E-023
 -2.050000000000000E-002   -1.928423902457742E-023
 -2.040000000000000E-002   -1.081599194423256E-023
 -2.030000000000000E-002    2.028667900340360E-024
 -2.020000000000000E-002    1.913927714316485E-023
 -2.010000000000000E-002    3.981335495879122E-023
 -2.000000000000000E-002    6.264757566131952E-023
 -1.990000000000000E-002    8.548599605125667E-023
 -1.980000000000000E-002    1.054515623788742E-022
 -1.970000000000000E-002    1.190841269139497E-022
 -1.960000000000000E-002    1.226013337546044E-022
 -1.950000000000000E-002    1.122869526431737E-022
 -1.940000000000000E-002    8.499563400778317E-023
 -1.930000000000000E-002    3.874384486292664E-023
 -1.920000000000000E-002   -2.666558011803402E-023
 -1.910000000000000E-002   -1.090580308467541E-022
 -1.900000000000000E-002   -2.034314812753532E-022
 -1.890000000000000E-002   -3.017319734269543E-022
 -1.880000000000000E-002   -3.929619676175237E-022
 -1.870000000000000E-002   -4.637083336401421E-022
 -1.860000000000000E-002   -4.991480878682614E-022
 -1.850000000000000E-002   -4.845420536020016E-022
 -1.840000000000000E-002   -4.071640333672638E-022
 -1.830000000000000E-002   -2.585389470687838E-022
 -1.820000000000000E-002   -3.678326903635801E-023
 -1.810000000000000E-002    2.512329382118815E-022
 -1.800000000000000E-002    5.882423738295883E-022
 -1.790000000000000E-002    9.458261216758411E-022
 -1.780000000000000E-002    1.284905780941689E-021
 -1.770000000000000E-002    1.557778623829409E-021
 -1.760000000000000E-002    1.711868053128541E-021
 -1.750000000000000E-002    1.695183672291234E-021
 -1.740000000000000E-002    1.463249913669037E-021
 -1.730000000000000E-002    9.870069858109940E-022
 -1.720000000000000E-002    2.609011080719806E-022
 -1.710000000000000E-002   -6.898505158910618E-022
 -1.700000000000000E-002   -1.804015196810892E-021
 -1.690000000000000E-002   -2.982382604462126E-021
 -1.680000000000000E-002   -4.090261384005338E-021
 -1.670000000000000E-002   -4.965333823581231E-021
 -1.660000000000000E-002   -5.431313872936294E-021
 -1.650000000000000E-002   -5.317208436021516E-021
 -1.640000000000000E-002   -4.481160283659804E-021
 -1.630000000000000E-002   -2.836987374461448E-021
 -1.620000000000000E-002   -3.806622276345759E-022
 -1.610000000000000E-002    2.786789402148312E-021
 -1.600000000000000E-002    6.443936088100270E-021
 -1.590000000000000E-002    1.024520040302281E-020
 -1.580000000000000E-002    1.373232190030393E-020
 -1.570000000000000E-002    1.636363136372260E-020
 -1.560000000000000E-002    1.756202283173059E-020
 -1.550000000000000E-002    1.678039253635603E-020
 -1.540000000000000E-002    1.358057371696413E-020
 -1.530000000000000E-002    7.719186314511056E-021
 -1.520000000000000E-002   -7.690173046433081E-022
 -1.510000000000000E-002   -1.150166704908151E-020
 -1.500000000000000E-002   -2.370575433337960E-020
 -1.490000000000000E-002   -3.621347478978706E-020
 -1.480000000000000E-002   -4.750748739414771E-020
 -1.470000000000000E-002   -5.582246396380678E-020
 -1.460000000000000E-002   -5.930446158346105E-020
 -1.450000000000000E-002   -5.622230463890706E-020
 -1.440000000000000E-002   -4.521750891472643E-020
 -1.430000000000000E-002   -2.557061668857161E-020
 -1.420000000000000E-002    2.545479448656706E-021
 -1.410000000000000E-002    3.786046738181825E-020
 -1.400000000000000E-002    7.788750214063768E-020
 -1.390000000000000E-002    1.189260219892789E-019
 -1.380000000000000E-002    1.562161018920774E-019
 -1.370000000000000E-002    1.842617344416864E-019
 -1.360000000000000E-002    1.973238496649874E-019
 -1.350000000000000E-002    1.900626351215959E-019
 -1.340000000000000E-002    1.582850329251981E-019
 -1.330000000000000E-002    9.973067723667400E-020
 -1.320000000000000E-002    1.480824194350361E-020
 -1.310000000000000E-002   -9.281959750670304E-020
 -1.300000000000000E-002   -2.159095819481774E-019
 -1.290000000000000E-002   -3.436686942652978E-019
 -1.280000000000000E-002   -4.622205882886912E-019
 -1.270000000000000E-002   -5.555510900190470E-019
 -1.260000000000000E-002   -6.069246355303841E-019
 -1.250000000000000E-002   -6.007069343415215E-019
 -1.240000000000000E-002   -5.244643138203637E-019
 -1.230000000000000E-002   -3.711480631790111E-019
 -1.220000000000000E-002   -1.411184460548731E-019
 -1.210000000000000E-002    1.562681227614865E-019
 -1.200000000000000E-002    5.017945190596693E-019
 -1.190000000000000E-002    8.664997274425212E-019
 -1.180000000000000E-002    1.212973154161152E-018
 -1.170000000000000E-002    1.497922564936884E-018
 -1.160000000000000E-002    1.675976302391229E-018
 -1.150000000000000E-002    1.704529331515109E-018
 -1.140000000000000E-002    1.549272531232052E-018
 -1.130000000000000E-002    1.189890613206582E-018
 -1.120000000000000E-002    6.252884655418819E-019
 -1.110000000000000E-002   -1.223685558785027E-019
 -1.100000000000000E-002   -1.005520874097434E-018
 -1.090000000000000E-002   -1.951620447378902E-018
 -1.080000000000000E-002   -2.866541560392092E-018
 -1.070000000000000E-002   -3.641186234886296E-018
 -1.060000000000000E-002   -4.161149739210790E-018
 -1.050000000000000E-002   -4.318894527307256E-018
 -1.040000000000000E-002   -4.027507493156463E-018
 -1.030000000000000E-002   -3.234715787162371E-018
 -1.020000000000000E-002   -1.935575436437861E-018
 -1.010000000000000E-002   -1.820787902326757E-019
 -1.000000000000000E-002    1.912035739561394E-018
 -9.899999999999999E-003    4.172751818560843E-018
 -9.800000000000000E-003    6.374544152079186E-018
 -9.699999999999999E-003    8.256797536567593E-018
 -9.599999999999999E-003    9.547394812842602E-018
 -9.500000000000000E-003    9.992050799098713E-018
 -9.399999999999999E-003    9.387044317269007E-018
 -9.299999999999999E-003    7.612121052181662E-018
 -9.200000000000000E-003    4.659784344533304E-018
 -9.099999999999999E-003    6.568597115762891E-019
 -8.999999999999999E-003   -4.125604369097910E-018
 -8.900000000000000E-003   -9.277382786039767E-018
 -8.799999999999999E-003   -1.427123532882484E-017
 -8.699999999999999E-003   -1.850268328126920E-017
 -8.600000000000000E-003   -2.134600522018873E-017
 -8.499999999999999E-003   -2.222284304652366E-017
 -8.399999999999999E-003   -2.067773416537759E-017
 -8.300000000000000E-003   -1.645304009799848E-017
 -8.199999999999999E-003   -9.554476078486787E-018
 -8.100000000000000E-003   -2.979486322239878E-019
 -8.000000000000000E-003    1.067100982026173E-017
 -7.899999999999999E-003    2.239236163097987E-017
 -7.800000000000000E-003    3.364561543427340E-017
 -7.699999999999999E-003    4.304342694944869E-017
 -7.599999999999999E-003    4.916096290781241E-017
 -7.499999999999999E-003    5.069249837107373E-017
 -7.399999999999999E-003    4.662199130307996E-017
 -7.299999999999999E-003    3.639059644183789E-017
 -7.199999999999999E-003    2.004152333890856E-017
 -7.100000000000000E-003   -1.678260312544235E-018
 -6.999999999999999E-003   -2.727837164488284E-017
 -6.899999999999999E-003   -5.456257640977031E-017
 -6.800000000000000E-003   -8.075249545727429E-017
 -6.699999999999999E-003   -1.026980662170338E-016
 -6.599999999999999E-003   -1.171657949195811E-016
 -6.499999999999999E-003   -1.211854419792980E-016
 -6.399999999999999E-003   -1.124261844612402E-016
 -6.299999999999999E-003   -8.956498747545853E-017
 -6.199999999999999E-003   -5.260491671669901E-017
 -6.100000000000000E-003   -3.099834396696119E-018
 -5.999999999999999E-003    5.575489717049342E-017
 -5.899999999999999E-003    1.191973742427590E-016
 -5.800000000000000E-003    1.811582835464398E-016
 -5.699999999999999E-003    2.347053500938925E-016
 -5.599999999999999E-003    2.726536178978926E-016
 -5.499999999999999E-003    2.883014696274521E-016
 -5.399999999999999E-003    2.762310464474299E-016
 -5.299999999999999E-003    2.330964942700329E-016
 -5.199999999999999E-003    1.583121565926890E-016
 -5.099999999999999E-003    5.455065217829317E-017
 -4.999999999999999E-003   -7.203214089186853E-017
 -4.899999999999999E-003   -2.119108502077305E-016
 -4.799999999999999E-003   -3.526821179710629E-016
 -4.699999999999999E-003   -4.799372463941520E-016
 -4.599999999999999E-003   -5.784791899276688E-016
 -4.499999999999999E-003   -6.338029080130730E-016
 -4.399999999999999E-003   -6.337214619404621E-016
 -4.299999999999999E-003   -5.699827271370924E-016
 -4.199999999999999E-003   -4.397046156953979E-016
 -4.099999999999999E-003   -2.464491000946984E-016
 -3.999999999999999E-003   -7.698414209899459E-019
 -3.899999999999999E-003    2.798993090666731E-016
 -3.799999999999999E-003    5.720950980011655E-016
 -3.699999999999999E-003    8.479267374645381E-016
 -3.599999999999999E-003    1.077364128290752E-015
 -3.499999999999999E-003    1.231062974545711E-015
 -3.399999999999999E-003    1.283501856523529E-015
 -3.299999999999999E-003    1.216139773892408E-015
 -3.199999999999999E-003    1.020266025407970E-015
 -3.099999999999999E-003    6.991978355895394E-016
 -2.999999999999999E-003    2.695073139625163E-016
 -2.899999999999999E-003   -2.389800220880536E-016
 -2.799999999999999E-003   -7.845765128302504E-016
 -2.699999999999999E-003   -1.316548391992323E-015
 -2.599999999999999E-003   -1.779246749612123E-015
 -2.499999999999999E-003   -2.117283991033711E-015
 -2.399999999999999E-003   -2.281348135172950E-015
 -2.299999999999999E-003   -2.234119809421073E-015
 -2.199999999999999E-003   -1.955680038085718E-015
 -2.099999999999999E-003   -1.447772012939803E-015
 -1.999999999999999E-003   -7.363172324699501E-016
 -1.899999999999999E-003    1.283030920548509E-016
 -1.799999999999999E-003    1.073516318973741E-015
 -1.699999999999999E-003    2.009463848824588E-015
 -1.599999999999999E-003    2.836358459464725E-015
 -1.499999999999999E-003    3.453828902697381E-015
 -1.399999999999999E-003    3.771510294506256E-015
 -1.299999999999999E-003    3.719920723807736E-015
 -1.199999999999999E-003    3.260502998453239E-015
 -1.099999999999999E-003    2.393657048088977E-015
 -9.999999999999989E-004    1.163655476091507E-015
 -8.999999999999990E-004   -3.404819537559879E-016
 -7.999999999999990E-004   -1.988771360154160E-015
 -6.999999999999989E-004   -3.618899532559768E-015
 -5.999999999999990E-004   -5.049429700019354E-015
 -4.999999999999989E-004   -6.096760678727283E-015
 -3.999999999999989E-004   -6.594543467385937E-015
 -2.999999999999989E-004   -6.413806459160227E-015
 -1.999999999999989E-004   -5.481758087159969E-015
 -9.999999999999892E-005   -3.797108490305684E-015
  1.084202172485504E-018   -1.439837184355841E-015
  1.000000000000011E-004    1.426356697529276E-015
  2.000000000000011E-004    4.560132843562227E-015
  3.000000000000011E-004    7.657604914421215E-015
  4.000000000000011E-004    1.037604185154448E-014
  5.000000000000011E-004    1.236484491529744E-014
  6.000000000000011E-004    1.330149011671845E-014
  7.000000000000011E-004    1.292936163447986E-014
  8.000000000000011E-004    1.109376494081004E-014
  9.000000000000012E-004    7.772147852277788E-015
  1.000000000000001E-003    3.094626570870996E-015
  1.100000000000001E-003   -2.648581249405499E-015
  1.200000000000001E-003   -9.015291138373078E-015
  1.300000000000001E-003   -1.543624141716486E-014
  1.400000000000001E-003   -2.125636759637438E-014
  1.500000000000001E-003   -2.579033887554989E-014
  1.600000000000001E-003   -2.838851402765945E-014
  1.700000000000001E-003   -2.850790376569914E-014
  1.800000000000001E-003   -2.578154562494826E-014
  1.900000000000001E-003   -2.007902398730543E-014
  2.000000000000001E-003   -1.155084930440868E-014
  2.100000000000001E-003   -6.501442419156408E-016
  2.200000000000001E-003    1.187340263028300E-014
  2.300000000000001E-003    2.501018809604911E-014
  2.400000000000001E-003    3.755805899898184E-014
  2.500000000000001E-003    4.821736654684808E-014
  2.600000000000001E-003    5.570759884526161E-014
  2.700000000000001E-003    5.889645425160488E-014
  2.800000000000001E-003    5.692989073864135E-014
  2.900000000000001E-003    4.935027088378689E-014
  3.000000000000001E-003    3.618923214036835E-014
  3.100000000000001E-003    1.802309268138561E-014
  3.200000000000001E-003   -4.019287929464113E-015
  3.300000000000001E-003   -2.830250019882729E-014
  3.400000000000001E-003   -5.278606722710651E-014
  3.500000000000001E-003   -7.517776992460754E-014
  3.600000000000001E-003   -9.312933155929873E-014
  3.700000000000001E-003   -1.044596488118843E-013
  3.800000000000001E-003   -1.073865441731790E-013
  3.900000000000001E-003   -1.007445693605878E-013
  4.000000000000001E-003   -8.416561134608074E-014
  4.100000000000001E-003   -5.820005881281655E-014
  4.200000000000001E-003   -2.435978494491559E-014
  4.300000000000001E-003    1.492980490859052E-014
  4.400000000000001E-003    5.647374668306391E-014
  4.500000000000001E-003    9.654335962100240E-014
  4.600000000000002E-003    1.311899865252159E-013
  4.700000000000001E-003    1.566132948118028E-013
  4.800000000000001E-003    1.695524738330600E-013
  4.900000000000002E-003    1.676635021894412E-013
  5.000000000000001E-003    1.498421815120882E-013
  5.100000000000001E-003    1.164549174799875E-013
  5.200000000000001E-003    6.944387733227456E-014
  5.300000000000002E-003    1.228275891603523E-014
  5.400000000000001E-003   -5.022759866222502E-014
  5.500000000000001E-003   -1.123195141102702E-013
  5.600000000000002E-003   -1.677535314893494E-013
  5.700000000000001E-003   -2.104111065885511E-013
  5.800000000000001E-003   -2.349338219130911E-013
  5.900000000000002E-003   -2.373478090949907E-013
  6.000000000000001E-003   -2.156068127121407E-013
  6.100000000000001E-003   -1.699894211886990E-013
  6.200000000000002E-003   -1.032938708080841E-013
  6.300000000000002E-003   -2.078925342151373E-014
  6.400000000000001E-003    7.009696641376506E-014
  6.500000000000001E-003    1.603495535029494E-013
  6.600000000000002E-003    2.401614820009122E-013
  6.700000000000001E-003    2.998946923008749E-013
  6.800000000000001E-003    3.311224588687670E-013
  6.900000000000002E-003    3.276512289964379E-013
  7.000000000000001E-003    2.864127714983330E-013
  7.100000000000001E-003    2.081186885369882E-013
  7.200000000000002E-003    9.758272681686068E-014
  7.300000000000002E-003   -3.635796843112272E-014
  7.400000000000001E-003   -1.813573850467034E-013
  7.500000000000001E-003   -3.225029644585237E-013
  7.600000000000002E-003   -4.436320150902346E-013
  7.700000000000001E-003   -5.289236322831579E-013
  7.800000000000001E-003   -5.646271134642789E-013
  7.900000000000001E-003   -5.407607305276978E-013
  8.000000000000002E-003   -4.525974154664949E-013
  8.100000000000001E-003   -3.017593151836975E-013
  8.200000000000001E-003   -9.676363692915686E-014
  8.300000000000002E-003    1.470962734930465E-013
  8.400000000000001E-003    4.085933437862148E-013
  8.500000000000002E-003    6.621222812665940E-013
  8.600000000000002E-003    8.798825074262047E-013
  8.700000000000001E-003    1.034527242175927E-012
  8.800000000000002E-003    1.102054033431367E-012
  8.900000000000002E-003    1.064661294489570E-012
  9.000000000000001E-003    9.132730723581166E-013
  9.100000000000002E-003    6.494353313541651E-013
  9.200000000000002E-003    2.863234364695832E-013
  9.300000000000001E-003   -1.513344026326975E-013
  9.400000000000002E-003   -6.285218384020680E-013
  9.500000000000001E-003   -1.102378428468108E-012
  9.600000000000001E-003   -1.525692001076002E-012
  9.700000000000002E-003   -1.851190207064046E-012
  9.800000000000001E-003   -2.036270918669826E-012
  9.900000000000001E-003   -2.047735125019109E-012
  1.000000000000000E-002   -1.866044016722974E-012
  1.010000000000000E-002   -1.488618421291871E-012
  1.020000000000000E-002   -9.317598149080237E-013
  1.030000000000000E-002   -2.308641151111732E-013
  1.040000000000000E-002    5.612509668582217E-013
  1.050000000000000E-002    1.377913260241596E-012
  1.060000000000000E-002    2.143874079217044E-012
  1.070000000000000E-002    2.781916932455917E-012
  1.080000000000000E-002    3.220260428883776E-012
  1.090000000000000E-002    3.400073133524318E-012
  1.100000000000000E-002    3.282364626012265E-012
  1.110000000000000E-002    2.853500906050590E-012
  1.120000000000000E-002    2.128674872310560E-012
  1.130000000000000E-002    1.152810259618294E-012
  1.140000000000000E-002   -1.409671090672422E-015
  1.150000000000000E-002   -1.238428320427223E-012
  1.160000000000000E-002   -2.447371097074518E-012
  1.170000000000000E-002   -3.511724710476243E-012
  1.180000000000000E-002   -4.320345256516455E-012
  1.190000000000000E-002   -4.778794969245885E-012
  1.200000000000000E-002   -4.819891654740292E-012
  1.210000000000000E-002   -4.412353006083243E-012
  1.220000000000000E-002   -3.566513464079094E-012
  1.230000000000000E-002   -2.336311844450707E-012
  1.240000000000000E-002   -8.170640750788618E-013
  1.250000000000000E-002    8.610770985112046E-013
  1.260000000000000E-002    2.543641184924140E-012
  1.270000000000000E-002    4.065575878273726E-012
  1.280000000000000E-002    5.267047854715905E-012
  1.290000000000000E-002    6.009861678792012E-012
  1.300000000000000E-002    6.192880077676329E-012
  1.310000000000000E-002    5.764798984135358E-012
  1.320000000000000E-002    4.732788832443811E-012
  1.330000000000000E-002    3.165810941130000E-012
  1.340000000000000E-002    1.191884725161986E-012
  1.350000000000000E-002   -1.010866639332883E-012
  1.360000000000000E-002   -3.228928906837802E-012
  1.370000000000000E-002   -5.232792621831703E-012
  1.380000000000000E-002   -6.799390361136932E-012
  1.390000000000000E-002   -7.735501683410027E-012
  1.400000000000000E-002   -7.899800650115419E-012
  1.410000000000000E-002   -7.221193363317543E-012
  1.420000000000000E-002   -5.711278419655249E-012
  1.430000000000000E-002   -3.469233434785140E-012
  1.440000000000000E-002   -6.780569364129325E-013
  1.450000000000000E-002    2.408083335685017E-012
  1.460000000000000E-002    5.484764724317006E-012
  1.470000000000000E-002    8.224954786885075E-012
  1.480000000000000E-002    1.031105255625300E-011
  1.490000000000000E-002    1.146838153504633E-011
  1.500000000000000E-002    1.149681195638484E-011
  1.510000000000000E-002    1.029714296310463E-011
  1.520000000000000E-002    7.889158311074024E-012
  1.530000000000000E-002    4.418899555892473E-012
  1.540000000000000E-002    1.536095399998878E-013
  1.550000000000000E-002   -4.536051531309755E-012
  1.560000000000000E-002   -9.205654658275829E-012
  1.570000000000000E-002   -1.337638446728450E-011
  1.580000000000000E-002   -1.658088608093421E-011
  1.590000000000000E-002   -1.841139707039693E-011
  1.600000000000000E-002   -1.856548594325763E-011
  1.610000000000000E-002   -1.688459351028426E-011
  1.620000000000000E-002   -1.338097305193356E-011
  1.630000000000000E-002   -8.249481574323561E-012
  1.640000000000000E-002   -1.861948142072203E-012
  1.650000000000000E-002    5.256571818357517E-012
  1.660000000000000E-002    1.246855304755001E-011
  1.670000000000000E-002    1.907890540437057E-011
  1.680000000000000E-002    2.439951731424528E-011
  1.690000000000000E-002    2.781770487368916E-011
  1.700000000000000E-002    2.886195439772844E-011
  1.710000000000000E-002    2.725828090347433E-011
  1.720000000000000E-002    2.297092869386381E-011
  1.730000000000000E-002    1.622230613821312E-011
  1.740000000000000E-002    7.488786701845663E-012
  1.750000000000000E-002   -2.528830444987324E-012
  1.760000000000000E-002   -1.295894424430411E-011
  1.770000000000000E-002   -2.283313619197921E-011
  1.780000000000000E-002   -3.117453755665264E-011
  1.790000000000000E-002   -3.709273019745733E-011
  1.800000000000000E-002   -3.987625520642384E-011
  1.810000000000000E-002   -3.907341004684915E-011
  1.820000000000000E-002   -3.455259196479016E-011
  1.830000000000000E-002   -2.653493842693433E-011
  1.840000000000000E-002   -1.559430879629548E-011
  1.850000000000000E-002   -2.622545109884766E-012
  1.860000000000000E-002    1.123871528495275E-011
  1.870000000000000E-002    2.469498281026311E-011