 -4.000000000000000E-002    0.000000000000000E+000
 -3.990000000000000E-002    0.000000000000000E+000
 -3.980000000000000E-002    0.000000000000000E+000
 -3.970000000000000E-002    0.000000000000000E+000
 -3.960000000000000E-002    0.000000000000000E+000
 -3.950000000000000E-002    0.000000000000000E+000
 -3.940000000000000E-002    0.000000000000000E+000
 -3.930000000000000E-002    0.000000000000000E+000
 -3.920000000000000E-002    0.000000000000000E+000
 -3.910000000000000E-002    0.000000000000000E+000
 -3.900000000000000E-002    0.000000000000000E+000
 -3.890000000000000E-002    0.000000000000000E+000
 -3.880000000000000E-002    0.000000000000000E+000
 -3.870000000000000E-002    0.000000000000000E+000
 -3.860000000000000E-002    0.000000000000000E+000
 -3.850000000000000E-002    0.000000000000000E+000
 -3.840000000000000E-002    0.000000000000000E+000
 -3.830000000000000E-002    0.000000000000000E+000
 -3.820000000000000E-002    0.000000000000000E+000
 -3.810000000000000E-002    0.000000000000000E+000
 -3.800000000000000E-002    0.000000000000000E+000
 -3.790000000000000E-002    0.000000000000000E+000
 -3.780000000000000E-002    0.000000000000000E+000
 -3.770000000000000E-002    0.000000000000000E+000
 -3.760000000000000E-002    0.000000000000000E+000
 -3.750000000000000E-002    0.000000000000000E+000
 -3.740000000000000E-002    0.000000000000000E+000
 -3.730000000000000E-002    0.000000000000000E+000
 -3.720000000000000E-002    0.000000000000000E+000
 -3.710000000000000E-002    0.000000000000000E+000
 -3.700000000000000E-002    0.000000000000000E+000
 -3.690000000000000E-002    0.000000000000000E+000
 -3.680000000000000E-002    0.000000000000000E+000
 -3.670000000000000E-002    0.000000000000000E+000
 -3.660000000000000E-002    0.000000000000000E+000
 -3.650000000000000E-002    0.000000000000000E+000
 -3.640000000000000E-002    0.000000000000000E+000
 -3.630000000000000E-002    0.000000000000000E+000
 -3.620000000000000E-002    0.000000000000000E+000
 -3.610000000000000E-002    0.000000000000000E+000
 -3.600000000000000E-002    0.000000000000000E+000
 -3.590000000000000E-002    0.000000000000000E+000
 -3.580000000000000E-002    0.000000000000000E+000
 -3.570000000000000E-002    0.000000000000000E+000
 -3.560000000000000E-002    0.000000000000000E+000
 -3.550000000000000E-002    0.000000000000000E+000
 -3.540000000000000E-002    0.000000000000000E+000
 -3.530000000000000E-002    0.000000000000000E+000
 -3.520000000000000E-002    0.000000000000000E+000
 -3.510000000000000E-002    0.000000000000000E+000
 -3.500000000000000E-002    0.000000000000000E+000
 -3.490000000000000E-002    0.000000000000000E+000
 -3.480000000000000E-002    0.000000000000000E+000
 -3.470000000000000E-002    0.000000000000000E+000
 -3.460000000000000E-002    0.000000000000000E+000
 -3.450000000000000E-002    0.000000000000000E+000
 -3.440000000000000E-002    0.000000000000000E+000
 -3.430000000000000E-002    0.000000000000000E+000
 -3.420000000000000E-002    0.000000000000000E+000
 -3.410000000000000E-002    0.000000000000000E+000
 -3.400000000000000E-002    0.000000000000000E+000
 -3.390000000000000E-002    0.000000000000000E+000
 -3.380000000000000E-002    0.000000000000000E+000
 -3.370000000000000E-002    0.000000000000000E+000
 -3.360000000000000E-002    0.000000000000000E+000
 -3.350000000000000E-002    0.000000000000000E+000
 -3.340000000000000E-002    0.000000000000000E+000
 -3.330000000000000E-002    0.000000000000000E+000
 -3.320000000000000E-002    0.000000000000000E+000
 -3.310000000000000E-002    0.000000000000000E+000
 -3.300000000000000E-002    0.000000000000000E+000
 -3.290000000000000E-002    0.000000000000000E+000
 -3.280000000000000E-002    0.000000000000000E+000
 -3.270000000000000E-002    0.000000000000000E+000
 -3.260000000000000E-002    0.000000000000000E+000
 -3.250000000000000E-002    0.000000000000000E+000
 -3.240000000000000E-002    0.000000000000000E+000
 -3.230000000000000E-002    0.000000000000000E+000
 -3.220000000000000E-002    0.000000000000000E+000
 -3.210000000000000E-002    0.000000000000000E+000
 -3.200000000000000E-002    0.000000000000000E+000
 -3.190000000000000E-002    0.000000000000000E+000
 -3.180000000000000E-002    0.000000000000000E+000
 -3.170000000000000E-002    0.000000000000000E+000
 -3.160000000000000E-002    0.000000000000000E+000
 -3.150000000000000E-002    0.000000000000000E+000
 -3.140000000000000E-002    0.000000000000000E+000
 -3.130000000000000E-002    0.000000000000000E+000
 -3.120000000000000E-002    0.000000000000000E+000
 -3.110000000000000E-002    0.000000000000000E+000
 -3.100000000000000E-002    0.000000000000000E+000
 -3.090000000000000E-002    0.000000000000000E+000
 -3.080000000000000E-002    0.000000000000000E+000
 -3.070000000000000E-002    0.000000000000000E+000
 -3.060000000000000E-002    0.000000000000000E+000
 -3.050000000000000E-002    0.000000000000000E+000
 -3.040000000000000E-002    0.000000000000000E+000
 -3.030000000000000E-002    0.000000000000000E+000
 -3.020000000000000E-002    0.000000000000000E+000
 -3.010000000000000E-002    0.000000000000000E+000
 -3.000000000000000E-002    0.000000000000000E+000
 -2.990000000000000E-002    0.000000000000000E+000
 -2.980000000000000E-002    0.000000000000000E+000
 -2.970000000000000E-002    0.000000000000000E+000
 -2.960000000000000E-002    0.000000000000000E+000
 -2.950000000000000E-002    0.000000000000000E+000
 -2.940000000000000E-002    0.000000000000000E+000
 -2.930000000000000E-002    0.000000000000000E+000
 -2.920000000000000E-002    0.000000000000000E+000
 -2.910000000000000E-002    0.000000000000000E+000
 -2.900000000000000E-002    0.000000000000000E+000
 -2.890000000000000E-002    0.000000000000000E+000
 -2.880000000000000E-002    0.000000000000000E+000
 -2.870000000000000E-002    0.000000000000000E+000
 -2.860000000000000E-002    0.000000000000000E+000
 -2.850000000000000E-002    0.000000000000000E+000
 -2.840000000000000E-002    0.000000000000000E+000
 -2.830000000000000E-002    0.000000000000000E+000
 -2.820000000000000E-002    0.000000000000000E+000
 -2.810000000000000E-002    0.000000000000000E+000
 -2.800000000000000E-002    0.000000000000000E+000
 -2.790000000000000E-002    0.000000000000000E+000
 -2.780000000000000E-002    0.000000000000000E+000
 -2.770000000000000E-002    0.000000000000000E+000
 -2.760000000000000E-002    0.000000000000000E+000
 -2.750000000000000E-002    0.000000000000000E+000
 -2.740000000000000E-002    0.000000000000000E+000
 -2.730000000000000E-002    0.000000000000000E+000
 -2.720000000000000E-002    0.000000000000000E+000
 -2.710000000000000E-002    0.000000000000000E+000
 -2.700000000000000E-002    0.000000000000000E+000
 -2.690000000000000E-002    0.000000000000000E+000
 -2.680000000000000E-002    0.000000000000000E+000
 -2.670000000000000E-002    0.000000000000000E+000
 -2.660000000000000E-002    0.000000000000000E+000
 -2.650000000000000E-002    0.000000000000000E+000
 -2.640000000000000E-002    0.000000000000000E+000
 -2.630000000000000E-002    0.000000000000000E+000
 -2.620000000000000E-002    0.000000000000000E+000
 -2.610000000000000E-002    0.000000000000000E+000
 -2.600000000000000E-002    0.000000000000000E+000
 -2.590000000000000E-002    0.000000000000000E+000
 -2.580000000000000E-002    0.000000000000000E+000
 -2.570000000000000E-002    0.000000000000000E+000
 -2.560000000000000E-002    0.000000000000000E+000
 -2.550000000000000E-002    0.000000000000000E+000
 -2.540000000000000E-002    0.000000000000000E+000
 -2.530000000000000E-002    0.000000000000000E+000
 -2.520000000000000E-002    0.000000000000000E+000
 -2.510000000000000E-002    0.000000000000000E+000
 -2.500000000000000E-002    0.000000000000000E+000
 -2.490000000000000E-002    0.000000000000000E+000
 -2.480000000000000E-002    0.000000000000000E+000
 -2.470000000000000E-002    0.000000000000000E+000
 -2.460000000000000E-002    0.000000000000000E+000
 -2.450000000000000E-002    0.000000000000000E+000
 -2.440000000000000E-002    0.000000000000000E+000
 -2.430000000000000E-002    0.000000000000000E+000
 -2.420000000000000E-002    0.000000000000000E+000
 -2.410000000000000E-002    0.000000000000000E+000
 -2.400000000000000E-002    0.000000000000000E+000
 -2.390000000000000E-002    0.000000000000000E+000
 -2.380000000000000E-002    0.000000000000000E+000
 -2.370000000000000E-002    0.000000000000000E+000
 -2.360000000000000E-002    0.000000000000000E+000
 -2.350000000000000E-002    0.000000000000000E+000
 -2.340000000000000E-002    0.000000000000000E+000
 -2.330000000000000E-002    0.000000000000000E+000
 -2.320000000000000E-002    0.000000000000000E+000
 -2.310000000000000E-002    0.000000000000000E+000
 -2.300000000000000E-002    0.000000000000000E+000
 -2.290000000000000E-002    0.000000000000000E+000
 -2.280000000000000E-002    0.000000000000000E+000
 -2.270000000000000E-002    0.000000000000000E+000
 -2.260000000000000E-002    0.000000000000000E+000
 -2.250000000000000E-002    0.000000000000000E+000
 -2.240000000000000E-002    0.000000000000000E+000
 -2.230000000000000E-002    0.000000000000000E+000
 -2.220000000000000E-002    0.000000000000000E+000
 -2.210000000000000E-002    0.000000000000000E+000
 -2.200000000000000E-002    0.000000000000000E+000
 -2.190000000000000E-002    0.000000000000000E+000
 -2.180000000000000E-002    0.000000000000000E+000
 -2.170000000000000E-002    0.000000000000000E+000
 -2.160000000000000E-002    0.000000000000000E+000
 -2.150000000000000E-002    0.000000000000000E+000
 -2.140000000000000E-002    0.000000000000000E+000
 -2.130000000000000E-002    0.000000000000000E+000
 -2.120000000000000E-002    0.000000000000000E+000
 -2.110000000000000E-002    0.000000000000000E+000
 -2.100000000000000E-002    0.000000000000000E+000
 -2.090000000000000E-002    0.000000000000000E+000
 -2.080000000000000E-002    0.000000000000000E+000
 -2.070000000000000E-002    0.000000000000000E+000
 -2.060000000000000E-002    0.000000000000000E+000
 -2.050000000000000E-002    0.000000000000000E+000
 -2.040000000000000E-002    0.000000000000000E+000
 -2.030000000000000E-002    0.000000000000000E+000
 -2.020000000000000E-002    0.000000000000000E+000
 -2.010000000000000E-002    0.000000000000000E+000
 -2.000000000000000E-002    0.000000000000000E+000
 -1.990000000000000E-002    0.000000000000000E+000
 -1.980000000000000E-002    0.000000000000000E+000
 -1.970000000000000E-002    0.000000000000000E+000
 -1.960000000000000E-002    0.000000000000000E+000
 -1.950000000000000E-002    0.000000000000000E+000
 -1.940000000000000E-002    0.000000000000000E+000
 -1.930000000000000E-002    0.000000000000000E+000
 -1.920000000000000E-002    0.000000000000000E+000
 -1.910000000000000E-002    0.000000000000000E+000
 -1.900000000000000E-002    0.000000000000000E+000
 -1.890000000000000E-002    0.000000000000000E+000
 -1.880000000000000E-002    0.000000000000000E+000
 -1.870000000000000E-002    0.000000000000000E+000
 -1.860000000000000E-002    0.000000000000000E+000
 -1.850000000000000E-002    0.000000000000000E+000
 -1.840000000000000E-002    0.000000000000000E+000
 -1.830000000000000E-002    0.000000000000000E+000
 -1.820000000000000E-002    0.000000000000000E+000
 -1.810000000000000E-002    0.000000000000000E+000
 -1.800000000000000E-002    0.000000000000000E+000
 -1.790000000000000E-002    0.000000000000000E+000
 -1.780000000000000E-002    0.000000000000000E+000
 -1.770000000000000E-002    0.000000000000000E+000
 -1.760000000000000E-002    0.000000000000000E+000
 -1.750000000000000E-002    0.000000000000000E+000
 -1.740000000000000E-002    0.000000000000000E+000
 -1.730000000000000E-002    0.000000000000000E+000
 -1.720000000000000E-002    0.000000000000000E+000
 -1.710000000000000E-002    0.000000000000000E+000
 -1.700000000000000E-002    0.000000000000000E+000
 -1.690000000000000E-002    0.000000000000000E+000
 -1.680000000000000E-002    0.000000000000000E+000
 -1.670000000000000E-002    0.000000000000000E+000
 -1.660000000000000E-002    0.000000000000000E+000
 -1.650000000000000E-002    0.000000000000000E+000
 -1.640000000000000E-002    0.000000000000000E+000
 -1.630000000000000E-002    0.000000000000000E+000
 -1.620000000000000E-002    0.000000000000000E+000
 -1.610000000000000E-002    0.000000000000000E+000
 -1.600000000000000E-002    0.000000000000000E+000
 -1.590000000000000E-002    0.000000000000000E+000
 -1.580000000000000E-002    0.000000000000000E+000
 -1.570000000000000E-002    0.000000000000000E+000
 -1.560000000000000E-002    0.000000000000000E+000
 -1.550000000000000E-002    0.000000000000000E+000
 -1.540000000000000E-002    0.000000000000000E+000
 -1.530000000000000E-002    0.000000000000000E+000
 -1.520000000000000E-002    0.000000000000000E+000
 -1.510000000000000E-002    0.000000000000000E+000
 -1.500000000000000E-002    0.000000000000000E+000
 -1.490000000000000E-002    0.000000000000000E+000
 -1.480000000000000E-002    0.000000000000000E+000
 -1.470000000000000E-002    0.000000000000000E+000
 -1.460000000000000E-002    0.000000000000000E+000
 -1.450000000000000E-002    0.000000000000000E+000
 -1.440000000000000E-002    0.000000000000000E+000
 -1.430000000000000E-002    0.000000000000000E+000
 -1.420000000000000E-002    0.000000000000000E+000
 -1.410000000000000E-002    0.000000000000000E+000
 -1.400000000000000E-002    0.000000000000000E+000
 -1.390000000000000E-002    0.000000000000000E+000
 -1.380000000000000E-002    0.000000000000000E+000
 -1.370000000000000E-002    0.000000000000000E+000
 -1.360000000000000E-002    0.000000000000000E+000
 -1.350000000000000E-002    0.000000000000000E+000
 -1.340000000000000E-002    0.000000000000000E+000
 -1.330000000000000E-002    0.000000000000000E+000
 -1.320000000000000E-002    0.000000000000000E+000
 -1.310000000000000E-002    0.000000000000000E+000
 -1.300000000000000E-002    0.000000000000000E+000
 -1.290000000000000E-002    0.000000000000000E+000
 -1.280000000000000E-002    0.000000000000000E+000
 -1.270000000000000E-002    0.000000000000000E+000
 -1.260000000000000E-002    0.000000000000000E+000
 -1.250000000000000E-002    0.000000000000000E+000
 -1.240000000000000E-002    0.000000000000000E+000
 -1.230000000000000E-002    0.000000000000000E+000
 -1.220000000000000E-002    0.000000000000000E+000
 -1.210000000000000E-002    0.000000000000000E+000
 -1.200000000000000E-002    0.000000000000000E+000
 -1.190000000000000E-002    0.000000000000000E+000
 -1.180000000000000E-002    0.000000000000000E+000
 -1.170000000000000E-002    0.000000000000000E+000
 -1.160000000000000E-002    0.000000000000000E+000
 -1.150000000000000E-002    0.000000000000000E+000
 -1.140000000000000E-002    0.000000000000000E+000
 -1.130000000000000E-002    0.000000000000000E+000
 -1.120000000000000E-002    0.000000000000000E+000
 -1.110000000000000E-002    0.000000000000000E+000
 -1.100000000000000E-002    0.000000000000000E+000
 -1.090000000000000E-002    0.000000000000000E+000
 -1.080000000000000E-002    0.000000000000000E+000
 -1.070000000000000E-002    0.000000000000000E+000
 -1.060000000000000E-002    0.000000000000000E+000
 -1.050000000000000E-002    0.000000000000000E+000
 -1.040000000000000E-002    0.000000000000000E+000
 -1.030000000000000E-002    0.000000000000000E+000
 -1.020000000000000E-002    0.000000000000000E+000
 -1.010000000000000E-002    0.000000000000000E+000
 -1.000000000000000E-002    0.000000000000000E+000
 -9.899999999999999E-003    0.000000000000000E+000
 -9.800000000000000E-003    0.000000000000000E+000
 -9.699999999999999E-003    0.000000000000000E+000
 -9.599999999999999E-003    0.000000000000000E+000
 -9.500000000000000E-003    0.000000000000000E+000
 -9.399999999999999E-003    0.000000000000000E+000
 -9.299999999999999E-003    0.000000000000000E+000
 -9.200000000000000E-003    0.000000000000000E+000
 -9.099999999999999E-003    0.000000000000000E+000
 -8.999999999999999E-003    0.000000000000000E+000
 -8.900000000000000E-003    0.000000000000000E+000
 -8.799999999999999E-003    0.000000000000000E+000
 -8.699999999999999E-003    0.000000000000000E+000
 -8.600000000000000E-003    0.000000000000000E+000
 -8.499999999999999E-003    0.000000000000000E+000
 -8.399999999999999E-003    0.000000000000000E+000
 -8.300000000000000E-003    0.000000000000000E+000
 -8.199999999999999E-003    0.000000000000000E+000
 -8.100000000000000E-003    0.000000000000000E+000
 -8.000000000000000E-003    0.000000000000000E+000
 -7.899999999999999E-003    0.000000000000000E+000
 -7.800000000000000E-003    0.000000000000000E+000
 -7.699999999999999E-003    0.000000000000000E+000
 -7.599999999999999E-003    0.000000000000000E+000
 -7.499999999999999E-003    0.000000000000000E+000
 -7.399999999999999E-003    0.000000000000000E+000
 -7.299999999999999E-003   -2.408400472446900E-048
 -7.199999999999999E-003   -4.816800944893800E-048
 -7.100000000000000E-003   -4.816800944893800E-048
 -6.999999999999999E-003   -4.816800944893800E-048
 -6.899999999999999E-003   -2.408400472446900E-048
 -6.800000000000000E-003    0.000000000000000E+000
 -6.699999999999999E-003    2.315427518442172E-047
 -6.599999999999999E-003    4.871695084129034E-047
 -6.499999999999999E-003    7.510067210016520E-047
 -6.399999999999999E-003    1.123569588100137E-046
 -6.299999999999999E-003    1.496132455198622E-046
 -6.199999999999999E-003    1.645363026472952E-046
 -6.100000000000000E-003    1.605405473044077E-046
 -5.999999999999999E-003    1.269316246281921E-046
 -5.899999999999999E-003    3.215108920963449E-047
 -5.800000000000000E-003   -1.055235794656717E-046
 -5.699999999999999E-003   -3.407273480119339E-046
 -5.599999999999999E-003   -6.140084488700509E-046
 -5.499999999999999E-003   -9.126988826136281E-046
 -5.399999999999999E-003   -1.148479437626818E-045
 -5.299999999999999E-003   -1.326478361164338E-045
 -5.199999999999999E-003   -1.397739261858267E-045
 -5.099999999999999E-003   -1.240301440729151E-045
 -4.999999999999999E-003   -8.384419058211182E-046
 -4.899999999999999E-003   -8.785282799760816E-046
 -4.799999999999999E-003   -7.355867713761385E-046
 -4.699999999999999E-003   -2.887475272879350E-046
 -4.599999999999999E-003    4.712248137458375E-046
 -4.499999999999999E-003    1.430736868043224E-045
 -4.399999999999999E-003    3.239486980179038E-045
 -4.299999999999999E-003    5.653212642452385E-045
 -4.199999999999999E-003    8.213136938230291E-045
 -4.099999999999999E-003    1.061317812091566E-044
 -3.999999999999999E-003    1.234012820246738E-044
 -3.899999999999999E-003    1.324077477948048E-044
 -3.799999999999999E-003    1.262850330966064E-044
 -3.699999999999999E-003    9.580857565659709E-045
 -3.599999999999999E-003    4.611806263615038E-045
 -3.499999999999999E-003   -3.132440235245050E-045
 -3.399999999999999E-003   -1.379517326720800E-044
 -3.299999999999999E-003   -2.750843166644695E-044
 -3.199999999999999E-003   -4.280784669471837E-044
 -3.099999999999999E-003   -5.865646546597308E-044
 -2.999999999999999E-003   -7.225451507921523E-044
 -2.899999999999999E-003   -8.038484747597275E-044
 -2.799999999999999E-003   -7.925609817556959E-044
 -2.699999999999999E-003   -6.599164206877044E-044
 -2.599999999999999E-003   -3.752870886784941E-044
 -2.499999999999999E-003    9.427505462345753E-045
 -2.399999999999999E-003    7.403454095950183E-044
 -2.299999999999999E-003    1.546915541859891E-043
 -2.199999999999999E-003    2.471786151273174E-043
 -2.099999999999999E-003    3.419683626422268E-043
 -1.999999999999999E-003    4.266271047119140E-043
 -1.899999999999999E-003    4.852569455683848E-043
 -1.799999999999999E-003    4.993808693772859E-043
 -1.699999999999999E-003    4.479091993690681E-043
 -1.599999999999999E-003    3.134211961008277E-043
 -1.499999999999999E-003    8.152704596210603E-044
 -1.399999999999999E-003   -2.548009450763561E-043
 -1.299999999999999E-003   -6.882258265768915E-043
 -1.199999999999999E-003   -1.198432885430599E-042
 -1.099999999999999E-003   -1.743757171033010E-042
 -9.999999999999989E-004   -2.261710085926196E-042
 -8.999999999999990E-004   -2.672487197028730E-042
 -7.999999999999990E-004   -2.877722470329591E-042
 -6.999999999999989E-004   -2.771390997905221E-042
 -5.999999999999990E-004   -2.249663779363444E-042
 -4.999999999999989E-004   -1.224930565758887E-042
 -3.999999999999989E-004    3.536359816499584E-043
 -2.999999999999989E-004    2.482085585469525E-042
 -1.999999999999989E-004    5.081246579123406E-042
 -9.999999999999892E-005    7.979808779451124E-042
  1.084202172485504E-018    1.090396783276770E-041
  1.000000000000011E-004    1.347730060360610E-041
  2.000000000000011E-004    1.523200583450813E-041
  3.000000000000011E-004    1.563972275500600E-041
  4.000000000000011E-004    1.415695074858489E-041
  5.000000000000011E-004    1.029478406245775E-041
  6.000000000000011E-004    3.699046282219105E-042
  7.000000000000011E-004   -5.757481955823803E-042
  8.000000000000011E-004   -1.787598959027650E-041
  9.000000000000012E-004   -3.204651459740846E-041
  1.000000000000001E-003   -4.718448029436082E-041
  1.100000000000001E-003   -6.170528947210951E-041
  1.200000000000001E-003   -7.355405635404311E-041
  1.300000000000001E-003   -8.030825032272579E-041
  1.400000000000001E-003   -7.935751769244333E-041
  1.500000000000001E-003   -6.817049628325846E-041
  1.600000000000001E-003   -4.463727011869796E-041
  1.700000000000001E-003   -7.471971047857414E-042
  1.800000000000001E-003    4.335507479741521E-041
  1.900000000000001E-003    1.061966333833134E-040
  2.000000000000001E-003    1.773856403474253E-040
  2.100000000000001E-003    2.510260033265611E-040
  2.200000000000001E-003    3.189865270158728E-040
  2.300000000000001E-003    3.711692028921228E-040
  2.400000000000001E-003    3.960986625821390E-040
  2.500000000000001E-003    3.818627251576837E-040
  2.600000000000001E-003    3.173983678631147E-040
  2.700000000000001E-003    1.940771943215916E-040
  2.800000000000001E-003    7.491216972409077E-042
  2.900000000000001E-003   -2.407088023991077E-040
  3.000000000000001E-003   -5.411303844506321E-040
  3.100000000000001E-003   -8.753394119169119E-040
  3.200000000000001E-003   -1.215227692870510E-039
  3.300000000000001E-003   -1.523298760725941E-039
  3.400000000000001E-003   -1.754123642584374E-039
  3.500000000000001E-003   -1.857127550709796E-039
  3.600000000000001E-003   -1.780786852144596E-039
  3.700000000000001E-003   -1.478166223742929E-039
  3.800000000000001E-003   -9.135585288474785E-040
  3.900000000000001E-003   -6.980721214049325E-041
  4.000000000000001E-003    1.044302293957113E-039
  4.100000000000001E-003    2.387375310663941E-039
  4.200000000000001E-003    3.880384510969170E-039
  4.300000000000001E-003    5.404300744571871E-039
  4.400000000000001E-003    6.801351336936464E-039
  4.500000000000001E-003    7.880783872501468E-039
  4.600000000000002E-003    8.429772912505891E-039
  4.700000000000001E-003    8.229731411037831E-039
  4.800000000000001E-003    7.077816098379899E-039
  4.900000000000002E-003    4.812843602665387E-039
  5.000000000000001E-003    1.344168547147524E-039
  5.100000000000001E-003   -3.318584159257318E-039
  5.200000000000001E-003   -9.037697963143593E-039
  5.300000000000002E-003   -1.552473782720446E-038
  5.400000000000001E-003   -2.232678949014470E-038
  5.500000000000001E-003   -2.882535796950594E-038
  5.600000000000002E-003   -3.425152349896778E-038
  5.700000000000001E-003   -3.772040697956952E-038
  5.800000000000001E-003   -3.828700596762195E-038
  5.900000000000002E-003   -3.502401864532862E-038
  6.000000000000001E-003   -2.712044529440248E-038
  6.100000000000001E-003   -1.399742617329691E-038
  6.200000000000002E-003    4.564801577538088E-039
  6.300000000000002E-003    2.829778168345532E-038
  6.400000000000001E-003    5.632537909394202E-038
  6.500000000000001E-003    8.706844585368804E-038
  6.600000000000002E-003    1.181902628517477E-037
  6.700000000000001E-003    1.466006753905412E-037
  6.800000000000001E-003    1.685368970824720E-037
  6.900000000000002E-003    1.797372156532655E-037
  7.000000000000001E-003    1.757199729454049E-037
  7.100000000000001E-003    1.521736394799125E-037
  7.200000000000002E-003    1.054547413199011E-037
  7.300000000000002E-003    3.317767267911918E-038
  7.400000000000001E-003   -6.513426643066976E-038
  7.500000000000001E-003   -1.873844423325478E-037
  7.600000000000002E-003   -3.282913445479884E-037
  7.700000000000001E-003   -4.789129499769981E-037
  7.800000000000001E-003   -6.264053655657272E-037
  7.900000000000001E-003   -7.541215506920877E-037
  8.000000000000002E-003   -8.421566765877591E-037
  8.100000000000001E-003   -8.684319271336190E-037
  8.200000000000001E-003   -8.103818528172161E-037
  8.300000000000002E-003   -6.472622154711817E-037
  8.400000000000001E-003   -3.630304299316412E-037
  8.500000000000002E-003    5.033193970978623E-038
  8.600000000000002E-003    5.892846656432649E-037
  8.700000000000001E-003    1.235314532927602E-036
  8.800000000000002E-003    1.952079080112284E-036
  8.900000000000002E-003    2.683623078328549E-036
  9.000000000000001E-003    3.354246845311083E-036
  9.100000000000002E-003    3.870588436943950E-036
  9.200000000000002E-003    4.126430613938100E-036
  9.300000000000001E-003    4.010571491693649E-036
  9.400000000000002E-003    3.417858141516316E-036
  9.500000000000001E-003    2.263137267513225E-036
  9.600000000000001E-003    4.974331766595845E-037
  9.700000000000002E-003   -1.874815246936067E-036
  9.800000000000001E-003   -4.779148750495450E-036
  9.900000000000001E-003   -8.057287383242717E-036
  1.000000000000000E-002   -1.145866201260457E-035
  1.010000000000000E-002   -1.464000608083055E-035
  1.020000000000000E-002   -1.717562204723757E-035
  1.030000000000000E-002   -1.858052563060130E-035
  1.040000000000000E-002   -1.834778506050006E-035
  1.050000000000000E-002   -1.600013271536928E-035
  1.060000000000000E-002   -1.115420709320519E-035
  1.070000000000000E-002   -3.593789933674400E-036
  1.080000000000000E-002    6.653844614297400E-036
  1.090000000000000E-002    1.924650489191634E-035
  1.100000000000000E-002    3.347055996337729E-035
  1.110000000000000E-002    4.821046266807328E-035
  1.120000000000000E-002    6.195596265180752E-035
  1.130000000000000E-002    7.285745681823851E-035
  1.140000000000000E-002    7.883756445525053E-035
  1.150000000000000E-002    7.776258468097933E-035
  1.160000000000000E-002    6.767168097951525E-035
  1.170000000000000E-002    4.705397134315652E-035
  1.180000000000000E-002    1.515513279517170E-035
  1.190000000000000E-002   -2.771349461931875E-035
  1.200000000000000E-002   -7.989913411390060E-035
  1.210000000000000E-002   -1.382069028589718E-034
  1.220000000000000E-002   -1.978195550625681E-034
  1.230000000000000E-002   -2.523822732709390E-034
  1.240000000000000E-002   -2.942898219423634E-034
  1.250000000000000E-002   -3.152011218452835E-034
  1.260000000000000E-002   -3.067860881968476E-034
  1.270000000000000E-002   -2.616843598269728E-034
  1.280000000000000E-002   -1.746245018051441E-034
  1.290000000000000E-002   -4.361825320257029E-035
  1.300000000000000E-002    1.288869395829878E-034
  1.310000000000000E-002    3.350432132548708E-034
  1.320000000000000E-002    5.609902572417504E-034
  1.330000000000000E-002    7.867656097304978E-034
  1.340000000000000E-002    9.868926057504538E-034
  1.350000000000000E-002    1.131767022593293E-033
  1.360000000000000E-002    1.189901287705456E-033
  1.370000000000000E-002    1.131004692060302E-033
  1.380000000000000E-002    9.297710918841190E-034
  1.390000000000000E-002    5.701299994401269E-034
  1.400000000000000E-002    4.959854141737503E-035
  1.410000000000000E-002   -6.167469183926631E-034
  1.420000000000000E-002   -1.393236733248796E-033
  1.430000000000000E-002   -2.222118872503691E-033
  1.440000000000000E-002   -3.024204500140446E-033
  1.450000000000000E-002   -3.702147011004270E-033
  1.460000000000000E-002   -4.146684605092859E-033
  1.470000000000000E-002   -4.245919726580019E-033
  1.480000000000000E-002   -3.897372081129199E-033
  1.490000000000000E-002   -3.022159226816426E-033
  1.500000000000000E-002   -1.580225699275731E-033
  1.510000000000000E-002    4.148554677604916E-034
  1.520000000000000E-002    2.883325205875358E-033
  1.530000000000000E-002    5.670980325631841E-033
  1.540000000000000E-002    8.547281647900483E-033
  1.550000000000000E-002    1.121172600164061E-032
  1.560000000000000E-002    1.330991012240843E-032
  1.570000000000000E-002    1.445995466050399E-032
  1.580000000000000E-002    1.428893668955051E-032
  1.590000000000000E-002    1.247773077107093E-032
  1.600000000000000E-002    8.811241516908205E-033
  1.610000000000000E-002    3.229637769025568E-033
  1.620000000000000E-002   -4.125089731393655E-033
  1.630000000000000E-002   -1.287381952153091E-032
  1.640000000000000E-002   -2.238321923423245E-032
  1.650000000000000E-002   -3.177351941127561E-032
  1.660000000000000E-002   -3.995659924936371E-032
  1.670000000000000E-002   -4.570769588292505E-032
  1.680000000000000E-002   -4.777096614441592E-032
  1.690000000000000E-002   -4.499527750193928E-032
  1.700000000000000E-002   -3.649212936295152E-032
  1.710000000000000E-002   -2.180293872250643E-032
  1.720000000000000E-002   -1.058755000360798E-033
  1.730000000000000E-002    2.488820647143504E-032
  1.740000000000000E-002    5.438336014489670E-032
  1.750000000000000E-002    8.496101957415813E-032
  1.760000000000000E-002    1.134271594463027E-031
  1.770000000000000E-002    1.360468246850449E-031
  1.780000000000000E-002    1.488402566571884E-031
  1.790000000000000E-002    1.479802584331984E-031
  1.800000000000000E-002    1.302693246883751E-031
  1.810000000000000E-002    9.366067738341328E-032
  1.820000000000000E-002    3.777295685048489E-032
  1.830000000000000E-002   -3.566285971814627E-032
  1.840000000000000E-002   -1.224933284489457E-031
  1.850000000000000E-002   -2.160387018171783E-031
  1.860000000000000E-002   -3.072576150880481E-031
  1.870000000000000E-002   -3.852261552562792E-031