 -4.000000000000000E-002    0.000000000000000E+000
 -3.990000000000000E-002    0.000000000000000E+000
 -3.980000000000000E-002    0.000000000000000E+000
 -3.970000000000000E-002    0.000000000000000E+000
 -3.960000000000000E-002    0.000000000000000E+000
 -3.950000000000000E-002    0.000000000000000E+000
 -3.940000000000000E-002    0.000000000000000E+000
 -3.930000000000000E-002    0.000000000000000E+000
 -3.920000000000000E-002    0.000000000000000E+000
 -3.910000000000000E-002    0.000000000000000E+000
 -3.900000000000000E-002    0.000000000000000E+000
 -3.890000000000000E-002    0.000000000000000E+000
 -3.880000000000000E-002    0.000000000000000E+000
 -3.870000000000000E-002    0.000000000000000E+000
 -3.860000000000000E-002    0.000000000000000E+000
 -3.850000000000000E-002    0.000000000000000E+000
 -3.840000000000000E-002    0.000000000000000E+000
 -3.830000000000000E-002    0.000000000000000E+000
 -3.820000000000000E-002    0.000000000000000E+000
 -3.810000000000000E-002    0.000000000000000E+000
 -3.800000000000000E-002    0.000000000000000E+000
 -3.790000000000000E-002    0.000000000000000E+000
 -3.780000000000000E-002    0.000000000000000E+000
 -3.770000000000000E-002    0.000000000000000E+000
 -3.760000000000000E-002    0.000000000000000E+000
 -3.750000000000000E-002    0.000000000000000E+000
 -3.740000000000000E-002    0.000000000000000E+000
 -3.730000000000000E-002    0.000000000000000E+000
 -3.720000000000000E-002    0.000000000000000E+000
 -3.710000000000000E-002    0.000000000000000E+000
 -3.700000000000000E-002    0.000000000000000E+000
 -3.690000000000000E-002    0.000000000000000E+000
 -3.680000000000000E-002    0.000000000000000E+000
 -3.670000000000000E-002    0.000000000000000E+000
 -3.660000000000000E-002    0.000000000000000E+000
 -3.650000000000000E-002    0.000000000000000E+000
 -3.640000000000000E-002    0.000000000000000E+000
 -3.630000000000000E-002    0.000000000000000E+000
 -3.620000000000000E-002    0.000000000000000E+000
 -3.610000000000000E-002    0.000000000000000E+000
 -3.600000000000000E-002    0.000000000000000E+000
 -3.590000000000000E-002    0.000000000000000E+000
 -3.580000000000000E-002    0.000000000000000E+000
 -3.570000000000000E-002    0.000000000000000E+000
 -3.560000000000000E-002    0.000000000000000E+000
 -3.550000000000000E-002    0.000000000000000E+000
 -3.540000000000000E-002    0.000000000000000E+000
 -3.530000000000000E-002    0.000000000000000E+000
 -3.520000000000000E-002    0.000000000000000E+000
 -3.510000000000000E-002    0.000000000000000E+000
 -3.500000000000000E-002    0.000000000000000E+000
 -3.490000000000000E-002    0.000000000000000E+000
 -3.480000000000000E-002    0.000000000000000E+000
 -3.470000000000000E-002    0.000000000000000E+000
 -3.460000000000000E-002    0.000000000000000E+000
 -3.450000000000000E-002    0.000000000000000E+000
 -3.440000000000000E-002    0.000000000000000E+000
 -3.430000000000000E-002    0.000000000000000E+000
 -3.420000000000000E-002    0.000000000000000E+000
 -3.410000000000000E-002    0.000000000000000E+000
 -3.400000000000000E-002    0.000000000000000E+000
 -3.390000000000000E-002    0.000000000000000E+000
 -3.380000000000000E-002    0.000000000000000E+000
 -3.370000000000000E-002    0.000000000000000E+000
 -3.360000000000000E-002    0.000000000000000E+000
 -3.350000000000000E-002    0.000000000000000E+000
 -3.340000000000000E-002    0.000000000000000E+000
 -3.330000000000000E-002    0.000000000000000E+000
 -3.320000000000000E-002    0.000000000000000E+000
 -3.310000000000000E-002    0.000000000000000E+000
 -3.300000000000000E-002    0.000000000000000E+000
 -3.290000000000000E-002    0.000000000000000E+000
 -3.280000000000000E-002    0.000000000000000E+000
 -3.270000000000000E-002    0.000000000000000E+000
 -3.260000000000000E-002    0.000000000000000E+000
 -3.250000000000000E-002    0.000000000000000E+000
 -3.240000000000000E-002    0.000000000000000E+000
 -3.230000000000000E-002    0.000000000000000E+000
 -3.220000000000000E-002    0.000000000000000E+000
 -3.210000000000000E-002    0.000000000000000E+000
 -3.200000000000000E-002    0.000000000000000E+000
 -3.190000000000000E-002    0.000000000000000E+000
 -3.180000000000000E-002    0.000000000000000E+000
 -3.170000000000000E-002    0.000000000000000E+000
 -3.160000000000000E-002    0.000000000000000E+000
 -3.150000000000000E-002    0.000000000000000E+000
 -3.140000000000000E-002    0.000000000000000E+000
 -3.130000000000000E-002    0.000000000000000E+000
 -3.120000000000000E-002    0.000000000000000E+000
 -3.110000000000000E-002    0.000000000000000E+000
 -3.100000000000000E-002    0.000000000000000E+000
 -3.090000000000000E-002    0.000000000000000E+000
 -3.080000000000000E-002    0.000000000000000E+000
 -3.070000000000000E-002    0.000000000000000E+000
 -3.060000000000000E-002    0.000000000000000E+000
 -3.050000000000000E-002    0.000000000000000E+000
 -3.040000000000000E-002    0.000000000000000E+000
 -3.030000000000000E-002    0.000000000000000E+000
 -3.020000000000000E-002    0.000000000000000E+000
 -3.010000000000000E-002    0.000000000000000E+000
 -3.000000000000000E-002    0.000000000000000E+000
 -2.990000000000000E-002    0.000000000000000E+000
 -2.980000000000000E-002    0.000000000000000E+000
 -2.970000000000000E-002    0.000000000000000E+000
 -2.960000000000000E-002    0.000000000000000E+000
 -2.950000000000000E-002    0.000000000000000E+000
 -2.940000000000000E-002    0.000000000000000E+000
 -2.930000000000000E-002    0.000000000000000E+000
 -2.920000000000000E-002    0.000000000000000E+000
 -2.910000000000000E-002    0.000000000000000E+000
 -2.900000000000000E-002    0.000000000000000E+000
 -2.890000000000000E-002    0.000000000000000E+000
 -2.880000000000000E-002    0.000000000000000E+000
 -2.870000000000000E-002    0.000000000000000E+000
 -2.860000000000000E-002    0.000000000000000E+000
 -2.850000000000000E-002    0.000000000000000E+000
 -2.840000000000000E-002    0.000000000000000E+000
 -2.830000000000000E-002    0.000000000000000E+000
 -2.820000000000000E-002    0.000000000000000E+000
 -2.810000000000000E-002    0.000000000000000E+000
 -2.800000000000000E-002    0.000000000000000E+000
 -2.790000000000000E-002    0.000000000000000E+000
 -2.780000000000000E-002    0.000000000000000E+000
 -2.770000000000000E-002    0.000000000000000E+000
 -2.760000000000000E-002    0.000000000000000E+000
 -2.750000000000000E-002    0.000000000000000E+000
 -2.740000000000000E-002    0.000000000000000E+000
 -2.730000000000000E-002    0.000000000000000E+000
 -2.720000000000000E-002    0.000000000000000E+000
 -2.710000000000000E-002    0.000000000000000E+000
 -2.700000000000000E-002    0.000000000000000E+000
 -2.690000000000000E-002    0.000000000000000E+000
 -2.680000000000000E-002    0.000000000000000E+000
 -2.670000000000000E-002    0.000000000000000E+000
 -2.660000000000000E-002    0.000000000000000E+000
 -2.650000000000000E-002    0.000000000000000E+000
 -2.640000000000000E-002    0.000000000000000E+000
 -2.630000000000000E-002    0.000000000000000E+000
 -2.620000000000000E-002    0.000000000000000E+000
 -2.610000000000000E-002    0.000000000000000E+000
 -2.600000000000000E-002    0.000000000000000E+000
 -2.590000000000000E-002    0.000000000000000E+000
 -2.580000000000000E-002    0.000000000000000E+000
 -2.570000000000000E-002    0.000000000000000E+000
 -2.560000000000000E-002    0.000000000000000E+000
 -2.550000000000000E-002    0.000000000000000E+000
 -2.540000000000000E-002    0.000000000000000E+000
 -2.530000000000000E-002    0.000000000000000E+000
 -2.520000000000000E-002    0.000000000000000E+000
 -2.510000000000000E-002    0.000000000000000E+000
 -2.500000000000000E-002    0.000000000000000E+000
 -2.490000000000000E-002    0.000000000000000E+000
 -2.480000000000000E-002    0.000000000000000E+000
 -2.470000000000000E-002    0.000000000000000E+000
 -2.460000000000000E-002    0.000000000000000E+000
 -2.450000000000000E-002    0.000000000000000E+000
 -2.440000000000000E-002    0.000000000000000E+000
 -2.430000000000000E-002    0.000000000000000E+000
 -2.420000000000000E-002   -5.514483542572599E-048
 -2.410000000000000E-002   -1.673715649818497E-047
 -2.400000000000000E-002   -8.579539917363474E-048
 -2.390000000000000E-002   -5.936406879114580E-048
 -2.380000000000000E-002   -3.293273840865687E-048
 -2.370000000000000E-002   -6.501408026167933E-049
 -2.360000000000000E-002   -9.200451975443225E-048
 -2.350000000000000E-002   -2.039389618651855E-047
 -2.340000000000000E-002    1.596546694685579E-047
 -2.330000000000000E-002   -1.134037426649409E-048
 -2.320000000000000E-002   -4.137530888296599E-047
 -2.310000000000000E-002   -2.017245256036083E-047
 -2.300000000000000E-002    2.202726290959336E-046
 -2.290000000000000E-002    3.207204108884870E-046
 -2.280000000000000E-002    4.152228232941937E-046
 -2.270000000000000E-002    5.306229519009327E-046
 -2.260000000000000E-002    6.553351151219235E-046
 -2.250000000000000E-002    8.548379724923790E-046
 -2.240000000000000E-002    1.028195400045496E-045
 -2.230000000000000E-002    1.249359978721263E-045
 -2.220000000000000E-002    1.358797748353353E-045
 -2.210000000000000E-002    9.862464118151078E-046
 -2.200000000000000E-002    6.706080957657202E-046
 -2.190000000000000E-002    2.763591693462388E-046
 -2.180000000000000E-002   -1.591365709173522E-045
 -2.170000000000000E-002   -3.782899418481323E-045
 -2.160000000000000E-002   -7.646630321355516E-045
 -2.150000000000000E-002   -1.128265823479530E-044
 -2.140000000000000E-002   -1.597118550695131E-044
 -2.130000000000000E-002   -2.089833720129459E-044
 -2.120000000000000E-002   -2.470260965809832E-044
 -2.110000000000000E-002   -2.530777317918877E-044
 -2.100000000000000E-002   -2.098438368578725E-044
 -2.090000000000000E-002   -9.249160647977946E-045
 -2.080000000000000E-002    1.282756219072734E-044
 -2.070000000000000E-002    4.604851919461342E-044
 -2.060000000000000E-002    9.233538501039842E-044
 -2.050000000000000E-002    1.508989151697339E-043
 -2.040000000000000E-002    2.168739170889391E-043
 -2.030000000000000E-002    2.825860169959214E-043
 -2.020000000000000E-002    3.350217348754123E-043
 -2.010000000000000E-002    3.552188872414098E-043
 -2.000000000000000E-002    3.203783437512243E-043
 -1.990000000000000E-002    2.027802837223524E-043
 -1.980000000000000E-002   -2.744275100610640E-044
 -1.970000000000000E-002   -3.955300588924128E-043
 -1.960000000000000E-002   -9.155700992882961E-043
 -1.950000000000000E-002   -1.581310530482392E-042
 -1.940000000000000E-002   -2.353458018106378E-042
 -1.930000000000000E-002   -3.150954127739539E-042
 -1.920000000000000E-002   -3.836967687490143E-042
 -1.910000000000000E-002   -4.214459298055770E-042
 -1.900000000000000E-002   -4.024038460561800E-042
 -1.890000000000000E-002   -2.961307808094384E-042
 -1.880000000000000E-002   -7.036409453733666E-043
 -1.870000000000000E-002    3.037014250473191E-042
 -1.860000000000000E-002    8.444646638530406E-042
 -1.850000000000000E-002    1.549685664521483E-041
 -1.840000000000000E-002    2.385474268616745E-041
 -1.830000000000000E-002    3.273739052270406E-041
 -1.820000000000000E-002    4.081457501291950E-041
 -1.810000000000000E-002    4.612982700938131E-041
 -1.800000000000000E-002    4.610474225641284E-041
 -1.790000000000000E-002    3.765430684866030E-041
 -1.780000000000000E-002    1.746049839452047E-041
 -1.770000000000000E-002   -1.756049699114311E-041
 -1.760000000000000E-002   -6.956686118609373E-041
 -1.750000000000000E-002   -1.388816491821151E-040
 -1.740000000000000E-002   -2.229178703553483E-040
 -1.730000000000000E-002   -3.150149190720179E-040
 -1.720000000000000E-002   -4.033764756876781E-040
 -1.710000000000000E-002   -4.703313971279793E-040
 -1.700000000000000E-002   -4.922303486186571E-040
 -1.690000000000000E-002   -4.403418761731878E-040
 -1.680000000000000E-002   -2.831200025132417E-040
 -1.670000000000000E-002    9.826527355035914E-042
 -1.660000000000000E-002    4.618476253944056E-040
 -1.650000000000000E-002    1.081468650002560E-039
 -1.640000000000000E-002    1.853063140513152E-039
 -1.630000000000000E-002    2.726780159680040E-039
 -1.620000000000000E-002    3.609074031515180E-039
 -1.610000000000000E-002    4.355772808289841E-039
 -1.600000000000000E-002    4.770156861801777E-039
 -1.590000000000000E-002    4.608938415662451E-039
 -1.580000000000000E-002    3.599136049766351E-039
 -1.570000000000000E-002    1.468491555599208E-039
 -1.560000000000000E-002   -2.008867584041478E-039
 -1.550000000000000E-002   -6.951576023033378E-039
 -1.540000000000000E-002   -1.329756799047021E-038
 -1.530000000000000E-002   -2.072403117621738E-038
 -1.520000000000000E-002   -2.857073788060832E-038
 -1.510000000000000E-002   -3.578112438614955E-038
 -1.500000000000000E-002   -4.087939606683233E-038
 -1.490000000000000E-002   -4.200491739759456E-038
 -1.480000000000000E-002   -3.702571712576960E-038
 -1.470000000000000E-002   -2.375052631215966E-038
 -1.460000000000000E-002   -2.518866125727934E-040
 -1.450000000000000E-002    3.469964492870969E-038
 -1.440000000000000E-002    8.110759307746192E-038
 -1.430000000000000E-002    1.371694917940636E-037
 -1.420000000000000E-002    1.987130638102792E-037
 -1.410000000000000E-002    2.587466366486131E-037
 -1.400000000000000E-002    3.072483581697118E-037
 -1.390000000000000E-002    3.313373202054656E-037
 -1.380000000000000E-002    3.159740179252635E-037
 -1.370000000000000E-002    2.453201423251348E-037
 -1.360000000000000E-002    1.048401838912094E-037
 -1.350000000000000E-002   -1.158497826850098E-037
 -1.340000000000000E-002   -4.195025330871615E-037
 -1.330000000000000E-002   -7.973908326931733E-037
 -1.320000000000000E-002   -1.225527612641579E-036
 -1.310000000000000E-002   -1.661577556094151E-036
 -1.300000000000000E-002   -2.043240408225087E-036
 -1.290000000000000E-002   -2.289006902922010E-036
 -1.280000000000000E-002   -2.302196646915849E-036
 -1.270000000000000E-002   -1.979080273441356E-036
 -1.260000000000000E-002   -1.221596790515483E-036
 -1.250000000000000E-002    4.532288335430715E-038
 -1.240000000000000E-002    1.852515528461417E-036
 -1.230000000000000E-002    4.163011657816228E-036
 -1.220000000000000E-002    6.848748237893580E-036
 -1.210000000000000E-002    9.671241624719740E-036
 -1.200000000000000E-002    1.227082570893080E-035
 -1.190000000000000E-002    1.416967308836951E-035
 -1.180000000000000E-002    1.479388096100248E-035
 -1.170000000000000E-002    1.351915678399213E-035
 -1.160000000000000E-002    9.742996376842336E-036
 -1.150000000000000E-002    2.983301556624131E-036
 -1.140000000000000E-002   -7.000505759026997E-036
 -1.130000000000000E-002   -2.007295767774765E-035
 -1.120000000000000E-002   -3.558924283587075E-035
 -1.110000000000000E-002   -5.228359282942174E-035
 -1.100000000000000E-002   -6.820470270227497E-035
 -1.090000000000000E-002   -8.072659137407824E-035
 -1.080000000000000E-002   -8.666347078807003E-035
 -1.070000000000000E-002   -8.251290665784906E-035
 -1.060000000000000E-002   -6.484184403032354E-035
 -1.050000000000000E-002   -3.081511140681816E-035
 -1.040000000000000E-002    2.115579526755975E-035
 -1.030000000000000E-002    9.069188863206288E-035
 -1.020000000000000E-002    1.747314282472480E-034
 -1.010000000000000E-002    2.669271201063030E-034
 -1.000000000000000E-002    3.572869848102337E-034
 -9.899999999999999E-003    4.322047991400381E-034
 -9.800000000000000E-003    4.750243705497576E-034
 -9.699999999999999E-003    4.672587390881833E-034
 -9.599999999999999E-003    3.905370291926895E-034
 -9.500000000000000E-003    2.292704075738667E-034
 -9.399999999999999E-003   -2.607460494043826E-035
 -9.299999999999999E-003   -3.753396005869286E-034
 -9.200000000000000E-003   -8.050611241068500E-034
 -9.099999999999999E-003   -1.285404265447726E-033
 -8.999999999999999E-003   -1.768283258846227E-033
 -8.900000000000000E-003   -2.187372461304356E-033
 -8.799999999999999E-003   -2.460690007032427E-033
 -8.699999999999999E-003   -2.496334770006365E-033
 -8.600000000000000E-003   -2.201692858316028E-033
 -8.499999999999999E-003   -1.496071270597935E-033
 -8.399999999999999E-003   -3.262110135181087E-034
 -8.300000000000000E-003    1.316474597600725E-033
 -8.199999999999999E-003    3.378735591839555E-033
 -8.100000000000000E-003    5.730817483305762E-033
 -8.000000000000000E-003    8.157201864349551E-033
 -7.899999999999999E-003    1.035594580802818E-032
 -7.800000000000000E-003    1.194967363822057E-032
 -7.699999999999999E-003    1.251074228999960E-032
 -7.599999999999999E-003    1.160196733276025E-032
 -7.499999999999999E-003    8.832621523434161E-033
 -7.399999999999999E-003    3.927197687052651E-033
 -7.299999999999999E-003   -3.198181695723926E-033
 -7.199999999999999E-003   -1.235958489335078E-032
 -7.100000000000000E-003   -2.303981508784792E-032
 -6.999999999999999E-003   -3.434613747114040E-032
 -6.899999999999999E-003   -4.500464542420295E-032
 -6.800000000000000E-003   -5.340400911506543E-032
 -6.699999999999999E-003   -5.769890292529797E-032
 -6.599999999999999E-003   -5.597847138737217E-032
 -6.499999999999999E-003   -4.649801238818683E-032
 -6.399999999999999E-003   -2.796309832624910E-032
 -6.299999999999999E-003    1.554242383470863E-034
 -6.199999999999999E-003    3.730821645270961E-032
 -6.100000000000000E-003    8.159847353589056E-032
 -5.999999999999999E-003    1.296072618311577E-031
 -5.899999999999999E-003    1.763661405501376E-031
 -5.800000000000000E-003    2.155261141094988E-031
 -5.699999999999999E-003    2.397612574898506E-031
 -5.599999999999999E-003    2.414252482962258E-031
 -5.499999999999999E-003    2.134498263248711E-031
 -5.399999999999999E-003    1.504393373283618E-031
 -5.299999999999999E-003    4.987394205883004E-032
 -5.199999999999999E-003   -8.670570262612306E-032
 -5.099999999999999E-003   -2.526965692060470E-031
 -4.999999999999999E-003   -4.358016432429577E-031
 -4.899999999999999E-003   -6.179623941072050E-031
 -4.799999999999999E-003   -7.760310407109549E-031
 -4.699999999999999E-003   -8.833085225536465E-031
 -4.599999999999999E-003   -9.119969179416773E-031
 -4.499999999999999E-003   -8.365016402450906E-031
 -4.399999999999999E-003   -6.373887057313211E-031
 -4.299999999999999E-003   -3.056553419900313E-031
 -4.199999999999999E-003    1.531699531589814E-031
 -4.099999999999999E-003    7.156979161558288E-031
 -3.999999999999999E-003    1.338785724303339E-030
 -3.899999999999999E-003    1.959747302462867E-030
 -3.799999999999999E-003    2.499233855977000E-030
 -3.699999999999999E-003    2.867149905516095E-030
 -3.599999999999999E-003    2.971657077781268E-030
 -3.499999999999999E-003    2.730918944927281E-030
 -3.399999999999999E-003    2.086750506711333E-030
 -3.299999999999999E-003    1.018847388327977E-030
 -3.199999999999999E-003   -4.421936991600298E-031
 -3.099999999999999E-003   -2.205194370047535E-030
 -2.999999999999999E-003   -4.114322631502033E-030
 -2.899999999999999E-003   -5.952780239460288E-030
 -2.799999999999999E-003   -7.455927366473351E-030
 -2.699999999999999E-003   -8.334684045724069E-030
 -2.599999999999999E-003   -8.308878279776895E-030
 -2.499999999999999E-003   -7.148699352866142E-030
 -2.399999999999999E-003   -4.720776111425287E-030
 -2.299999999999999E-003   -1.033748593716092E-030
 -2.199999999999999E-003    3.723203462270002E-030
 -2.099999999999999E-003    9.156323418354516E-030
 -1.999999999999999E-003    1.466527558105117E-029
 -1.899999999999999E-003    1.946981582920079E-029
 -1.799999999999999E-003    2.266972141916999E-029
 -1.699999999999999E-003    2.333917089664321E-029
 -1.599999999999999E-003    2.065230851046819E-029
 -1.499999999999999E-003    1.403148874243148E-029
 -1.399999999999999E-003    3.303812960809069E-030
 -1.299999999999999E-003   -1.115347966734545E-029
 -1.199999999999999E-003   -2.830257260740521E-029
 -1.099999999999999E-003   -4.639538099961410E-029
 -9.999999999999989E-004   -6.300963121103960E-029
 -8.999999999999990E-004   -7.519081605747845E-029
 -7.999999999999990E-004   -7.971192530107507E-029
 -6.999999999999989E-004   -7.344949451912975E-029
 -5.999999999999990E-004   -5.385838643487772E-029
 -4.999999999999989E-004   -1.950894950988536E-029
 -3.999999999999989E-004    2.936905711729306E-029
 -2.999999999999989E-004    9.040846446064200E-029
 -1.999999999999989E-004    1.587774495222470E-028
 -9.999999999999892E-005    2.270924199165874E-028
  1.084202172485504E-018    2.856533146569212E-028
  1.000000000000011E-004    3.230648250008211E-028
  2.000000000000011E-004    3.272720893726016E-028
  3.000000000000011E-004    2.869944191760362E-028
  4.000000000000011E-004    1.934807544396588E-028
  5.000000000000011E-004    4.244716498290578E-029
  6.000000000000011E-004   -1.640078482694261E-028
  7.000000000000011E-004   -4.157683804515524E-028
  8.000000000000011E-004   -6.936427603001870E-028
  9.000000000000012E-004   -9.691836694033428E-028
  1.000000000000001E-003   -1.205661337614120E-027
  1.100000000000001E-003   -1.360389792549816E-027
  1.200000000000001E-003   -1.388486737328701E-027
  1.300000000000001E-003   -1.247987056241067E-027
  1.400000000000001E-003   -9.060317963977607E-028
  1.500000000000001E-003   -3.456430072109789E-028
  1.600000000000001E-003    4.276134350629911E-028
  1.700000000000001E-003    1.379952719550751E-027
  1.800000000000001E-003    2.445663955967210E-027
  1.900000000000001E-003    3.526374420766244E-027
  2.000000000000001E-003    4.494170961232975E-027
  2.100000000000001E-003    5.199231652487226E-027
  2.200000000000001E-003    5.482213430089161E-027
  2.300000000000001E-003    5.191125043765004E-027
  2.400000000000001E-003    4.201787323629598E-027
  2.500000000000001E-003    2.440304262962850E-027
  2.600000000000001E-003   -9.468705653941970E-029
  2.700000000000001E-003   -3.312755170901966E-027
  2.800000000000001E-003   -7.018515018213826E-027
  2.900000000000001E-003   -1.090770539435647E-026
  3.000000000000001E-003   -1.457532869448060E-026
  3.100000000000001E-003   -1.753788510218271E-026
  3.200000000000001E-003   -1.927055222484078E-026
  3.300000000000001E-003   -1.925854395151407E-026
  3.400000000000001E-003   -1.706000818086268E-026
  3.500000000000001E-003   -1.237576035348717E-026
  3.600000000000001E-003   -5.119237085343999E-027
  3.700000000000001E-003    4.521603201240038E-027
  3.800000000000001E-003    1.603968728890011E-026
  3.900000000000001E-003    2.859087592907043E-026
  4.000000000000001E-003    4.101115186238983E-026
  4.100000000000001E-003    5.187505293315072E-026
  4.200000000000001E-003    5.959815057575659E-026
  4.300000000000001E-003    6.258168578271170E-026
  4.400000000000001E-003    5.939216938984569E-026
  4.500000000000001E-003    4.896284558134597E-026
  4.600000000000002E-003    3.079850541543626E-026
  4.700000000000001E-003    5.160488315906601E-027
  4.800000000000001E-003   -2.679399741049588E-026
  4.900000000000002E-003   -6.294461510252802E-026
  5.000000000000001E-003   -1.002363548730020E-025
  5.100000000000001E-003   -1.348212465397252E-025
  5.200000000000001E-003   -1.623215926906601E-025
  5.300000000000002E-003   -1.782104436049078E-025
  5.400000000000001E-003   -1.782902482833091E-025
  5.500000000000001E-003   -1.592353364631785E-025
  5.600000000000002E-003   -1.191490924675050E-025
  5.700000000000001E-003   -5.807450443532627E-026
  5.800000000000001E-003    2.161079719171290E-026
  5.900000000000002E-003    1.149840082291951E-025
  6.000000000000001E-003    2.146139764009233E-025
  6.100000000000001E-003    3.108913894066295E-025
  6.200000000000002E-003    3.926737317631814E-025
  6.300000000000002E-003    4.482347777083191E-025
  6.400000000000001E-003    4.664690372219419E-025
  6.500000000000001E-003    4.382638830167023E-025
  6.600000000000002E-003    3.579136030119662E-025
  6.700000000000001E-003    2.244200026698992E-025
  6.800000000000001E-003    4.250693500930630E-026
  6.900000000000002E-003   -1.768249328355631E-025
  7.000000000000001E-003   -4.163565212484332E-025
  7.100000000000001E-003   -6.534343992736842E-025
  7.200000000000002E-003   -8.615281543451519E-025
  7.300000000000002E-003   -1.012529165547993E-024
  7.400000000000001E-003   -1.079663792789104E-024
  7.500000000000001E-003   -1.040797725102773E-024
  7.600000000000002E-003   -8.818204508605280E-025
  7.700000000000001E-003   -5.997269892604206E-025
  7.800000000000001E-003   -2.049799577966436E-025
  7.900000000000001E-003    2.772617195032780E-025
  8.000000000000002E-003    8.074048101775042E-025
  8.100000000000001E-003    1.333422149240270E-024
  8.200000000000001E-003    1.794679738047674E-024
  8.300000000000002E-003    2.127478040895231E-024
  8.400000000000001E-003    2.271970489389854E-024
  8.500000000000002E-003    2.179893867462091E-024
  8.600000000000002E-003    1.822338280734382E-024
  8.700000000000001E-003    1.196639554004635E-024
  8.800000000000002E-003    3.314074345587560E-025
  8.900000000000002E-003   -7.112648838726437E-025
  9.000000000000001E-003   -1.837193041418140E-024
  9.100000000000002E-003   -2.925607705621231E-024
  9.200000000000002E-003   -3.838875994289540E-024
  9.300000000000001E-003   -4.436053796555300E-024
  9.400000000000002E-003   -4.589357693852865E-024
  9.500000000000001E-003   -4.202097483876742E-024
  9.600000000000001E-003   -3.226193303729898E-024
  9.700000000000002E-003   -1.677057576548917E-024
  9.800000000000001E-003    3.564544750118610E-025
  9.900000000000001E-003    2.709163639463167E-024
  1.000000000000000E-002    5.145458276137397E-024
  1.010000000000000E-002    7.374897773230804E-024
  1.020000000000000E-002    9.077503495730629E-024
  1.030000000000000E-002    9.937472460778855E-024
  1.040000000000000E-002    9.682882367353093E-024
  1.050000000000000E-002    8.127661347268737E-024
  1.060000000000000E-002    5.211186443394201E-024
  1.070000000000000E-002    1.030219693361789E-024
  1.080000000000000E-002   -4.142145976878343E-024
  1.090000000000000E-002   -9.855356100290200E-024
  1.100000000000000E-002   -1.550166528107190E-023
  1.110000000000000E-002   -2.035946728126024E-023
  1.120000000000000E-002   -2.365895394260012E-023
  1.130000000000000E-002   -2.466647764593185E-023
  1.140000000000000E-002   -2.278105743598377E-023
  1.150000000000000E-002   -1.763383178401766E-023
  1.160000000000000E-002   -9.178990788541360E-024
  1.170000000000000E-002    2.236279259766178E-024
  1.180000000000000E-002    1.583531863902869E-023
  1.190000000000000E-002    3.041979578839832E-023
  1.200000000000000E-002    4.442943970666006E-023
  1.210000000000000E-002    5.605655854129132E-023
  1.220000000000000E-002    6.341233929450288E-023
  1.230000000000000E-002    6.473511792192740E-023
  1.240000000000000E-002    5.862421342101485E-023
  1.250000000000000E-002    4.427641761753010E-023
  1.260000000000000E-002    2.169801271475344E-023
  1.270000000000000E-002   -8.137404386643730E-024
  1.280000000000000E-002   -4.321391142416751E-023
  1.290000000000000E-002   -8.050557781317151E-023
  1.300000000000000E-002   -1.161327402700524E-022
  1.310000000000000E-002   -1.456471657367042E-022
  1.320000000000000E-002   -1.644372838031325E-022
  1.330000000000000E-002   -1.682290252600075E-022
  1.340000000000000E-002   -1.536420618191943E-022
  1.350000000000000E-002   -1.187476522943065E-022
  1.360000000000000E-002   -6.356413011884158E-023
  1.370000000000000E-002    9.578544159781880E-024
  1.380000000000000E-002    9.587071960930743E-023
  1.390000000000000E-002    1.881070163535248E-022
  1.400000000000000E-002    2.770583565436865E-022
  1.410000000000000E-002    3.521421745704281E-022
  1.420000000000000E-002    4.023682246686659E-022
  1.430000000000000E-002    4.175023461371189E-022
  1.440000000000000E-002    3.893550414466346E-022
  1.450000000000000E-002    3.130718039809397E-022
  1.460000000000000E-002    1.882788686929973E-022
  1.470000000000000E-002    1.993039760882824E-023
  1.480000000000000E-002   -1.812917261167627E-022
  1.490000000000000E-002   -3.991484935532324E-022
  1.500000000000000E-002   -6.126661220905758E-022
  1.510000000000000E-002   -7.976300688174532E-022
  1.520000000000000E-002   -9.287021995058917E-022
  1.530000000000000E-002   -9.820298130673707E-022
  1.540000000000000E-002   -9.381408523007109E-022
  1.550000000000000E-002   -7.848523807348495E-022
  1.560000000000000E-002   -5.198696702362306E-022
  1.570000000000000E-002   -1.527342065312670E-022
  1.580000000000000E-002    2.942041913047542E-022
  1.590000000000000E-002    7.860659951979541E-022
  1.600000000000000E-002    1.277145991202270E-021
  1.610000000000000E-002    1.714100116499335E-021
  1.620000000000000E-002    2.040498976129301E-021
  1.630000000000000E-002    2.202482229899302E-021
  1.640000000000000E-002    2.155065896001972E-021
  1.650000000000000E-002    1.868518086118703E-021
  1.660000000000000E-002    1.334111322108048E-021
  1.670000000000000E-002    5.685208138179474E-022
  1.680000000000000E-002   -3.838379786497486E-022
  1.690000000000000E-002   -1.451120776010666E-021
  1.700000000000000E-002   -2.537403174426874E-021
  1.710000000000000E-002   -3.529196956802244E-021
  1.720000000000000E-002   -4.304917595883856E-021
  1.730000000000000E-002   -4.746746817982970E-021
  1.740000000000000E-002   -4.753970063194693E-021
  1.750000000000000E-002   -4.256569969736618E-021
  1.760000000000000E-002   -3.227637374001241E-021
  1.770000000000000E-002   -1.693059605594386E-021
  1.780000000000000E-002    2.629935816689834E-022
  1.790000000000000E-002    2.498026023684590E-021
  1.800000000000000E-002    4.817476980626308E-021
  1.810000000000000E-002    6.987571275129891E-021
  1.820000000000000E-002    8.754383731443557E-021
  1.830000000000000E-002    9.867997827510470E-021
  1.840000000000000E-002    1.010993215527165E-020
  1.850000000000000E-002    9.321357002042941E-021
  1.860000000000000E-002    7.429166919182943E-021
  1.870000000000000E-002    4.466786106221703E-021