 -4.000000000000000E-002    0.000000000000000E+000
 -3.990000000000000E-002    0.000000000000000E+000
 -3.980000000000000E-002    0.000000000000000E+000
 -3.970000000000000E-002    0.000000000000000E+000
 -3.960000000000000E-002    0.000000000000000E+000
 -3.950000000000000E-002    0.000000000000000E+000
 -3.940000000000000E-002    0.000000000000000E+000
 -3.930000000000000E-002    0.000000000000000E+000
 -3.920000000000000E-002    0.000000000000000E+000
 -3.910000000000000E-002    0.000000000000000E+000
 -3.900000000000000E-002   -4.909127801788626E-033
 -3.890000000000000E-002   -9.511260100768642E-032
 -3.880000000000000E-002   -9.561467019865023E-031
 -3.870000000000000E-002   -6.631813899471377E-030
 -3.860000000000000E-002   -3.560941384488133E-029
 -3.850000000000000E-002   -1.574699206000042E-028
 -3.840000000000000E-002   -5.957625445846491E-028
 -3.830000000000000E-002   -1.977736337461252E-027
 -3.820000000000000E-002   -5.862139249576730E-027
 -3.810000000000000E-002   -1.570330247900133E-026
 -3.800000000000000E-002   -3.832273582994572E-026
 -3.790000000000000E-002   -8.557924213156607E-026
 -3.780000000000000E-002   -1.749679080303461E-025
 -3.770000000000000E-002   -3.259685413899578E-025
 -3.760000000000000E-002   -5.457767383771084E-025
 -3.750000000000000E-002   -7.935676536604081E-025
 -3.740000000000000E-002   -9.074084215032649E-025
 -3.730000000000000E-002   -4.744733831255469E-025
 -3.720000000000000E-002    1.372524429590052E-024
 -3.710000000000000E-002    6.235216158658350E-024
 -3.700000000000000E-002    1.677273925635543E-023
 -3.690000000000000E-002    3.696931251423475E-023
 -3.680000000000000E-002    7.214486722712101E-023
 -3.670000000000000E-002    1.283703757352136E-022
 -3.660000000000000E-002    2.107964235865410E-022
 -3.650000000000000E-002    3.202776097509741E-022
 -3.640000000000000E-002    4.476512172329144E-022
 -3.630000000000000E-002    5.652147116971544E-022
 -3.620000000000000E-002    6.154762166107197E-022
 -3.610000000000000E-002    4.982581623320291E-022
 -3.600000000000000E-002    5.880604501985732E-023
 -3.590000000000000E-002   -9.183191036113434E-022
 -3.580000000000000E-002   -2.702313065209079E-021
 -3.570000000000000E-002   -5.586543952938246E-021
 -3.560000000000000E-002   -9.825214460752465E-021
 -3.550000000000000E-002   -1.552567984235936E-020
 -3.540000000000000E-002   -2.248967305835180E-020
 -3.530000000000000E-002   -3.000519354012036E-020
 -3.520000000000000E-002   -3.660507504242732E-020
 -3.510000000000000E-002   -3.982844867413029E-020
 -3.500000000000000E-002   -3.604630695212856E-020
 -3.490000000000000E-002   -2.043919806599264E-020
 -3.480000000000000E-002    1.276190012050668E-020
 -3.470000000000000E-002    6.964888066893586E-020
 -3.460000000000000E-002    1.555109750862403E-019
 -3.450000000000000E-002    2.731387150481872E-019
 -3.440000000000000E-002    4.205678613579479E-019
 -3.430000000000000E-002    5.884015365814763E-019
 -3.420000000000000E-002    7.570195214956743E-019
 -3.410000000000000E-002    8.941848787238810E-019
 -3.400000000000000E-002    9.537613590550479E-019
 -3.390000000000000E-002    8.764207594456655E-019
 -3.380000000000000E-002    5.932927309000440E-019
 -3.370000000000000E-002    3.342919596719799E-020
 -3.360000000000000E-002   -8.643385855397001E-019
 -3.350000000000000E-002   -2.135124401845567E-018
 -3.340000000000000E-002   -3.768093929314618E-018
 -3.330000000000000E-002   -5.684820773698755E-018
 -3.320000000000000E-002   -7.718973518405680E-018
 -3.310000000000000E-002   -9.601605607436710E-018
 -3.300000000000000E-002   -1.095726995633864E-017
 -3.290000000000000E-002   -1.131657843174975E-017
 -3.280000000000000E-002   -1.015039395129628E-017
 -3.270000000000000E-002   -6.929295575094011E-018
 -3.260000000000000E-002   -1.209086573922166E-018
 -3.250000000000000E-002    7.261028323428101E-018
 -3.240000000000000E-002    1.841627387171679E-017
 -3.230000000000000E-002    3.175468238652814E-017
 -3.220000000000000E-002    4.623628308372717E-017
 -3.210000000000000E-002    6.022781680151722E-017
 -3.200000000000000E-002    7.151968024498532E-017
 -3.190000000000000E-002    7.744006567426950E-017
 -3.180000000000000E-002    7.508468333521742E-017
 -3.170000000000000E-002    6.166846014373850E-017
 -3.160000000000000E-002    3.498824717565715E-017
 -3.150000000000000E-002   -6.036169488971285E-018
 -3.140000000000000E-002   -6.079947327916042E-017
 -3.130000000000000E-002   -1.265064649840385E-016
 -3.120000000000000E-002   -1.978239894341074E-016
 -3.110000000000000E-002   -2.667956621756577E-016
 -3.100000000000000E-002   -3.231207844020007E-016
 -3.090000000000000E-002   -3.548751689591814E-016
 -3.080000000000000E-002   -3.497092310315383E-016
 -3.070000000000000E-002   -2.964961531934234E-016
 -3.060000000000000E-002   -1.873261482824562E-016
 -3.050000000000000E-002   -1.965711854508972E-017
 -3.040000000000000E-002    2.016495124638345E-016
 -3.030000000000000E-002    4.627448564119194E-016
 -3.020000000000000E-002    7.400308404935097E-016
 -3.010000000000000E-002    1.000578511837262E-015
 -3.000000000000000E-002    1.204013575000184E-015
 -2.990000000000000E-002    1.306022701286450E-015
 -2.980000000000000E-002    1.263438794326146E-015
 -2.970000000000000E-002    1.040619799223408E-015
 -2.960000000000000E-002    6.165663856600109E-016
 -2.950000000000000E-002   -8.038124656332283E-018
 -2.940000000000000E-002   -8.048946032797247E-016
 -2.930000000000000E-002   -1.714410360257126E-015
 -2.920000000000000E-002   -2.645408438053882E-015
 -2.910000000000000E-002   -3.479171935755654E-015
 -2.900000000000000E-002   -4.078397926245669E-015
 -2.890000000000000E-002   -4.301088914833601E-015
 -2.880000000000000E-002   -4.018716141132453E-015
 -2.870000000000000E-002   -3.137215009962369E-015
 -2.860000000000000E-002   -1.618611496237335E-015
 -2.850000000000000E-002    4.995580283819491E-016
 -2.840000000000000E-002    3.090264929675305E-015
 -2.830000000000000E-002    5.931707388067071E-015
 -2.820000000000000E-002    8.713583601144090E-015
 -2.810000000000000E-002    1.105684972782122E-014
 -2.800000000000000E-002    1.254751576298028E-014
 -2.790000000000000E-002    1.278321982419805E-014
 -2.780000000000000E-002    1.142930772087299E-014
 -2.770000000000000E-002    8.279087903087509E-015
 -2.760000000000000E-002    3.311163860772666E-015
 -2.750000000000000E-002   -3.264455690190989E-015
 -2.740000000000000E-002   -1.098012786997470E-014
 -2.730000000000000E-002   -1.911211336409397E-014
 -2.720000000000000E-002   -2.671582477181991E-014
 -2.710000000000000E-002   -3.269754462747770E-014
 -2.700000000000000E-002   -3.592113450073958E-014
 -2.690000000000000E-002   -3.534341566151219E-014
 -2.680000000000000E-002   -3.016679227045561E-014
 -2.670000000000000E-002   -1.999315043611728E-014
 -2.660000000000000E-002   -4.959621945577968E-015
 -2.650000000000000E-002    1.416472395703968E-014
 -2.640000000000000E-002    3.594135306792341E-014
 -2.630000000000000E-002    5.830038858695974E-014
 -2.620000000000000E-002    7.866443200084152E-014
 -2.610000000000000E-002    9.415924678385705E-014
 -2.600000000000000E-002    1.019017562739094E-013
 -2.590000000000000E-002    9.934436150427649E-014
 -2.580000000000000E-002    8.464379587835268E-014
 -2.570000000000000E-002    5.701393199481292E-014
 -2.560000000000000E-002    1.701674955390126E-014
 -2.550000000000000E-002   -3.325459721078991E-014
 -2.540000000000000E-002   -9.014154100557316E-014
 -2.530000000000000E-002   -1.485641823005110E-013
 -2.520000000000000E-002   -2.023566184296930E-013
 -2.510000000000000E-002   -2.447852722320713E-013
 -2.500000000000000E-002   -2.692186825677810E-013
 -2.490000000000000E-002   -2.698939590925154E-013
 -2.480000000000000E-002   -2.427051268679761E-013
 -2.470000000000000E-002   -1.859243649793276E-013
 -2.460000000000000E-002   -1.007618497290679E-013
 -2.450000000000000E-002    8.324995449451007E-015
 -2.440000000000000E-002    1.336453044797561E-013
 -2.430000000000000E-002    2.646566001648795E-013
 -2.420000000000000E-002    3.887223430412010E-013
 -2.410000000000000E-002    4.922103943621799E-013
 -2.400000000000000E-002    5.618525371627661E-013
 -2.390000000000000E-002    5.862443825323006E-013
 -2.380000000000000E-002    5.573326278601008E-013
 -2.370000000000000E-002    4.717183757859342E-013
 -2.360000000000000E-002    3.316046581741134E-013
 -2.350000000000000E-002    1.452357707481840E-013
 -2.340000000000000E-002   -7.328418421642993E-014
 -2.330000000000000E-002   -3.048481642100404E-013
 -2.320000000000000E-002   -5.268628959522377E-013
 -2.310000000000000E-002   -7.153317411755086E-013
 -2.300000000000000E-002   -8.473352522936816E-013
 -2.290000000000000E-002   -9.036757660363779E-013
 -2.280000000000000E-002   -8.714081895423348E-013
 -2.270000000000000E-002   -7.459601762031299E-013
 -2.260000000000000E-002   -5.325596312279876E-013
 -2.250000000000000E-002   -2.467334696151817E-013
 -2.240000000000000E-002    8.627887741410266E-014
 -2.230000000000000E-002    4.332493827046683E-013
 -2.220000000000000E-002    7.557553353202124E-013
 -2.210000000000000E-002    1.013849534718483E-012
 -2.200000000000000E-002    1.170297716878144E-012
 -2.190000000000000E-002    1.194983062860442E-012
 -2.180000000000000E-002    1.069016876095051E-012
 -2.170000000000000E-002    7.880858306180686E-013
 -2.160000000000000E-002    3.645987557779175E-013
 -2.150000000000000E-002   -1.717140330616311E-013
 -2.140000000000000E-002   -7.749675846361155E-013
 -2.130000000000000E-002   -1.386106652387587E-012
 -2.120000000000000E-002   -1.937578219818145E-012
 -2.110000000000000E-002   -2.359374749180339E-012
 -2.100000000000000E-002   -2.585965611874084E-012
 -2.090000000000000E-002   -2.563503443590905E-012
 -2.080000000000000E-002   -2.256610589465686E-012
 -2.070000000000000E-002   -1.654036514490966E-012
 -2.060000000000000E-002   -7.725290201823205E-013
 -2.050000000000000E-002    3.416202566271222E-013
 -2.040000000000000E-002    1.613717007802192E-012
 -2.030000000000000E-002    2.944626888232800E-012
 -2.020000000000000E-002    4.217444219165940E-012
 -2.010000000000000E-002    5.306488064914420E-012
 -2.000000000000000E-002    6.088013976974079E-012
 -1.990000000000000E-002    6.451813510913013E-012
 -1.980000000000000E-002    6.312739197974272E-012
 -1.970000000000000E-002    5.621111751053877E-012
 -1.960000000000000E-002    4.370979812525486E-012
 -1.950000000000000E-002    2.605299822199561E-012
 -1.940000000000000E-002    4.172840891344892E-013
 -1.930000000000000E-002   -2.052576096776449E-012
 -1.920000000000000E-002   -4.623985366269096E-012
 -1.910000000000000E-002   -7.088627443092374E-012
 -1.900000000000000E-002   -9.225679411100664E-012
 -1.890000000000000E-002   -1.082011267810486E-011
 -1.880000000000000E-002   -1.168248423785937E-011
 -1.870000000000000E-002   -1.166865298728419E-011
 -1.860000000000000E-002   -1.069767702571682E-011
 -1.850000000000000E-002   -8.766086782723136E-012
 -1.840000000000000E-002   -5.956812725106491E-012
 -1.830000000000000E-002   -2.441303192069462E-012
 -1.820000000000000E-002    1.526237937444420E-012
 -1.810000000000000E-002    5.622978383844708E-012
 -1.800000000000000E-002    9.479754077223744E-012
 -1.790000000000000E-002    1.271054454759972E-011
 -1.780000000000000E-002    1.494730919625961E-011
 -1.770000000000000E-002    1.587759168799924E-011
 -1.760000000000000E-002    1.528165839859042E-011
 -1.750000000000000E-002    1.306546605703214E-011
 -1.740000000000000E-002    9.285635374062204E-012
 -1.730000000000000E-002    4.162812917217984E-012
 -1.720000000000000E-002   -1.919564601160732E-012
 -1.710000000000000E-002   -8.433072696053090E-012
 -1.700000000000000E-002   -1.473919286368850E-011
 -1.690000000000000E-002   -2.014016646526110E-011
 -1.680000000000000E-002   -2.394282534003809E-011
 -1.670000000000000E-002   -2.553060082814094E-011
 -1.660000000000000E-002   -2.443734211283402E-011
 -1.650000000000000E-002   -2.041544916835075E-011
 -1.640000000000000E-002   -1.349033684661108E-011
 -1.630000000000000E-002   -3.993563323691979E-012
 -1.620000000000000E-002    7.431835805343413E-012
 -1.610000000000000E-002    1.985816743382329E-011
 -1.600000000000000E-002    3.213353775071044E-011
 -1.590000000000000E-002    4.297394849139899E-011
 -1.580000000000000E-002    5.108129357871517E-011
 -1.570000000000000E-002    5.527796216390265E-011
 -1.560000000000000E-002    5.464555489817575E-011
 -1.550000000000000E-002    4.865323061343103E-011
 -1.540000000000000E-002    3.726043914373904E-011
 -1.530000000000000E-002    2.097953862913118E-011
 -1.520000000000000E-002    8.865556857781069E-013
 -1.510000000000000E-002   -2.142750000638425E-011
 -1.500000000000000E-002   -4.396667892010968E-011
 -1.490000000000000E-002   -6.449670129312051E-011
 -1.480000000000000E-002   -8.075669501088416E-011
 -1.470000000000000E-002   -9.069796634248312E-011
 -1.460000000000000E-002   -9.272664181957664E-011
 -1.450000000000000E-002   -8.592397424139459E-011
 -1.440000000000000E-002   -7.021733195956531E-011
 -1.430000000000000E-002   -4.647752160905028E-011
 -1.420000000000000E-002   -1.652340068179767E-011
 -1.410000000000000E-002    1.697692864600499E-011
 -1.400000000000000E-002    5.070871838810882E-011
 -1.390000000000000E-002    8.100579775634209E-011
 -1.380000000000000E-002    1.042156513762822E-010
 -1.370000000000000E-002    1.171012769744513E-010
 -1.360000000000000E-002    1.172393477545577E-010
 -1.350000000000000E-002    1.033701264727421E-010
 -1.340000000000000E-002    7.565541400696174E-011
 -1.330000000000000E-002    3.580680078428782E-011
 -1.320000000000000E-002   -1.294323138094667E-011
 -1.310000000000000E-002   -6.603972745165618E-011
 -1.300000000000000E-002   -1.179681646562320E-010
 -1.290000000000000E-002   -1.627579641538358E-010
 -1.280000000000000E-002   -1.945848220645685E-010
 -1.270000000000000E-002   -2.084152997736251E-010
 -1.260000000000000E-002   -2.006270840526627E-010
 -1.250000000000000E-002   -1.695347564355618E-010
 -1.240000000000000E-002   -1.157553433365231E-010
 -1.230000000000000E-002   -4.235930226314202E-011
 -1.220000000000000E-002    4.522822598729114E-011
 -1.210000000000000E-002    1.395869705727155E-010
 -1.200000000000000E-002    2.319049635622667E-010
 -1.190000000000000E-002    3.127811778137671E-010
 -1.180000000000000E-002    3.731566558974643E-010
 -1.170000000000000E-002    4.052846255397160E-010
 -1.160000000000000E-002    4.036373908513070E-010
 -1.150000000000000E-002    3.656483148410735E-010
 -1.140000000000000E-002    2.921961189306356E-010
 -1.130000000000000E-002    1.877606402744682E-010
 -1.120000000000000E-002    6.020938375569387E-011
 -1.110000000000000E-002   -7.978825449701123E-011
 -1.100000000000000E-002   -2.196821315076451E-010
 -1.090000000000000E-002   -3.462219634579304E-010
 -1.080000000000000E-002   -4.467874414008218E-010
 -1.070000000000000E-002   -5.107352878387983E-010
 -1.060000000000000E-002   -5.306188118195910E-010
 -1.050000000000000E-002   -5.031412524554817E-010
 -1.040000000000000E-002   -4.297231037579518E-010
 -1.030000000000000E-002   -3.165987005474975E-010
 -1.020000000000000E-002   -1.744032305589549E-010
 -1.010000000000000E-002   -1.726392137842157E-011
 -1.000000000000000E-002    1.385356434702235E-010
 -9.899999999999999E-003    2.761984414789461E-010
 -9.800000000000000E-003    3.802049009085449E-010
 -9.699999999999999E-003    4.380651317655702E-010
 -9.599999999999999E-003    4.418414858090147E-010
 -9.500000000000000E-003    3.892624855608162E-010
 -9.399999999999999E-003    2.842835948459346E-010
 -9.299999999999999E-003    1.370026000445366E-010
 -9.200000000000000E-003   -3.709851917779812E-011
 -9.099999999999999E-003   -2.185420094537886E-010
 -8.999999999999999E-003   -3.857592468736073E-010
 -8.900000000000000E-003   -5.173364528015500E-010
 -8.799999999999999E-003   -5.943786804916512E-010
 -8.699999999999999E-003   -6.027454759601103E-010
 -8.600000000000000E-003   -5.349107445663424E-010
 -8.499999999999999E-003   -3.912275811606466E-010
 -8.399999999999999E-003   -1.804288957870881E-010
 -8.300000000000000E-003    8.073211335097135E-011
 -8.199999999999999E-003    3.687122976243662E-010
 -8.100000000000000E-003    6.551984584597381E-010
 -8.000000000000000E-003    9.097495514128971E-010
 -7.899999999999999E-003    1.102819010936445E-009
 -7.800000000000000E-003    1.208865447413318E-009
 -7.699999999999999E-003    1.209234106039348E-009
 -7.599999999999999E-003    1.094502481292069E-009
 -7.499999999999999E-003    8.660226575716103E-010
 -7.399999999999999E-003    5.364639713114425E-010
 -7.299999999999999E-003    1.292519622122839E-010
 -7.199999999999999E-003   -3.230916517304820E-010
 -7.100000000000000E-003   -7.815931434100120E-010
 -6.999999999999999E-003   -1.204235517203729E-009
 -6.899999999999999E-003   -1.549827539388684E-009
 -6.800000000000000E-003   -1.781970195787025E-009
 -6.699999999999999E-003   -1.872735872622099E-009
 -6.599999999999999E-003   -1.805688962208291E-009
 -6.499999999999999E-003   -1.577930460208580E-009
 -6.399999999999999E-003   -1.200932243261352E-009
 -6.299999999999999E-003   -7.000420746025161E-010
 -6.199999999999999E-003   -1.126626345425578E-010
 -6.100000000000000E-003    5.147595198605883E-010
 -5.999999999999999E-003    1.130680532636047E-009
 -5.899999999999999E-003    1.682989229563820E-009
 -5.800000000000000E-003    2.123701925154442E-009
 -5.699999999999999E-003    2.413377978142304E-009
 -5.599999999999999E-003    2.524828296035898E-009
 -5.499999999999999E-003    2.445748181067071E-009
 -5.399999999999999E-003    2.180000969033906E-009
 -5.299999999999999E-003    1.747405899263873E-009
 -5.199999999999999E-003    1.182022404195145E-009
 -5.099999999999999E-003    5.290727586551248E-010
 -4.999999999999999E-003   -1.592231756136986E-010
 -4.899999999999999E-003   -8.285133884046730E-010
 -4.799999999999999E-003   -1.427417423354277E-009
 -4.699999999999999E-003   -1.912369619320129E-009
 -4.599999999999999E-003   -2.251722722021448E-009
 -4.499999999999999E-003   -2.428688048744598E-009
 -4.399999999999999E-003   -2.442798292199848E-009
 -4.299999999999999E-003   -2.309713323784888E-009
 -4.199999999999999E-003   -2.059348217258743E-009
 -4.099999999999999E-003   -1.732471216376873E-009
 -3.999999999999999E-003   -1.376073136124540E-009
 -3.899999999999999E-003   -1.037944085592311E-009
 -3.799999999999999E-003   -7.609877703761843E-010
 -3.699999999999999E-003   -5.778516220795902E-010
 -3.599999999999999E-003   -5.064423799515649E-010
 -3.499999999999999E-003   -5.468346919343054E-010
 -3.399999999999999E-003   -6.799677888728623E-010
 -3.299999999999999E-003   -8.683666223857931E-010
 -3.199999999999999E-003   -1.058935164526781E-009
 -3.099999999999999E-003   -1.187674115935701E-009
 -2.999999999999999E-003   -1.185971633738600E-009
 -2.899999999999999E-003   -9.879491170437304E-010
 -2.799999999999999E-003   -5.382124403680548E-010
 -2.699999999999999E-003    2.007259654696819E-010
 -2.599999999999999E-003    1.242089348040246E-009
 -2.499999999999999E-003    2.570232480734389E-009
 -2.399999999999999E-003    4.138346107012763E-009
 -2.299999999999999E-003    5.868850573012461E-009
 -2.199999999999999E-003    7.656625116091669E-009
 -2.099999999999999E-003    9.374971477689536E-009
 -1.999999999999999E-003    1.088394748363473E-008
 -1.899999999999999E-003    1.204047823001994E-008
 -1.799999999999999E-003    1.270946208432325E-008
 -1.699999999999999E-003    1.277496059268601E-008
 -1.599999999999999E-003    1.215051906665615E-008
 -1.499999999999999E-003    1.078771089564843E-008
 -1.399999999999999E-003    8.682129568574748E-009
 -1.299999999999999E-003    5.876263765731826E-009
 -1.199999999999999E-003    2.458977465057678E-009
 -1.099999999999999E-003   -1.438376519632322E-009
 -9.999999999999989E-004   -5.648853787476082E-009
 -8.999999999999990E-004   -9.979151140488615E-009
 -7.999999999999990E-004   -1.422026090539303E-008
 -6.999999999999989E-004   -1.815845160383704E-008
 -5.999999999999990E-004   -2.158540809708858E-008
 -4.999999999999989E-004   -2.430641069434764E-008
 -3.999999999999989E-004   -2.614558034497785E-008
 -2.999999999999989E-004   -2.694749897170072E-008
 -1.999999999999989E-004   -2.657482788646276E-008
 -9.999999999999892E-005   -2.490198336057157E-008
  1.084202172485504E-018   -2.180530339824025E-008
  1.000000000000011E-004   -1.715058422435859E-008
  2.000000000000011E-004   -1.077909305572790E-008
  3.000000000000011E-004   -2.493472924688807E-009
  4.000000000000011E-004    7.955010534060130E-009
  5.000000000000011E-004    2.087649614781517E-008
  6.000000000000011E-004    3.664856951979879E-008
  7.000000000000011E-004    5.571759455676146E-008
  8.000000000000011E-004    7.859478823352800E-008
  9.000000000000012E-004    1.058471961278015E-007
  1.000000000000001E-003    1.380842113571051E-007
  1.100000000000001E-003    1.759406970266080E-007
  1.200000000000001E-003    2.200581302174474E-007
  1.300000000000001E-003    2.710656790239631E-007
  1.400000000000001E-003    3.295629978323129E-007
  1.500000000000001E-003    3.961063561469652E-007
  1.600000000000001E-003    4.711998735024682E-007
  1.700000000000001E-003    5.552925948803193E-007
  1.800000000000001E-003    6.487823090076740E-007
  1.900000000000001E-003    7.520258032769947E-007
  2.000000000000001E-003    8.653547969153009E-007
  2.100000000000001E-003    9.890963926685701E-007
  2.200000000000001E-003    1.123596338345516E-006
  2.300000000000001E-003    1.269243266370574E-006
  2.400000000000001E-003    1.426490975174985E-006
  2.500000000000001E-003    1.595877726425303E-006
  2.600000000000001E-003    1.778040355185272E-006
  2.700000000000001E-003    1.973722034868577E-006
  2.800000000000001E-003    2.183773267270892E-006
  2.900000000000001E-003    2.409146278649531E-006
  3.000000000000001E-003    2.650882121381206E-006
  3.100000000000001E-003    2.910095763522606E-006
  3.200000000000001E-003    3.187956006282130E-006
  3.300000000000001E-003    3.485666010426591E-006
  3.400000000000001E-003    3.804446191865777E-006
  3.500000000000001E-003    4.145520068764766E-006
  3.600000000000001E-003    4.510106374102360E-006
  3.700000000000001E-003    4.899419317894644E-006
  3.800000000000001E-003    5.314672816039529E-006
  3.900000000000001E-003    5.757096092545580E-006
  4.000000000000001E-003    6.227952591510370E-006
  4.100000000000001E-003    6.728565945820908E-006
  4.200000000000001E-003    7.260345829493544E-006
  4.300000000000001E-003    7.824815846311439E-006
  4.400000000000001E-003    8.423640615540260E-006
  4.500000000000001E-003    9.058645247480648E-006
  4.600000000000002E-003    9.731831336294645E-006
  4.700000000000001E-003    1.044538545415981E-005
  4.800000000000001E-003    1.120167743205257E-005
  4.900000000000002E-003    1.200325885542549E-005
  5.000000000000001E-003    1.285284689740083E-005
  5.100000000000001E-003    1.375330730081889E-005
  5.200000000000001E-003    1.470764129334600E-005
  5.300000000000002E-003    1.571896047645716E-005
  5.400000000000001E-003    1.679047932407157E-005
  5.500000000000001E-003    1.792550127387387E-005
  5.600000000000002E-003    1.912742047464876E-005
  5.700000000000001E-003    2.039972390558719E-005
  5.800000000000001E-003    2.174600910570218E-005
  5.900000000000002E-003    2.317000895174133E-005
  6.000000000000001E-003    2.467561812494802E-005
  6.100000000000001E-003    2.626692941721389E-005
  6.200000000000002E-003    2.794827415907705E-005
  6.300000000000002E-003    2.972425769826749E-005
  6.400000000000001E-003    3.159979528655592E-005
  6.500000000000001E-003    3.358014176333175E-005
  6.600000000000002E-003    3.567091666312431E-005
  6.700000000000001E-003    3.787811967403160E-005
  6.800000000000001E-003    4.020813099760598E-005
  6.900000000000002E-003    4.266772008065280E-005
  7.000000000000001E-003    4.526402838535538E-005
  7.100000000000001E-003    4.800455960286144E-005
  7.200000000000002E-003    5.089715980796660E-005
  7.300000000000002E-003    5.395000904061071E-005
  7.400000000000001E-003    5.717159655231049E-005
  7.500000000000001E-003    6.057070853019937E-005
  7.600000000000002E-003    6.415644933462830E-005
  7.700000000000001E-003    6.793823049436354E-005
  7.800000000000001E-003    7.192578686647247E-005
  7.900000000000001E-003    7.612922222692248E-005
  8.000000000000002E-003    8.055901815395509E-005
  8.100000000000001E-003    8.522611294075735E-005
  8.200000000000001E-003    9.014192644387968E-005
  8.300000000000002E-003    9.531841950290343E-005
  8.400000000000001E-003    1.007681441535404E-004
  8.500000000000002E-003    1.065042913276816E-004
  8.600000000000002E-003    1.125407379932070E-004
  8.700000000000001E-003    1.188920883977127E-004
  8.800000000000002E-003    1.255736681974166E-004
  8.900000000000002E-003    1.326015717184216E-004
  9.000000000000001E-003    1.399926712521144E-004
  9.100000000000002E-003    1.477646031864153E-004
  9.200000000000002E-003    1.559357741157559E-004
  9.300000000000001E-003    1.645253429937744E-004
  9.400000000000002E-003    1.735532429396602E-004
  9.500000000000001E-003    1.830401570491240E-004
  9.600000000000001E-003    1.930075447747665E-004
  9.700000000000002E-003    2.034776519419649E-004
  9.800000000000001E-003    2.144735422062586E-004
  9.900000000000001E-003    2.260191225898065E-004
  1.000000000000000E-002    2.381391923785175E-004
  1.010000000000000E-002    2.508595315731912E-004
  1.020000000000000E-002    2.642069381058236E-004
  1.030000000000000E-002    2.782092892304366E-004
  1.040000000000000E-002    2.928956204143948E-004
  1.050000000000000E-002    3.082962167041047E-004
  1.060000000000000E-002    3.244426007416604E-004
  1.070000000000000E-002    3.413676691798682E-004
  1.080000000000000E-002    3.591056325959909E-004
  1.090000000000000E-002    3.776921219095374E-004
  1.100000000000000E-002    3.971641569012846E-004
  1.110000000000000E-002    4.175601740453814E-004
  1.120000000000000E-002    4.389200199652637E-004
  1.130000000000000E-002    4.612849576174823E-004
  1.140000000000000E-002    4.846976547483987E-004
  1.150000000000000E-002    5.092021692492466E-004
  1.160000000000000E-002    5.348440718630570E-004
  1.170000000000000E-002    5.616702695067177E-004
  1.180000000000000E-002    5.897292167678391E-004
  1.190000000000000E-002    6.190709609762659E-004
  1.200000000000000E-002    6.497471713455303E-004
  1.210000000000000E-002    6.818111450281872E-004
  1.220000000000000E-002    7.153181028249622E-004
  1.230000000000000E-002    7.503250916355821E-004
  1.240000000000000E-002    7.868911809644674E-004
  1.250000000000000E-002    8.250775289399145E-004
  1.260000000000000E-002    8.649475145507550E-004
  1.270000000000000E-002    9.065666906146256E-004
  1.280000000000000E-002    9.500028491559568E-004
  1.290000000000000E-002    9.953263017303464E-004
  1.300000000000000E-002    1.042609539092095E-003
  1.310000000000000E-002    1.091927469071363E-003
  1.320000000000000E-002    1.143357274384259E-003
  1.330000000000000E-002    1.196978700588560E-003
  1.340000000000000E-002    1.252873598305915E-003
  1.350000000000000E-002    1.311126124034791E-003
  1.360000000000000E-002    1.371822989971038E-003
  1.370000000000000E-002    1.435053141563156E-003
  1.380000000000000E-002    1.500907727806365E-003
  1.390000000000000E-002    1.569480553011810E-003
  1.400000000000000E-002    1.640867803486723E-003
  1.410000000000000E-002    1.715168274432546E-003
  1.420000000000000E-002    1.792483264920601E-003
  1.430000000000000E-002    1.872916856245471E-003
  1.440000000000000E-002    1.956576017599504E-003
  1.450000000000000E-002    2.043570554734904E-003
  1.460000000000000E-002    2.134013417491486E-003
  1.470000000000000E-002    2.228020186083587E-003
  1.480000000000000E-002    2.325709765132849E-003
  1.490000000000000E-002    2.427204226600346E-003
  1.500000000000000E-002    2.532628318259846E-003
  1.510000000000000E-002    2.642110315045769E-003
  1.520000000000000E-002    2.755781408840383E-003
  1.530000000000000E-002    2.873775641437242E-003
  1.540000000000000E-002    2.996230740539929E-003
  1.550000000000000E-002    3.123286442587249E-003
  1.560000000000000E-002    3.255085966957789E-003
  1.570000000000000E-002    3.391775729739051E-003
  1.580000000000000E-002    3.533504482645106E-003
  1.590000000000000E-002    3.680424652994378E-003
  1.600000000000000E-002    3.832691051736731E-003
  1.610000000000000E-002    3.990461642910667E-003
  1.620000000000000E-002    4.153897406973459E-003
  1.630000000000000E-002    4.323162486275516E-003
  1.640000000000000E-002    4.498424152988749E-003
  1.650000000000000E-002    4.679852220911280E-003
  1.660000000000000E-002    4.867619994633331E-003
  1.670000000000000E-002    5.061903721093547E-003
  1.680000000000000E-002    5.262883138546255E-003
  1.690000000000000E-002    5.470739790919227E-003
  1.700000000000000E-002    5.685659068764336E-003
  1.710000000000000E-002    5.907828871723617E-003
  1.720000000000000E-002    6.137439388615237E-003
  1.730000000000000E-002    6.374684704634194E-003
  1.740000000000000E-002    6.619759608805945E-003
  1.750000000000000E-002    6.872862203091384E-003
  1.760000000000000E-002    7.134193034227258E-003
  1.770000000000000E-002    7.403953797722986E-003
  1.780000000000000E-002    7.682349423890194E-003
  1.790000000000000E-002    7.969585914134093E-003
  1.800000000000000E-002    8.265871753525444E-003
  1.810000000000000E-002    8.571415893634171E-003
  1.820000000000000E-002    8.886430012886491E-003
  1.830000000000000E-002    9.211127461998533E-003
  1.840000000000000E-002    9.545721612277170E-003
  1.850000000000000E-002    9.890428465908074E-003
  1.860000000000000E-002    1.024546399140165E-002
  1.870000000000000E-002    1.061104612755240E-002