 -4.000000000000000E-002    0.000000000000000E+000
 -3.990000000000000E-002    0.000000000000000E+000
 -3.980000000000000E-002    0.000000000000000E+000
 -3.970000000000000E-002    0.000000000000000E+000
 -3.960000000000000E-002    0.000000000000000E+000
 -3.950000000000000E-002    0.000000000000000E+000
 -3.940000000000000E-002    0.000000000000000E+000
 -3.930000000000000E-002    0.000000000000000E+000
 -3.920000000000000E-002    0.000000000000000E+000
 -3.910000000000000E-002    0.000000000000000E+000
 -3.900000000000000E-002    0.000000000000000E+000
 -3.890000000000000E-002    0.000000000000000E+000
 -3.880000000000000E-002    0.000000000000000E+000
 -3.870000000000000E-002    0.000000000000000E+000
 -3.860000000000000E-002    0.000000000000000E+000
 -3.850000000000000E-002    0.000000000000000E+000
 -3.840000000000000E-002    0.000000000000000E+000
 -3.830000000000000E-002    0.000000000000000E+000
 -3.820000000000000E-002    0.000000000000000E+000
 -3.810000000000000E-002    0.000000000000000E+000
 -3.800000000000000E-002    0.000000000000000E+000
 -3.790000000000000E-002    0.000000000000000E+000
 -3.780000000000000E-002    0.000000000000000E+000
 -3.770000000000000E-002    0.000000000000000E+000
 -3.760000000000000E-002    0.000000000000000E+000
 -3.750000000000000E-002    0.000000000000000E+000
 -3.740000000000000E-002    0.000000000000000E+000
 -3.730000000000000E-002    0.000000000000000E+000
 -3.720000000000000E-002    0.000000000000000E+000
 -3.710000000000000E-002    0.000000000000000E+000
 -3.700000000000000E-002    0.000000000000000E+000
 -3.690000000000000E-002    0.000000000000000E+000
 -3.680000000000000E-002    0.000000000000000E+000
 -3.670000000000000E-002    0.000000000000000E+000
 -3.660000000000000E-002    0.000000000000000E+000
 -3.650000000000000E-002    0.000000000000000E+000
 -3.640000000000000E-002    0.000000000000000E+000
 -3.630000000000000E-002    0.000000000000000E+000
 -3.620000000000000E-002    0.000000000000000E+000
 -3.610000000000000E-002    0.000000000000000E+000
 -3.600000000000000E-002    0.000000000000000E+000
 -3.590000000000000E-002    0.000000000000000E+000
 -3.580000000000000E-002    0.000000000000000E+000
 -3.570000000000000E-002    0.000000000000000E+000
 -3.560000000000000E-002    0.000000000000000E+000
 -3.550000000000000E-002    0.000000000000000E+000
 -3.540000000000000E-002    0.000000000000000E+000
 -3.530000000000000E-002    0.000000000000000E+000
 -3.520000000000000E-002    0.000000000000000E+000
 -3.510000000000000E-002    0.000000000000000E+000
 -3.500000000000000E-002    0.000000000000000E+000
 -3.490000000000000E-002    0.000000000000000E+000
 -3.480000000000000E-002    0.000000000000000E+000
 -3.470000000000000E-002    0.000000000000000E+000
 -3.460000000000000E-002    0.000000000000000E+000
 -3.450000000000000E-002    0.000000000000000E+000
 -3.440000000000000E-002    0.000000000000000E+000
 -3.430000000000000E-002    0.000000000000000E+000
 -3.420000000000000E-002    0.000000000000000E+000
 -3.410000000000000E-002    0.000000000000000E+000
 -3.400000000000000E-002    0.000000000000000E+000
 -3.390000000000000E-002    0.000000000000000E+000
 -3.380000000000000E-002    0.000000000000000E+000
 -3.370000000000000E-002    0.000000000000000E+000
 -3.360000000000000E-002    0.000000000000000E+000
 -3.350000000000000E-002    0.000000000000000E+000
 -3.340000000000000E-002    0.000000000000000E+000
 -3.330000000000000E-002    0.000000000000000E+000
 -3.320000000000000E-002    0.000000000000000E+000
 -3.310000000000000E-002    0.000000000000000E+000
 -3.300000000000000E-002    0.000000000000000E+000
 -3.290000000000000E-002    0.000000000000000E+000
 -3.280000000000000E-002    0.000000000000000E+000
 -3.270000000000000E-002    0.000000000000000E+000
 -3.260000000000000E-002    0.000000000000000E+000
 -3.250000000000000E-002    0.000000000000000E+000
 -3.240000000000000E-002    0.000000000000000E+000
 -3.230000000000000E-002    0.000000000000000E+000
 -3.220000000000000E-002    0.000000000000000E+000
 -3.210000000000000E-002    0.000000000000000E+000
 -3.200000000000000E-002    0.000000000000000E+000
 -3.190000000000000E-002    0.000000000000000E+000
 -3.180000000000000E-002    0.000000000000000E+000
 -3.170000000000000E-002    0.000000000000000E+000
 -3.160000000000000E-002    0.000000000000000E+000
 -3.150000000000000E-002    0.000000000000000E+000
 -3.140000000000000E-002    0.000000000000000E+000
 -3.130000000000000E-002    0.000000000000000E+000
 -3.120000000000000E-002    0.000000000000000E+000
 -3.110000000000000E-002    0.000000000000000E+000
 -3.100000000000000E-002    0.000000000000000E+000
 -3.090000000000000E-002    0.000000000000000E+000
 -3.080000000000000E-002    0.000000000000000E+000
 -3.070000000000000E-002    0.000000000000000E+000
 -3.060000000000000E-002    0.000000000000000E+000
 -3.050000000000000E-002    0.000000000000000E+000
 -3.040000000000000E-002    0.000000000000000E+000
 -3.030000000000000E-002    0.000000000000000E+000
 -3.020000000000000E-002    0.000000000000000E+000
 -3.010000000000000E-002    0.000000000000000E+000
 -3.000000000000000E-002    0.000000000000000E+000
 -2.990000000000000E-002    0.000000000000000E+000
 -2.980000000000000E-002    0.000000000000000E+000
 -2.970000000000000E-002    0.000000000000000E+000
 -2.960000000000000E-002    0.000000000000000E+000
 -2.950000000000000E-002    0.000000000000000E+000
 -2.940000000000000E-002    0.000000000000000E+000
 -2.930000000000000E-002    0.000000000000000E+000
 -2.920000000000000E-002    0.000000000000000E+000
 -2.910000000000000E-002    0.000000000000000E+000
 -2.900000000000000E-002    0.000000000000000E+000
 -2.890000000000000E-002    0.000000000000000E+000
 -2.880000000000000E-002    0.000000000000000E+000
 -2.870000000000000E-002    0.000000000000000E+000
 -2.860000000000000E-002    0.000000000000000E+000
 -2.850000000000000E-002    0.000000000000000E+000
 -2.840000000000000E-002    0.000000000000000E+000
 -2.830000000000000E-002    0.000000000000000E+000
 -2.820000000000000E-002    0.000000000000000E+000
 -2.810000000000000E-002    0.000000000000000E+000
 -2.800000000000000E-002    0.000000000000000E+000
 -2.790000000000000E-002    0.000000000000000E+000
 -2.780000000000000E-002    0.000000000000000E+000
 -2.770000000000000E-002    0.000000000000000E+000
 -2.760000000000000E-002    0.000000000000000E+000
 -2.750000000000000E-002    0.000000000000000E+000
 -2.740000000000000E-002    0.000000000000000E+000
 -2.730000000000000E-002    0.000000000000000E+000
 -2.720000000000000E-002    0.000000000000000E+000
 -2.710000000000000E-002    0.000000000000000E+000
 -2.700000000000000E-002    0.000000000000000E+000
 -2.690000000000000E-002    0.000000000000000E+000
 -2.680000000000000E-002    0.000000000000000E+000
 -2.670000000000000E-002    0.000000000000000E+000
 -2.660000000000000E-002    0.000000000000000E+000
 -2.650000000000000E-002    0.000000000000000E+000
 -2.640000000000000E-002    0.000000000000000E+000
 -2.630000000000000E-002    0.000000000000000E+000
 -2.620000000000000E-002    0.000000000000000E+000
 -2.610000000000000E-002    0.000000000000000E+000
 -2.600000000000000E-002    0.000000000000000E+000
 -2.590000000000000E-002    0.000000000000000E+000
 -2.580000000000000E-002    0.000000000000000E+000
 -2.570000000000000E-002    0.000000000000000E+000
 -2.560000000000000E-002    0.000000000000000E+000
 -2.550000000000000E-002    0.000000000000000E+000
 -2.540000000000000E-002    0.000000000000000E+000
 -2.530000000000000E-002    0.000000000000000E+000
 -2.520000000000000E-002    0.000000000000000E+000
 -2.510000000000000E-002    0.000000000000000E+000
 -2.500000000000000E-002    0.000000000000000E+000
 -2.490000000000000E-002    0.000000000000000E+000
 -2.480000000000000E-002    0.000000000000000E+000
 -2.470000000000000E-002    0.000000000000000E+000
 -2.460000000000000E-002    0.000000000000000E+000
 -2.450000000000000E-002    0.000000000000000E+000
 -2.440000000000000E-002    0.000000000000000E+000
 -2.430000000000000E-002    0.000000000000000E+000
 -2.420000000000000E-002    0.000000000000000E+000
 -2.410000000000000E-002    0.000000000000000E+000
 -2.400000000000000E-002    0.000000000000000E+000
 -2.390000000000000E-002    0.000000000000000E+000
 -2.380000000000000E-002    0.000000000000000E+000
 -2.370000000000000E-002    0.000000000000000E+000
 -2.360000000000000E-002    0.000000000000000E+000
 -2.350000000000000E-002    0.000000000000000E+000
 -2.340000000000000E-002    0.000000000000000E+000
 -2.330000000000000E-002    0.000000000000000E+000
 -2.320000000000000E-002    0.000000000000000E+000
 -2.310000000000000E-002    0.000000000000000E+000
 -2.300000000000000E-002    0.000000000000000E+000
 -2.290000000000000E-002    0.000000000000000E+000
 -2.280000000000000E-002    0.000000000000000E+000
 -2.270000000000000E-002    0.000000000000000E+000
 -2.260000000000000E-002    0.000000000000000E+000
 -2.250000000000000E-002    0.000000000000000E+000
 -2.240000000000000E-002    0.000000000000000E+000
 -2.230000000000000E-002    0.000000000000000E+000
 -2.220000000000000E-002    0.000000000000000E+000
 -2.210000000000000E-002    0.000000000000000E+000
 -2.200000000000000E-002    0.000000000000000E+000
 -2.190000000000000E-002    0.000000000000000E+000
 -2.180000000000000E-002    0.000000000000000E+000
 -2.170000000000000E-002    0.000000000000000E+000
 -2.160000000000000E-002    0.000000000000000E+000
 -2.150000000000000E-002    0.000000000000000E+000
 -2.140000000000000E-002    0.000000000000000E+000
 -2.130000000000000E-002    0.000000000000000E+000
 -2.120000000000000E-002    0.000000000000000E+000
 -2.110000000000000E-002    0.000000000000000E+000
 -2.100000000000000E-002    0.000000000000000E+000
 -2.090000000000000E-002    0.000000000000000E+000
 -2.080000000000000E-002    0.000000000000000E+000
 -2.070000000000000E-002    0.000000000000000E+000
 -2.060000000000000E-002    0.000000000000000E+000
 -2.050000000000000E-002    0.000000000000000E+000
 -2.040000000000000E-002    0.000000000000000E+000
 -2.030000000000000E-002    0.000000000000000E+000
 -2.020000000000000E-002    0.000000000000000E+000
 -2.010000000000000E-002    0.000000000000000E+000
 -2.000000000000000E-002    0.000000000000000E+000
 -1.990000000000000E-002    0.000000000000000E+000
 -1.980000000000000E-002    0.000000000000000E+000
 -1.970000000000000E-002    0.000000000000000E+000
 -1.960000000000000E-002    0.000000000000000E+000
 -1.950000000000000E-002    0.000000000000000E+000
 -1.940000000000000E-002    0.000000000000000E+000
 -1.930000000000000E-002    0.000000000000000E+000
 -1.920000000000000E-002    0.000000000000000E+000
 -1.910000000000000E-002    0.000000000000000E+000
 -1.900000000000000E-002    0.000000000000000E+000
 -1.890000000000000E-002    0.000000000000000E+000
 -1.880000000000000E-002    0.000000000000000E+000
 -1.870000000000000E-002    0.000000000000000E+000
 -1.860000000000000E-002    0.000000000000000E+000
 -1.850000000000000E-002    0.000000000000000E+000
 -1.840000000000000E-002    0.000000000000000E+000
 -1.830000000000000E-002    0.000000000000000E+000
 -1.820000000000000E-002    0.000000000000000E+000
 -1.810000000000000E-002    0.000000000000000E+000
 -1.800000000000000E-002    0.000000000000000E+000
 -1.790000000000000E-002    0.000000000000000E+000
 -1.780000000000000E-002    0.000000000000000E+000
 -1.770000000000000E-002    0.000000000000000E+000
 -1.760000000000000E-002    0.000000000000000E+000
 -1.750000000000000E-002    0.000000000000000E+000
 -1.740000000000000E-002    0.000000000000000E+000
 -1.730000000000000E-002    0.000000000000000E+000
 -1.720000000000000E-002    0.000000000000000E+000
 -1.710000000000000E-002    0.000000000000000E+000
 -1.700000000000000E-002    0.000000000000000E+000
 -1.690000000000000E-002    0.000000000000000E+000
 -1.680000000000000E-002    0.000000000000000E+000
 -1.670000000000000E-002    0.000000000000000E+000
 -1.660000000000000E-002    0.000000000000000E+000
 -1.650000000000000E-002    0.000000000000000E+000
 -1.640000000000000E-002    0.000000000000000E+000
 -1.630000000000000E-002    0.000000000000000E+000
 -1.620000000000000E-002    0.000000000000000E+000
 -1.610000000000000E-002    0.000000000000000E+000
 -1.600000000000000E-002    0.000000000000000E+000
 -1.590000000000000E-002    0.000000000000000E+000
 -1.580000000000000E-002    0.000000000000000E+000
 -1.570000000000000E-002    0.000000000000000E+000
 -1.560000000000000E-002    0.000000000000000E+000
 -1.550000000000000E-002    0.000000000000000E+000
 -1.540000000000000E-002    0.000000000000000E+000
 -1.530000000000000E-002    0.000000000000000E+000
 -1.520000000000000E-002    0.000000000000000E+000
 -1.510000000000000E-002    0.000000000000000E+000
 -1.500000000000000E-002    0.000000000000000E+000
 -1.490000000000000E-002    0.000000000000000E+000
 -1.480000000000000E-002    0.000000000000000E+000
 -1.470000000000000E-002    0.000000000000000E+000
 -1.460000000000000E-002    0.000000000000000E+000
 -1.450000000000000E-002    0.000000000000000E+000
 -1.440000000000000E-002    0.000000000000000E+000
 -1.430000000000000E-002    0.000000000000000E+000
 -1.420000000000000E-002    0.000000000000000E+000
 -1.410000000000000E-002    0.000000000000000E+000
 -1.400000000000000E-002    0.000000000000000E+000
 -1.390000000000000E-002    0.000000000000000E+000
 -1.380000000000000E-002    0.000000000000000E+000
 -1.370000000000000E-002    0.000000000000000E+000
 -1.360000000000000E-002    0.000000000000000E+000
 -1.350000000000000E-002    0.000000000000000E+000
 -1.340000000000000E-002    0.000000000000000E+000
 -1.330000000000000E-002    0.000000000000000E+000
 -1.320000000000000E-002    0.000000000000000E+000
 -1.310000000000000E-002    0.000000000000000E+000
 -1.300000000000000E-002    0.000000000000000E+000
 -1.290000000000000E-002    0.000000000000000E+000
 -1.280000000000000E-002    0.000000000000000E+000
 -1.270000000000000E-002    0.000000000000000E+000
 -1.260000000000000E-002    0.000000000000000E+000
 -1.250000000000000E-002    0.000000000000000E+000
 -1.240000000000000E-002    0.000000000000000E+000
 -1.230000000000000E-002    0.000000000000000E+000
 -1.220000000000000E-002    0.000000000000000E+000
 -1.210000000000000E-002    0.000000000000000E+000
 -1.200000000000000E-002    0.000000000000000E+000
 -1.190000000000000E-002    0.000000000000000E+000
 -1.180000000000000E-002    0.000000000000000E+000
 -1.170000000000000E-002    0.000000000000000E+000
 -1.160000000000000E-002    0.000000000000000E+000
 -1.150000000000000E-002    0.000000000000000E+000
 -1.140000000000000E-002    0.000000000000000E+000
 -1.130000000000000E-002    0.000000000000000E+000
 -1.120000000000000E-002    0.000000000000000E+000
 -1.110000000000000E-002    4.074972550369603E-048
 -1.100000000000000E-002    4.074972550369603E-048
 -1.090000000000000E-002    4.074972550369603E-048
 -1.080000000000000E-002    4.074972550369603E-048
 -1.070000000000000E-002    0.000000000000000E+000
 -1.060000000000000E-002   -5.464167714983530E-048
 -1.050000000000000E-002    1.463419072264642E-047
 -1.040000000000000E-002    1.519816025508671E-047
 -1.030000000000000E-002    1.715132495214092E-047
 -1.020000000000000E-002    1.910448964919513E-047
 -1.010000000000000E-002   -3.115676641750209E-048
 -1.000000000000000E-002   -3.404975756587504E-047
 -9.899999999999999E-003   -5.050407101444148E-047
 -9.800000000000000E-003   -6.344738144507860E-047
 -9.699999999999999E-003   -3.957799990613106E-047
 -9.599999999999999E-003   -7.196163103615813E-047
 -9.500000000000000E-003    1.001938739191371E-047
 -9.399999999999999E-003    5.025464264584353E-047
 -9.299999999999999E-003    8.593541937021955E-047
 -9.200000000000000E-003    2.200726381401667E-046
 -9.099999999999999E-003    2.776838285014980E-046
 -8.999999999999999E-003    5.889250733565647E-046
 -8.900000000000000E-003    9.353396223865166E-046
 -8.799999999999999E-003    4.303353646589761E-046
 -8.699999999999999E-003    2.087490608987197E-046
 -8.600000000000000E-003    2.012874952754703E-046
 -8.499999999999999E-003    1.076287628231028E-046
 -8.399999999999999E-003    1.159995128269524E-045
 -8.300000000000000E-003    1.069383528085784E-045
 -8.199999999999999E-003    1.703986183147437E-045
 -8.100000000000000E-003    2.127046102868408E-045
 -8.000000000000000E-003    2.153152286482241E-045
 -7.899999999999999E-003    1.870328822488825E-045
 -7.800000000000000E-003    1.133550855872671E-045
 -7.699999999999999E-003    8.012169375134404E-046
 -7.599999999999999E-003   -6.899740083672936E-047
 -7.499999999999999E-003   -1.498847920494770E-045
 -7.399999999999999E-003   -3.160088362992232E-045
 -7.299999999999999E-003   -4.570818347323603E-045
 -7.199999999999999E-003   -5.927544960536111E-045
 -7.100000000000000E-003   -7.441965581593644E-045
 -6.999999999999999E-003   -7.958571820357411E-045
 -6.899999999999999E-003   -7.072871771869941E-045
 -6.800000000000000E-003   -4.986692890319023E-045
 -6.699999999999999E-003    4.210975648568336E-046
 -6.599999999999999E-003    7.510953164930430E-045
 -6.499999999999999E-003    1.607957085076624E-044
 -6.399999999999999E-003    2.756499674697044E-044
 -6.299999999999999E-003    3.953763901082671E-044
 -6.199999999999999E-003    5.194341748401289E-044
 -6.100000000000000E-003    6.216269635035382E-044
 -5.999999999999999E-003    6.707173746974261E-044
 -5.899999999999999E-003    6.403532522179777E-044
 -5.800000000000000E-003    5.103228268133169E-044
 -5.699999999999999E-003    2.605003592747770E-044
 -5.599999999999999E-003   -1.472410114324105E-044
 -5.499999999999999E-003   -7.010486038021171E-044
 -5.399999999999999E-003   -1.397776886156873E-043
 -5.299999999999999E-003   -2.203089979715056E-043
 -5.199999999999999E-003   -3.043448606080617E-043
 -5.099999999999999E-003   -3.809071448449741E-043
 -4.999999999999999E-003   -4.368299300434187E-043
 -4.899999999999999E-003   -4.559557946327573E-043
 -4.799999999999999E-003   -4.197489812702845E-043
 -4.699999999999999E-003   -3.098615185890164E-043
 -4.599999999999999E-003   -1.123920710376745E-043
 -4.499999999999999E-003    1.812164738882843E-043
 -4.399999999999999E-003    5.696112986699304E-043
 -4.299999999999999E-003    1.038818304785955E-042
 -4.199999999999999E-003    1.557647031473516E-042
 -4.099999999999999E-003    2.074565390850166E-042
 -3.999999999999999E-003    2.520845099695369E-042
 -3.899999999999999E-003    2.809331227547553E-042
 -3.799999999999999E-003    2.838665495618602E-042
 -3.699999999999999E-003    2.505887987997965E-042
 -3.599999999999999E-003    1.714510076894057E-042
 -3.499999999999999E-003    3.931142788888585E-043
 -3.399999999999999E-003   -1.487426829761490E-042
 -3.299999999999999E-003   -3.896541430979923E-042
 -3.199999999999999E-003   -6.721792212944072E-042
 -3.099999999999999E-003   -9.755447699421633E-042
 -2.999999999999999E-003   -1.268810567979235E-041
 -2.899999999999999E-003   -1.511290564739838E-041
 -2.799999999999999E-003   -1.653753625194780E-041
 -2.699999999999999E-003   -1.641925483156175E-041
 -2.599999999999999E-003   -1.421814603697577E-041
 -2.499999999999999E-003   -9.458677013879834E-042
 -2.399999999999999E-003   -1.815936044981894E-042
 -2.299999999999999E-003    8.794813983505628E-042
 -2.199999999999999E-003    2.212872961325240E-041
 -2.099999999999999E-003    3.752829817214592E-041
 -1.999999999999999E-003    5.386576523147531E-041
 -1.899999999999999E-003    6.952439752046816E-041
 -1.799999999999999E-003    8.242856853760166E-041
 -1.699999999999999E-003    9.013838653381511E-041
 -1.599999999999999E-003    9.001942587189588E-041
 -1.499999999999999E-003    7.947632584967852E-041
 -1.399999999999999E-003    5.626598722376616E-041
 -1.299999999999999E-003    1.885434669487629E-041
 -1.199999999999999E-003   -3.319896938761535E-041
 -1.099999999999999E-003   -9.885709259588836E-041
 -9.999999999999989E-004   -1.752833857216311E-040
 -8.999999999999990E-004   -2.576076644830369E-040
 -7.999999999999990E-004   -3.388465919132810E-040
 -6.999999999999989E-004   -4.100121371071215E-040
 -5.999999999999990E-004   -4.604603428549632E-040
 -4.999999999999989E-004   -4.784827153829444E-040
 -3.999999999999989E-004   -4.521591748116766E-040
 -2.999999999999989E-004   -3.704512344473542E-040
 -1.999999999999989E-004   -2.244882092686208E-040
 -9.999999999999892E-005   -8.985240118207632E-042
  1.084202172485504E-018    2.762938879425596E-040
  1.000000000000011E-004    6.251277827291119E-040
  2.000000000000011E-004    1.023606908007564E-039
  3.000000000000011E-004    1.449180119565835E-039
  4.000000000000011E-004    1.870115847709437E-039
  5.000000000000011E-004    2.245488493100690E-039
  6.000000000000011E-004    2.525813172273796E-039
  7.000000000000011E-004    2.654476303659949E-039
  8.000000000000011E-004    2.570078028778977E-039
  9.000000000000012E-004    2.209857423359489E-039
  1.000000000000001E-003    1.514394700982152E-039
  1.100000000000001E-003    4.337384320431617E-040
  1.200000000000001E-003   -1.064873276896558E-039
  1.300000000000001E-003   -2.987653667762558E-039
  1.400000000000001E-003   -5.303352164597644E-039
  1.500000000000001E-003   -7.931187246006766E-039
  1.600000000000001E-003   -1.072834402126353E-038
  1.700000000000001E-003   -1.347840592190851E-038
  1.800000000000001E-003   -1.588252735333491E-038
  1.900000000000001E-003   -1.755602568749508E-038
  2.000000000000001E-003   -1.803362675652566E-038
  2.100000000000001E-003   -1.678698345333221E-038
  2.200000000000001E-003   -1.325836442658731E-038
  2.300000000000001E-003   -6.913945027946609E-039
  2.400000000000001E-003    2.681170805118095E-039
  2.500000000000001E-003    1.576589963100843E-038
  2.600000000000001E-003    3.226730340137500E-038
  2.700000000000001E-003    5.167287509871753E-038
  2.800000000000001E-003    7.290352887701870E-038
  2.900000000000001E-003    9.420477938030889E-038
  3.000000000000001E-003    1.130797688305345E-037
  3.100000000000001E-003    1.262914703098957E-037
  3.200000000000001E-003    1.299642476189489E-037
  3.300000000000001E-003    1.198133878811577E-037
  3.400000000000001E-003    9.152617161784939E-038
  3.500000000000001E-003    4.130540999334675E-038
  3.600000000000001E-003   -3.343023934171441E-038
  3.700000000000001E-003   -1.332203851570849E-037
  3.800000000000001E-003   -2.556716408047458E-037
  3.900000000000001E-003   -3.945960480460944E-037
  4.000000000000001E-003   -5.393066706600594E-037
  4.100000000000001E-003   -6.742273821021571E-037
  4.200000000000001E-003   -7.789927692602474E-037
  4.300000000000001E-003   -8.292153876248122E-037
  4.400000000000001E-003   -7.980737738862554E-037
  4.500000000000001E-003   -6.588257812858267E-037
  4.600000000000002E-003   -3.882624140634649E-037
  4.700000000000001E-003    2.900132647279086E-038
  4.800000000000001E-003    5.956523807958637E-037
  4.900000000000002E-003    1.296649250049344E-036
  5.000000000000001E-003    2.094637930734945E-036
  5.100000000000001E-003    2.926577235780237E-036
  5.200000000000001E-003    3.702451995286924E-036
  5.300000000000002E-003    4.306988697865564E-036
  5.400000000000001E-003    4.605226013491122E-036
  5.500000000000001E-003    4.452573811457875E-036
  5.600000000000002E-003    3.709642645481173E-036
  5.700000000000001E-003    2.261585945619268E-036
  5.800000000000001E-003    4.104201615411644E-038
  5.900000000000002E-003   -2.947046957932522E-036
  6.000000000000001E-003   -6.601273287106915E-036
  6.100000000000001E-003   -1.070357449878970E-035
  6.200000000000002E-003   -1.490693761341102E-035
  6.300000000000002E-003   -1.873518955568549E-035
  6.400000000000001E-003   -2.159899917017979E-035
  6.500000000000001E-003   -2.283133187188346E-035
  6.600000000000002E-003   -2.174438765649470E-035
  6.700000000000001E-003   -1.770779250804138E-035
  6.800000000000001E-003   -1.024514141099600E-035
  6.900000000000002E-003    8.573519833968451E-037
  7.000000000000001E-003    1.543977841621249E-035
  7.100000000000001E-003    3.286823526602146E-035
  7.200000000000002E-003    5.196133838377753E-035
  7.300000000000002E-003    7.096101958468876E-035
  7.400000000000001E-003    8.756545441963443E-035
  7.500000000000001E-003    9.903918579258763E-035
  7.600000000000002E-003    1.024111418882320E-034
  7.700000000000001E-003    9.476270588133239E-035
  7.800000000000001E-003    7.359843969742767E-035
  7.900000000000001E-003    3.727862989439365E-035
  8.000000000000002E-003   -1.452085414101062E-035
  8.100000000000001E-003   -8.036969689628181E-035
  8.200000000000001E-003   -1.567255871505662E-034
  8.300000000000002E-003   -2.377261541842140E-034
  8.400000000000001E-003   -3.152007860906418E-034
  8.500000000000002E-003   -3.789658055364479E-034
  8.600000000000002E-003   -4.174510066444675E-034
  8.700000000000001E-003   -4.186776166378387E-034
  8.800000000000002E-003   -3.715724368374185E-034
  8.900000000000002E-003   -2.675551859627519E-034
  9.000000000000001E-003   -1.022851819076632E-034
  9.100000000000002E-003    1.225977486762355E-034
  9.200000000000002E-003    3.979510527900512E-034
  9.300000000000001E-003    7.060732355534890E-034
  9.400000000000002E-003    1.020371199964072E-033
  9.500000000000001E-003    1.305998092148730E-033
  9.600000000000001E-003    1.521655088250195E-033
  9.700000000000002E-003    1.622666011182413E-033
  9.800000000000001E-003    1.565312597493559E-033
  9.900000000000001E-003    1.312251922048833E-033
  1.000000000000000E-002    8.386787201256104E-034
  1.010000000000000E-002    1.386817818658563E-034
  1.020000000000000E-002   -7.688936258941990E-034
  1.030000000000000E-002   -1.835921274724285E-033
  1.040000000000000E-002   -2.982709011399717E-033
  1.050000000000000E-002   -4.098815085301754E-033
  1.060000000000000E-002   -5.047710567912225E-033
  1.070000000000000E-002   -5.675754203257996E-033
  1.080000000000000E-002   -5.825555356577300E-033
  1.090000000000000E-002   -5.353313033436366E-033
  1.100000000000000E-002   -4.149115061155564E-033
  1.110000000000000E-002   -2.158572765875363E-033
  1.120000000000000E-002    5.963874040025515E-034
  1.130000000000000E-002    4.000275352537286E-033
  1.140000000000000E-002    7.833246790307171E-033
  1.150000000000000E-002    1.176967943858760E-032
  1.160000000000000E-002    1.538872328723678E-032
  1.170000000000000E-002    1.819859046461563E-032
  1.180000000000000E-002    1.967521001584780E-032
  1.190000000000000E-002    1.931437103278489E-032
  1.200000000000000E-002    1.669466462305854E-032
  1.210000000000000E-002    1.154653590059134E-032
  1.220000000000000E-002    3.820959485504687E-033
  1.230000000000000E-002   -6.250402705222216E-033
  1.240000000000000E-002   -1.811241622305978E-032
  1.250000000000000E-002   -3.087061454433606E-032
  1.260000000000000E-002   -4.331039620336512E-032
  1.270000000000000E-002   -5.395765098272613E-032
  1.280000000000000E-002   -6.118382181506531E-032
  1.290000000000000E-002   -6.335388636666783E-032
  1.300000000000000E-002   -5.901058981624152E-032
  1.310000000000000E-002   -4.708208349946147E-032
  1.320000000000000E-002   -2.709506405278901E-032
  1.330000000000000E-002    6.302639391216996E-034
  1.340000000000000E-002    3.482959705125996E-032
  1.350000000000000E-002    7.321636397728436E-032
  1.360000000000000E-002    1.125014383630492E-031
  1.370000000000000E-002    1.485311628537539E-031
  1.380000000000000E-002    1.765555041160777E-031
  1.390000000000000E-002    1.916250941961729E-031
  1.400000000000000E-002    1.891017809909792E-031
  1.410000000000000E-002    1.652501535661629E-031
  1.420000000000000E-002    1.178610543176959E-031
  1.430000000000000E-002    4.684279723744846E-032
  1.440000000000000E-002   -4.529236641248535E-032
  1.450000000000000E-002   -1.531272936858849E-031
  1.460000000000000E-002   -2.682989242295765E-031
  1.470000000000000E-002   -3.797782609841620E-031
  1.480000000000000E-002   -4.745126379577868E-031
  1.490000000000000E-002   -5.384347200481629E-031
  1.500000000000000E-002   -5.578059988079225E-031
  1.510000000000000E-002   -5.208142156163752E-031
  1.520000000000000E-002   -4.193023069766567E-031
  1.530000000000000E-002   -2.504592646658781E-031
  1.540000000000000E-002   -1.827695310815125E-032
  1.550000000000000E-002    2.654405022974933E-031
  1.560000000000000E-002    5.807266579566149E-031
  1.570000000000000E-002    8.999351851085476E-031
  1.580000000000000E-002    1.189177663068897E-030
  1.590000000000000E-002    1.410759561597596E-030
  1.600000000000000E-002    1.526543347147350E-030
  1.610000000000000E-002    1.502059820974931E-030
  1.620000000000000E-002    1.311059567597553E-030
  1.630000000000000E-002    9.400859131763345E-031
  1.640000000000000E-002    3.925721423314422E-031
  1.650000000000000E-002   -3.081023772683228E-031
  1.660000000000000E-002   -1.117148360403288E-030
  1.670000000000000E-002   -1.968964635731474E-030
  1.680000000000000E-002   -2.780162917571990E-030
  1.690000000000000E-002   -3.455162176259093E-030
  1.700000000000000E-002   -3.894240077182586E-030
  1.710000000000000E-002   -4.003634560817160E-030
  1.720000000000000E-002   -3.706989029738135E-030
  1.730000000000000E-002   -2.957104168722441E-030
  1.740000000000000E-002   -1.746796787966077E-030
  1.750000000000000E-002   -1.174458069942395E-031
  1.760000000000000E-002    1.836154252171833E-030
  1.770000000000000E-002    3.965882757324024E-030
  1.780000000000000E-002    6.076275854497966E-030
  1.790000000000000E-002    7.936873211909937E-030
  1.800000000000000E-002    9.300762444957042E-030
  1.810000000000000E-002    9.928457708694105E-030
  1.820000000000000E-002    9.615474002351024E-030
  1.830000000000000E-002    8.221233790529109E-030
  1.840000000000000E-002    5.696360487438145E-030
  1.850000000000000E-002    2.105002768822697E-030
  1.860000000000000E-002   -2.361177239006798E-030
  1.870000000000000E-002   -7.380513224716326E-030