 -4.000000000000000E-002    0.000000000000000E+000
 -3.990000000000000E-002    0.000000000000000E+000
 -3.980000000000000E-002    0.000000000000000E+000
 -3.970000000000000E-002    0.000000000000000E+000
 -3.960000000000000E-002    0.000000000000000E+000
 -3.950000000000000E-002    0.000000000000000E+000
 -3.940000000000000E-002    0.000000000000000E+000
 -3.930000000000000E-002    0.000000000000000E+000
 -3.920000000000000E-002    0.000000000000000E+000
 -3.910000000000000E-002    0.000000000000000E+000
 -3.900000000000000E-002    0.000000000000000E+000
 -3.890000000000000E-002    0.000000000000000E+000
 -3.880000000000000E-002    0.000000000000000E+000
 -3.870000000000000E-002    0.000000000000000E+000
 -3.860000000000000E-002    0.000000000000000E+000
 -3.850000000000000E-002    0.000000000000000E+000
 -3.840000000000000E-002    0.000000000000000E+000
 -3.830000000000000E-002    0.000000000000000E+000
 -3.820000000000000E-002    0.000000000000000E+000
 -3.810000000000000E-002    0.000000000000000E+000
 -3.800000000000000E-002    0.000000000000000E+000
 -3.790000000000000E-002    0.000000000000000E+000
 -3.780000000000000E-002    0.000000000000000E+000
 -3.770000000000000E-002    0.000000000000000E+000
 -3.760000000000000E-002    0.000000000000000E+000
 -3.750000000000000E-002    0.000000000000000E+000
 -3.740000000000000E-002    0.000000000000000E+000
 -3.730000000000000E-002    0.000000000000000E+000
 -3.720000000000000E-002    0.000000000000000E+000
 -3.710000000000000E-002    0.000000000000000E+000
 -3.700000000000000E-002    0.000000000000000E+000
 -3.690000000000000E-002    0.000000000000000E+000
 -3.680000000000000E-002    0.000000000000000E+000
 -3.670000000000000E-002    0.000000000000000E+000
 -3.660000000000000E-002    0.000000000000000E+000
 -3.650000000000000E-002    0.000000000000000E+000
 -3.640000000000000E-002    0.000000000000000E+000
 -3.630000000000000E-002    0.000000000000000E+000
 -3.620000000000000E-002    0.000000000000000E+000
 -3.610000000000000E-002    0.000000000000000E+000
 -3.600000000000000E-002    0.000000000000000E+000
 -3.590000000000000E-002    0.000000000000000E+000
 -3.580000000000000E-002    0.000000000000000E+000
 -3.570000000000000E-002    0.000000000000000E+000
 -3.560000000000000E-002   -3.468040317059860E-048
 -3.550000000000000E-002    4.799711045707316E-049
 -3.540000000000000E-002   -2.508098107918397E-048
 -3.530000000000000E-002   -1.602210924779369E-047
 -3.520000000000000E-002   -1.778231662417311E-047
 -3.510000000000000E-002   -1.942070302434596E-047
 -3.500000000000000E-002   -4.000891623456755E-047
 -3.490000000000000E-002    1.587195368555933E-046
 -3.480000000000000E-002    5.531694803180218E-046
 -3.470000000000000E-002    7.790177982736648E-046
 -3.460000000000000E-002    2.005088936192884E-045
 -3.450000000000000E-002    5.269088697764299E-045
 -3.440000000000000E-002    1.059628349514020E-044
 -3.430000000000000E-002    2.062085012003658E-044
 -3.420000000000000E-002    3.594656439345947E-044
 -3.410000000000000E-002    6.109284866918422E-044
 -3.400000000000000E-002    9.814634624856051E-044
 -3.390000000000000E-002    1.471316551618488E-043
 -3.380000000000000E-002    1.972638919180027E-043
 -3.370000000000000E-002    2.212846269824661E-043
 -3.360000000000000E-002    1.546460762990348E-043
 -3.350000000000000E-002   -1.299085413169224E-043
 -3.340000000000000E-002   -8.601885652145664E-043
 -3.330000000000000E-002   -2.409793310566367E-042
 -3.320000000000000E-002   -5.347154129358673E-042
 -3.310000000000000E-002   -1.045931252283829E-041
 -3.300000000000000E-002   -1.870610995947154E-041
 -3.290000000000000E-002   -3.103955275150960E-041
 -3.280000000000000E-002   -4.795878428139635E-041
 -3.270000000000000E-002   -6.864205293198994E-041
 -3.260000000000000E-002   -8.945336832813029E-041
 -3.250000000000000E-002   -1.016158449019375E-040
 -3.240000000000000E-002   -8.789554125345925E-041
 -3.230000000000000E-002   -1.836399527514955E-041
 -3.220000000000000E-002    1.542925224954954E-040
 -3.210000000000000E-002    4.987254821834960E-040
 -3.200000000000000E-002    1.105795184780235E-039
 -3.190000000000000E-002    2.082490691218896E-039
 -3.180000000000000E-002    3.533056467121835E-039
 -3.170000000000000E-002    5.519423998598391E-039
 -3.160000000000000E-002    7.991431691574611E-039
 -3.150000000000000E-002    1.067704861511740E-038
 -3.140000000000000E-002    1.292551158091081E-038
 -3.130000000000000E-002    1.350378951154960E-038
 -3.120000000000000E-002    1.036180408402856E-038
 -3.110000000000000E-002    4.065566736812568E-040
 -3.100000000000000E-002   -2.063786403309486E-038
 -3.090000000000000E-002   -5.815864099137914E-038
 -3.080000000000000E-002   -1.181872106569449E-037
 -3.070000000000000E-002   -2.062940462143453E-037
 -3.060000000000000E-002   -3.255578566986561E-037
 -3.050000000000000E-002   -4.733170078088230E-037
 -3.040000000000000E-002   -6.364832109406898E-037
 -3.030000000000000E-002   -7.853849529121519E-037
 -3.020000000000000E-002   -8.664740565532841E-037
 -3.010000000000000E-002   -7.948105680948216E-037
 -3.000000000000000E-002   -4.480681869726629E-037
 -2.990000000000000E-002    3.351193188614261E-037
 -2.980000000000000E-002    1.748425841930386E-036
 -2.970000000000000E-002    3.997443601654186E-036
 -2.960000000000000E-002    7.259471548266286E-036
 -2.950000000000000E-002    1.161723410959761E-035
 -2.940000000000000E-002    1.696155033783634E-035
 -2.930000000000000E-002    2.286154292436926E-035
 -2.920000000000000E-002    2.840737276786364E-035
 -2.910000000000000E-002    3.204072491918700E-035
 -2.900000000000000E-002    3.140231630175706E-035
 -2.890000000000000E-002    2.324374150126581E-035
 -2.880000000000000E-002    3.470878925010517E-036
 -2.870000000000000E-002   -3.259383991879613E-035
 -2.860000000000000E-002   -8.962954056732945E-035
 -2.850000000000000E-002   -1.713116144830346E-034
 -2.840000000000000E-002   -2.787985504849959E-034
 -2.830000000000000E-002   -4.086773805972397E-034
 -2.820000000000000E-002   -5.504242932667116E-034
 -2.810000000000000E-002   -6.835802272075015E-034
 -2.800000000000000E-002   -7.750352879145978E-034
 -2.790000000000000E-002   -7.770588383940960E-034
 -2.780000000000000E-002   -6.269787801053757E-034
 -2.770000000000000E-002   -2.496746420034154E-034
 -2.760000000000000E-002    4.357705389054872E-034
 -2.750000000000000E-002    1.503875258391807E-033
 -2.740000000000000E-002    3.003879591603131E-033
 -2.730000000000000E-002    4.933649304914681E-033
 -2.720000000000000E-002    7.206919878780980E-033
 -2.710000000000000E-002    9.616155363668237E-033
 -2.700000000000000E-002    1.179553899897216E-032
 -2.690000000000000E-002    1.319143799889476E-032
 -2.680000000000000E-002    1.305069147564535E-032
 -2.670000000000000E-002    1.043999878408828E-032
 -2.660000000000000E-002    4.311638032877788E-033
 -2.650000000000000E-002   -6.369012108601868E-033
 -2.640000000000000E-002   -2.242120106387525E-032
 -2.630000000000000E-002   -4.416573034393169E-032
 -2.620000000000000E-002   -7.106670639564202E-032
 -2.610000000000000E-002   -1.013214539018233E-031
 -2.600000000000000E-002   -1.314457052840185E-031
 -2.590000000000000E-002   -1.559292439699387E-031
 -2.580000000000000E-002   -1.670676714016953E-031
 -2.570000000000000E-002   -1.551035851858193E-031
 -2.560000000000000E-002   -1.088297574122624E-031
 -2.550000000000000E-002   -1.680526926222282E-032
 -2.540000000000000E-002    1.306896962744726E-031
 -2.530000000000000E-002    3.389041325119708E-031
 -2.520000000000000E-002    6.051262129911653E-031
 -2.510000000000000E-002    9.146810554152030E-031
 -2.500000000000000E-002    1.236858524699027E-030
 -2.490000000000000E-002    1.521472202333612E-030
 -2.480000000000000E-002    1.697020967424748E-030
 -2.470000000000000E-002    1.671667084681812E-030
 -2.460000000000000E-002    1.338387606365754E-030
 -2.450000000000000E-002    5.856492034642958E-031
 -2.440000000000000E-002   -6.853195661312212E-031
 -2.430000000000000E-002   -2.536161207639100E-030
 -2.420000000000000E-002   -4.960464733663346E-030
 -2.410000000000000E-002   -7.848205325753311E-030
 -2.400000000000000E-002   -1.094934640871161E-029
 -2.390000000000000E-002   -1.384246216638844E-029
 -2.380000000000000E-002   -1.591644995383195E-029
 -2.370000000000000E-002   -1.637526363154630E-029
 -2.360000000000000E-002   -1.427670638342386E-029
 -2.350000000000000E-002   -8.616112963421375E-030
 -2.340000000000000E-002    1.536467754272527E-030
 -2.330000000000000E-002    1.684164710830444E-029
 -2.320000000000000E-002    3.744248513275663E-029
 -2.310000000000000E-002    6.267740481883164E-029
 -2.300000000000000E-002    9.078245639638001E-029
 -2.290000000000000E-002    1.186269829773596E-028
 -2.280000000000000E-002    1.415423473229577E-028
 -2.270000000000000E-002    1.533164820214991E-028
 -2.260000000000000E-002    1.464353003683984E-028
 -2.250000000000000E-002    1.126494817679063E-028
 -2.240000000000000E-002    4.393015118758865E-029
 -2.230000000000000E-002   -6.615627259230609E-029
 -2.220000000000000E-002   -2.206766540555580E-028
 -2.210000000000000E-002   -4.172586177495726E-028
 -2.200000000000000E-002   -6.459050215814943E-028
 -2.190000000000000E-002   -8.869837410861159E-028
 -2.180000000000000E-002   -1.109785385213258E-027
 -2.170000000000000E-002   -1.272126703026737E-027
 -2.160000000000000E-002   -1.321525579532250E-027
 -2.150000000000000E-002   -1.198462427259221E-027
 -2.140000000000000E-002   -8.421475427058918E-028
 -2.130000000000000E-002   -1.990059530567839E-028
 -2.120000000000000E-002    7.662224108312434E-028
 -2.110000000000000E-002    2.057321269402817E-027
 -2.100000000000000E-002    3.632456514937660E-027
 -2.090000000000000E-002    5.390753776816323E-027
 -2.080000000000000E-002    7.161880023530671E-027
 -2.070000000000000E-002    8.701397169441505E-027
 -2.060000000000000E-002    9.694957736446753E-027
 -2.050000000000000E-002    9.774304248382553E-027
 -2.040000000000000E-002    8.547523390995540E-027
 -2.030000000000000E-002    5.644872065232238E-027
 -2.020000000000000E-002    7.797360275735395E-028
 -2.010000000000000E-002   -6.178109345291918E-027
 -2.000000000000000E-002   -1.512259832020209E-026
 -1.990000000000000E-002   -2.563371755876033E-026
 -1.980000000000000E-002   -3.691400525720001E-026
 -1.970000000000000E-002   -4.775360586746028E-026
 -1.960000000000000E-002   -5.653962470988643E-026
 -1.950000000000000E-002   -6.132506910931393E-026
 -1.940000000000000E-002   -5.996980881497362E-026
 -1.930000000000000E-002   -5.036038105938664E-026
 -1.920000000000000E-002   -3.070658826618791E-026
 -1.910000000000000E-002    9.836352639432491E-029
 -1.900000000000000E-002    4.208201837522471E-026
 -1.890000000000000E-002    9.380283226110108E-026
 -1.880000000000000E-002    1.520230108135449E-025
 -1.870000000000000E-002    2.115112601934152E-025
 -1.860000000000000E-002    2.650482612805029E-025
 -1.850000000000000E-002    3.037045696172902E-025
 -1.840000000000000E-002    3.174460133614879E-025
 -1.830000000000000E-002    2.960960190722736E-025
 -1.820000000000000E-002    2.306432129719386E-025
 -1.810000000000000E-002    1.148313550159838E-025
 -1.800000000000000E-002   -5.309246530445554E-026
 -1.790000000000000E-002   -2.686581232644095E-025
 -1.780000000000000E-002   -5.197269411310052E-025
 -1.770000000000000E-002   -7.856091623611592E-025
 -1.760000000000000E-002   -1.037049029300223E-024
 -1.750000000000000E-002   -1.237363584753741E-024
 -1.740000000000000E-002   -1.344950045636966E-024
 -1.730000000000000E-002   -1.317264052511991E-024
 -1.720000000000000E-002   -1.116191716545398E-024
 -1.710000000000000E-002   -7.145248997637138E-025
 -1.700000000000000E-002   -1.030069312808107E-025
 -1.690000000000000E-002    7.028393883082226E-025
 -1.680000000000000E-002    1.657104028741784E-024
 -1.670000000000000E-002    2.680251262897185E-024
 -1.660000000000000E-002    3.659439038422611E-024
 -1.650000000000000E-002    4.453453184682699E-024
 -1.640000000000000E-002    4.903023971927847E-024
 -1.630000000000000E-002    4.846764934373473E-024
 -1.620000000000000E-002    4.142298293999462E-024
 -1.610000000000000E-002    2.691261268249814E-024
 -1.600000000000000E-002    4.659592667181577E-025
 -1.590000000000000E-002   -2.465463915895927E-024
 -1.580000000000000E-002   -5.919243091774389E-024
 -1.570000000000000E-002   -9.585932479892812E-024
 -1.560000000000000E-002   -1.303438935349142E-023
 -1.550000000000000E-002   -1.573350604810048E-023
 -1.540000000000000E-002   -1.709406684920504E-023
 -1.530000000000000E-002   -1.653111959249811E-023
 -1.520000000000000E-002   -1.354446892437770E-023
 -1.510000000000000E-002   -7.811845445634875E-024
 -1.500000000000000E-002    7.141300807978045E-025
 -1.490000000000000E-002    1.171716553246820E-023
 -1.480000000000000E-002    2.445113105926006E-023
 -1.470000000000000E-002    3.771207691952907E-023
 -1.460000000000000E-002    4.986346273542397E-023
 -1.450000000000000E-002    5.892676886487189E-023
 -1.440000000000000E-002    6.274454494512478E-023
 -1.430000000000000E-002    5.921507720443871E-023
 -1.420000000000000E-002    4.658825323299338E-023
 -1.410000000000000E-002    2.380097875868532E-023
 -1.400000000000000E-002   -9.181062924649013E-024
 -1.390000000000000E-002   -5.105848288178677E-023
 -1.380000000000000E-002   -9.898088427281694E-023
 -1.370000000000000E-002   -1.484706494378513E-022
 -1.360000000000000E-002   -1.935373908434492E-022
 -1.350000000000000E-002   -2.270217882714888E-022
 -1.340000000000000E-002   -2.411881851464893E-022
 -1.330000000000000E-002   -2.285574000769838E-022
 -1.320000000000000E-002   -1.829390956385409E-022
 -1.310000000000000E-002   -1.005847836305564E-022
 -1.300000000000000E-002    1.865444130615666E-023
 -1.290000000000000E-002    1.703121082757334E-022
 -1.280000000000000E-002    3.446011529366818E-022
 -1.270000000000000E-002    5.261925032465256E-022
 -1.260000000000000E-002    6.946341530064920E-022
 -1.250000000000000E-002    8.255276522417882E-022
 -1.240000000000000E-002    8.925117220635649E-022
 -1.230000000000000E-002    8.700136288738737E-022
 -1.220000000000000E-002    7.366204388523257E-022
 -1.210000000000000E-002    4.788078956302630E-022
 -1.200000000000000E-002    9.465052287747485E-023
 -1.190000000000000E-002   -4.029561801753162E-022
 -1.180000000000000E-002   -9.840850560866712E-022
 -1.170000000000000E-002   -1.601107317066735E-021
 -1.160000000000000E-002   -2.190030302946440E-021
 -1.150000000000000E-002   -2.674173613221139E-021
 -1.140000000000000E-002   -2.970302919432397E-021
 -1.130000000000000E-002   -2.997064113477342E-021
 -1.120000000000000E-002   -2.685235009035696E-021
 -1.110000000000000E-002   -1.988970715531362E-021
 -1.100000000000000E-002   -8.968995046507393E-022
 -1.090000000000000E-002    5.583308236783122E-022
 -1.080000000000000E-002    2.293586303631945E-021
 -1.070000000000000E-002    4.173377371328782E-021
 -1.060000000000000E-002    6.013877479680201E-021
 -1.050000000000000E-002    7.593713018171749E-021
 -1.040000000000000E-002    8.671745148466038E-021
 -1.030000000000000E-002    9.011281614475291E-021
 -1.020000000000000E-002    8.409228517113687E-021
 -1.010000000000000E-002    6.727732436460664E-021
 -1.000000000000000E-002    3.925030748146409E-021
 -9.899999999999999E-003    8.156908479649677E-023
 -9.800000000000000E-003   -4.582837596499792E-021
 -9.699999999999999E-003   -9.704873622932238E-021
 -9.599999999999999E-003   -1.478996409241131E-020
 -9.500000000000000E-003   -1.924300030129196E-020
 -9.399999999999999E-003   -2.241780646884567E-020
 -9.299999999999999E-003   -2.368340823111238E-020
 -9.200000000000000E-003   -2.250262324120819E-020
 -9.099999999999999E-003   -1.851606307299599E-020
 -8.999999999999999E-003   -1.162249583696626E-020
 -8.900000000000000E-003   -2.044941484818753E-021
 -8.799999999999999E-003    9.628540272247728E-021
 -8.699999999999999E-003    2.243972271637767E-020
 -8.600000000000000E-003    3.509892359027745E-020
 -8.499999999999999E-003    4.607204773643227E-020
 -8.399999999999999E-003    5.371552082389279E-020
 -8.300000000000000E-003    5.645270158831480E-020
 -8.199999999999999E-003    5.297888850435593E-020
 -8.100000000000000E-003    4.247589632473649E-020
 -8.000000000000000E-003    2.481200438396747E-020
 -7.899999999999999E-003    6.997932809594959E-022
 -7.800000000000000E-003   -2.821612437251116E-020
 -7.699999999999999E-003   -5.936680854330525E-020
 -7.599999999999999E-003   -8.938099264174918E-020
 -7.499999999999999E-003   -1.143301524187099E-019
 -7.399999999999999E-003   -1.300923623432717E-019
 -7.299999999999999E-003   -1.328153524989859E-019
 -7.199999999999999E-003   -1.194426335419375E-019
 -7.100000000000000E-003   -8.825229339663369E-020
 -6.999999999999999E-003   -3.934543087875292E-020
 -6.899999999999999E-003    2.498505632370328E-020
 -6.800000000000000E-003    1.000745242096520E-019
 -6.699999999999999E-003    1.789557570010006E-019
 -6.599999999999999E-003    2.527202318211841E-019
 -6.499999999999999E-003    3.111870752035619E-019
 -6.399999999999999E-003    3.438626643645869E-019
 -6.299999999999999E-003    3.411351206077869E-019
 -6.199999999999999E-003    2.956083915663892E-019
 -6.100000000000000E-003    2.034462009678129E-019
 -5.999999999999999E-003    6.556751933882358E-020
 -5.899999999999999E-003   -1.114764915144537E-019
 -5.800000000000000E-003   -3.151117492297193E-019
 -5.699999999999999E-003   -5.269785298907882E-019
 -5.599999999999999E-003   -7.238933911628932E-019
 -5.499999999999999E-003   -8.795660548505589E-019
 -5.399999999999999E-003   -9.670176868648214E-019
 -5.299999999999999E-003   -9.615585444837403E-019
 -5.199999999999999E-003   -8.440864534697328E-019
 -5.099999999999999E-003   -6.043884202704522E-019
 -4.999999999999999E-003   -2.440669041934880E-019
 -4.899999999999999E-003    2.213166452567935E-019
 -4.799999999999999E-003    7.612728574503155E-019
 -4.699999999999999E-003    1.330920610353153E-018
 -4.599999999999999E-003    1.873246547813894E-018
 -4.499999999999999E-003    2.323151621163867E-018
 -4.399999999999999E-003    2.613152434474662E-018
 -4.299999999999999E-003    2.680399892032659E-018
 -4.199999999999999E-003    2.474463469415954E-018
 -4.099999999999999E-003    1.965146758020668E-018
 -3.999999999999999E-003    1.149469299520004E-018
 -3.899999999999999E-003    5.689120441056020E-020
 -3.799999999999999E-003   -1.248107196283528E-018
 -3.699999999999999E-003   -2.666830452169523E-018
 -3.599999999999999E-003   -4.071049286276580E-018
 -3.499999999999999E-003   -5.311699261705174E-018
 -3.399999999999999E-003   -6.231315736224897E-018
 -3.299999999999999E-003   -6.679461146337113E-018
 -3.199999999999999E-003   -6.529942769357881E-018
 -3.099999999999999E-003   -5.698236884258757E-018
 -2.999999999999999E-003   -4.157242941652259E-018
 -2.899999999999999E-003   -1.949381843396342E-018
 -2.799999999999999E-003    8.068654894549530E-019
 -2.699999999999999E-003    3.917559417860882E-018
 -2.599999999999999E-003    7.122103867507983E-018
 -2.499999999999999E-003    1.011054049732017E-017
 -2.399999999999999E-003    1.254878619360077E-017
 -2.299999999999999E-003    1.411024057051439E-017
 -2.199999999999999E-003    1.451132170338145E-017
 -2.099999999999999E-003    1.354762698580424E-017
 -1.999999999999999E-003    1.112689043455264E-017
 -1.899999999999999E-003    7.294685289503364E-018
 -1.799999999999999E-003    2.248998467552193E-018
 -1.699999999999999E-003   -3.659511115131742E-018
 -1.599999999999999E-003   -9.943668390597572E-018
 -1.499999999999999E-003   -1.601293035480212E-017
 -1.399999999999999E-003   -2.122232714084006E-017
 -1.299999999999999E-003   -2.493407022360161E-017
 -1.199999999999999E-003   -2.658683743842685E-017
 -1.099999999999999E-003   -2.576624191520475E-017
 -9.999999999999989E-004   -2.226884233838762E-017
 -8.999999999999990E-004   -1.615175924676839E-017
 -7.999999999999990E-004   -7.760414965297532E-018
 -6.999999999999989E-004    2.271739704816133E-018
 -5.999999999999990E-004    1.305535388357724E-017
 -4.999999999999989E-004    2.351004123440215E-017
 -3.999999999999989E-004    3.245930188133590E-017
 -2.999999999999989E-004    3.874904974266456E-017
 -1.999999999999989E-004    4.137985012826504E-017
 -9.999999999999892E-005    3.963992936545313E-017
  1.084202172485504E-018    3.322410168156813E-017
  1.000000000000011E-004    2.232331567096232E-017
  2.000000000000011E-004    7.670507122198755E-018
  3.000000000000011E-004   -9.468579303692451E-018
  4.000000000000011E-004   -2.736650702440279E-017
  5.000000000000011E-004   -4.396799074977370E-017
  6.000000000000011E-004   -5.708052140957547E-017
  7.000000000000011E-004   -6.460845988528758E-017
  8.000000000000011E-004   -6.481049442166951E-017
  9.000000000000012E-004   -5.655486345447885E-017
  1.000000000000001E-003   -3.954326966969871E-017
  1.100000000000001E-003   -1.447359123042462E-017
  1.200000000000001E-003    1.688604147249375E-017
  1.300000000000001E-003    5.173333887297473E-017
  1.400000000000001E-003    8.639074289677016E-017
  1.500000000000001E-003    1.165876657520173E-016
  1.600000000000001E-003    1.378534822753905E-016
  1.700000000000001E-003    1.459943977285362E-016
  1.800000000000001E-003    1.376138270888786E-016
  1.900000000000001E-003    1.106260035188453E-016
  2.000000000000001E-003    6.470483499351136E-017
  2.100000000000001E-003    1.609315314423494E-018
  2.200000000000001E-003   -7.466869100301963E-017
  2.300000000000001E-003   -1.579773147102454E-016
  2.400000000000001E-003   -2.403233763191308E-016
  2.500000000000001E-003   -3.124400843563856E-016
  2.600000000000001E-003   -3.645794367709450E-016
  2.700000000000001E-003   -3.874787953207127E-016
  2.800000000000001E-003   -3.734247465918478E-016
  2.900000000000001E-003   -3.173158492099692E-016
  3.000000000000001E-003   -2.176120476682421E-016
  3.100000000000001E-003   -7.705490341243050E-017
  3.200000000000001E-003    9.695022364950844E-017
  3.300000000000001E-003    2.923781430293259E-016
  3.400000000000001E-003    4.931108378386910E-016
  3.500000000000001E-003    6.799612313579678E-016
  3.600000000000001E-003    8.321587050638736E-016
  3.700000000000001E-003    9.292081754526702E-016
  3.800000000000001E-003    9.529849520064814E-016
  3.900000000000001E-003    8.898847621169959E-016
  4.000000000000001E-003    7.328179136734387E-016
  4.100000000000001E-003    4.828248792207752E-016
  4.200000000000001E-003    1.501008353012900E-016
  4.300000000000001E-003   -2.457524979361637E-016
  4.400000000000001E-003   -6.763734429523938E-016
  4.500000000000001E-003   -1.106237374886517E-015
  4.600000000000002E-003   -1.495165067075531E-015
  4.700000000000001E-003   -1.801608918232146E-015
  4.800000000000001E-003   -1.986487229664000E-015
  4.900000000000002E-003   -2.017252055010651E-015
  5.000000000000001E-003   -1.871819681963696E-015
  5.100000000000001E-003   -1.541953601410339E-015
  5.200000000000001E-003   -1.035702799537610E-015
  5.300000000000002E-003   -3.785408543241531E-016
  5.400000000000001E-003    3.870570028277806E-016
  5.500000000000001E-003    1.203739775534745E-015
  5.600000000000002E-003    2.003092384691212E-015
  5.700000000000001E-003    2.710949258218312E-015
  5.800000000000001E-003    3.253850266295331E-015
  5.900000000000002E-003    3.566129361071539E-015
  6.000000000000001E-003    3.596999848555815E-015
  6.100000000000001E-003    3.316937561005752E-015
  6.200000000000002E-003    2.722647590891381E-015
  6.300000000000002E-003    1.839972783935297E-015
  6.400000000000001E-003    7.242352359750960E-016
  6.500000000000001E-003   -5.422919644990791E-016
  6.600000000000002E-003   -1.855827542658768E-015
  6.700000000000001E-003   -3.099196950924612E-015
  6.800000000000001E-003   -4.152068614892926E-015
  6.900000000000002E-003   -4.902502245316344E-015
  7.000000000000001E-003   -5.258761044373979E-015
  7.100000000000001E-003   -5.160220425185863E-015
  7.200000000000002E-003   -4.586160483302206E-015
  7.300000000000002E-003   -3.561326832083294E-015
  7.400000000000001E-003   -2.157363687441733E-015
  7.500000000000001E-003   -4.895450498637493E-016
  7.600000000000002E-003    1.291322350486436E-015
  7.700000000000001E-003    3.011478942313907E-015
  7.800000000000001E-003    4.490410944115900E-015
  7.900000000000001E-003    5.559331317402947E-015
  8.000000000000002E-003    6.080226206062102E-015
  8.100000000000001E-003    5.963501568114790E-015
  8.200000000000001E-003    5.182198355500221E-015
  8.300000000000002E-003    3.780889070974329E-015
  8.400000000000001E-003    1.877725501213965E-015
  8.500000000000002E-003   -3.413302223840414E-016
  8.600000000000002E-003   -2.636327926311359E-015
  8.700000000000001E-003   -4.734605185388982E-015
  8.800000000000002E-003   -6.358051583304092E-015
  8.900000000000002E-003   -7.254063790811777E-015
  9.000000000000001E-003   -7.227260013757640E-015
  9.100000000000002E-003   -6.168565509594981E-015
  9.200000000000002E-003   -4.078186002415942E-015
  9.300000000000001E-003   -1.079226212509601E-015
  9.400000000000002E-003    2.580671714412696E-015
  9.500000000000001E-003    6.541316754489482E-015
  9.600000000000001E-003    1.035595024004151E-014
  9.700000000000002E-003    1.353013337120951E-014
  9.800000000000001E-003    1.557094141909118E-014
  9.900000000000001E-003    1.604242907511110E-014
  1.000000000000000E-002    1.462212276785423E-014
  1.010000000000000E-002    1.115264658207213E-014
  1.020000000000000E-002    5.682249997361800E-015
  1.030000000000000E-002   -1.511487524149680E-015
  1.040000000000000E-002   -9.919459796344563E-015
  1.050000000000000E-002   -1.882330821472584E-014
  1.060000000000000E-002   -2.734294373909229E-014
  1.070000000000000E-002   -3.450745194157971E-014
  1.080000000000000E-002   -3.934489931745592E-014
  1.090000000000000E-002   -4.098402267772115E-014
  1.100000000000000E-002   -3.875859841655477E-014
  1.110000000000000E-002   -3.230400530312947E-014
  1.120000000000000E-002   -2.163499335647601E-014
  1.130000000000000E-002   -7.194293397935862E-015
  1.140000000000000E-002    1.013649429875312E-014
  1.150000000000000E-002    2.906939382023997E-014
  1.160000000000000E-002    4.798780197887659E-014
  1.170000000000000E-002    6.506691226533447E-014
  1.180000000000000E-002    7.842960115820511E-014
  1.190000000000000E-002    8.632600929362847E-014
  1.200000000000000E-002    8.732139542211766E-014
  1.210000000000000E-002    8.047425393520707E-014
  1.220000000000000E-002    6.548552541909509E-014
  1.230000000000000E-002    4.280082178470314E-014
  1.240000000000000E-002    1.365014177777106E-014
  1.250000000000000E-002   -1.998564215114318E-014
  1.260000000000000E-002   -5.548602148692601E-014
  1.270000000000000E-002   -8.977693864944959E-014
  1.280000000000000E-002   -1.195808801386649E-013
  1.290000000000000E-002   -1.417126426562550E-013
  1.300000000000000E-002   -1.533958872699384E-013
  1.310000000000000E-002   -1.525710746188124E-013
  1.320000000000000E-002   -1.381630911371750E-013
  1.330000000000000E-002   -1.102780156828757E-013
  1.340000000000000E-002   -7.030251165515271E-014
  1.350000000000000E-002   -2.088663200436066E-014
  1.360000000000000E-002    3.419932399502559E-014
  1.370000000000000E-002    9.033123763489822E-014
  1.380000000000000E-002    1.424056479622711E-013
  1.390000000000000E-002    1.852948378890201E-013
  1.400000000000000E-002    2.143438858849700E-013
  1.410000000000000E-002    2.258637463854152E-013
  1.420000000000000E-002    2.175703629617081E-013
  1.430000000000000E-002    1.889209544574750E-013
  1.440000000000000E-002    1.413044827270977E-013
  1.450000000000000E-002    7.805459047481650E-014
  1.460000000000000E-002    4.268423285085444E-015
  1.470000000000000E-002   -7.356663095873701E-014
  1.480000000000000E-002   -1.481168224427654E-013
  1.490000000000000E-002   -2.118750392773045E-013
  1.500000000000000E-002   -2.579053550699303E-013
  1.510000000000000E-002   -2.805884787597438E-013
  1.520000000000000E-002   -2.762920164056700E-013
  1.530000000000000E-002   -2.438900154701533E-013
  1.540000000000000E-002   -1.850658064943139E-013
  1.550000000000000E-002   -1.043489791373883E-013
  1.560000000000000E-002   -8.860465057519797E-015
  1.570000000000000E-002    9.223195440436791E-014
  1.580000000000000E-002    1.885151130603424E-013
  1.590000000000000E-002    2.693269837053267E-013
  1.600000000000000E-002    3.248601321693809E-013
  1.610000000000000E-002    3.472661365611453E-013
  1.620000000000000E-002    3.316448824708003E-013
  1.630000000000000E-002    2.768058418927493E-013
  1.640000000000000E-002    1.857014470405437E-013
  1.650000000000000E-002    6.545960448255168E-014
  1.660000000000000E-002   -7.302249554733669E-014
  1.670000000000000E-002   -2.159182765900325E-013
  1.680000000000000E-002   -3.476945109715237E-013
  1.690000000000000E-002   -4.526207775889309E-013
  1.700000000000000E-002   -5.164324557548716E-013
  1.710000000000000E-002   -5.279850727775578E-013
  1.720000000000000E-002   -4.807258237867459E-013
  1.730000000000000E-002   -3.738107881682276E-013
  1.740000000000000E-002   -2.127208306321502E-013
  1.750000000000000E-002   -9.265901152544972E-015
  1.760000000000000E-002    2.190748125893869E-013
  1.770000000000000E-002    4.504680669563615E-013
  1.780000000000000E-002    6.606153034174002E-013
  1.790000000000000E-002    8.250698045335579E-013
  1.800000000000000E-002    9.217778760861345E-013
  1.810000000000000E-002    9.335979437097052E-013
  1.820000000000000E-002    8.505367266738983E-013
  1.830000000000000E-002    6.714431304925023E-013
  1.840000000000000E-002    4.049388800402021E-013
  1.850000000000000E-002    6.942313753314250E-014
  1.860000000000000E-002   -3.079292663118465E-013
  1.870000000000000E-002   -6.931586360480492E-013