 -4.000000000000000E-002    0.000000000000000E+000
 -3.990000000000000E-002    0.000000000000000E+000
 -3.980000000000000E-002    0.000000000000000E+000
 -3.970000000000000E-002    0.000000000000000E+000
 -3.960000000000000E-002    0.000000000000000E+000
 -3.950000000000000E-002    0.000000000000000E+000
 -3.940000000000000E-002    0.000000000000000E+000
 -3.930000000000000E-002    0.000000000000000E+000
 -3.920000000000000E-002    0.000000000000000E+000
 -3.910000000000000E-002    0.000000000000000E+000
 -3.900000000000000E-002    0.000000000000000E+000
 -3.890000000000000E-002    0.000000000000000E+000
 -3.880000000000000E-002    0.000000000000000E+000
 -3.870000000000000E-002    0.000000000000000E+000
 -3.860000000000000E-002    0.000000000000000E+000
 -3.850000000000000E-002    0.000000000000000E+000
 -3.840000000000000E-002    0.000000000000000E+000
 -3.830000000000000E-002    0.000000000000000E+000
 -3.820000000000000E-002    0.000000000000000E+000
 -3.810000000000000E-002    0.000000000000000E+000
 -3.800000000000000E-002    0.000000000000000E+000
 -3.790000000000000E-002    0.000000000000000E+000
 -3.780000000000000E-002    0.000000000000000E+000
 -3.770000000000000E-002    0.000000000000000E+000
 -3.760000000000000E-002    0.000000000000000E+000
 -3.750000000000000E-002    0.000000000000000E+000
 -3.740000000000000E-002    0.000000000000000E+000
 -3.730000000000000E-002    0.000000000000000E+000
 -3.720000000000000E-002    0.000000000000000E+000
 -3.710000000000000E-002    0.000000000000000E+000
 -3.700000000000000E-002    0.000000000000000E+000
 -3.690000000000000E-002    0.000000000000000E+000
 -3.680000000000000E-002    0.000000000000000E+000
 -3.670000000000000E-002    0.000000000000000E+000
 -3.660000000000000E-002    0.000000000000000E+000
 -3.650000000000000E-002    0.000000000000000E+000
 -3.640000000000000E-002    0.000000000000000E+000
 -3.630000000000000E-002    0.000000000000000E+000
 -3.620000000000000E-002    0.000000000000000E+000
 -3.610000000000000E-002    0.000000000000000E+000
 -3.600000000000000E-002    0.000000000000000E+000
 -3.590000000000000E-002    0.000000000000000E+000
 -3.580000000000000E-002    0.000000000000000E+000
 -3.570000000000000E-002    0.000000000000000E+000
 -3.560000000000000E-002    0.000000000000000E+000
 -3.550000000000000E-002    0.000000000000000E+000
 -3.540000000000000E-002    0.000000000000000E+000
 -3.530000000000000E-002    0.000000000000000E+000
 -3.520000000000000E-002    0.000000000000000E+000
 -3.510000000000000E-002    0.000000000000000E+000
 -3.500000000000000E-002    0.000000000000000E+000
 -3.490000000000000E-002    0.000000000000000E+000
 -3.480000000000000E-002    0.000000000000000E+000
 -3.470000000000000E-002    0.000000000000000E+000
 -3.460000000000000E-002    0.000000000000000E+000
 -3.450000000000000E-002    0.000000000000000E+000
 -3.440000000000000E-002    0.000000000000000E+000
 -3.430000000000000E-002    0.000000000000000E+000
 -3.420000000000000E-002    0.000000000000000E+000
 -3.410000000000000E-002    0.000000000000000E+000
 -3.400000000000000E-002    0.000000000000000E+000
 -3.390000000000000E-002    0.000000000000000E+000
 -3.380000000000000E-002    0.000000000000000E+000
 -3.370000000000000E-002    0.000000000000000E+000
 -3.360000000000000E-002    0.000000000000000E+000
 -3.350000000000000E-002    0.000000000000000E+000
 -3.340000000000000E-002    0.000000000000000E+000
 -3.330000000000000E-002    0.000000000000000E+000
 -3.320000000000000E-002    0.000000000000000E+000
 -3.310000000000000E-002    0.000000000000000E+000
 -3.300000000000000E-002    0.000000000000000E+000
 -3.290000000000000E-002    0.000000000000000E+000
 -3.280000000000000E-002    0.000000000000000E+000
 -3.270000000000000E-002    0.000000000000000E+000
 -3.260000000000000E-002    0.000000000000000E+000
 -3.250000000000000E-002    0.000000000000000E+000
 -3.240000000000000E-002    0.000000000000000E+000
 -3.230000000000000E-002    0.000000000000000E+000
 -3.220000000000000E-002    0.000000000000000E+000
 -3.210000000000000E-002    0.000000000000000E+000
 -3.200000000000000E-002    0.000000000000000E+000
 -3.190000000000000E-002    0.000000000000000E+000
 -3.180000000000000E-002    0.000000000000000E+000
 -3.170000000000000E-002    0.000000000000000E+000
 -3.160000000000000E-002    0.000000000000000E+000
 -3.150000000000000E-002    0.000000000000000E+000
 -3.140000000000000E-002    0.000000000000000E+000
 -3.130000000000000E-002    0.000000000000000E+000
 -3.120000000000000E-002    0.000000000000000E+000
 -3.110000000000000E-002    0.000000000000000E+000
 -3.100000000000000E-002    0.000000000000000E+000
 -3.090000000000000E-002    0.000000000000000E+000
 -3.080000000000000E-002    0.000000000000000E+000
 -3.070000000000000E-002    0.000000000000000E+000
 -3.060000000000000E-002    0.000000000000000E+000
 -3.050000000000000E-002    0.000000000000000E+000
 -3.040000000000000E-002    0.000000000000000E+000
 -3.030000000000000E-002    0.000000000000000E+000
 -3.020000000000000E-002    0.000000000000000E+000
 -3.010000000000000E-002    0.000000000000000E+000
 -3.000000000000000E-002    0.000000000000000E+000
 -2.990000000000000E-002    0.000000000000000E+000
 -2.980000000000000E-002    0.000000000000000E+000
 -2.970000000000000E-002    0.000000000000000E+000
 -2.960000000000000E-002    0.000000000000000E+000
 -2.950000000000000E-002    0.000000000000000E+000
 -2.940000000000000E-002    0.000000000000000E+000
 -2.930000000000000E-002    0.000000000000000E+000
 -2.920000000000000E-002    0.000000000000000E+000
 -2.910000000000000E-002    0.000000000000000E+000
 -2.900000000000000E-002    0.000000000000000E+000
 -2.890000000000000E-002    0.000000000000000E+000
 -2.880000000000000E-002    0.000000000000000E+000
 -2.870000000000000E-002    0.000000000000000E+000
 -2.860000000000000E-002    0.000000000000000E+000
 -2.850000000000000E-002    0.000000000000000E+000
 -2.840000000000000E-002    0.000000000000000E+000
 -2.830000000000000E-002    0.000000000000000E+000
 -2.820000000000000E-002    0.000000000000000E+000
 -2.810000000000000E-002    0.000000000000000E+000
 -2.800000000000000E-002    0.000000000000000E+000
 -2.790000000000000E-002    0.000000000000000E+000
 -2.780000000000000E-002    0.000000000000000E+000
 -2.770000000000000E-002    0.000000000000000E+000
 -2.760000000000000E-002    0.000000000000000E+000
 -2.750000000000000E-002    0.000000000000000E+000
 -2.740000000000000E-002    0.000000000000000E+000
 -2.730000000000000E-002    0.000000000000000E+000
 -2.720000000000000E-002    0.000000000000000E+000
 -2.710000000000000E-002    0.000000000000000E+000
 -2.700000000000000E-002    0.000000000000000E+000
 -2.690000000000000E-002    0.000000000000000E+000
 -2.680000000000000E-002    0.000000000000000E+000
 -2.670000000000000E-002    0.000000000000000E+000
 -2.660000000000000E-002    0.000000000000000E+000
 -2.650000000000000E-002    0.000000000000000E+000
 -2.640000000000000E-002    0.000000000000000E+000
 -2.630000000000000E-002    0.000000000000000E+000
 -2.620000000000000E-002    0.000000000000000E+000
 -2.610000000000000E-002    0.000000000000000E+000
 -2.600000000000000E-002    0.000000000000000E+000
 -2.590000000000000E-002    0.000000000000000E+000
 -2.580000000000000E-002    0.000000000000000E+000
 -2.570000000000000E-002    0.000000000000000E+000
 -2.560000000000000E-002    0.000000000000000E+000
 -2.550000000000000E-002    0.000000000000000E+000
 -2.540000000000000E-002    0.000000000000000E+000
 -2.530000000000000E-002    0.000000000000000E+000
 -2.520000000000000E-002    0.000000000000000E+000
 -2.510000000000000E-002    0.000000000000000E+000
 -2.500000000000000E-002    0.000000000000000E+000
 -2.490000000000000E-002    0.000000000000000E+000
 -2.480000000000000E-002    0.000000000000000E+000
 -2.470000000000000E-002    0.000000000000000E+000
 -2.460000000000000E-002    0.000000000000000E+000
 -2.450000000000000E-002    0.000000000000000E+000
 -2.440000000000000E-002    0.000000000000000E+000
 -2.430000000000000E-002    0.000000000000000E+000
 -2.420000000000000E-002    0.000000000000000E+000
 -2.410000000000000E-002    0.000000000000000E+000
 -2.400000000000000E-002    0.000000000000000E+000
 -2.390000000000000E-002    0.000000000000000E+000
 -2.380000000000000E-002    0.000000000000000E+000
 -2.370000000000000E-002    0.000000000000000E+000
 -2.360000000000000E-002    0.000000000000000E+000
 -2.350000000000000E-002    0.000000000000000E+000
 -2.340000000000000E-002    0.000000000000000E+000
 -2.330000000000000E-002    0.000000000000000E+000
 -2.320000000000000E-002    0.000000000000000E+000
 -2.310000000000000E-002    0.000000000000000E+000
 -2.300000000000000E-002    0.000000000000000E+000
 -2.290000000000000E-002    0.000000000000000E+000
 -2.280000000000000E-002    0.000000000000000E+000
 -2.270000000000000E-002    0.000000000000000E+000
 -2.260000000000000E-002    0.000000000000000E+000
 -2.250000000000000E-002    0.000000000000000E+000
 -2.240000000000000E-002    0.000000000000000E+000
 -2.230000000000000E-002    0.000000000000000E+000
 -2.220000000000000E-002    0.000000000000000E+000
 -2.210000000000000E-002    0.000000000000000E+000
 -2.200000000000000E-002    0.000000000000000E+000
 -2.190000000000000E-002    0.000000000000000E+000
 -2.180000000000000E-002    0.000000000000000E+000
 -2.170000000000000E-002    0.000000000000000E+000
 -2.160000000000000E-002    0.000000000000000E+000
 -2.150000000000000E-002    0.000000000000000E+000
 -2.140000000000000E-002    0.000000000000000E+000
 -2.130000000000000E-002    0.000000000000000E+000
 -2.120000000000000E-002    0.000000000000000E+000
 -2.110000000000000E-002    0.000000000000000E+000
 -2.100000000000000E-002    0.000000000000000E+000
 -2.090000000000000E-002    0.000000000000000E+000
 -2.080000000000000E-002    0.000000000000000E+000
 -2.070000000000000E-002    0.000000000000000E+000
 -2.060000000000000E-002    0.000000000000000E+000
 -2.050000000000000E-002    0.000000000000000E+000
 -2.040000000000000E-002    0.000000000000000E+000
 -2.030000000000000E-002    0.000000000000000E+000
 -2.020000000000000E-002    0.000000000000000E+000
 -2.010000000000000E-002    0.000000000000000E+000
 -2.000000000000000E-002    0.000000000000000E+000
 -1.990000000000000E-002    0.000000000000000E+000
 -1.980000000000000E-002    0.000000000000000E+000
 -1.970000000000000E-002    0.000000000000000E+000
 -1.960000000000000E-002    0.000000000000000E+000
 -1.950000000000000E-002    0.000000000000000E+000
 -1.940000000000000E-002    0.000000000000000E+000
 -1.930000000000000E-002    0.000000000000000E+000
 -1.920000000000000E-002    0.000000000000000E+000
 -1.910000000000000E-002    0.000000000000000E+000
 -1.900000000000000E-002    0.000000000000000E+000
 -1.890000000000000E-002    0.000000000000000E+000
 -1.880000000000000E-002    0.000000000000000E+000
 -1.870000000000000E-002    0.000000000000000E+000
 -1.860000000000000E-002    0.000000000000000E+000
 -1.850000000000000E-002    0.000000000000000E+000
 -1.840000000000000E-002    0.000000000000000E+000
 -1.830000000000000E-002    0.000000000000000E+000
 -1.820000000000000E-002    0.000000000000000E+000
 -1.810000000000000E-002    0.000000000000000E+000
 -1.800000000000000E-002    0.000000000000000E+000
 -1.790000000000000E-002    0.000000000000000E+000
 -1.780000000000000E-002    0.000000000000000E+000
 -1.770000000000000E-002    0.000000000000000E+000
 -1.760000000000000E-002    0.000000000000000E+000
 -1.750000000000000E-002    0.000000000000000E+000
 -1.740000000000000E-002    0.000000000000000E+000
 -1.730000000000000E-002    0.000000000000000E+000
 -1.720000000000000E-002    0.000000000000000E+000
 -1.710000000000000E-002    0.000000000000000E+000
 -1.700000000000000E-002    0.000000000000000E+000
 -1.690000000000000E-002    0.000000000000000E+000
 -1.680000000000000E-002    0.000000000000000E+000
 -1.670000000000000E-002    0.000000000000000E+000
 -1.660000000000000E-002    0.000000000000000E+000
 -1.650000000000000E-002    0.000000000000000E+000
 -1.640000000000000E-002    0.000000000000000E+000
 -1.630000000000000E-002    0.000000000000000E+000
 -1.620000000000000E-002    0.000000000000000E+000
 -1.610000000000000E-002    0.000000000000000E+000
 -1.600000000000000E-002    0.000000000000000E+000
 -1.590000000000000E-002    0.000000000000000E+000
 -1.580000000000000E-002    0.000000000000000E+000
 -1.570000000000000E-002    0.000000000000000E+000
 -1.560000000000000E-002    0.000000000000000E+000
 -1.550000000000000E-002    0.000000000000000E+000
 -1.540000000000000E-002    0.000000000000000E+000
 -1.530000000000000E-002    0.000000000000000E+000
 -1.520000000000000E-002    0.000000000000000E+000
 -1.510000000000000E-002    0.000000000000000E+000
 -1.500000000000000E-002    0.000000000000000E+000
 -1.490000000000000E-002    0.000000000000000E+000
 -1.480000000000000E-002    0.000000000000000E+000
 -1.470000000000000E-002    0.000000000000000E+000
 -1.460000000000000E-002    0.000000000000000E+000
 -1.450000000000000E-002    0.000000000000000E+000
 -1.440000000000000E-002    0.000000000000000E+000
 -1.430000000000000E-002    0.000000000000000E+000
 -1.420000000000000E-002    0.000000000000000E+000
 -1.410000000000000E-002    0.000000000000000E+000
 -1.400000000000000E-002    0.000000000000000E+000
 -1.390000000000000E-002    0.000000000000000E+000
 -1.380000000000000E-002    0.000000000000000E+000
 -1.370000000000000E-002    0.000000000000000E+000
 -1.360000000000000E-002    0.000000000000000E+000
 -1.350000000000000E-002    0.000000000000000E+000
 -1.340000000000000E-002    0.000000000000000E+000
 -1.330000000000000E-002    0.000000000000000E+000
 -1.320000000000000E-002    0.000000000000000E+000
 -1.310000000000000E-002    0.000000000000000E+000
 -1.300000000000000E-002    0.000000000000000E+000
 -1.290000000000000E-002    0.000000000000000E+000
 -1.280000000000000E-002    0.000000000000000E+000
 -1.270000000000000E-002    0.000000000000000E+000
 -1.260000000000000E-002    0.000000000000000E+000
 -1.250000000000000E-002    0.000000000000000E+000
 -1.240000000000000E-002    0.000000000000000E+000
 -1.230000000000000E-002    0.000000000000000E+000
 -1.220000000000000E-002    0.000000000000000E+000
 -1.210000000000000E-002    0.000000000000000E+000
 -1.200000000000000E-002    0.000000000000000E+000
 -1.190000000000000E-002    0.000000000000000E+000
 -1.180000000000000E-002    0.000000000000000E+000
 -1.170000000000000E-002    0.000000000000000E+000
 -1.160000000000000E-002    0.000000000000000E+000
 -1.150000000000000E-002    0.000000000000000E+000
 -1.140000000000000E-002    0.000000000000000E+000
 -1.130000000000000E-002    0.000000000000000E+000
 -1.120000000000000E-002    0.000000000000000E+000
 -1.110000000000000E-002    0.000000000000000E+000
 -1.100000000000000E-002    0.000000000000000E+000
 -1.090000000000000E-002    0.000000000000000E+000
 -1.080000000000000E-002    0.000000000000000E+000
 -1.070000000000000E-002    0.000000000000000E+000
 -1.060000000000000E-002    0.000000000000000E+000
 -1.050000000000000E-002    0.000000000000000E+000
 -1.040000000000000E-002    0.000000000000000E+000
 -1.030000000000000E-002    0.000000000000000E+000
 -1.020000000000000E-002    0.000000000000000E+000
 -1.010000000000000E-002    0.000000000000000E+000
 -1.000000000000000E-002    0.000000000000000E+000
 -9.899999999999999E-003    0.000000000000000E+000
 -9.800000000000000E-003    0.000000000000000E+000
 -9.699999999999999E-003    0.000000000000000E+000
 -9.599999999999999E-003    0.000000000000000E+000
 -9.500000000000000E-003    0.000000000000000E+000
 -9.399999999999999E-003    0.000000000000000E+000
 -9.299999999999999E-003    0.000000000000000E+000
 -9.200000000000000E-003    0.000000000000000E+000
 -9.099999999999999E-003    0.000000000000000E+000
 -8.999999999999999E-003    0.000000000000000E+000
 -8.900000000000000E-003    0.000000000000000E+000
 -8.799999999999999E-003    0.000000000000000E+000
 -8.699999999999999E-003    0.000000000000000E+000
 -8.600000000000000E-003    0.000000000000000E+000
 -8.499999999999999E-003    0.000000000000000E+000
 -8.399999999999999E-003    0.000000000000000E+000
 -8.300000000000000E-003    0.000000000000000E+000
 -8.199999999999999E-003    0.000000000000000E+000
 -8.100000000000000E-003    0.000000000000000E+000
 -8.000000000000000E-003    0.000000000000000E+000
 -7.899999999999999E-003    0.000000000000000E+000
 -7.800000000000000E-003    0.000000000000000E+000
 -7.699999999999999E-003    0.000000000000000E+000
 -7.599999999999999E-003    0.000000000000000E+000
 -7.499999999999999E-003    0.000000000000000E+000
 -7.399999999999999E-003    0.000000000000000E+000
 -7.299999999999999E-003    0.000000000000000E+000
 -7.199999999999999E-003    0.000000000000000E+000
 -7.100000000000000E-003    0.000000000000000E+000
 -6.999999999999999E-003    0.000000000000000E+000
 -6.899999999999999E-003    0.000000000000000E+000
 -6.800000000000000E-003    0.000000000000000E+000
 -6.699999999999999E-003    0.000000000000000E+000
 -6.599999999999999E-003    0.000000000000000E+000
 -6.499999999999999E-003    0.000000000000000E+000
 -6.399999999999999E-003    0.000000000000000E+000
 -6.299999999999999E-003    0.000000000000000E+000
 -6.199999999999999E-003    0.000000000000000E+000
 -6.100000000000000E-003    0.000000000000000E+000
 -5.999999999999999E-003    0.000000000000000E+000
 -5.899999999999999E-003    0.000000000000000E+000
 -5.800000000000000E-003    0.000000000000000E+000
 -5.699999999999999E-003    0.000000000000000E+000
 -5.599999999999999E-003    0.000000000000000E+000
 -5.499999999999999E-003    0.000000000000000E+000
 -5.399999999999999E-003    0.000000000000000E+000
 -5.299999999999999E-003    0.000000000000000E+000
 -5.199999999999999E-003    0.000000000000000E+000
 -5.099999999999999E-003    0.000000000000000E+000
 -4.999999999999999E-003    0.000000000000000E+000
 -4.899999999999999E-003    0.000000000000000E+000
 -4.799999999999999E-003    0.000000000000000E+000
 -4.699999999999999E-003    0.000000000000000E+000
 -4.599999999999999E-003    0.000000000000000E+000
 -4.499999999999999E-003    0.000000000000000E+000
 -4.399999999999999E-003    0.000000000000000E+000
 -4.299999999999999E-003    0.000000000000000E+000
 -4.199999999999999E-003    0.000000000000000E+000
 -4.099999999999999E-003    0.000000000000000E+000
 -3.999999999999999E-003    0.000000000000000E+000
 -3.899999999999999E-003    0.000000000000000E+000
 -3.799999999999999E-003    0.000000000000000E+000
 -3.699999999999999E-003    0.000000000000000E+000
 -3.599999999999999E-003    0.000000000000000E+000
 -3.499999999999999E-003    0.000000000000000E+000
 -3.399999999999999E-003    0.000000000000000E+000
 -3.299999999999999E-003    0.000000000000000E+000
 -3.199999999999999E-003    0.000000000000000E+000
 -3.099999999999999E-003    0.000000000000000E+000
 -2.999999999999999E-003    0.000000000000000E+000
 -2.899999999999999E-003    0.000000000000000E+000
 -2.799999999999999E-003    0.000000000000000E+000
 -2.699999999999999E-003    0.000000000000000E+000
 -2.599999999999999E-003    0.000000000000000E+000
 -2.499999999999999E-003    0.000000000000000E+000
 -2.399999999999999E-003    0.000000000000000E+000
 -2.299999999999999E-003    0.000000000000000E+000
 -2.199999999999999E-003    0.000000000000000E+000
 -2.099999999999999E-003    0.000000000000000E+000
 -1.999999999999999E-003    0.000000000000000E+000
 -1.899999999999999E-003    0.000000000000000E+000
 -1.799999999999999E-003    0.000000000000000E+000
 -1.699999999999999E-003    0.000000000000000E+000
 -1.599999999999999E-003    0.000000000000000E+000
 -1.499999999999999E-003    0.000000000000000E+000
 -1.399999999999999E-003    0.000000000000000E+000
 -1.299999999999999E-003    0.000000000000000E+000
 -1.199999999999999E-003   -1.206984432005137E-049
 -1.099999999999999E-003   -2.413968864010274E-049
 -9.999999999999989E-004   -1.239891088713916E-048
 -8.999999999999990E-004   -2.238385291026804E-048
 -7.999999999999990E-004   -3.236879493339692E-048
 -6.999999999999989E-004   -4.468724025038406E-048
 -5.999999999999990E-004   -3.981540227447979E-048
 -4.999999999999989E-004   -1.589639820844132E-048
 -3.999999999999989E-004    2.898139473175006E-048
 -2.999999999999989E-004    6.339004493498888E-048
 -1.999999999999989E-004    1.474730730214395E-047
 -9.999999999999892E-005    1.458240018397819E-047
  1.084202172485504E-018    2.095168659664963E-047
  1.000000000000011E-004    2.495088056312822E-047
  2.000000000000011E-004    2.798094512969557E-047
  3.000000000000011E-004    1.853694593968784E-047
  4.000000000000011E-004    6.366148662030319E-047
  5.000000000000011E-004    1.541364406785025E-046
  6.000000000000011E-004    2.317318212685831E-046
  7.000000000000011E-004    8.921158627489995E-046
  8.000000000000011E-004    1.555339620414032E-045
  9.000000000000012E-004    2.049741929714156E-045
  1.000000000000001E-003    2.310456489145752E-045
  1.100000000000001E-003    2.524911548115872E-045
  1.200000000000001E-003    2.009269023950399E-045
  1.300000000000001E-003    1.953397607146147E-046
  1.400000000000001E-003   -1.166557081058392E-045
  1.500000000000001E-003   -4.107128454659467E-045
  1.600000000000001E-003   -7.576908441673829E-045
  1.700000000000001E-003   -1.088727232528319E-044
  1.800000000000001E-003   -1.439755132719257E-044
  1.900000000000001E-003   -1.663506438291544E-044
  2.000000000000001E-003   -1.821406536001952E-044
  2.100000000000001E-003   -1.836947618686652E-044
  2.200000000000001E-003   -1.651406661384696E-044
  2.300000000000001E-003   -1.132267086012958E-044
  2.400000000000001E-003   -2.029208943940555E-045
  2.500000000000001E-003    1.051610848544623E-044
  2.600000000000001E-003    2.809681623248050E-044
  2.700000000000001E-003    4.796289090806527E-044
  2.800000000000001E-003    6.966080569660084E-044
  2.900000000000001E-003    8.922940410492146E-044
  3.000000000000001E-003    1.043092600389911E-043
  3.100000000000001E-003    1.110441943961342E-043
  3.200000000000001E-003    1.045235699618920E-043
  3.300000000000001E-003    8.132592257448491E-044
  3.400000000000001E-003    3.646718919089443E-044
  3.500000000000001E-003   -3.082577550697756E-044
  3.600000000000001E-003   -1.218499371396034E-043
  3.700000000000001E-003   -2.319775353515272E-043
  3.800000000000001E-003   -3.520357259916187E-043
  3.900000000000001E-003   -4.693474177408413E-043
  4.000000000000001E-003   -5.661848011143486E-043
  4.100000000000001E-003   -6.203758725778725E-043
  4.200000000000001E-003   -6.077966561563319E-043
  4.300000000000001E-003   -5.050446601659457E-043
  4.400000000000001E-003   -2.911058510914288E-043
  4.500000000000001E-003    4.644444334133931E-044
  4.600000000000002E-003    5.064102787113759E-043
  4.700000000000001E-003    1.069556949262192E-042
  4.800000000000001E-003    1.697416339029248E-042
  4.900000000000002E-003    2.324768312909494E-042
  5.000000000000001E-003    2.863408780562077E-042
  5.100000000000001E-003    3.205289474104920E-042
  5.200000000000001E-003    3.229987043592679E-042
  5.300000000000002E-003    2.815765839165529E-042
  5.400000000000001E-003    1.859242613774358E-042
  5.500000000000001E-003    2.958669789379862E-043
  5.600000000000002E-003   -1.878128595309998E-042
  5.700000000000001E-003   -4.582957127329858E-042
  5.800000000000001E-003   -7.635752171056264E-042
  5.900000000000002E-003   -1.073884029680366E-041
  6.000000000000001E-003   -1.348042150504703E-041
  6.100000000000001E-003   -1.535466121404788E-041
  6.200000000000002E-003   -1.579661019619460E-041
  6.300000000000002E-003   -1.423836849454939E-041
  6.400000000000001E-003   -1.019376107339218E-041
  6.500000000000001E-003   -3.348267624346794E-042
  6.600000000000002E-003    6.335145245437372E-042
  6.700000000000001E-003    1.851373222821680E-041
  6.800000000000001E-003    3.238362250116508E-041
  6.900000000000002E-003    4.663163810161455E-041
  7.000000000000001E-003    5.944611634229050E-041
  7.100000000000001E-003    6.859711017589264E-041
  7.200000000000002E-003    7.160155024409156E-041
  7.300000000000002E-003    6.598417737014450E-041
  7.400000000000001E-003    4.962104322152579E-041
  7.500000000000001E-003    2.114807457871478E-041
  7.600000000000002E-003   -1.959878364554895E-041
  7.700000000000001E-003   -7.116436903931164E-041
  7.800000000000001E-003   -1.301418996980617E-040
  7.900000000000001E-003   -1.910026148609614E-040
  8.000000000000002E-003   -2.461626179563853E-040
  8.100000000000001E-003   -2.863604494290425E-040
  8.200000000000001E-003   -3.013802636434463E-040
  8.300000000000002E-003   -2.811434368798300E-040
  8.400000000000001E-003   -2.171321355802695E-040
  8.500000000000002E-003   -1.040483993996970E-040
  8.600000000000002E-003    5.844749062472383E-041
  8.700000000000001E-003    2.641278150817635E-040
  8.800000000000002E-003    4.989918676329712E-040
  8.900000000000002E-003    7.407530063869899E-040
  9.000000000000001E-003    9.593032499332306E-040
  9.100000000000002E-003    1.118394907438739E-039
  9.200000000000002E-003    1.178682789154764E-039
  9.300000000000001E-003    1.102126830978677E-039
  9.400000000000002E-003    8.575472276682129E-040
  9.500000000000001E-003    4.269260019581400E-040
  9.600000000000001E-003   -1.881916793911743E-040
  9.700000000000002E-003   -9.610653567433490E-040
  9.800000000000001E-003   -1.835885316576699E-039
  9.900000000000001E-003   -2.726734164313380E-039
  1.000000000000000E-002   -3.520358453447055E-039
  1.010000000000000E-002   -4.083488497888813E-039
  1.020000000000000E-002   -4.275042732569177E-039
  1.030000000000000E-002   -3.962935655702864E-039
  1.040000000000000E-002   -3.044531830180473E-039
  1.050000000000000E-002   -1.468949630002486E-039
  1.060000000000000E-002    7.413107988523580E-040
  1.070000000000000E-002    3.472617419356428E-039
  1.080000000000000E-002    6.509870222864846E-039
  1.090000000000000E-002    9.537119579921149E-039
  1.100000000000000E-002    1.215214991747947E-038
  1.110000000000000E-002    1.389692151570379E-038
  1.120000000000000E-002    1.430410588156634E-038
  1.130000000000000E-002    1.295775517623187E-038
  1.140000000000000E-002    9.563617998733299E-039
  1.150000000000000E-002    4.022042075251306E-039
  1.160000000000000E-002   -3.505940956971976E-039
  1.170000000000000E-002   -1.255034983718822E-038
  1.180000000000000E-002   -2.231339285100731E-038
  1.190000000000000E-002   -3.169052836067672E-038
  1.200000000000000E-002   -3.933937764869824E-038
  1.210000000000000E-002   -4.379969586983452E-038
  1.220000000000000E-002   -4.366142595680916E-038
  1.230000000000000E-002   -3.777015585948623E-038
  1.240000000000000E-002   -2.545137856974180E-038
  1.250000000000000E-002   -6.727003587048408E-039
  1.260000000000000E-002    1.750810431513763E-038
  1.270000000000000E-002    4.538484675201255E-038
  1.280000000000000E-002    7.406794248761680E-038
  1.290000000000000E-002    9.990070705264599E-038
  1.300000000000000E-002    1.187018836872058E-037
  1.310000000000000E-002    1.262122581815811E-037
  1.320000000000000E-002    1.186668033183161E-037
  1.330000000000000E-002    9.344362017649846E-038
  1.340000000000000E-002    4.971758944168746E-038
  1.350000000000000E-002   -1.097343634169224E-038
  1.360000000000000E-002   -8.435304205163667E-038
  1.370000000000000E-002   -1.633246935815946E-037
  1.380000000000000E-002   -2.382713442693208E-037
  1.390000000000000E-002   -2.977919130522449E-037
  1.400000000000000E-002   -3.298806692794388E-037
  1.410000000000000E-002   -3.234940834827938E-037
  1.420000000000000E-002   -2.703768606139992E-037
  1.430000000000000E-002   -1.669502129380460E-037
  1.440000000000000E-002   -1.600178158333466E-038
  1.450000000000000E-002    1.721194777452202E-037
  1.460000000000000E-002    3.791081756035273E-037
  1.470000000000000E-002    5.793719093049186E-037
  1.480000000000000E-002    7.419444659745326E-037
  1.490000000000000E-002    8.336845347479232E-037
  1.500000000000000E-002    8.236234633077681E-037
  1.510000000000000E-002    6.881193004654721E-037
  1.520000000000000E-002    4.162651182287054E-037
  1.530000000000000E-002    1.481176531217191E-038
  1.540000000000000E-002   -4.882507888522189E-037
  1.550000000000000E-002   -1.042346063244971E-036
  1.560000000000000E-002   -1.575989158820388E-036
  1.570000000000000E-002   -2.002043561591355E-036
  1.580000000000000E-002   -2.226724351610610E-036
  1.590000000000000E-002   -2.162001889802140E-036
  1.600000000000000E-002   -1.740458778826118E-036
  1.610000000000000E-002   -9.310342457644332E-037
  1.620000000000000E-002    2.464608285749468E-037
  1.630000000000000E-002    1.710561816186761E-036
  1.640000000000000E-002    3.313714723064386E-036
  1.650000000000000E-002    4.846566874833316E-036
  1.660000000000000E-002    6.052688530343614E-036
  1.670000000000000E-002    6.654350375514885E-036
  1.680000000000000E-002    6.388494435104863E-036
  1.690000000000000E-002    5.050307310046883E-036
  1.700000000000000E-002    2.539955448976704E-036
  1.710000000000000E-002   -1.093566566695142E-036
  1.720000000000000E-002   -5.618777919317888E-036
  1.730000000000000E-002   -1.060593314819526E-035
  1.740000000000000E-002   -1.543626061728615E-035
  1.750000000000000E-002   -1.934157276138642E-035
  1.760000000000000E-002   -2.147656035524244E-035
  1.770000000000000E-002   -2.102190936494063E-035
  1.780000000000000E-002   -1.731141237188522E-035
  1.790000000000000E-002   -9.970872519492460E-036
  1.800000000000000E-002    9.481641886202879E-037
  1.810000000000000E-002    1.486071194285680E-035
  1.820000000000000E-002    3.058897407825535E-035
  1.830000000000000E-002    4.637260525823684E-035
  1.840000000000000E-002    5.996522611269771E-035
  1.850000000000000E-002    6.882581001446785E-035
  1.860000000000000E-002    7.040207148048096E-035
  1.870000000000000E-002    6.248922343447131E-035