 -4.000000000000000E-002    0.000000000000000E+000
 -3.990000000000000E-002    0.000000000000000E+000
 -3.980000000000000E-002    0.000000000000000E+000
 -3.970000000000000E-002    0.000000000000000E+000
 -3.960000000000000E-002    0.000000000000000E+000
 -3.950000000000000E-002    0.000000000000000E+000
 -3.940000000000000E-002    0.000000000000000E+000
 -3.930000000000000E-002    0.000000000000000E+000
 -3.920000000000000E-002    0.000000000000000E+000
 -3.910000000000000E-002    0.000000000000000E+000
 -3.900000000000000E-002    0.000000000000000E+000
 -3.890000000000000E-002    0.000000000000000E+000
 -3.880000000000000E-002    0.000000000000000E+000
 -3.870000000000000E-002    0.000000000000000E+000
 -3.860000000000000E-002    0.000000000000000E+000
 -3.850000000000000E-002    0.000000000000000E+000
 -3.840000000000000E-002    0.000000000000000E+000
 -3.830000000000000E-002    0.000000000000000E+000
 -3.820000000000000E-002    0.000000000000000E+000
 -3.810000000000000E-002    0.000000000000000E+000
 -3.800000000000000E-002    0.000000000000000E+000
 -3.790000000000000E-002    0.000000000000000E+000
 -3.780000000000000E-002    0.000000000000000E+000
 -3.770000000000000E-002    0.000000000000000E+000
 -3.760000000000000E-002    0.000000000000000E+000
 -3.750000000000000E-002    0.000000000000000E+000
 -3.740000000000000E-002    0.000000000000000E+000
 -3.730000000000000E-002    0.000000000000000E+000
 -3.720000000000000E-002    0.000000000000000E+000
 -3.710000000000000E-002    0.000000000000000E+000
 -3.700000000000000E-002    0.000000000000000E+000
 -3.690000000000000E-002    0.000000000000000E+000
 -3.680000000000000E-002    0.000000000000000E+000
 -3.670000000000000E-002    0.000000000000000E+000
 -3.660000000000000E-002    0.000000000000000E+000
 -3.650000000000000E-002    0.000000000000000E+000
 -3.640000000000000E-002    0.000000000000000E+000
 -3.630000000000000E-002    0.000000000000000E+000
 -3.620000000000000E-002    0.000000000000000E+000
 -3.610000000000000E-002    0.000000000000000E+000
 -3.600000000000000E-002    0.000000000000000E+000
 -3.590000000000000E-002    0.000000000000000E+000
 -3.580000000000000E-002    0.000000000000000E+000
 -3.570000000000000E-002    0.000000000000000E+000
 -3.560000000000000E-002    0.000000000000000E+000
 -3.550000000000000E-002    0.000000000000000E+000
 -3.540000000000000E-002    0.000000000000000E+000
 -3.530000000000000E-002    0.000000000000000E+000
 -3.520000000000000E-002    0.000000000000000E+000
 -3.510000000000000E-002    0.000000000000000E+000
 -3.500000000000000E-002    0.000000000000000E+000
 -3.490000000000000E-002    0.000000000000000E+000
 -3.480000000000000E-002    0.000000000000000E+000
 -3.470000000000000E-002    0.000000000000000E+000
 -3.460000000000000E-002    0.000000000000000E+000
 -3.450000000000000E-002    0.000000000000000E+000
 -3.440000000000000E-002    0.000000000000000E+000
 -3.430000000000000E-002    0.000000000000000E+000
 -3.420000000000000E-002    0.000000000000000E+000
 -3.410000000000000E-002    0.000000000000000E+000
 -3.400000000000000E-002    0.000000000000000E+000
 -3.390000000000000E-002    0.000000000000000E+000
 -3.380000000000000E-002    0.000000000000000E+000
 -3.370000000000000E-002    0.000000000000000E+000
 -3.360000000000000E-002    0.000000000000000E+000
 -3.350000000000000E-002    0.000000000000000E+000
 -3.340000000000000E-002    0.000000000000000E+000
 -3.330000000000000E-002    0.000000000000000E+000
 -3.320000000000000E-002    0.000000000000000E+000
 -3.310000000000000E-002    0.000000000000000E+000
 -3.300000000000000E-002    0.000000000000000E+000
 -3.290000000000000E-002    0.000000000000000E+000
 -3.280000000000000E-002    0.000000000000000E+000
 -3.270000000000000E-002    0.000000000000000E+000
 -3.260000000000000E-002    0.000000000000000E+000
 -3.250000000000000E-002    0.000000000000000E+000
 -3.240000000000000E-002    0.000000000000000E+000
 -3.230000000000000E-002    0.000000000000000E+000
 -3.220000000000000E-002    0.000000000000000E+000
 -3.210000000000000E-002    0.000000000000000E+000
 -3.200000000000000E-002    0.000000000000000E+000
 -3.190000000000000E-002    0.000000000000000E+000
 -3.180000000000000E-002    0.000000000000000E+000
 -3.170000000000000E-002    0.000000000000000E+000
 -3.160000000000000E-002    0.000000000000000E+000
 -3.150000000000000E-002    0.000000000000000E+000
 -3.140000000000000E-002    0.000000000000000E+000
 -3.130000000000000E-002    0.000000000000000E+000
 -3.120000000000000E-002    0.000000000000000E+000
 -3.110000000000000E-002    0.000000000000000E+000
 -3.100000000000000E-002    0.000000000000000E+000
 -3.090000000000000E-002    0.000000000000000E+000
 -3.080000000000000E-002    0.000000000000000E+000
 -3.070000000000000E-002    0.000000000000000E+000
 -3.060000000000000E-002    0.000000000000000E+000
 -3.050000000000000E-002    0.000000000000000E+000
 -3.040000000000000E-002    0.000000000000000E+000
 -3.030000000000000E-002    0.000000000000000E+000
 -3.020000000000000E-002    0.000000000000000E+000
 -3.010000000000000E-002    0.000000000000000E+000
 -3.000000000000000E-002    0.000000000000000E+000
 -2.990000000000000E-002    0.000000000000000E+000
 -2.980000000000000E-002    0.000000000000000E+000
 -2.970000000000000E-002    0.000000000000000E+000
 -2.960000000000000E-002    0.000000000000000E+000
 -2.950000000000000E-002    0.000000000000000E+000
 -2.940000000000000E-002    0.000000000000000E+000
 -2.930000000000000E-002    0.000000000000000E+000
 -2.920000000000000E-002    0.000000000000000E+000
 -2.910000000000000E-002    0.000000000000000E+000
 -2.900000000000000E-002    0.000000000000000E+000
 -2.890000000000000E-002    0.000000000000000E+000
 -2.880000000000000E-002    0.000000000000000E+000
 -2.870000000000000E-002    0.000000000000000E+000
 -2.860000000000000E-002    0.000000000000000E+000
 -2.850000000000000E-002    0.000000000000000E+000
 -2.840000000000000E-002    0.000000000000000E+000
 -2.830000000000000E-002    0.000000000000000E+000
 -2.820000000000000E-002    0.000000000000000E+000
 -2.810000000000000E-002    0.000000000000000E+000
 -2.800000000000000E-002    0.000000000000000E+000
 -2.790000000000000E-002    0.000000000000000E+000
 -2.780000000000000E-002    0.000000000000000E+000
 -2.770000000000000E-002    0.000000000000000E+000
 -2.760000000000000E-002    0.000000000000000E+000
 -2.750000000000000E-002    0.000000000000000E+000
 -2.740000000000000E-002    0.000000000000000E+000
 -2.730000000000000E-002    0.000000000000000E+000
 -2.720000000000000E-002    0.000000000000000E+000
 -2.710000000000000E-002    0.000000000000000E+000
 -2.700000000000000E-002    0.000000000000000E+000
 -2.690000000000000E-002    0.000000000000000E+000
 -2.680000000000000E-002    0.000000000000000E+000
 -2.670000000000000E-002    0.000000000000000E+000
 -2.660000000000000E-002    0.000000000000000E+000
 -2.650000000000000E-002    0.000000000000000E+000
 -2.640000000000000E-002    0.000000000000000E+000
 -2.630000000000000E-002    0.000000000000000E+000
 -2.620000000000000E-002    0.000000000000000E+000
 -2.610000000000000E-002    0.000000000000000E+000
 -2.600000000000000E-002    0.000000000000000E+000
 -2.590000000000000E-002    0.000000000000000E+000
 -2.580000000000000E-002    0.000000000000000E+000
 -2.570000000000000E-002    0.000000000000000E+000
 -2.560000000000000E-002    0.000000000000000E+000
 -2.550000000000000E-002    0.000000000000000E+000
 -2.540000000000000E-002    0.000000000000000E+000
 -2.530000000000000E-002    0.000000000000000E+000
 -2.520000000000000E-002    0.000000000000000E+000
 -2.510000000000000E-002    0.000000000000000E+000
 -2.500000000000000E-002    0.000000000000000E+000
 -2.490000000000000E-002    0.000000000000000E+000
 -2.480000000000000E-002    0.000000000000000E+000
 -2.470000000000000E-002    0.000000000000000E+000
 -2.460000000000000E-002    0.000000000000000E+000
 -2.450000000000000E-002    0.000000000000000E+000
 -2.440000000000000E-002    0.000000000000000E+000
 -2.430000000000000E-002    0.000000000000000E+000
 -2.420000000000000E-002    0.000000000000000E+000
 -2.410000000000000E-002    0.000000000000000E+000
 -2.400000000000000E-002    0.000000000000000E+000
 -2.390000000000000E-002    0.000000000000000E+000
 -2.380000000000000E-002    0.000000000000000E+000
 -2.370000000000000E-002    0.000000000000000E+000
 -2.360000000000000E-002    0.000000000000000E+000
 -2.350000000000000E-002    0.000000000000000E+000
 -2.340000000000000E-002    0.000000000000000E+000
 -2.330000000000000E-002    0.000000000000000E+000
 -2.320000000000000E-002    0.000000000000000E+000
 -2.310000000000000E-002    0.000000000000000E+000
 -2.300000000000000E-002    0.000000000000000E+000
 -2.290000000000000E-002    0.000000000000000E+000
 -2.280000000000000E-002    0.000000000000000E+000
 -2.270000000000000E-002    0.000000000000000E+000
 -2.260000000000000E-002    0.000000000000000E+000
 -2.250000000000000E-002    0.000000000000000E+000
 -2.240000000000000E-002    0.000000000000000E+000
 -2.230000000000000E-002    0.000000000000000E+000
 -2.220000000000000E-002    0.000000000000000E+000
 -2.210000000000000E-002    0.000000000000000E+000
 -2.200000000000000E-002    0.000000000000000E+000
 -2.190000000000000E-002    0.000000000000000E+000
 -2.180000000000000E-002    0.000000000000000E+000
 -2.170000000000000E-002    0.000000000000000E+000
 -2.160000000000000E-002    0.000000000000000E+000
 -2.150000000000000E-002    0.000000000000000E+000
 -2.140000000000000E-002    0.000000000000000E+000
 -2.130000000000000E-002    0.000000000000000E+000
 -2.120000000000000E-002    0.000000000000000E+000
 -2.110000000000000E-002    0.000000000000000E+000
 -2.100000000000000E-002    0.000000000000000E+000
 -2.090000000000000E-002    0.000000000000000E+000
 -2.080000000000000E-002    0.000000000000000E+000
 -2.070000000000000E-002    0.000000000000000E+000
 -2.060000000000000E-002    0.000000000000000E+000
 -2.050000000000000E-002    0.000000000000000E+000
 -2.040000000000000E-002    0.000000000000000E+000
 -2.030000000000000E-002    0.000000000000000E+000
 -2.020000000000000E-002    0.000000000000000E+000
 -2.010000000000000E-002    0.000000000000000E+000
 -2.000000000000000E-002    0.000000000000000E+000
 -1.990000000000000E-002    0.000000000000000E+000
 -1.980000000000000E-002    0.000000000000000E+000
 -1.970000000000000E-002    0.000000000000000E+000
 -1.960000000000000E-002    0.000000000000000E+000
 -1.950000000000000E-002    0.000000000000000E+000
 -1.940000000000000E-002    0.000000000000000E+000
 -1.930000000000000E-002    0.000000000000000E+000
 -1.920000000000000E-002    0.000000000000000E+000
 -1.910000000000000E-002    0.000000000000000E+000
 -1.900000000000000E-002    0.000000000000000E+000
 -1.890000000000000E-002    0.000000000000000E+000
 -1.880000000000000E-002    0.000000000000000E+000
 -1.870000000000000E-002    0.000000000000000E+000
 -1.860000000000000E-002    0.000000000000000E+000
 -1.850000000000000E-002    0.000000000000000E+000
 -1.840000000000000E-002    0.000000000000000E+000
 -1.830000000000000E-002    0.000000000000000E+000
 -1.820000000000000E-002    0.000000000000000E+000
 -1.810000000000000E-002    0.000000000000000E+000
 -1.800000000000000E-002    0.000000000000000E+000
 -1.790000000000000E-002    0.000000000000000E+000
 -1.780000000000000E-002    0.000000000000000E+000
 -1.770000000000000E-002    0.000000000000000E+000
 -1.760000000000000E-002    0.000000000000000E+000
 -1.750000000000000E-002    0.000000000000000E+000
 -1.740000000000000E-002    0.000000000000000E+000
 -1.730000000000000E-002    0.000000000000000E+000
 -1.720000000000000E-002    0.000000000000000E+000
 -1.710000000000000E-002    0.000000000000000E+000
 -1.700000000000000E-002    0.000000000000000E+000
 -1.690000000000000E-002    0.000000000000000E+000
 -1.680000000000000E-002    0.000000000000000E+000
 -1.670000000000000E-002    0.000000000000000E+000
 -1.660000000000000E-002    0.000000000000000E+000
 -1.650000000000000E-002    0.000000000000000E+000
 -1.640000000000000E-002    0.000000000000000E+000
 -1.630000000000000E-002    0.000000000000000E+000
 -1.620000000000000E-002    0.000000000000000E+000
 -1.610000000000000E-002    0.000000000000000E+000
 -1.600000000000000E-002    0.000000000000000E+000
 -1.590000000000000E-002    0.000000000000000E+000
 -1.580000000000000E-002    0.000000000000000E+000
 -1.570000000000000E-002    0.000000000000000E+000
 -1.560000000000000E-002    0.000000000000000E+000
 -1.550000000000000E-002    0.000000000000000E+000
 -1.540000000000000E-002    0.000000000000000E+000
 -1.530000000000000E-002    0.000000000000000E+000
 -1.520000000000000E-002    0.000000000000000E+000
 -1.510000000000000E-002    0.000000000000000E+000
 -1.500000000000000E-002    0.000000000000000E+000
 -1.490000000000000E-002    0.000000000000000E+000
 -1.480000000000000E-002    0.000000000000000E+000
 -1.470000000000000E-002    0.000000000000000E+000
 -1.460000000000000E-002    0.000000000000000E+000
 -1.450000000000000E-002    0.000000000000000E+000
 -1.440000000000000E-002    0.000000000000000E+000
 -1.430000000000000E-002    0.000000000000000E+000
 -1.420000000000000E-002    0.000000000000000E+000
 -1.410000000000000E-002    0.000000000000000E+000
 -1.400000000000000E-002    0.000000000000000E+000
 -1.390000000000000E-002    0.000000000000000E+000
 -1.380000000000000E-002    0.000000000000000E+000
 -1.370000000000000E-002    0.000000000000000E+000
 -1.360000000000000E-002    0.000000000000000E+000
 -1.350000000000000E-002    0.000000000000000E+000
 -1.340000000000000E-002    0.000000000000000E+000
 -1.330000000000000E-002    0.000000000000000E+000
 -1.320000000000000E-002    0.000000000000000E+000
 -1.310000000000000E-002    0.000000000000000E+000
 -1.300000000000000E-002    0.000000000000000E+000
 -1.290000000000000E-002    0.000000000000000E+000
 -1.280000000000000E-002    0.000000000000000E+000
 -1.270000000000000E-002    0.000000000000000E+000
 -1.260000000000000E-002    0.000000000000000E+000
 -1.250000000000000E-002    0.000000000000000E+000
 -1.240000000000000E-002    0.000000000000000E+000
 -1.230000000000000E-002    0.000000000000000E+000
 -1.220000000000000E-002    0.000000000000000E+000
 -1.210000000000000E-002    0.000000000000000E+000
 -1.200000000000000E-002    0.000000000000000E+000
 -1.190000000000000E-002    0.000000000000000E+000
 -1.180000000000000E-002    0.000000000000000E+000
 -1.170000000000000E-002    0.000000000000000E+000
 -1.160000000000000E-002    0.000000000000000E+000
 -1.150000000000000E-002    0.000000000000000E+000
 -1.140000000000000E-002    0.000000000000000E+000
 -1.130000000000000E-002    0.000000000000000E+000
 -1.120000000000000E-002    0.000000000000000E+000
 -1.110000000000000E-002    0.000000000000000E+000
 -1.100000000000000E-002    0.000000000000000E+000
 -1.090000000000000E-002    0.000000000000000E+000
 -1.080000000000000E-002    0.000000000000000E+000
 -1.070000000000000E-002    0.000000000000000E+000
 -1.060000000000000E-002    0.000000000000000E+000
 -1.050000000000000E-002    0.000000000000000E+000
 -1.040000000000000E-002    0.000000000000000E+000
 -1.030000000000000E-002    0.000000000000000E+000
 -1.020000000000000E-002    0.000000000000000E+000
 -1.010000000000000E-002    0.000000000000000E+000
 -1.000000000000000E-002    0.000000000000000E+000
 -9.899999999999999E-003    0.000000000000000E+000
 -9.800000000000000E-003    0.000000000000000E+000
 -9.699999999999999E-003    0.000000000000000E+000
 -9.599999999999999E-003    0.000000000000000E+000
 -9.500000000000000E-003    0.000000000000000E+000
 -9.399999999999999E-003    0.000000000000000E+000
 -9.299999999999999E-003    0.000000000000000E+000
 -9.200000000000000E-003    0.000000000000000E+000
 -9.099999999999999E-003    0.000000000000000E+000
 -8.999999999999999E-003    0.000000000000000E+000
 -8.900000000000000E-003    0.000000000000000E+000
 -8.799999999999999E-003    0.000000000000000E+000
 -8.699999999999999E-003    0.000000000000000E+000
 -8.600000000000000E-003    0.000000000000000E+000
 -8.499999999999999E-003    0.000000000000000E+000
 -8.399999999999999E-003    0.000000000000000E+000
 -8.300000000000000E-003    0.000000000000000E+000
 -8.199999999999999E-003    0.000000000000000E+000
 -8.100000000000000E-003    0.000000000000000E+000
 -8.000000000000000E-003    0.000000000000000E+000
 -7.899999999999999E-003    0.000000000000000E+000
 -7.800000000000000E-003    0.000000000000000E+000
 -7.699999999999999E-003    0.000000000000000E+000
 -7.599999999999999E-003    0.000000000000000E+000
 -7.499999999999999E-003    0.000000000000000E+000
 -7.399999999999999E-003    0.000000000000000E+000
 -7.299999999999999E-003   -2.552000162183326E-048
 -7.199999999999999E-003   -5.104000324366652E-048
 -7.100000000000000E-003   -5.104000324366652E-048
 -6.999999999999999E-003   -5.104000324366652E-048
 -6.899999999999999E-003   -2.552000162183326E-048
 -6.800000000000000E-003    0.000000000000000E+000
 -6.699999999999999E-003    2.453483741673879E-047
 -6.599999999999999E-003    5.162167499566091E-047
 -6.499999999999999E-003    7.957851261546121E-047
 -6.399999999999999E-003    1.190561870361459E-046
 -6.299999999999999E-003    1.585338614568305E-046
 -6.199999999999999E-003    1.743466985016546E-046
 -6.100000000000000E-003    1.701126982181661E-046
 -5.999999999999999E-003    1.344998601118159E-046
 -5.899999999999999E-003    3.128932415020390E-047
 -5.800000000000000E-003   -1.173728865973376E-046
 -5.699999999999999E-003   -3.844512297097199E-046
 -5.599999999999999E-003   -6.918772472836651E-046
 -5.499999999999999E-003   -8.430918601925482E-046
 -5.399999999999999E-003   -1.092930714451701E-045
 -5.299999999999999E-003   -1.277398147916455E-045
 -5.199999999999999E-003   -1.345278134846080E-045
 -5.099999999999999E-003   -1.329818767042336E-045
 -4.999999999999999E-003   -2.461007787093381E-045
 -4.899999999999999E-003   -3.362954508464023E-045
 -4.799999999999999E-003   -4.155476226901898E-045
 -4.699999999999999E-003   -4.640085030776670E-045
 -4.599999999999999E-003   -4.721746682516914E-045
 -4.499999999999999E-003   -4.525748864591375E-045
 -4.399999999999999E-003   -3.881682964847661E-045
 -4.299999999999999E-003   -1.789025892867726E-045
 -4.199999999999999E-003    2.632743026588785E-045
 -4.099999999999999E-003    8.306758939358607E-045
 -3.999999999999999E-003    1.548960244238696E-044
 -3.899999999999999E-003    2.240823426335067E-044
 -3.799999999999999E-003    2.893945004843735E-044
 -3.699999999999999E-003    3.442448981836074E-044
 -3.599999999999999E-003    3.690327804452427E-044
 -3.499999999999999E-003    3.415087745187948E-044
 -3.399999999999999E-003    2.400200379296203E-044
 -3.299999999999999E-003    6.244236396673192E-045
 -3.199999999999999E-003   -2.093338065282597E-044
 -3.099999999999999E-003   -5.778276185790098E-044
 -2.999999999999999E-003   -1.006552178489900E-043
 -2.899999999999999E-003   -1.477621693048020E-043
 -2.799999999999999E-003   -1.926924796430437E-043
 -2.699999999999999E-003   -2.285435509336692E-043
 -2.599999999999999E-003   -2.457199452603212E-043
 -2.499999999999999E-003   -2.342310448922839E-043
 -2.399999999999999E-003   -1.821658327800798E-043
 -2.299999999999999E-003   -8.118119115917548E-044
 -2.199999999999999E-003    7.406317149500173E-044
 -2.099999999999999E-003    2.838542505773673E-043
 -1.999999999999999E-003    5.381957861862023E-043
 -1.899999999999999E-003    8.203985074352381E-043
 -1.799999999999999E-003    1.101144363234243E-042
 -1.699999999999999E-003    1.337753971513886E-042
 -1.599999999999999E-003    1.479537094232917E-042
 -1.499999999999999E-003    1.466487287558912E-042
 -1.399999999999999E-003    1.239865970468813E-042
 -1.299999999999999E-003    7.449615365302013E-043
 -1.199999999999999E-003   -5.312671342783107E-044
 -1.099999999999999E-003   -1.164276176877907E-042
 -9.999999999999989E-004   -2.553128074686848E-042
 -8.999999999999990E-004   -4.136838528374714E-042
 -7.999999999999990E-004   -5.768443864671809E-042
 -6.999999999999989E-004   -7.239860481345731E-042
 -5.999999999999990E-004   -8.285524611211728E-042
 -4.999999999999989E-004   -8.595037587456268E-042
 -3.999999999999989E-004   -7.842990323375008E-042
 -2.999999999999989E-004   -5.726040989160553E-042
 -1.999999999999989E-004   -2.015548967200944E-042
 -9.999999999999892E-005    3.386432327881532E-042
  1.084202172485504E-018    1.038642251647705E-041
  1.000000000000011E-004    1.863464103063343E-041
  2.000000000000011E-004    2.748598067179520E-041
  3.000000000000011E-004    3.597505883717063E-041
  4.000000000000011E-004    4.283041644009620E-041
  5.000000000000011E-004    4.653660431931793E-041
  6.000000000000011E-004    4.544763530963566E-041
  7.000000000000011E-004    3.795897246031778E-041
  8.000000000000011E-004    2.273877740069845E-041
  9.000000000000012E-004   -1.003850676627431E-042
  1.000000000000001E-003   -3.321871014165752E-041
  1.100000000000001E-003   -7.272988751257371E-041
  1.200000000000001E-003   -1.169934354712787E-040
  1.300000000000001E-003   -1.619610627124723E-040
  1.400000000000001E-003   -2.020811430087771E-040
  1.500000000000001E-003   -2.305025253078902E-040
  1.600000000000001E-003   -2.395187514454506E-040
  1.700000000000001E-003   -2.212648047902954E-040
  1.800000000000001E-003   -1.686682958779398E-040
  1.900000000000001E-003   -7.662169678424085E-041
  2.000000000000001E-003    5.671863098721357E-041
  2.100000000000001E-003    2.286158391831053E-040
  2.200000000000001E-003    4.305903113213113E-040
  2.300000000000001E-003    6.475973577878214E-040
  2.400000000000001E-003    8.577699865471082E-040
  2.500000000000001E-003    1.032930536342263E-039
  2.600000000000001E-003    1.140039620228110E-039
  2.700000000000001E-003    1.143715966663544E-039
  2.800000000000001E-003    1.009827273226800E-039
  2.900000000000001E-003    7.100451515872247E-040
  3.000000000000001E-003    2.271023561207273E-040
  3.100000000000001E-003   -4.396728204011926E-040
  3.200000000000001E-003   -1.269143685005385E-039
  3.300000000000001E-003   -2.214187373288481E-039
  3.400000000000001E-003   -3.199364792298062E-039
  3.500000000000001E-003   -4.121256782126997E-039
  3.600000000000001E-003   -4.852201237038371E-039
  3.700000000000001E-003   -5.247973455619343E-039
  3.800000000000001E-003   -5.159640771720681E-039
  3.900000000000001E-003   -4.449392110844967E-039
  4.000000000000001E-003   -3.009635446035155E-039
  4.100000000000001E-003   -7.840780347356923E-040
  4.200000000000001E-003    2.211053678603970E-039
  4.300000000000001E-003    5.868033344400251E-039
  4.400000000000001E-003    9.973604579184159E-039
  4.500000000000001E-003    1.420281364562845E-038
  4.600000000000002E-003    1.812345522362282E-038
  4.700000000000001E-003    2.121346220594074E-038
  4.800000000000001E-003    2.289271069549272E-038
  4.900000000000002E-003    2.256957001662392E-038
  5.000000000000001E-003    1.970103599580256E-038
  5.100000000000001E-003    1.386356613681641E-038
  5.200000000000001E-003    4.829981331749570E-039
  5.300000000000002E-003   -7.353932110698443E-039
  5.400000000000001E-003   -2.230093987160187E-038
  5.500000000000001E-003   -3.923079794778225E-038
  5.600000000000002E-003   -5.694477193543795E-038
  5.700000000000001E-003   -7.383498885143166E-038
  5.800000000000001E-003   -8.793606066654887E-038
  5.900000000000002E-003   -9.702422118677612E-038
  6.000000000000001E-003   -9.876613538258731E-038
  6.100000000000001E-003   -9.091566419386891E-038
  6.200000000000002E-003   -7.155253119454122E-038
  6.300000000000002E-003   -3.935190754779310E-038
  6.400000000000001E-003    6.130794831583162E-039
  6.500000000000001E-003    6.418058060648017E-038
  6.600000000000002E-003    1.326736772811217E-037
  6.700000000000001E-003    2.078870741134002E-037
  6.800000000000001E-003    2.843977339067847E-037
  6.900000000000002E-003    3.551038829375089E-037
  7.000000000000001E-003    4.114004002377729E-037
  7.100000000000001E-003    4.435377604112384E-037
  7.200000000000002E-003    4.411885098066533E-037
  7.300000000000002E-003    3.942366930163300E-037
  7.400000000000001E-003    2.937916685538530E-037
  7.500000000000001E-003    1.334095991454985E-037
  7.600000000000002E-003   -8.951941768828478E-038
  7.700000000000001E-003   -3.722915737578204E-037
  7.800000000000001E-003   -7.054268471614828E-037
  7.900000000000001E-003   -1.071375384665062E-036
  8.000000000000002E-003   -1.443585158110640E-036
  8.100000000000001E-003   -1.786163697473842E-036
  8.200000000000001E-003   -2.054391267817792E-036
  8.300000000000002E-003   -2.196352095008300E-036
  8.400000000000001E-003   -2.155926333100253E-036
  8.500000000000002E-003   -1.877324995968857E-036
  8.600000000000002E-003   -1.311235429355649E-036
  8.700000000000001E-003   -4.224804829896903E-037
  8.800000000000002E-003    8.011332255312508E-037
  8.900000000000002E-003    2.339365380934969E-036
  9.000000000000001E-003    4.130399793841828E-036
  9.100000000000002E-003    6.063209242675451E-036
  9.200000000000002E-003    7.972916523768805E-036
  9.300000000000001E-003    9.640816051872064E-036
  9.400000000000002E-003    1.080076886866987E-035
  9.500000000000001E-003    1.115351125728571E-035
  9.600000000000001E-003    1.038999362837746E-035
  9.700000000000002E-003    8.224122587109400E-036
  9.800000000000001E-003    4.434247349182741E-036
  9.900000000000001E-003   -1.088643024334066E-036
  1.000000000000000E-002   -8.289589343536168E-036
  1.010000000000000E-002   -1.690044680981094E-035
  1.020000000000000E-002   -2.639960319530092E-035
  1.030000000000000E-002   -3.598869794054056E-035
  1.040000000000000E-002   -4.459502201122797E-035
  1.050000000000000E-002   -5.090801938796749E-035
  1.060000000000000E-002   -5.345686758260123E-035
  1.070000000000000E-002   -5.073330623068389E-035
  1.080000000000000E-002   -4.135953746092622E-035
  1.090000000000000E-002   -2.429535566836924E-035
  1.100000000000000E-002    9.281814178164138E-037
  1.110000000000000E-002    3.396878102826349E-035
  1.120000000000000E-002    7.345413628419358E-035
  1.130000000000000E-002    1.168181225183677E-034
  1.140000000000000E-002    1.602297144136014E-034
  1.150000000000000E-002    1.986528136488683E-034
  1.160000000000000E-002    2.260709190880416E-034
  1.170000000000000E-002    2.359008881442596E-034
  1.180000000000000E-002    2.216039310219659E-034
  1.190000000000000E-002    1.774802646811158E-034
  1.200000000000000E-002    9.960688166000345E-035
  1.210000000000000E-002   -1.315261749181399E-035
  1.220000000000000E-002   -1.581668582612897E-034
  1.230000000000000E-002   -3.282133159849212E-034
  1.240000000000000E-002   -5.109597918483434E-034
  1.250000000000000E-002   -6.889059673918981E-034
  1.260000000000000E-002   -8.399290492569707E-034
  1.270000000000000E-002   -9.385467826222082E-034
  1.280000000000000E-002   -9.579560111454075E-034
  1.290000000000000E-002   -8.728283500947254E-034
  1.300000000000000E-002   -6.627454073901326E-034
  1.310000000000000E-002   -3.160435707437786E-034
  1.320000000000000E-002    1.662757832813569E-034
  1.330000000000000E-002    7.670255810512984E-034
  1.340000000000000E-002    1.450237250277497E-033
  1.350000000000000E-002    2.160065478910989E-033
  1.360000000000000E-002    2.821752702982712E-033
  1.370000000000000E-002    3.345119649313139E-033
  1.380000000000000E-002    3.630871806249321E-033
  1.390000000000000E-002    3.579757103848501E-033
  1.400000000000000E-002    3.104268533866684E-033
  1.410000000000000E-002    2.142200405668625E-033
  1.420000000000000E-002    6.709461632579205E-034
  1.430000000000000E-002   -1.278964346182945E-033
  1.440000000000000E-002   -3.612917997005189E-033
  1.450000000000000E-002   -6.165869017912276E-033
  1.460000000000000E-002   -8.702597270009388E-033
  1.470000000000000E-002   -1.092633147969141E-032
  1.480000000000000E-002   -1.249696052985682E-032
  1.490000000000000E-002   -1.305924180571953E-032
  1.500000000000000E-002   -1.228033208820653E-032
  1.510000000000000E-002   -9.894656895409861E-033
  1.520000000000000E-002   -5.752741914489667E-033
  1.530000000000000E-002    1.307345334183475E-034
  1.540000000000000E-002    7.535565144365451E-033
  1.550000000000000E-002    1.600796630412130E-032
  1.560000000000000E-002    2.485264889434233E-032
  1.570000000000000E-002    3.315118861695300E-032
  1.580000000000000E-002    3.981130483529988E-032
  1.590000000000000E-002    4.364925408938788E-032
  1.600000000000000E-002    4.350407346523823E-032
  1.610000000000000E-002    3.837838979038191E-032
  1.620000000000000E-002    2.759595562948795E-032
  1.630000000000000E-002    1.096164295411681E-032
  1.640000000000000E-002   -1.109440030618895E-032
  1.650000000000000E-002   -3.740929193210052E-032
  1.660000000000000E-002   -6.603859168249226E-032
  1.670000000000000E-002   -9.428653268159932E-032
  1.680000000000000E-002   -1.188314760488227E-031
  1.690000000000000E-002   -1.359555812623727E-031
  1.700000000000000E-002   -1.418775296792514E-031
  1.710000000000000E-002   -1.331747455408901E-031
  1.720000000000000E-002   -1.072676344527849E-031
  1.730000000000000E-002   -6.292422479651395E-032
  1.740000000000000E-002   -7.310558330857543E-034
  1.750000000000000E-002    7.653311364041908E-032
  1.760000000000000E-002    1.636881772802728E-031
  1.770000000000000E-002    2.531725552911400E-031
  1.780000000000000E-002    3.353449467247653E-031
  1.790000000000000E-002    3.991005319676890E-031
  1.800000000000000E-002    4.328048232062895E-031
  1.810000000000000E-002    4.255120343568515E-031
  1.820000000000000E-002    3.683927616390624E-031
  1.830000000000000E-002    2.562537836997980E-031
  1.840000000000000E-002    8.899413269498001E-032
  1.850000000000000E-002   -1.271883954999975E-031
  1.860000000000000E-002   -3.790401040487633E-031
  1.870000000000000E-002   -6.461375585347104E-031