 -4.000000000000000E-002    0.000000000000000E+000
 -3.990000000000000E-002    0.000000000000000E+000
 -3.980000000000000E-002    0.000000000000000E+000
 -3.970000000000000E-002    7.214078525129094E-015
 -3.960000000000000E-002    4.747622247160819E-014
 -3.950000000000000E-002    1.751285152820018E-013
 -3.940000000000000E-002    4.746319863715159E-013
 -3.930000000000000E-002    1.048167982438897E-012
 -3.920000000000000E-002    1.986521312977830E-012
 -3.910000000000000E-002    3.324948801888715E-012
 -3.900000000000000E-002    4.990531302974647E-012
 -3.890000000000000E-002    6.751491145333297E-012
 -3.880000000000000E-002    8.181033244856542E-012
 -3.870000000000000E-002    8.647709971688367E-012
 -3.860000000000000E-002    7.340919309063707E-012
 -3.850000000000000E-002    3.334394283468820E-012
 -3.840000000000000E-002   -4.316511800866412E-012
 -3.830000000000000E-002   -1.645492243651548E-011
 -3.820000000000000E-002   -3.369640159265252E-011
 -3.810000000000000E-002   -5.631570109976797E-011
 -3.800000000000000E-002   -8.416396455090148E-011
 -3.790000000000000E-002   -1.166291680080572E-010
 -3.780000000000000E-002   -1.526449467993590E-010
 -3.770000000000000E-002   -1.907439097277722E-010
 -3.760000000000000E-002   -2.291431847506538E-010
 -3.750000000000000E-002   -2.658441603449810E-010
 -3.740000000000000E-002   -2.987266902542832E-010
 -3.730000000000000E-002   -3.256209613343733E-010
 -3.720000000000000E-002   -3.443481784548140E-010
 -3.710000000000000E-002   -3.527315514303175E-010
 -3.700000000000000E-002   -3.485911545887563E-010
 -3.690000000000000E-002   -3.297456269262505E-010
 -3.680000000000000E-002   -2.940491055758338E-010
 -3.670000000000000E-002   -2.394898375598797E-010
 -3.660000000000000E-002   -1.643687610095519E-010
 -3.650000000000000E-002   -6.755929252468393E-011
 -3.640000000000000E-002    5.116995261342540E-011
 -3.630000000000000E-002    1.908095932642490E-010
 -3.620000000000000E-002    3.487997930762369E-010
 -3.610000000000000E-002    5.208243188451873E-010
 -3.600000000000000E-002    7.007760769264805E-010
 -3.590000000000000E-002    8.809461423038381E-010
 -3.580000000000000E-002    1.052461854820899E-009
 -3.570000000000000E-002    1.205960819171856E-009
 -3.560000000000000E-002    1.332445984361545E-009
 -3.550000000000000E-002    1.424225590367114E-009
 -3.540000000000000E-002    1.475811508260222E-009
 -3.530000000000000E-002    1.484633901810441E-009
 -3.520000000000000E-002    1.451437932245877E-009
 -3.510000000000000E-002    1.380256679899031E-009
 -3.500000000000000E-002    1.277904417674580E-009
 -3.490000000000000E-002    1.153003587814914E-009
 -3.480000000000000E-002    1.014627280489820E-009
 -3.470000000000000E-002    8.707109294217883E-010
 -3.460000000000000E-002    7.264370456708783E-010
 -3.450000000000000E-002    5.828257990346676E-010
 -3.440000000000000E-002    4.357563059553627E-010
 -3.430000000000000E-002    2.756079284138900E-010
 -3.420000000000000E-002    8.763732304950346E-011
 -3.410000000000000E-002   -1.468840004877067E-010
 -3.400000000000000E-002   -4.488488578848869E-010
 -3.390000000000000E-002   -8.389838113979182E-010
 -3.380000000000000E-002   -1.335260897250133E-009
 -3.370000000000000E-002   -1.950343746347536E-009
 -3.360000000000000E-002   -2.689366514635960E-009
 -3.350000000000000E-002   -3.548301119730119E-009
 -3.340000000000000E-002   -4.513093466759098E-009
 -3.330000000000000E-002   -5.559644855285864E-009
 -3.320000000000000E-002   -6.654607604646135E-009
 -3.310000000000000E-002   -7.756854896513321E-009
 -3.300000000000000E-002   -8.819416148692382E-009
 -3.290000000000000E-002   -9.791628257327896E-009
 -3.280000000000000E-002   -1.062126232027056E-008
 -3.270000000000000E-002   -1.125644941863559E-008
 -3.260000000000000E-002   -1.164729895168939E-008
 -3.250000000000000E-002   -1.174723642804569E-008
 -3.240000000000000E-002   -1.151415042585109E-008
 -3.230000000000000E-002   -1.091155358618363E-008
 -3.220000000000000E-002   -9.909940856227860E-009
 -3.210000000000000E-002   -8.488541510726018E-009
 -3.200000000000000E-002   -6.637531452093738E-009
 -3.190000000000000E-002   -4.360648964950704E-009
 -3.180000000000000E-002   -1.677987542472557E-009
 -3.170000000000000E-002    1.371418213589087E-009
 -3.160000000000000E-002    4.727744813468806E-009
 -3.150000000000000E-002    8.309823958880895E-009
 -3.140000000000000E-002    1.201641000747129E-008
 -3.130000000000000E-002    1.572964837485297E-008
 -3.120000000000000E-002    1.932086792998593E-008
 -3.110000000000000E-002    2.265849089236530E-008
 -3.100000000000000E-002    2.561750450056519E-008
 -3.090000000000000E-002    2.808958070394859E-008
 -3.080000000000000E-002    2.999267428592115E-008
 -3.070000000000000E-002    3.127879591840932E-008
 -3.060000000000000E-002    3.193867404217570E-008
 -3.050000000000000E-002    3.200230524029335E-008
 -3.040000000000000E-002    3.153474824199785E-008
 -3.030000000000000E-002    3.062712532861162E-008
 -3.020000000000000E-002    2.938343130349614E-008
 -3.010000000000000E-002    2.790439551976644E-008
 -3.000000000000000E-002    2.627023886119900E-008
 -2.990000000000000E-002    2.452447156063823E-008
 -2.980000000000000E-002    2.266108380524899E-008
 -2.970000000000000E-002    2.061720987022867E-008
 -2.960000000000000E-002    1.827292650932536E-008
 -2.950000000000000E-002    1.545903504512269E-008
 -2.940000000000000E-002    1.197276478566619E-008
 -2.930000000000000E-002    7.600246531075325E-009
 -2.920000000000000E-002    2.143703117401578E-009
 -2.910000000000000E-002   -4.549554393962417E-009
 -2.900000000000000E-002   -1.255962787174926E-008
 -2.890000000000000E-002   -2.187151635963058E-008
 -2.880000000000000E-002   -3.236061520224839E-008
 -2.870000000000000E-002   -4.378852446726213E-008
 -2.860000000000000E-002   -5.581037200171618E-008
 -2.850000000000000E-002   -6.799349105285233E-008
 -2.840000000000000E-002   -7.984594998784705E-008
 -2.830000000000000E-002   -9.085215307532355E-008
 -2.820000000000000E-002   -1.005118763984377E-007
 -2.810000000000000E-002   -1.083784313972005E-007
 -2.800000000000000E-002   -1.140918121888846E-007
 -2.790000000000000E-002   -1.174031107292846E-007
 -2.780000000000000E-002   -1.181875469701654E-007
 -2.770000000000000E-002   -1.164447728273194E-007
 -2.760000000000000E-002   -1.122867278822851E-007
 -2.750000000000000E-002   -1.059147198351792E-007
 -2.740000000000000E-002   -9.758882979558952E-008
 -2.730000000000000E-002   -8.759351779587335E-008
 -2.720000000000000E-002   -7.620376409440184E-008
 -2.710000000000000E-002   -6.365580144480428E-008
 -2.700000000000000E-002   -5.012576684274468E-008
 -2.690000000000000E-002   -3.571845728312158E-008
 -2.680000000000000E-002   -2.046681028284725E-008
 -2.670000000000000E-002   -4.341288082691382E-009
 -2.660000000000000E-002    1.273295293101634E-008
 -2.650000000000000E-002    3.085442929498240E-008
 -2.640000000000000E-002    5.012278817560508E-008
 -2.630000000000000E-002    7.061908291588610E-008
 -2.620000000000000E-002    9.239184579237063E-008
 -2.610000000000000E-002    1.154509023001302E-007
 -2.600000000000000E-002    1.397695761053422E-007
 -2.590000000000000E-002    1.652945144770765E-007
 -2.580000000000000E-002    1.919612708073140E-007
 -2.570000000000000E-002    2.197127034438725E-007
 -2.560000000000000E-002    2.485172901354593E-007
 -2.550000000000000E-002    2.783843365610837E-007
 -2.540000000000000E-002    3.093742059112075E-007
 -2.530000000000000E-002    3.416027187487349E-007
 -2.520000000000000E-002    3.752402065388840E-007
 -2.510000000000000E-002    4.105071621342503E-007
 -2.500000000000000E-002    4.476696182408048E-007
 -2.490000000000000E-002    4.870372316050629E-007
 -2.480000000000000E-002    5.289679198294332E-007
 -2.470000000000000E-002    5.738809598940596E-007
 -2.460000000000000E-002    6.222793430864619E-007
 -2.450000000000000E-002    6.747807274827418E-007
 -2.440000000000000E-002    7.321531918029175E-007
 -2.430000000000000E-002    7.953516726071892E-007
 -2.420000000000000E-002    8.655483114118340E-007
 -2.410000000000000E-002    9.441502460860297E-007
 -2.400000000000000E-002    1.032798910801470E-006
 -2.390000000000000E-002    1.133347041955124E-006
 -2.380000000000000E-002    1.247811263984406E-006
 -2.370000000000000E-002    1.378302262121383E-006
 -2.360000000000000E-002    1.526937696400705E-006
 -2.350000000000000E-002    1.695746907106776E-006
 -2.340000000000000E-002    1.886577786162904E-006
 -2.330000000000000E-002    2.101016548011822E-006
 -2.320000000000000E-002    2.340335367658195E-006
 -2.310000000000000E-002    2.605473148031687E-006
 -2.300000000000000E-002    2.897060685449558E-006
 -2.290000000000000E-002    3.215485891212766E-006
 -2.280000000000000E-002    3.560998457168320E-006
 -2.270000000000000E-002    3.933844895094342E-006
 -2.260000000000000E-002    4.334417917862025E-006
 -2.250000000000000E-002    4.763403874821627E-006
 -2.240000000000000E-002    5.221911996060380E-006
 -2.230000000000000E-002    5.711564297836364E-006
 -2.220000000000000E-002    6.234539377257499E-006
 -2.210000000000000E-002    6.793553675042743E-006
 -2.200000000000000E-002    7.391788231308508E-006
 -2.190000000000000E-002    8.032760312614968E-006
 -2.180000000000000E-002    8.720157013096111E-006
 -2.170000000000000E-002    9.457651818868900E-006
 -2.160000000000000E-002    1.024871918628566E-005
 -2.150000000000000E-002    1.109648262073485E-005
 -2.140000000000000E-002    1.200361058595353E-005
 -2.130000000000000E-002    1.297227213763273E-005
 -2.120000000000000E-002    1.400417501967152E-005
 -2.110000000000000E-002    1.510067124918481E-005
 -2.100000000000000E-002    1.626293156334219E-005
 -2.090000000000000E-002    1.749216658455033E-005
 -2.080000000000000E-002    1.878987014540590E-005
 -2.070000000000000E-002    2.015805681946189E-005
 -2.060000000000000E-002    2.159946910939786E-005
 -2.050000000000000E-002    2.311771918177367E-005
 -2.040000000000000E-002    2.471735978111063E-005
 -2.030000000000000E-002    2.640386558865681E-005
 -2.020000000000000E-002    2.818353260501609E-005
 -2.010000000000000E-002    3.006329688363561E-005
 -2.000000000000000E-002    3.205051268385995E-005
 -1.990000000000000E-002    3.415270718735483E-005
 -1.980000000000000E-002    3.637733402561626E-005
 -1.970000000000000E-002    3.873157686322017E-005
 -1.960000000000000E-002    4.122221776516602E-005
 -1.950000000000000E-002    4.385559195390438E-005
 -1.940000000000000E-002    4.663762944193588E-005
 -1.930000000000000E-002    4.957399733938384E-005
 -1.920000000000000E-002    5.267029899017416E-005
 -1.910000000000000E-002    5.593233892444370E-005
 -1.900000000000000E-002    5.936639817879068E-005
 -1.890000000000000E-002    6.297948654696416E-005
 -1.880000000000000E-002    6.677955844940601E-005
 -1.870000000000000E-002    7.077565221323398E-005
 -1.860000000000000E-002    7.497794551983633E-005
 -1.850000000000000E-002    7.939771724117238E-005
 -1.840000000000000E-002    8.404724738949653E-005
 -1.830000000000000E-002    8.893961379433750E-005
 -1.820000000000000E-002    9.408850520374323E-005
 -1.810000000000000E-002    9.950800609814274E-005
 -1.800000000000000E-002    1.052124192206157E-004
 -1.790000000000000E-002    1.112161644545735E-004
 -1.780000000000000E-002    1.175337326636928E-004
 -1.770000000000000E-002    1.241797659990839E-004
 -1.760000000000000E-002    1.311691912090185E-004
 -1.750000000000000E-002    1.385174570450524E-004
 -1.740000000000000E-002    1.462408025658313E-004
 -1.730000000000000E-002    1.543565489128718E-004
 -1.720000000000000E-002    1.628833450582027E-004
 -1.710000000000000E-002    1.718414182673256E-004
 -1.700000000000000E-002    1.812527218882563E-004
 -1.690000000000000E-002    1.911409607249136E-004
 -1.680000000000000E-002    2.015316114022273E-004
 -1.670000000000000E-002    2.124517816970585E-004
 -1.660000000000000E-002    2.239300641478637E-004
 -1.650000000000000E-002    2.359963572269031E-004
 -1.640000000000000E-002    2.486816774007027E-004
 -1.630000000000000E-002    2.620180053253555E-004
 -1.620000000000000E-002    2.760382493683554E-004
 -1.610000000000000E-002    2.907762260055353E-004
 -1.600000000000000E-002    3.062667578640411E-004
 -1.590000000000000E-002    3.225458009890234E-004
 -1.580000000000000E-002    3.396507108214704E-004
 -1.570000000000000E-002    3.576204768639317E-004
 -1.560000000000000E-002    3.764959664546783E-004
 -1.550000000000000E-002    3.963200258195277E-004
 -1.540000000000000E-002    4.171377359932858E-004
 -1.530000000000000E-002    4.389963296117784E-004
 -1.520000000000000E-002    4.619452177417657E-004
 -1.510000000000000E-002    4.860357010619254E-004
 -1.500000000000000E-002    5.113209369300882E-004
 -1.490000000000000E-002    5.378556197396326E-004
 -1.480000000000000E-002    5.656957502837630E-004
 -1.470000000000000E-002    5.948985461860146E-004
 -1.460000000000000E-002    6.255223141188917E-004
 -1.450000000000000E-002    6.576265163110585E-004
 -1.440000000000000E-002    6.912719865061284E-004
 -1.430000000000000E-002    7.265211175773860E-004
 -1.420000000000000E-002    7.634384171503021E-004
 -1.410000000000000E-002    8.020907001349891E-004
 -1.400000000000000E-002    8.425477023431946E-004
 -1.390000000000000E-002    8.848824116129328E-004
 -1.380000000000000E-002    9.291712781347356E-004
 -1.370000000000000E-002    9.754944929543764E-004
 -1.360000000000000E-002    1.023935936861631E-003
 -1.350000000000000E-002    1.074583090343991E-003
 -1.340000000000000E-002    1.127526659065274E-003
 -1.330000000000000E-002    1.182860343983211E-003
 -1.320000000000000E-002    1.240680494481199E-003
 -1.310000000000000E-002    1.301085451580884E-003
 -1.300000000000000E-002    1.364175605369042E-003
 -1.290000000000000E-002    1.430053082664288E-003
 -1.280000000000000E-002    1.498821709639196E-003
 -1.270000000000000E-002    1.570587408146539E-003
 -1.260000000000000E-002    1.645458273124229E-003
 -1.250000000000000E-002    1.723545307476875E-003
 -1.240000000000000E-002    1.804962827442973E-003
 -1.230000000000000E-002    1.889829367840687E-003
 -1.220000000000000E-002    1.978267740766074E-003
 -1.210000000000000E-002    2.070405914527883E-003
 -1.200000000000000E-002    2.166376913351766E-003
 -1.190000000000000E-002    2.266319102407867E-003
 -1.180000000000000E-002    2.370376310969104E-003
 -1.170000000000000E-002    2.478696538398808E-003
 -1.160000000000000E-002    2.591432813958368E-003
 -1.150000000000000E-002    2.708741617756409E-003
 -1.140000000000000E-002    2.830782981718512E-003
 -1.130000000000000E-002    2.957720091968285E-003
 -1.120000000000000E-002    3.089718503569840E-003
 -1.110000000000000E-002    3.226946359509047E-003
 -1.100000000000000E-002    3.369574975223673E-003
 -1.090000000000000E-002    3.517778199777673E-003
 -1.080000000000000E-002    3.671734006582153E-003
 -1.070000000000000E-002    3.831624705411379E-003
 -1.060000000000000E-002    3.997637354226841E-003
 -1.050000000000000E-002    4.169965278636265E-003
 -1.040000000000000E-002    4.348807702808293E-003
 -1.030000000000000E-002    4.534370257339210E-003
 -1.020000000000000E-002    4.726866209366559E-003
 -1.010000000000000E-002    4.926515192253990E-003
 -1.000000000000000E-002    5.133543184224875E-003
 -9.899999999999999E-003    5.348182122405685E-003
 -9.800000000000000E-003    5.570669152149679E-003
 -9.699999999999999E-003    5.801246454590563E-003
 -9.599999999999999E-003    6.040160731722985E-003
 -9.500000000000000E-003    6.287661037008517E-003
 -9.399999999999999E-003    6.544001781195898E-003
 -9.299999999999999E-003    6.809438917513551E-003
 -9.200000000000000E-003    7.084233978073160E-003
 -9.099999999999999E-003    7.368651389897920E-003
 -8.999999999999999E-003    7.662961853716627E-003
 -8.900000000000000E-003    7.967440557744284E-003
 -8.799999999999999E-003    8.282369619224475E-003
 -8.699999999999999E-003    8.608037441411845E-003
 -8.600000000000000E-003    8.944740963630014E-003
 -8.499999999999999E-003    9.292784036207202E-003
 -8.399999999999999E-003    9.652476676715904E-003
 -8.300000000000000E-003    1.002413745898625E-002
 -8.199999999999999E-003    1.040809106408586E-002
 -8.100000000000000E-003    1.080466688470893E-002
 -8.000000000000000E-003    1.121419963128122E-002
 -7.899999999999999E-003    1.163702812452621E-002
 -7.800000000000000E-003    1.207349360803651E-002
 -7.699999999999999E-003    1.252394080982900E-002
 -7.599999999999999E-003    1.298871668393492E-002
 -7.499999999999999E-003    1.346817040311738E-002
 -7.399999999999999E-003    1.396265395850194E-002
 -7.299999999999999E-003    1.447252220249168E-002
 -7.199999999999999E-003    1.499813360935162E-002
 -7.100000000000000E-003    1.553985115741694E-002
 -6.999999999999999E-003    1.609804207978735E-002
 -6.899999999999999E-003    1.667307721593522E-002
 -6.800000000000000E-003    1.726533537648162E-002
 -6.699999999999999E-003    1.787519771593069E-002
 -6.599999999999999E-003    1.850305041287294E-002
 -6.499999999999999E-003    1.914928309940474E-002
 -6.399999999999999E-003    1.981428896494835E-002
 -6.299999999999999E-003    2.049846177690044E-002
 -6.199999999999999E-003    2.120219528453765E-002
 -6.100000000000000E-003    2.192588412375472E-002
 -5.999999999999999E-003    2.266992220614964E-002
 -5.899999999999999E-003    2.343470117591903E-002
 -5.800000000000000E-003    2.422061347006639E-002
 -5.699999999999999E-003    2.502804702541859E-002
 -5.599999999999999E-003    2.585738940537284E-002
 -5.499999999999999E-003    2.670902636701689E-002
 -5.399999999999999E-003    2.758334371776430E-002
 -5.299999999999999E-003    2.848072767108983E-002
 -5.199999999999999E-003    2.940156227109532E-002
 -5.099999999999999E-003    3.034623308779564E-002
 -4.999999999999999E-003    3.131512264680241E-002
 -4.899999999999999E-003    3.230861544873233E-002
 -4.799999999999999E-003    3.332709264874636E-002
 -4.699999999999999E-003    3.437093118493179E-002
 -4.599999999999999E-003    3.544050546748750E-002
 -4.499999999999999E-003    3.653618555888448E-002
 -4.399999999999999E-003    3.765833247276773E-002
 -4.299999999999999E-003    3.880730331890798E-002
 -4.199999999999999E-003    3.998344301850223E-002
 -4.099999999999999E-003    4.118709113087884E-002
 -3.999999999999999E-003    4.241857387363246E-002
 -3.899999999999999E-003    4.367821108958580E-002
 -3.799999999999999E-003    4.496631012804585E-002
 -3.699999999999999E-003    4.628317136991535E-002
 -3.599999999999999E-003    4.762908142900051E-002
 -3.499999999999999E-003    4.900432337883381E-002
 -3.399999999999999E-003    5.040916773411882E-002
 -3.299999999999999E-003    5.184387560168937E-002
 -3.199999999999999E-003    5.330869088112471E-002
 -3.099999999999999E-003    5.480385898580183E-002
 -2.999999999999999E-003    5.632960181495528E-002
 -2.899999999999999E-003    5.788613145669649E-002
 -2.799999999999999E-003    5.947364029978872E-002
 -2.699999999999999E-003    6.109231117387882E-002
 -2.599999999999999E-003    6.274230084774550E-002
 -2.499999999999999E-003    6.442375437964738E-002
 -2.399999999999999E-003    6.613679616409816E-002
 -2.299999999999999E-003    6.788152466301713E-002
 -2.199999999999999E-003    6.965801902311726E-002
 -2.099999999999999E-003    7.146634153558340E-002
 -1.999999999999999E-003    7.330653495441608E-002
 -1.899999999999999E-003    7.517860826962609E-002
 -1.799999999999999E-003    7.708255847259377E-002
 -1.699999999999999E-003    7.901835962815962E-002
 -1.599999999999999E-003    8.098595822301538E-002
 -1.499999999999999E-003    8.298528786717545E-002
 -1.399999999999999E-003    8.501624427565853E-002
 -1.299999999999999E-003    8.707870621996908E-002
 -1.199999999999999E-003    8.917251703258872E-002
 -1.099999999999999E-003    9.129750021949821E-002
 -9.999999999999989E-004    9.345345273196931E-002
 -8.999999999999990E-004    9.564013275719727E-002
 -7.999999999999990E-004    9.785726573390707E-002
 -6.999999999999989E-004    0.100104550569038     
 -5.999999999999990E-004    0.102381645371462     
 -4.999999999999989E-004    0.104688173332192     
 -3.999999999999989E-004    0.107023734274734     
 -2.999999999999989E-004    0.109387872248407     
 -1.999999999999989E-004    0.111780115590368     
 -9.999999999999892E-005    0.114199942905691     
  1.084202172485504E-018    0.116646792483902     
  1.000000000000011E-004    0.119120076628099     
  2.000000000000011E-004    0.121619162362097     
  3.000000000000011E-004    0.124143370712839     
  4.000000000000011E-004    0.126691994477597     
  5.000000000000011E-004    0.129264272307837     
  6.000000000000011E-004    0.131859401549952     
  7.000000000000011E-004    0.134476542605356     
  8.000000000000011E-004    0.137114797975273     
  9.000000000000012E-004    0.139773242623484     
  1.000000000000001E-003    0.142450889894137     
  1.100000000000001E-003    0.145146702782417     
  1.200000000000001E-003    0.147859603422616     
  1.300000000000001E-003    0.150588454568888     
  1.400000000000001E-003    0.153332064465829     
  1.500000000000001E-003    0.156089206381057     
  1.600000000000001E-003    0.158858588619033     
  1.700000000000001E-003    0.161638873339914     
  1.800000000000001E-003    0.164428654972054     
  1.900000000000001E-003    0.167226488809349     
  2.000000000000001E-003    0.170030873636191     
  2.100000000000001E-003    0.172840243152909     
  2.200000000000001E-003    0.175652980232168     
  2.300000000000001E-003    0.178467419046060     
  2.400000000000001E-003    0.181281811776760     
  2.500000000000001E-003    0.184094375868154     
  2.600000000000001E-003    0.186903269305735     
  2.700000000000001E-003    0.189706575267368     
  2.800000000000001E-003    0.192502305639946     
  2.900000000000001E-003    0.195288449653523     
  3.000000000000001E-003    0.198062893647650     
  3.100000000000001E-003    0.200823491215361     
  3.200000000000001E-003    0.203568006638018     
  3.300000000000001E-003    0.206294161971928     
  3.400000000000001E-003    0.208999598274811     
  3.500000000000001E-003    0.211681889969989     
  3.600000000000001E-003    0.214338554403125     
  3.700000000000001E-003    0.216967046411448     
  3.800000000000001E-003    0.219564736170934     
  3.900000000000001E-003    0.222128949202582     
  4.000000000000001E-003    0.224656936294274     
  4.100000000000001E-003    0.227145867284175     
  4.200000000000001E-003    0.229592856397972     
  4.300000000000001E-003    0.231994940302265     
  4.400000000000001E-003    0.234349103476304     
  4.500000000000001E-003    0.236652263568190     
  4.600000000000002E-003    0.238901244273322     
  4.700000000000001E-003    0.241092819185823     
  4.800000000000001E-003    0.243223686347002     
  4.900000000000002E-003    0.245290473032509     
  5.000000000000001E-003    0.247289739329001     
  5.100000000000001E-003    0.249217973169009     
  5.200000000000001E-003    0.251071586106773     
  5.300000000000002E-003    0.252846917253101     
  5.400000000000001E-003    0.254540236216214     
  5.500000000000001E-003    0.256147769234934     
  5.600000000000002E-003    0.257665640481484     
  5.700000000000001E-003    0.259089920503676     
  5.800000000000001E-003    0.260416597752991     
  5.900000000000002E-003    0.261641599667273     
  6.000000000000001E-003    0.262760792008514     
  6.100000000000001E-003    0.263769979812241     
  6.200000000000002E-003    0.264664894557314     
  6.300000000000002E-003    0.265441190543162     
  6.400000000000001E-003    0.266094469043902     
  6.500000000000001E-003    0.266620267743941     
  6.600000000000002E-003    0.267014057268613     
  6.700000000000001E-003    0.267271262117429     
  6.800000000000001E-003    0.267387210839706     
  6.900000000000002E-003    0.267357195081146     
  7.000000000000001E-003    0.267176452422619     
  7.100000000000001E-003    0.266840139376361     
  7.200000000000002E-003    0.266343380450607     
  7.300000000000002E-003    0.265681222967324     
  7.400000000000001E-003    0.264848664886491     
  7.500000000000001E-003    0.263840663818908     
  7.600000000000002E-003    0.262652096154484     
  7.700000000000001E-003    0.261277852262323     
  7.800000000000001E-003    0.259712721644602     
  7.900000000000001E-003    0.257951467241318     
  8.000000000000002E-003    0.255988823825172     
  8.100000000000001E-003    0.253819496551621     
  8.200000000000001E-003    0.251438132700464     
  8.300000000000002E-003    0.248839367372075     
  8.400000000000001E-003    0.246017795133719     
  8.500000000000002E-003    0.242967988417458     
  8.600000000000002E-003    0.239684495280529     
  8.700000000000001E-003    0.236161846484490     
  8.800000000000002E-003    0.232394549179436     
  8.900000000000002E-003    0.228377097707098     
  9.000000000000001E-003    0.224103956824277     
  9.100000000000002E-003    0.219569630293583     
  9.200000000000002E-003    0.214768573627601     
  9.300000000000001E-003    0.209695273719773     
  9.400000000000002E-003    0.204344218514921     
  9.500000000000001E-003    0.198709923406332     
  9.600000000000001E-003    0.192786890587397     
  9.700000000000002E-003    0.186569698865042     
  9.800000000000001E-003    0.180052915786983     
  9.900000000000001E-003    0.173231166147071     
  1.000000000000000E-002    0.166099119580924     
  1.010000000000000E-002    0.158651483248140     
  1.020000000000000E-002    0.150883025692499     
  1.030000000000000E-002    0.142788561893619     
  1.040000000000000E-002    0.134362993945134     
  1.050000000000000E-002    0.125601276138213     
  1.060000000000000E-002    0.116498438626343     
  1.070000000000000E-002    0.107049603453699     
  1.080000000000000E-002    9.724998698383248E-002
  1.090000000000000E-002    8.709489302296620E-002
  1.100000000000000E-002    7.657974319131838E-002
  1.110000000000000E-002    6.570008323768083E-002
  1.120000000000000E-002    5.445157057793670E-002
  1.130000000000000E-002    4.283001491480627E-002
  1.140000000000000E-002    3.083135484427371E-002
  1.150000000000000E-002    1.845170101503492E-002
  1.160000000000000E-002    5.687312577842931E-003
  1.170000000000000E-002   -7.465376609379633E-003
  1.180000000000000E-002   -2.100974880330833E-002
  1.190000000000000E-002   -3.494898497532941E-002
  1.200000000000000E-002   -4.928610064611490E-002
  1.210000000000000E-002   -6.402387493202753E-002
  1.220000000000000E-002   -7.916487751819588E-002
  1.230000000000000E-002   -9.471148039242447E-002
  1.240000000000000E-002   -0.110665790136112     
  1.250000000000000E-002   -0.127029713380148     
  1.260000000000000E-002   -0.143804859736559     
  1.270000000000000E-002   -0.160992589042881     
  1.280000000000000E-002   -0.178593979234150     
  1.290000000000000E-002   -0.196609823640234     
  1.300000000000000E-002   -0.215040622830194     
  1.310000000000000E-002   -0.233886555119344     
  1.320000000000000E-002   -0.253147480886665     
  1.330000000000000E-002   -0.272822898922652     
  1.340000000000000E-002   -0.292912006341664     
  1.350000000000000E-002   -0.313413635042462     
  1.360000000000000E-002   -0.334326216294548     
  1.370000000000000E-002   -0.355647842876485     
  1.380000000000000E-002   -0.377376239644084     
  1.390000000000000E-002   -0.399508667137858     
  1.400000000000000E-002   -0.422042100941345     
  1.410000000000000E-002   -0.444973002295877     
  1.420000000000000E-002   -0.468297485716758     
  1.430000000000000E-002   -0.492011181837165     
  1.440000000000000E-002   -0.516109296902220     
  1.450000000000000E-002   -0.540586627693516     
  1.460000000000000E-002   -0.565437434754777     
  1.470000000000000E-002   -0.590655549414057     
  1.480000000000000E-002   -0.616234318992553     
  1.490000000000000E-002   -0.642166621474207     
  1.500000000000000E-002   -0.668444803426893     
  1.510000000000000E-002   -0.695060691115452     
  1.520000000000000E-002   -0.722005621576040     
  1.530000000000000E-002   -0.749270404964889     
  1.540000000000000E-002   -0.776845287706192     
  1.550000000000000E-002   -0.804720057067423     
  1.560000000000000E-002   -0.832883884276965     
  1.570000000000000E-002   -0.861325466027401     
  1.580000000000000E-002   -0.890032934894483     
  1.590000000000000E-002   -0.918993860762134     
  1.600000000000000E-002   -0.948195325116067     
  1.610000000000000E-002   -0.977623689814909     
  1.620000000000000E-002    -1.00726499096868     
  1.630000000000000E-002    -1.03710453658669     
  1.640000000000000E-002    -1.06712716920956     
  1.650000000000000E-002    -1.09731706569858     
  1.660000000000000E-002    -1.12765794360307     
  1.670000000000000E-002    -1.15813283480272     
  1.680000000000000E-002    -1.18872438901764     
  1.690000000000000E-002    -1.21941457457148     
  1.700000000000000E-002    -1.25018472015102     
  1.710000000000000E-002    -1.28101565929745     
  1.720000000000000E-002    -1.31188773116102     
  1.730000000000000E-002    -1.34278067650554     
  1.740000000000000E-002    -1.37367371523157     
  1.750000000000000E-002    -1.40454566486187     
  1.760000000000000E-002    -1.43537465387823     
  1.770000000000000E-002    -1.46613831016965     
  1.780000000000000E-002    -1.49681377687291     
  1.790000000000000E-002    -1.52737789799593     
  1.800000000000000E-002    -1.55780681302847     
  1.810000000000000E-002    -1.58807629307205     
  1.820000000000000E-002    -1.61816156246563     
  1.830000000000000E-002    -1.64803758944416     
  1.840000000000000E-002    -1.67767882853014     
  1.850000000000000E-002    -1.70705920749867     
  1.860000000000000E-002    -1.73615232369976     
  1.870000000000000E-002    -1.76493162505743     