 -4.000000000000000E-002    0.000000000000000E+000
 -3.990000000000000E-002    0.000000000000000E+000
 -3.980000000000000E-002    0.000000000000000E+000
 -3.970000000000000E-002    0.000000000000000E+000
 -3.960000000000000E-002    0.000000000000000E+000
 -3.950000000000000E-002    0.000000000000000E+000
 -3.940000000000000E-002    0.000000000000000E+000
 -3.930000000000000E-002    0.000000000000000E+000
 -3.920000000000000E-002    0.000000000000000E+000
 -3.910000000000000E-002    0.000000000000000E+000
 -3.900000000000000E-002    0.000000000000000E+000
 -3.890000000000000E-002    0.000000000000000E+000
 -3.880000000000000E-002    0.000000000000000E+000
 -3.870000000000000E-002    0.000000000000000E+000
 -3.860000000000000E-002    0.000000000000000E+000
 -3.850000000000000E-002    0.000000000000000E+000
 -3.840000000000000E-002    0.000000000000000E+000
 -3.830000000000000E-002    0.000000000000000E+000
 -3.820000000000000E-002    0.000000000000000E+000
 -3.810000000000000E-002    0.000000000000000E+000
 -3.800000000000000E-002    0.000000000000000E+000
 -3.790000000000000E-002    0.000000000000000E+000
 -3.780000000000000E-002    0.000000000000000E+000
 -3.770000000000000E-002    0.000000000000000E+000
 -3.760000000000000E-002    0.000000000000000E+000
 -3.750000000000000E-002    0.000000000000000E+000
 -3.740000000000000E-002    0.000000000000000E+000
 -3.730000000000000E-002    0.000000000000000E+000
 -3.720000000000000E-002    0.000000000000000E+000
 -3.710000000000000E-002    0.000000000000000E+000
 -3.700000000000000E-002    0.000000000000000E+000
 -3.690000000000000E-002    0.000000000000000E+000
 -3.680000000000000E-002    0.000000000000000E+000
 -3.670000000000000E-002    0.000000000000000E+000
 -3.660000000000000E-002    0.000000000000000E+000
 -3.650000000000000E-002    0.000000000000000E+000
 -3.640000000000000E-002    0.000000000000000E+000
 -3.630000000000000E-002    0.000000000000000E+000
 -3.620000000000000E-002    0.000000000000000E+000
 -3.610000000000000E-002    0.000000000000000E+000
 -3.600000000000000E-002    0.000000000000000E+000
 -3.590000000000000E-002    0.000000000000000E+000
 -3.580000000000000E-002    0.000000000000000E+000
 -3.570000000000000E-002    0.000000000000000E+000
 -3.560000000000000E-002    0.000000000000000E+000
 -3.550000000000000E-002    0.000000000000000E+000
 -3.540000000000000E-002    0.000000000000000E+000
 -3.530000000000000E-002    0.000000000000000E+000
 -3.520000000000000E-002    0.000000000000000E+000
 -3.510000000000000E-002    0.000000000000000E+000
 -3.500000000000000E-002    0.000000000000000E+000
 -3.490000000000000E-002    0.000000000000000E+000
 -3.480000000000000E-002    0.000000000000000E+000
 -3.470000000000000E-002    0.000000000000000E+000
 -3.460000000000000E-002    0.000000000000000E+000
 -3.450000000000000E-002    0.000000000000000E+000
 -3.440000000000000E-002    0.000000000000000E+000
 -3.430000000000000E-002    0.000000000000000E+000
 -3.420000000000000E-002    0.000000000000000E+000
 -3.410000000000000E-002    0.000000000000000E+000
 -3.400000000000000E-002    0.000000000000000E+000
 -3.390000000000000E-002    0.000000000000000E+000
 -3.380000000000000E-002    5.567322634479101E-048
 -3.370000000000000E-002    4.548355512367377E-047
 -3.360000000000000E-002    1.194298212823669E-046
 -3.350000000000000E-002    3.089728832654453E-046
 -3.340000000000000E-002    6.352738322969517E-046
 -3.330000000000000E-002    1.189764497609721E-045
 -3.320000000000000E-002    2.023657135839042E-045
 -3.310000000000000E-002    3.215545000373932E-045
 -3.300000000000000E-002    4.568362084540041E-045
 -3.290000000000000E-002    5.403058608836480E-045
 -3.280000000000000E-002    4.105291409885415E-045
 -3.270000000000000E-002   -1.191237099512694E-045
 -3.260000000000000E-002   -1.498165279348464E-044
 -3.250000000000000E-002   -4.474710554901465E-044
 -3.240000000000000E-002   -9.903279835888699E-044
 -3.230000000000000E-002   -1.904499335249409E-043
 -3.220000000000000E-002   -3.333348955238847E-043
 -3.210000000000000E-002   -5.383474567401650E-043
 -3.200000000000000E-002   -8.028096985174450E-043
 -3.190000000000000E-002   -1.092692980610575E-042
 -3.180000000000000E-002   -1.316227596171665E-042
 -3.170000000000000E-002   -1.280461129808396E-042
 -3.160000000000000E-002   -6.378965095508336E-043
 -3.150000000000000E-002    1.169671034727128E-042
 -3.140000000000000E-002    4.970059266939963E-042
 -3.130000000000000E-002    1.186210079840391E-041
 -3.120000000000000E-002    2.313533690419465E-041
 -3.110000000000000E-002    4.000900603505833E-041
 -3.100000000000000E-002    6.309040365955385E-041
 -3.090000000000000E-002    9.141006839295822E-041
 -3.080000000000000E-002    1.209287905155190E-040
 -3.070000000000000E-002    1.424086986633656E-040
 -3.060000000000000E-002    1.387343225129904E-040
 -3.050000000000000E-002    8.196233208074446E-041
 -3.040000000000000E-002   -6.915897716292191E-041
 -3.030000000000000E-002   -3.699102333561049E-040
 -3.020000000000000E-002   -8.864535472131730E-040
 -3.010000000000000E-002   -1.685880892424299E-039
 -3.000000000000000E-002   -2.815705750260955E-039
 -2.990000000000000E-002   -4.268671861557893E-039
 -2.980000000000000E-002   -5.929284465673610E-039
 -2.970000000000000E-002   -7.500586872004047E-039
 -2.960000000000000E-002   -8.414285049304589E-039
 -2.950000000000000E-002   -7.735145563436752E-039
 -2.940000000000000E-002   -4.082422339141933E-039
 -2.930000000000000E-002    4.393120720189583E-039
 -2.920000000000000E-002    1.991923332414983E-038
 -2.910000000000000E-002    4.482275872787733E-038
 -2.900000000000000E-002    8.097011443612051E-038
 -2.890000000000000E-002    1.288357570239901E-037
 -2.880000000000000E-002    1.861295641653748E-037
 -2.870000000000000E-002    2.459748534883490E-037
 -2.860000000000000E-002    2.947420132424017E-037
 -2.850000000000000E-002    3.098208919171569E-037
 -2.840000000000000E-002    2.578628003890274E-037
 -2.830000000000000E-002    9.433159779376484E-038
 -2.820000000000000E-002   -2.344608086189880E-037
 -2.810000000000000E-002   -7.853591367072379E-037
 -2.800000000000000E-002   -1.606774068837870E-036
 -2.790000000000000E-002   -2.719986874161978E-036
 -2.780000000000000E-002   -4.092434347658952E-036
 -2.770000000000000E-002   -5.603322313934816E-036
 -2.760000000000000E-002   -7.004031925238621E-036
 -2.750000000000000E-002   -7.878857386344767E-036
 -2.740000000000000E-002   -7.615593567499923E-036
 -2.730000000000000E-002   -5.400087022918124E-036
 -2.720000000000000E-002   -2.534166542403712E-037
 -2.710000000000000E-002    8.866223730401372E-036
 -2.700000000000000E-002    2.287414992582862E-035
 -2.690000000000000E-002    4.226354593150505E-035
 -2.680000000000000E-002    6.669578477300280E-035
 -2.670000000000000E-002    9.448911958139736E-035
 -2.660000000000000E-002    1.220490830994940E-034
 -2.650000000000000E-002    1.433257211882120E-034
 -2.640000000000000E-002    1.494333944662975E-034
 -2.630000000000000E-002    1.286226943957814E-034
 -2.620000000000000E-002    6.684142342780128E-035
 -2.610000000000000E-002   -5.085144936511512E-035
 -2.600000000000000E-002   -2.377676555040175E-034
 -2.590000000000000E-002   -5.017896037326712E-034
 -2.580000000000000E-002   -8.402675426662280E-034
 -2.570000000000000E-002   -1.233850255319830E-033
 -2.560000000000000E-002   -1.639850923641543E-033
 -2.550000000000000E-002   -1.986210714029754E-033
 -2.540000000000000E-002   -2.167642660104613E-033
 -2.530000000000000E-002   -2.046043211269276E-033
 -2.520000000000000E-002   -1.457638130971248E-033
 -2.510000000000000E-002   -2.294347390187394E-034
 -2.500000000000000E-002    1.792799812180314E-033
 -2.490000000000000E-002    4.703803667299540E-033
 -2.480000000000000E-002    8.485900501124883E-033
 -2.470000000000000E-002    1.294716290921724E-032
 -2.460000000000000E-002    1.765749999292881E-032
 -2.450000000000000E-002    2.189371955731733E-032
 -2.440000000000000E-002    2.460901273161633E-032
 -2.430000000000000E-002    2.444610999962194E-032
 -2.420000000000000E-002    1.981556664642526E-032
 -2.410000000000000E-002    9.059876820308474E-033
 -2.400000000000000E-002   -9.280911139996522E-033
 -2.390000000000000E-002   -3.609705182738994E-032
 -2.380000000000000E-002   -7.124263148898017E-032
 -2.370000000000000E-002   -1.130107651300728E-031
 -2.360000000000000E-002   -1.576159136895407E-031
 -2.350000000000000E-002   -1.987811967547164E-031
 -2.340000000000000E-002   -2.275592737443499E-031
 -2.330000000000000E-002   -2.325381247904764E-031
 -2.320000000000000E-002   -2.005895066112186E-031
 -2.310000000000000E-002   -1.182986714794230E-031
 -2.300000000000000E-002    2.583990286384733E-032
 -2.290000000000000E-002    2.384712025357371E-031
 -2.280000000000000E-002    5.178229967629778E-031
 -2.270000000000000E-002    8.498749242886824E-031
 -2.260000000000000E-002    1.204791784766403E-030
 -2.250000000000000E-002    1.534371394906116E-030
 -2.240000000000000E-002    1.771434667579663E-030
 -2.230000000000000E-002    1.832185149718758E-030
 -2.220000000000000E-002    1.622526820460371E-030
 -2.210000000000000E-002    1.049102725919570E-030
 -2.200000000000000E-002    3.535188648327834E-032
 -2.190000000000000E-002   -1.457848652769802E-030
 -2.180000000000000E-002   -3.408376276443930E-030
 -2.170000000000000E-002   -5.708497096846677E-030
 -2.160000000000000E-002   -8.143820807217802E-030
 -2.150000000000000E-002   -1.038062528748309E-029
 -2.140000000000000E-002   -1.196742999481688E-029
 -2.130000000000000E-002   -1.235688280613371E-029
 -2.120000000000000E-002   -1.095325535191667E-029
 -2.110000000000000E-002   -7.188858061881077E-030
 -2.100000000000000E-002   -6.292487353782325E-031
 -2.090000000000000E-002    8.897755429170007E-030
 -2.080000000000000E-002    2.116037479042498E-029
 -2.070000000000000E-002    3.538646069895747E-029
 -2.060000000000000E-002    5.015712335385765E-029
 -2.050000000000000E-002    6.336060981614885E-029
 -2.040000000000000E-002    7.223938852025284E-029
 -2.030000000000000E-002    7.356184724396484E-029
 -2.020000000000000E-002    6.394251046606710E-029
 -2.010000000000000E-002    4.032030580424755E-029
 -2.000000000000000E-002    5.824421609589573E-031
 -1.990000000000000E-002   -5.570728196937630E-029
 -1.980000000000000E-002   -1.265507799509288E-028
 -1.970000000000000E-002   -2.068385669157171E-028
 -1.960000000000000E-002   -2.878946447960680E-028
 -1.950000000000000E-002   -3.574053046470445E-028
 -1.940000000000000E-002   -3.998968709171588E-028
 -1.930000000000000E-002   -3.979044198670216E-028
 -1.920000000000000E-002   -3.339190282002649E-028
 -1.910000000000000E-002   -1.931111793402604E-028
 -1.900000000000000E-002    3.329620061402457E-029
 -1.890000000000000E-002    3.442843091348195E-028
 -1.880000000000000E-002    7.253699025415639E-028
 -1.870000000000000E-002    1.145616019596830E-027
 -1.860000000000000E-002    1.556050463152211E-027
 -1.850000000000000E-002    1.890276681933930E-027
 -1.840000000000000E-002    2.068014081343106E-027
 -1.830000000000000E-002    2.002125674032556E-027
 -1.820000000000000E-002    1.609355688546887E-027
 -1.810000000000000E-002    8.245062328651788E-028
 -1.800000000000000E-002   -3.828505324828640E-028
 -1.790000000000000E-002   -1.990753948491088E-027
 -1.780000000000000E-002   -3.908696438296047E-027
 -1.770000000000000E-002   -5.965929431696447E-027
 -1.760000000000000E-002   -7.907645582658977E-027
 -1.750000000000000E-002   -9.402474818973667E-027
 -1.740000000000000E-002   -1.006424378437452E-026
 -1.730000000000000E-002   -9.489827522291481E-027
 -1.720000000000000E-002   -7.313135353758872E-027
 -1.710000000000000E-002   -3.272845811036834E-027
 -1.700000000000000E-002    2.711420426457012E-027
 -1.690000000000000E-002    1.046291482196244E-026
 -1.680000000000000E-002    1.948294096392539E-026
 -1.670000000000000E-002    2.891100796248498E-026
 -1.660000000000000E-002    3.752454283438448E-026
 -1.650000000000000E-002    4.379183321884007E-026
 -1.640000000000000E-002    4.598862138808314E-026
 -1.630000000000000E-002    4.238290823700638E-026
 -1.620000000000000E-002    3.148390542398324E-026
 -1.610000000000000E-002    1.234026903142815E-026
 -1.600000000000000E-002   -1.513947125151871E-026
 -1.590000000000000E-002   -4.988368085803216E-026
 -1.580000000000000E-002   -8.942151003120207E-026
 -1.570000000000000E-002   -1.297704147376533E-025
 -1.560000000000000E-002   -1.655043439626224E-025
 -1.550000000000000E-002   -1.900519541306771E-025
 -1.540000000000000E-002   -1.962566781120039E-025
 -1.530000000000000E-002   -1.772029823659173E-025
 -1.520000000000000E-002   -1.272758909980431E-025
 -1.510000000000000E-002   -4.337666866255074E-026
 -1.500000000000000E-002    7.382938320975800E-026
 -1.490000000000000E-002    2.188010523423898E-025
 -1.480000000000000E-002    3.803467068398744E-025
 -1.470000000000000E-002    5.414035592869692E-025
 -1.460000000000000E-002    6.795752976847285E-025
 -1.450000000000000E-002    7.685886363625090E-025
 -1.440000000000000E-002    7.807475459256286E-025
 -1.430000000000000E-002    6.903472346446110E-025
 -1.420000000000000E-002    4.778619785627924E-025
 -1.410000000000000E-002    1.345549346976623E-025
 -1.400000000000000E-002   -3.330079184957961E-025
 -1.390000000000000E-002   -8.992005859218781E-025
 -1.380000000000000E-002   -1.517089150104859E-024
 -1.370000000000000E-002   -2.118459230264271E-024
 -1.360000000000000E-002   -2.616794259635817E-024
 -1.350000000000000E-002   -2.913667402670824E-024
 -1.340000000000000E-002   -2.908669630224187E-024
 -1.330000000000000E-002   -2.512542781395132E-024
 -1.320000000000000E-002   -1.662641036687309E-024
 -1.310000000000000E-002   -3.392695137934807E-025
 -1.300000000000000E-002    1.419092867722444E-024
 -1.290000000000000E-002    3.504099763788985E-024
 -1.280000000000000E-002    5.731988340966036E-024
 -1.270000000000000E-002    7.846694231060137E-024
 -1.260000000000000E-002    9.533669582922325E-024
 -1.250000000000000E-002    1.044555699292382E-023
 -1.240000000000000E-002    1.023956858769461E-023
 -1.230000000000000E-002    8.624783806078978E-024
 -1.220000000000000E-002    5.415722215934297E-024
 -1.210000000000000E-002    5.866928713202110E-025
 -1.200000000000000E-002   -5.680208736037279E-024
 -1.190000000000000E-002   -1.296168247401285E-023
 -1.180000000000000E-002   -2.058287257292879E-023
 -1.170000000000000E-002   -2.763778130181388E-023
 -1.160000000000000E-002   -3.304607247452574E-023
 -1.150000000000000E-002   -3.564849560241747E-023
 -1.140000000000000E-002   -3.433858896751590E-023
 -1.130000000000000E-002   -2.822280390692892E-023
 -1.120000000000000E-002   -1.679531566707525E-023
 -1.110000000000000E-002   -1.081645559103748E-025
 -1.100000000000000E-002    2.108707955924672E-023
 -1.090000000000000E-002    4.525240122855581E-023
 -1.080000000000000E-002    7.005699795532213E-023
 -1.070000000000000E-002    9.247336516190659E-023
 -1.060000000000000E-002    1.089896909613758E-022
 -1.050000000000000E-002    1.159406462176478E-022
 -1.040000000000000E-002    1.099435215433940E-022
 -1.030000000000000E-002    8.840941510130546E-023
 -1.020000000000000E-002    5.008160715925689E-023
 -1.010000000000000E-002   -4.462379385991949E-024
 -1.000000000000000E-002   -7.241983165400311E-023
 -9.899999999999999E-003   -1.485618613526797E-022
 -9.800000000000000E-003   -2.252960351173145E-022
 -9.699999999999999E-003   -2.930500909318457E-022
 -9.599999999999999E-003   -3.410064139820486E-022
 -9.500000000000000E-003   -3.581785482237761E-022
 -9.399999999999999E-003   -3.347742368695084E-022
 -9.299999999999999E-003   -2.637389008773799E-022
 -9.200000000000000E-003   -1.423240282973842E-022
 -9.099999999999999E-003    2.651574078682057E-023
 -8.999999999999999E-003    2.331178693299959E-022
 -8.900000000000000E-003    4.607231519401433E-022
 -8.799999999999999E-003    6.858997428189320E-022
 -8.699999999999999E-003    8.799191640059642E-022
 -8.600000000000000E-003    1.011133481792993E-021
 -8.499999999999999E-003    1.048285581453601E-021
 -8.399999999999999E-003    9.645485962519966E-022
 -8.300000000000000E-003    7.419495917749273E-022
 -8.199999999999999E-003    3.757028667634449E-022
 -8.100000000000000E-003   -1.221196165180904E-022
 -8.000000000000000E-003   -7.202009884605728E-022
 -7.899999999999999E-003   -1.367473341321028E-021
 -7.800000000000000E-003   -1.994988347793742E-021
 -7.699999999999999E-003   -2.520469314416125E-021
 -7.599999999999999E-003   -2.855578867207252E-021
 -7.499999999999999E-003   -2.915596508034823E-021
 -7.399999999999999E-003   -2.630829111796778E-021
 -7.299999999999999E-003   -1.958702789505301E-021
 -7.199999999999999E-003   -8.951659348641183E-022
 -7.100000000000000E-003    5.161854886146731E-022
 -6.999999999999999E-003    2.178913049609376E-021
 -6.899999999999999E-003    3.943992819244839E-021
 -6.800000000000000E-003    5.616693495465445E-021
 -6.699999999999999E-003    6.970668826348829E-021
 -6.599999999999999E-003    7.769077901352151E-021
 -6.499999999999999E-003    7.791627544945293E-021
 -6.399999999999999E-003    6.865450946627686E-021
 -6.299999999999999E-003    4.896798726537798E-021
 -6.199999999999999E-003    1.899781509647158E-021
 -6.100000000000000E-003   -1.982046013350044E-021
 -5.999999999999999E-003   -6.465467116740044E-021
 -5.899999999999999E-003   -1.113243869344670E-020
 -5.800000000000000E-003   -1.545258212752940E-020
 -5.699999999999999E-003   -1.882427816718643E-020
 -5.599999999999999E-003   -2.063322267276554E-020
 -5.499999999999999E-003   -2.032488214360420E-020
 -5.399999999999999E-003   -1.748485890761578E-020
 -5.299999999999999E-003   -1.191892281445269E-020
 -5.199999999999999E-003   -3.722840875672195E-021
 -5.099999999999999E-003    6.668663584684252E-021
 -4.999999999999999E-003    1.846409785494231E-020
 -4.899999999999999E-003    3.053709425575575E-020
 -4.799999999999999E-003    4.149344665962382E-020
 -4.699999999999999E-003    4.978430934062653E-020
 -4.599999999999999E-003    5.386116401594863E-020
 -4.499999999999999E-003    5.236217057891950E-020
 -4.399999999999999E-003    4.431365634028876E-020
 -4.299999999999999E-003    2.932541365603519E-020
 -4.199999999999999E-003    7.755031650569993E-021
 -4.099999999999999E-003   -1.918467626495613E-020
 -3.999999999999999E-003   -4.939927012667080E-020
 -3.899999999999999E-003   -7.998636987835817E-020
 -3.799999999999999E-003   -1.074201457823300E-019
 -3.699999999999999E-003   -1.278461193176947E-019
 -3.599999999999999E-003   -1.374723449157791E-019
 -3.499999999999999E-003   -1.330290049959897E-019
 -3.399999999999999E-003   -1.122547772883129E-019
 -3.299999999999999E-003   -7.435730746750605E-020
 -3.199999999999999E-003   -2.038833365810493E-020
 -3.099999999999999E-003    4.652708280247772E-020
 -2.999999999999999E-003    1.211616875318223E-019
 -2.899999999999999E-003    1.963983544293973E-019
 -2.799999999999999E-003    2.637033382887526E-019
 -2.699999999999999E-003    3.138530683222058E-019
 -2.599999999999999E-003    3.378757759178255E-019
 -2.499999999999999E-003    3.281366767383047E-019
 -2.399999999999999E-003    2.794659461434023E-019
 -2.299999999999999E-003    1.902052199919379E-019
 -2.199999999999999E-003    6.303585310986283E-020
 -2.099999999999999E-003   -9.454671581229693E-020
 -1.999999999999999E-003   -2.702306953226495E-019
 -1.899999999999999E-003   -4.474415926443654E-019
 -1.799999999999999E-003   -6.064854596509380E-019
 -1.699999999999999E-003   -7.262523288991163E-019
 -1.599999999999999E-003   -7.863800685576406E-019
 -1.499999999999999E-003   -7.697080114308636E-019
 -1.399999999999999E-003   -6.647867079384332E-019
 -1.299999999999999E-003   -4.681634389938108E-019
 -1.199999999999999E-003   -1.861417075637155E-019
 -1.099999999999999E-003    1.642776455784673E-019
 -9.999999999999989E-004    5.555201476949476E-019
 -8.999999999999990E-004    9.507911065671547E-019
 -7.999999999999990E-004    1.306708500411353E-018
 -6.999999999999989E-004    1.577126098191326E-018
 -5.999999999999990E-004    1.717905215440752E-018
 -4.999999999999989E-004    1.692243039395060E-018
 -3.999999999999989E-004    1.476039293909741E-018
 -2.999999999999989E-004    1.062691414146006E-018
 -1.999999999999989E-004    4.666766091674424E-019
 -9.999999999999892E-005   -2.746862450279922E-019
  1.084202172485504E-018   -1.101790109963433E-018
  1.000000000000011E-004   -1.935917862523801E-018
  2.000000000000011E-004   -2.685102481920520E-018
  3.000000000000011E-004   -3.252426980304129E-018
  4.000000000000011E-004   -3.546205995779887E-018
  5.000000000000011E-004   -3.491184095521010E-018
  6.000000000000011E-004   -3.039634081306291E-018
  7.000000000000011E-004   -2.181073598266104E-018
  8.000000000000011E-004   -9.492755802341452E-019
  9.000000000000012E-004    5.746503411548563E-019
  1.000000000000001E-003    2.264070646483973E-018
  1.100000000000001E-003    3.954091849951157E-018
  1.200000000000001E-003    5.454296756806480E-018
  1.300000000000001E-003    6.566352599273147E-018
  1.400000000000001E-003    7.105248225904801E-018
  1.500000000000001E-003    6.922303960843744E-018
  1.600000000000001E-003    5.927620694797742E-018
  1.700000000000001E-003    4.109333594043775E-018
  1.800000000000001E-003    1.546997569824702E-018
  1.900000000000001E-003   -1.583309661957871E-018
  2.000000000000001E-003   -5.014014302311218E-018
  2.100000000000001E-003   -8.402179984162217E-018
  2.200000000000001E-003   -1.135662489472901E-017
  2.300000000000001E-003   -1.347463384712267E-017
  2.400000000000001E-003   -1.438559118577864E-017
  2.500000000000001E-003   -1.379767709023366E-017
  2.600000000000001E-003   -1.154283769788779E-017
  2.700000000000001E-003   -7.614732887224535E-018
  2.800000000000001E-003   -2.194336371384406E-018
  2.900000000000001E-003    4.341525349480261E-018
  3.000000000000001E-003    1.143222143913365E-017
  3.100000000000001E-003    1.836769972635386E-017
  3.200000000000001E-003    2.434471630962402E-017
  3.300000000000001E-003    2.854192894288447E-017
  3.400000000000001E-003    3.020833797717376E-017
  3.500000000000001E-003    2.875725889038643E-017
  3.600000000000001E-003    2.385626086452815E-017
  3.700000000000001E-003    1.550255690756898E-017
  3.800000000000001E-003    4.073391619278790E-018
  3.900000000000001E-003   -9.657783717204147E-018
  4.000000000000001E-003   -2.454613970759494E-017
  4.100000000000001E-003   -3.914457224889121E-017
  4.200000000000001E-003   -5.181598270507137E-017
  4.300000000000001E-003   -6.088277366606525E-017
  4.400000000000001E-003   -6.480265496797910E-017
  4.500000000000001E-003   -6.235549734805514E-017
  4.600000000000002E-003   -5.282256728611396E-017
  4.700000000000001E-003   -3.613766990251109E-017
  4.800000000000001E-003   -1.298993545607549E-017
  4.900000000000002E-003    1.513970751456386E-017
  5.000000000000001E-003    4.602162055673209E-017
  5.100000000000001E-003    7.680666334276065E-017
  5.200000000000001E-003    1.042397299927846E-016
  5.300000000000002E-003    1.249465725682152E-016
  5.400000000000001E-003    1.357734433817951E-016
  5.500000000000001E-003    1.341507263713896E-016
  5.600000000000002E-003    1.184452267496364E-016
  5.700000000000001E-003    8.826223262410855E-017
  5.800000000000001E-003    4.465851834617364E-017
  5.900000000000002E-003   -9.768199433193650E-018
  6.000000000000001E-003   -7.093942498864101E-017
  6.100000000000001E-003   -1.335193089764259E-016
  6.200000000000002E-003   -1.912995667907564E-016
  6.300000000000002E-003   -2.377268289878470E-016
  6.400000000000001E-003   -2.665357977872727E-016
  6.500000000000001E-003   -2.724357524695290E-016
  6.600000000000002E-003   -2.517854878759398E-016
  6.700000000000001E-003   -2.031845581912021E-016
  6.800000000000001E-003   -1.279083165077798E-016
  6.900000000000002E-003   -3.012121688405260E-017
  7.000000000000001E-003    8.318213083192880E-017
  7.100000000000001E-003    2.025366769313778E-016
  7.200000000000002E-003    3.166679826445530E-016
  7.300000000000002E-003    4.134236825712396E-016
  7.400000000000001E-003    4.809124631753578E-016
  7.500000000000001E-003    5.087576490719513E-016
  7.600000000000002E-003    4.893496934657086E-016
  7.700000000000001E-003    4.189667337887041E-016
  7.800000000000001E-003    2.986306401053926E-016
  7.900000000000001E-003    1.345768733095894E-016
  8.000000000000002E-003   -6.175784923835329E-017
  8.100000000000001E-003   -2.742878391237801E-016
  8.200000000000001E-003   -4.833788428760472E-016
  8.300000000000002E-003   -6.674484246727607E-016
  8.400000000000001E-003   -8.049605181561424E-016
  8.500000000000002E-003   -8.766533850225069E-016
  8.600000000000002E-003   -8.677975548186344E-016
  8.700000000000001E-003   -7.702511530953181E-016
  8.800000000000002E-003   -5.840744011842574E-016
  8.900000000000002E-003   -3.184816647999887E-016
  9.000000000000001E-003    8.047940325985986E-018
  9.100000000000002E-003    3.686130891565893E-016
  9.200000000000002E-003    7.297120768766901E-016
  9.300000000000001E-003    1.053969639154029E-015
  9.400000000000002E-003    1.303591279415259E-015
  9.500000000000001E-003    1.444269317700759E-015
  9.600000000000001E-003    1.449184604362750E-015
  9.700000000000002E-003    1.302694950973248E-015
  9.800000000000001E-003    1.003284650431661E-015
  9.900000000000001E-003    5.653768950103465E-016
  1.000000000000000E-002    1.968196837576667E-017
  1.010000000000000E-002   -5.881307122695694E-016
  1.020000000000000E-002   -1.200497584594724E-015
  1.030000000000000E-002   -1.752647601806907E-015
  1.040000000000000E-002   -2.178611193071149E-015
  1.050000000000000E-002   -2.418074734782334E-015
  1.060000000000000E-002   -2.423458811606939E-015
  1.070000000000000E-002   -2.166498886462948E-015
  1.080000000000000E-002   -1.643571456119227E-015
  1.090000000000000E-002   -8.790511954558735E-016
  1.100000000000000E-002    7.389466287500490E-017
  1.110000000000000E-002    1.135469701810612E-015
  1.120000000000000E-002    2.204499249032244E-015
  1.130000000000000E-002    3.166588229860338E-015
  1.140000000000000E-002    3.904676599280799E-015
  1.150000000000000E-002    4.311165800980098E-015
  1.160000000000000E-002    4.300526833348235E-015
  1.170000000000000E-002    3.821112638727355E-015
  1.180000000000000E-002    2.864831291780683E-015
  1.190000000000000E-002    1.473395211938107E-015
  1.200000000000000E-002   -2.599313688998953E-016
  1.210000000000000E-002   -2.193818571819264E-015
  1.220000000000000E-002   -4.147861601769640E-015
  1.230000000000000E-002   -5.916798326440087E-015
  1.240000000000000E-002   -7.289090285912886E-015
  1.250000000000000E-002   -8.068441828761880E-015
  1.260000000000000E-002   -8.096347404517571E-015
  1.270000000000000E-002   -7.273423944921126E-015
  1.280000000000000E-002   -5.577136357789655E-015
  1.290000000000000E-002   -3.073621868515867E-015
  1.300000000000000E-002    7.833944079194779E-017
  1.310000000000000E-002    3.632566694614825E-015
  1.320000000000000E-002    7.270489306931444E-015
  1.330000000000000E-002    1.062552386250919E-014
  1.340000000000000E-002    1.331538481976841E-014
  1.350000000000000E-002    1.497989491901755E-014
  1.360000000000000E-002    1.532099913286057E-014
  1.370000000000000E-002    1.414107461849221E-014
  1.380000000000000E-002    1.137533707296452E-014
  1.390000000000000E-002    7.114279815007869E-015
  1.400000000000000E-002    1.612651883614549E-015
  1.410000000000000E-002   -4.717527203452638E-015
  1.420000000000000E-002   -1.133103121281016E-014
  1.430000000000000E-002   -1.759003741001446E-014
  1.440000000000000E-002   -2.281897031764065E-014
  1.450000000000000E-002   -2.636950222975214E-014
  1.460000000000000E-002   -2.769014651406018E-014
  1.470000000000000E-002   -2.639372466833521E-014
  1.480000000000000E-002   -2.231551108110431E-014
  1.490000000000000E-002   -1.555497254836163E-014
  1.500000000000000E-002   -6.494968089924573E-015
  1.510000000000000E-002    4.206075323140500E-015
  1.520000000000000E-002    1.565117893401366E-014
  1.530000000000000E-002    2.677039901413246E-014
  1.540000000000000E-002    3.641131581516625E-014
  1.550000000000000E-002    4.344778538168063E-014
  1.560000000000000E-002    4.689769119351672E-014
  1.570000000000000E-002    4.603849678441586E-014
  1.580000000000000E-002    4.050843182253377E-014
  1.590000000000000E-002    3.038134616396769E-014
  1.600000000000000E-002    1.620469684924546E-014
  1.610000000000000E-002   -1.007120550013682E-015
  1.620000000000000E-002   -1.982809071446311E-014
  1.630000000000000E-002   -3.852390904788197E-014
  1.640000000000000E-002   -5.519763111325356E-014
  1.650000000000000E-002   -6.796696951909318E-014
  1.660000000000000E-002   -7.515818162323901E-014
  1.670000000000000E-002   -7.549820639626633E-014
  1.680000000000000E-002   -6.828501693458413E-014
  1.690000000000000E-002   -5.351639675212511E-014
  1.700000000000000E-002   -3.195960236713918E-014
  1.710000000000000E-002   -5.148790759156549E-015
  1.720000000000000E-002    2.469677247446988E-014
  1.730000000000000E-002    5.483315519546000E-014
  1.740000000000000E-002    8.222205137904013E-014
  1.750000000000000E-002    1.038140267362671E-013
  1.760000000000000E-002    1.168606218384908E-013
  1.770000000000000E-002    1.192258075270414E-013
  1.780000000000000E-002    1.096645220453495E-013
  1.790000000000000E-002    8.803621163308273E-014
  1.800000000000000E-002    5.542495540990656E-014
  1.810000000000000E-002    1.414469468208828E-014
  1.820000000000000E-002   -3.238208113131897E-014
  1.830000000000000E-002   -7.987174802315459E-014
  1.840000000000000E-002   -1.235395439160111E-013
  1.850000000000000E-002   -1.585455496738530E-013
  1.860000000000000E-002   -1.804886296896181E-013
  1.870000000000000E-002   -1.859016846253610E-013