 -4.000000000000000E-002    0.000000000000000E+000
 -3.990000000000000E-002    0.000000000000000E+000
 -3.980000000000000E-002    0.000000000000000E+000
 -3.970000000000000E-002    0.000000000000000E+000
 -3.960000000000000E-002    0.000000000000000E+000
 -3.950000000000000E-002    0.000000000000000E+000
 -3.940000000000000E-002    0.000000000000000E+000
 -3.930000000000000E-002    0.000000000000000E+000
 -3.920000000000000E-002    0.000000000000000E+000
 -3.910000000000000E-002    0.000000000000000E+000
 -3.900000000000000E-002    0.000000000000000E+000
 -3.890000000000000E-002    0.000000000000000E+000
 -3.880000000000000E-002    0.000000000000000E+000
 -3.870000000000000E-002    0.000000000000000E+000
 -3.860000000000000E-002    0.000000000000000E+000
 -3.850000000000000E-002    0.000000000000000E+000
 -3.840000000000000E-002    0.000000000000000E+000
 -3.830000000000000E-002    0.000000000000000E+000
 -3.820000000000000E-002    0.000000000000000E+000
 -3.810000000000000E-002    0.000000000000000E+000
 -3.800000000000000E-002    0.000000000000000E+000
 -3.790000000000000E-002    0.000000000000000E+000
 -3.780000000000000E-002    0.000000000000000E+000
 -3.770000000000000E-002    0.000000000000000E+000
 -3.760000000000000E-002    0.000000000000000E+000
 -3.750000000000000E-002    0.000000000000000E+000
 -3.740000000000000E-002    0.000000000000000E+000
 -3.730000000000000E-002    0.000000000000000E+000
 -3.720000000000000E-002    0.000000000000000E+000
 -3.710000000000000E-002    0.000000000000000E+000
 -3.700000000000000E-002    0.000000000000000E+000
 -3.690000000000000E-002    0.000000000000000E+000
 -3.680000000000000E-002    0.000000000000000E+000
 -3.670000000000000E-002    0.000000000000000E+000
 -3.660000000000000E-002    0.000000000000000E+000
 -3.650000000000000E-002    0.000000000000000E+000
 -3.640000000000000E-002    0.000000000000000E+000
 -3.630000000000000E-002    0.000000000000000E+000
 -3.620000000000000E-002    0.000000000000000E+000
 -3.610000000000000E-002    0.000000000000000E+000
 -3.600000000000000E-002    0.000000000000000E+000
 -3.590000000000000E-002    0.000000000000000E+000
 -3.580000000000000E-002    0.000000000000000E+000
 -3.570000000000000E-002    0.000000000000000E+000
 -3.560000000000000E-002    0.000000000000000E+000
 -3.550000000000000E-002    0.000000000000000E+000
 -3.540000000000000E-002    0.000000000000000E+000
 -3.530000000000000E-002    0.000000000000000E+000
 -3.520000000000000E-002    0.000000000000000E+000
 -3.510000000000000E-002    0.000000000000000E+000
 -3.500000000000000E-002    0.000000000000000E+000
 -3.490000000000000E-002    0.000000000000000E+000
 -3.480000000000000E-002    0.000000000000000E+000
 -3.470000000000000E-002    0.000000000000000E+000
 -3.460000000000000E-002    0.000000000000000E+000
 -3.450000000000000E-002    0.000000000000000E+000
 -3.440000000000000E-002    0.000000000000000E+000
 -3.430000000000000E-002    0.000000000000000E+000
 -3.420000000000000E-002    0.000000000000000E+000
 -3.410000000000000E-002    0.000000000000000E+000
 -3.400000000000000E-002    0.000000000000000E+000
 -3.390000000000000E-002    0.000000000000000E+000
 -3.380000000000000E-002    0.000000000000000E+000
 -3.370000000000000E-002    0.000000000000000E+000
 -3.360000000000000E-002    0.000000000000000E+000
 -3.350000000000000E-002    0.000000000000000E+000
 -3.340000000000000E-002    0.000000000000000E+000
 -3.330000000000000E-002    0.000000000000000E+000
 -3.320000000000000E-002    0.000000000000000E+000
 -3.310000000000000E-002    0.000000000000000E+000
 -3.300000000000000E-002    0.000000000000000E+000
 -3.290000000000000E-002    0.000000000000000E+000
 -3.280000000000000E-002    0.000000000000000E+000
 -3.270000000000000E-002    0.000000000000000E+000
 -3.260000000000000E-002    0.000000000000000E+000
 -3.250000000000000E-002    0.000000000000000E+000
 -3.240000000000000E-002    0.000000000000000E+000
 -3.230000000000000E-002    0.000000000000000E+000
 -3.220000000000000E-002    0.000000000000000E+000
 -3.210000000000000E-002    0.000000000000000E+000
 -3.200000000000000E-002    0.000000000000000E+000
 -3.190000000000000E-002    0.000000000000000E+000
 -3.180000000000000E-002    0.000000000000000E+000
 -3.170000000000000E-002    0.000000000000000E+000
 -3.160000000000000E-002    0.000000000000000E+000
 -3.150000000000000E-002    0.000000000000000E+000
 -3.140000000000000E-002    0.000000000000000E+000
 -3.130000000000000E-002    0.000000000000000E+000
 -3.120000000000000E-002    0.000000000000000E+000
 -3.110000000000000E-002    0.000000000000000E+000
 -3.100000000000000E-002    0.000000000000000E+000
 -3.090000000000000E-002    0.000000000000000E+000
 -3.080000000000000E-002    0.000000000000000E+000
 -3.070000000000000E-002    0.000000000000000E+000
 -3.060000000000000E-002    0.000000000000000E+000
 -3.050000000000000E-002    0.000000000000000E+000
 -3.040000000000000E-002    0.000000000000000E+000
 -3.030000000000000E-002    0.000000000000000E+000
 -3.020000000000000E-002    0.000000000000000E+000
 -3.010000000000000E-002    0.000000000000000E+000
 -3.000000000000000E-002    0.000000000000000E+000
 -2.990000000000000E-002    0.000000000000000E+000
 -2.980000000000000E-002    0.000000000000000E+000
 -2.970000000000000E-002    0.000000000000000E+000
 -2.960000000000000E-002    0.000000000000000E+000
 -2.950000000000000E-002    0.000000000000000E+000
 -2.940000000000000E-002    0.000000000000000E+000
 -2.930000000000000E-002    0.000000000000000E+000
 -2.920000000000000E-002    0.000000000000000E+000
 -2.910000000000000E-002    0.000000000000000E+000
 -2.900000000000000E-002    0.000000000000000E+000
 -2.890000000000000E-002    0.000000000000000E+000
 -2.880000000000000E-002    0.000000000000000E+000
 -2.870000000000000E-002    0.000000000000000E+000
 -2.860000000000000E-002    0.000000000000000E+000
 -2.850000000000000E-002    1.267033144160131E-047
 -2.840000000000000E-002    2.534066288320262E-047
 -2.830000000000000E-002    3.801099432480393E-047
 -2.820000000000000E-002    3.801099432480393E-047
 -2.810000000000000E-002    2.534066288320262E-047
 -2.800000000000000E-002   -9.647144612149517E-047
 -2.790000000000000E-002   -3.527659955724921E-046
 -2.780000000000000E-002   -7.129097790889686E-046
 -2.770000000000000E-002   -1.385386135162532E-045
 -2.760000000000000E-002   -2.358686086782723E-045
 -2.750000000000000E-002   -3.489384094457483E-045
 -2.740000000000000E-002   -4.887371240124308E-045
 -2.730000000000000E-002   -6.157285063022998E-045
 -2.720000000000000E-002   -6.545247280050078E-045
 -2.710000000000000E-002   -5.634610958574905E-045
 -2.700000000000000E-002   -3.663419440900986E-045
 -2.690000000000000E-002    2.189118979075251E-045
 -2.680000000000000E-002    1.310847868660487E-044
 -2.670000000000000E-002    3.196659956237821E-044
 -2.660000000000000E-002    5.960207611501721E-044
 -2.650000000000000E-002    9.652810843507116E-044
 -2.640000000000000E-002    1.419503885692384E-043
 -2.630000000000000E-002    1.920874728092513E-043
 -2.620000000000000E-002    2.370040943320059E-043
 -2.610000000000000E-002    2.609190385463365E-043
 -2.600000000000000E-002    2.387667358921335E-043
 -2.590000000000000E-002    1.354838515366457E-043
 -2.580000000000000E-002   -9.111757840611673E-044
 -2.570000000000000E-002   -4.897523764114408E-043
 -2.560000000000000E-002   -1.106779172339728E-042
 -2.550000000000000E-002   -1.972297894613208E-042
 -2.540000000000000E-002   -3.079694125371970E-042
 -2.530000000000000E-002   -4.360403760187326E-042
 -2.520000000000000E-002   -5.648575802911802E-042
 -2.510000000000000E-002   -6.646973918796535E-042
 -2.500000000000000E-002   -6.891442707308259E-042
 -2.490000000000000E-002   -5.733092095086488E-042
 -2.480000000000000E-002   -2.350593522070756E-042
 -2.470000000000000E-002    4.197352813978356E-042
 -2.460000000000000E-002    1.484095249815085E-041
 -2.450000000000000E-002    3.028575863797432E-041
 -2.440000000000000E-002    5.068897616469627E-041
 -2.430000000000000E-002    7.522135383884298E-041
 -2.420000000000000E-002    1.015478347449782E-040
 -2.410000000000000E-002    1.252559366528924E-040
 -2.400000000000000E-002    1.393485627031414E-040
 -2.390000000000000E-002    1.339422670217121E-040
 -2.380000000000000E-002    9.637232883646571E-041
 -2.370000000000000E-002    1.197445865818483E-041
 -2.360000000000000E-002   -1.341876299007441E-040
 -2.350000000000000E-002   -3.543764273607577E-040
 -2.340000000000000E-002   -6.538298389191041E-040
 -2.330000000000000E-002   -1.025000929468924E-039
 -2.320000000000000E-002   -1.440669227621223E-039
 -2.310000000000000E-002   -1.846620474506525E-039
 -2.300000000000000E-002   -2.155120339705026E-039
 -2.290000000000000E-002   -2.241015593242167E-039
 -2.280000000000000E-002   -1.942904942807374E-039
 -2.270000000000000E-002   -1.072309303207153E-039
 -2.260000000000000E-002    5.660551415241217E-040
 -2.250000000000000E-002    3.140135329942337E-039
 -2.240000000000000E-002    6.740835124551385E-039
 -2.230000000000000E-002    1.131716594170797E-038
 -2.220000000000000E-002    1.659987129271921E-038
 -2.210000000000000E-002    2.202156355248385E-038
 -2.200000000000000E-002    2.664680954871203E-038
 -2.190000000000000E-002    2.913146219614861E-038
 -2.180000000000000E-002    2.773603599865776E-038
 -2.170000000000000E-002    2.042174984424545E-038
 -2.160000000000000E-002    5.058291249232019E-039
 -2.150000000000000E-002   -2.023252393456557E-038
 -2.140000000000000E-002   -5.658522977400360E-038
 -2.130000000000000E-002   -1.037606208383283E-037
 -2.120000000000000E-002   -1.594175618108171E-037
 -2.110000000000000E-002   -2.183677912392892E-037
 -2.100000000000000E-002   -2.719419872810190E-037
 -2.090000000000000E-002   -3.076443989304734E-037
 -2.080000000000000E-002   -3.093148658358657E-037
 -2.070000000000000E-002   -2.580409493381354E-037
 -2.060000000000000E-002   -1.340536199208105E-037
 -2.050000000000000E-002    8.021644481717198E-038
 -2.040000000000000E-002    3.958633723562641E-037
 -2.030000000000000E-002    8.121434477536531E-037
 -2.020000000000000E-002    1.310421272170754E-036
 -2.010000000000000E-002    1.848148040268972E-036
 -2.000000000000000E-002    2.353957795973786E-036
 -1.990000000000000E-002    2.725317332615311E-036
 -1.980000000000000E-002    2.830431853571568E-036
 -1.970000000000000E-002    2.516206403882518E-036
 -1.960000000000000E-002    1.623883746195319E-036
 -1.950000000000000E-002    1.342815603537498E-038
 -1.940000000000000E-002   -2.403286458140335E-036
 -1.930000000000000E-002   -5.621937781810740E-036
 -1.920000000000000E-002   -9.501310104541648E-036
 -1.910000000000000E-002   -1.372071599899288E-035
 -1.900000000000000E-002   -1.774751319903016E-035
 -1.890000000000000E-002   -2.082509516922145E-035
 -1.880000000000000E-002   -2.199313873635630E-035
 -1.870000000000000E-002   -2.015185973870702E-035
 -1.860000000000000E-002   -1.418000247299628E-035
 -1.850000000000000E-002   -3.111613512063817E-036
 -1.840000000000000E-002    1.363105499313370E-035
 -1.830000000000000E-002    3.596191084319917E-035
 -1.820000000000000E-002    6.283947317683043E-035
 -1.810000000000000E-002    9.200112415727892E-035
 -1.800000000000000E-002    1.197793825577692E-034
 -1.790000000000000E-002    1.410679995513698E-034
 -1.780000000000000E-002    1.495108285920870E-034
 -1.770000000000000E-002    1.379816551822843E-034
 -1.760000000000000E-002    9.940475290038646E-035
 -1.750000000000000E-002    2.793105266855286E-035
 -1.740000000000000E-002   -7.956788067735192E-035
 -1.730000000000000E-002   -2.217951402265290E-034
 -1.720000000000000E-002   -3.913017158528349E-034
 -1.710000000000000E-002   -5.730114517119165E-034
 -1.700000000000000E-002   -7.433486124981238E-034
 -1.690000000000000E-002   -8.703695933525625E-034
 -1.680000000000000E-002   -9.153071217528378E-034
 -1.670000000000000E-002   -8.358780823180659E-034
 -1.660000000000000E-002   -5.915647990775844E-034
 -1.650000000000000E-002   -1.508481574489588E-034
 -1.640000000000000E-002    4.999577337685479E-034
 -1.630000000000000E-002    1.347024208090130E-033
 -1.620000000000000E-002    2.339687640612591E-033
 -1.610000000000000E-002    3.383137210015618E-033
 -1.600000000000000E-002    4.335112754717527E-033
 -1.590000000000000E-002    5.008790753602716E-033
 -1.580000000000000E-002    5.183934018553353E-033
 -1.570000000000000E-002    4.627893410301085E-033
 -1.560000000000000E-002    3.127129734904637E-033
 -1.550000000000000E-002    5.285041047465479E-034
 -1.540000000000000E-002   -3.212264518369556E-033
 -1.530000000000000E-002   -7.979750382083525E-033
 -1.520000000000000E-002   -1.345264366055914E-032
 -1.510000000000000E-002   -1.907134580909153E-032
 -1.500000000000000E-002   -2.402988467136581E-032
 -1.490000000000000E-002   -2.730299045581932E-032
 -1.480000000000000E-002   -2.771788999603192E-032
 -1.470000000000000E-002   -2.407711753682726E-032
 -1.460000000000000E-002   -1.533310729101494E-032
 -1.450000000000000E-002   -8.075522706650310E-034
 -1.440000000000000E-002    1.956112451663683E-032
 -1.430000000000000E-002    4.496956450791118E-032
 -1.420000000000000E-002    7.353843695057594E-032
 -1.410000000000000E-002    1.021851304383625E-031
 -1.400000000000000E-002    1.266313661886898E-031
 -1.390000000000000E-002    1.415954988082009E-031
 -1.380000000000000E-002    1.412095042924681E-031
 -1.370000000000000E-002    1.196813473059787E-031
 -1.360000000000000E-002    7.219353208084534E-032
 -1.350000000000000E-002   -4.010505343707007E-033
 -1.340000000000000E-002   -1.084469090445217E-031
 -1.330000000000000E-002   -2.362621622238615E-031
 -1.320000000000000E-002   -3.773421323652479E-031
 -1.310000000000000E-002   -5.158795603501257E-031
 -1.300000000000000E-002   -6.306309282846503E-031
 -1.290000000000000E-002   -6.960728008181954E-031
 -1.280000000000000E-002   -6.846092086561116E-031
 -1.270000000000000E-002   -5.698771758963821E-031
 -1.260000000000000E-002   -3.310530522926708E-031
 -1.250000000000000E-002    4.212342324126543E-032
 -1.240000000000000E-002    5.440934552442774E-031
 -1.230000000000000E-002    1.148684124281009E-030
 -1.220000000000000E-002    1.805638350096084E-030
 -1.210000000000000E-002    2.439438177903963E-030
 -1.200000000000000E-002    2.951388020752909E-030
 -1.190000000000000E-002    3.225777225437126E-030
 -1.180000000000000E-002    3.140626021739831E-030
 -1.170000000000000E-002    2.583022621574698E-030
 -1.160000000000000E-002    1.468390566441999E-030
 -1.150000000000000E-002   -2.377654013795243E-031
 -1.140000000000000E-002   -2.497931508317843E-030
 -1.130000000000000E-002   -5.183570276723852E-030
 -1.120000000000000E-002   -8.062718197552463E-030
 -1.110000000000000E-002   -1.079816830370959E-029
 -1.100000000000000E-002   -1.296000054564945E-029
 -1.090000000000000E-002   -1.405539178921167E-029
 -1.080000000000000E-002   -1.357713948485379E-029
 -1.070000000000000E-002   -1.107010129628598E-029
 -1.060000000000000E-002   -6.211963066743651E-030
 -1.050000000000000E-002    1.098451039138813E-030
 -1.040000000000000E-002    1.065537539450868E-029
 -1.030000000000000E-002    2.187567827257197E-029
 -1.020000000000000E-002    3.375863098278083E-029
 -1.010000000000000E-002    4.489110112593554E-029
 -1.000000000000000E-002    5.351180188273096E-029
 -9.899999999999999E-003    5.764417006518721E-029
 -9.800000000000000E-003    5.530088697448054E-029
 -9.699999999999999E-003    4.475384470337154E-029
 -9.599999999999999E-003    2.485238091122872E-029
 -9.500000000000000E-003   -4.639459673881371E-030
 -9.399999999999999E-003   -4.272744631165426E-029
 -9.299999999999999E-003   -8.694386846051557E-029
 -9.200000000000000E-003   -1.332318144681537E-028
 -9.099999999999999E-003   -1.760118257443583E-028
 -8.999999999999999E-003   -2.084768156802605E-028
 -8.900000000000000E-003   -2.231434121186987E-028
 -8.799999999999999E-003   -2.126609562303874E-028
 -8.699999999999999E-003   -1.708443666683172E-028
 -8.600000000000000E-003   -9.385615182896038E-029
 -8.499999999999999E-003    1.857949954481332E-029
 -8.399999999999999E-003    1.620863320785567E-028
 -8.300000000000000E-003    3.268537889698441E-028
 -8.199999999999999E-003    4.973592216208197E-028
 -8.100000000000000E-003    6.527778679346008E-028
 -8.000000000000000E-003    7.682251439028617E-028
 -7.899999999999999E-003    8.169016506186109E-028
 -7.800000000000000E-003    7.731115446376470E-028
 -7.699999999999999E-003    6.159957540231143E-028
 -7.599999999999999E-003    3.336821048899838E-028
 -7.499999999999999E-003   -7.258816994069538E-029
 -7.399999999999999E-003   -5.849166289412182E-028
 -7.299999999999999E-003   -1.166426069137463E-027
 -7.199999999999999E-003   -1.760810841678836E-027
 -7.100000000000000E-003   -2.294343529199818E-027
 -6.999999999999999E-003   -2.680747286052158E-027
 -6.899999999999999E-003   -2.829077383720389E-027
 -6.800000000000000E-003   -2.654389311542003E-027
 -6.699999999999999E-003   -2.090537916304391E-027
 -6.599999999999999E-003   -1.103989342087938E-027
 -6.499999999999999E-003    2.929112946370288E-028
 -6.399999999999999E-003    2.031121549918171E-027
 -6.299999999999999E-003    3.978622953050977E-027
 -6.199999999999999E-003    5.940735346631372E-027
 -6.100000000000000E-003    7.668734883559878E-027
 -5.999999999999999E-003    8.877866672163777E-027
 -5.899999999999999E-003    9.274860506418633E-027
 -5.800000000000000E-003    8.593843481119925E-027
 -5.699999999999999E-003    6.638145542644443E-027
 -5.599999999999999E-003    3.324047377980979E-027
 -5.499999999999999E-003   -1.278759699527945E-027
 -5.399999999999999E-003   -6.916163012566680E-027
 -5.299999999999999E-003   -1.313458621988865E-026
 -5.199999999999999E-003   -1.928801264299583E-026
 -5.099999999999999E-003   -2.457187244255138E-026
 -4.999999999999999E-003   -2.808625393994816E-026
 -4.899999999999999E-003   -2.892773803451699E-026
 -4.799999999999999E-003   -2.630519648350255E-026
 -4.699999999999999E-003   -1.967058418298388E-026
 -4.599999999999999E-003   -8.851536315870067E-027
 -4.499999999999999E-003    5.831021694425106E-027
 -4.399999999999999E-003    2.347927283393817E-026
 -4.299999999999999E-003    4.258834845952996E-026
 -4.199999999999999E-003    6.108690357950462E-026
 -4.099999999999999E-003    7.646090751835970E-026
 -3.999999999999999E-003    8.596540934732160E-026
 -3.899999999999999E-003    8.691888683073518E-026
 -3.799999999999999E-003    7.706263503517009E-026
 -3.699999999999999E-003    5.495509802915360E-026
 -3.599999999999999E-003    2.035905972080177E-026
 -3.499999999999999E-003   -2.542987266722885E-026
 -3.399999999999999E-003   -7.936989910028230E-026
 -3.299999999999999E-003   -1.366303239196393E-025
 -3.199999999999999E-003   -1.907666384184952E-025
 -3.099999999999999E-003   -2.341438643792209E-025
 -2.999999999999999E-003   -2.586145222588283E-025
 -2.899999999999999E-003   -2.564262250833598E-025
 -2.799999999999999E-003   -2.212991490066447E-025
 -2.699999999999999E-003   -1.495771905009133E-025
 -2.599999999999999E-003   -4.132485149466643E-026
 -2.499999999999999E-003    9.878213674375041E-026
 -2.399999999999999E-003    2.609335767520680E-025
 -2.299999999999999E-003    4.301823815309640E-025
 -2.199999999999999E-003    5.870862738241239E-025
 -2.099999999999999E-003    7.090646620149890E-025
 -1.999999999999999E-003    7.724683616075379E-025
 -1.899999999999999E-003    7.552704554475170E-025
 -1.799999999999999E-003    6.401867029137571E-025
 -1.699999999999999E-003    4.179366257459924E-025
 -1.599999999999999E-003    9.027224882862688E-026
 -1.499999999999999E-003   -3.276546049125124E-025
 -1.399999999999999E-003   -8.060325695071663E-025
 -1.299999999999999E-003   -1.300644764631634E-024
 -1.199999999999999E-003   -1.754953431547440E-024
 -1.099999999999999E-003   -2.104170486964199E-024
 -9.999999999999989E-004   -2.281264127290876E-024
 -8.999999999999990E-004   -2.224599967766395E-024
 -7.999999999999990E-004   -1.886648365147538E-024
 -6.999999999999989E-004   -1.242932141499556E-024
 -5.999999999999990E-004   -3.001806559639302E-025
 -4.999999999999989E-004    8.974786945864460E-025
 -3.999999999999989E-004    2.265469221626210E-024
 -2.999999999999989E-004    3.679914190694446E-024
 -1.999999999999989E-004    4.983755118976031E-024
 -9.999999999999892E-005    5.998183309951554E-024
  1.084202172485504E-018    6.539149979494423E-024
  1.000000000000011E-004    6.438061964762174E-024
  2.000000000000011E-004    5.565079134042032E-024
  3.000000000000011E-004    3.852779247813265E-024
  4.000000000000011E-004    1.317443876743218E-024
  5.000000000000011E-004   -1.925063713051144E-024
  6.000000000000011E-004   -5.651845820968290E-024
  7.000000000000011E-004   -9.536569080159817E-024
  8.000000000000011E-004   -1.316597910472372E-023
  9.000000000000012E-004   -1.607000542804861E-023
  1.000000000000001E-003   -1.776469990614337E-023
  1.100000000000001E-003   -1.780554079479021E-023
  1.200000000000001E-003   -1.584692287539881E-023
  1.300000000000001E-003   -1.170209891523263E-023
  1.400000000000001E-003   -5.396625248859612E-024
  1.500000000000001E-003    2.792228061586225E-024
  1.600000000000001E-003    1.231746464042056E-023
  1.700000000000001E-003    2.237206937968637E-023
  1.800000000000001E-003    3.193065587254991E-023
  1.900000000000001E-003    3.982443360249483E-023
  2.000000000000001E-003    4.484716368689673E-023
  2.100000000000001E-003    4.588571769272818E-023
  2.200000000000001E-003    4.206478669368668E-023
  2.300000000000001E-003    3.289160490577311E-023
  2.400000000000001E-003    1.838393074833121E-023
  2.500000000000001E-003   -8.366630551008431E-025
  2.600000000000001E-003   -2.350349986894297E-023
  2.700000000000001E-003   -4.772983729975699E-023
  2.800000000000001E-003   -7.110962911982903E-023
  2.900000000000001E-003   -9.089625731644611E-023
  3.000000000000001E-003   -1.042527215983520E-022
  3.100000000000001E-003   -1.085574861361818E-022
  3.200000000000001E-003   -1.017406135485802E-022
  3.300000000000001E-003   -8.261691452117202E-023
  3.400000000000001E-003   -5.117702236156838E-023
  3.500000000000001E-003   -8.795314619588101E-024
  3.600000000000001E-003    4.168405302102597E-023
  3.700000000000001E-003    9.601459294594716E-023
  3.800000000000001E-003    1.487877206167860E-022
  3.900000000000001E-003    1.938481636352935E-022
  4.000000000000001E-003    2.248675886524814E-022
  4.100000000000001E-003    2.360374636774882E-022
  4.200000000000001E-003    2.228219510676016E-022
  4.300000000000001E-003    1.826941183126265E-022
  4.400000000000001E-003    1.157673237989289E-022
  4.500000000000001E-003    2.523070017653541E-023
  4.600000000000002E-003   -8.249607933430453E-023
  4.700000000000001E-003   -1.979540418022077E-022
  4.800000000000001E-003   -3.092210752790591E-022
  4.900000000000002E-003   -4.028709292524263E-022
  5.000000000000001E-003   -4.652708545447837E-022
  5.100000000000001E-003   -4.841242771011807E-022
  5.200000000000001E-003   -4.501226774861610E-022
  5.300000000000002E-003   -3.585325373782500E-022
  5.400000000000001E-003   -2.105226363286866E-022
  5.500000000000001E-003   -1.403249825380961E-023
  5.600000000000002E-003    2.159975218094878E-022
  5.700000000000001E-003    4.581707589516756E-022
  5.800000000000001E-003    6.860236208364603E-022
  5.900000000000002E-003    8.702428721763151E-022
  6.000000000000001E-003    9.815979220857444E-022
  6.100000000000001E-003    9.943687226145052E-022
  6.200000000000002E-003    8.899584094897441E-022
  6.300000000000002E-003    6.603046696853763E-022
  6.400000000000001E-003    3.106588965196620E-022
  6.500000000000001E-003   -1.386955258508502E-022
  6.600000000000002E-003   -6.521688181881488E-022
  6.700000000000001E-003   -1.180315621152510E-021
  6.800000000000001E-003   -1.663139308807619E-021
  6.900000000000002E-003   -2.035193514056315E-021
  7.000000000000001E-003   -2.232203577846351E-021
  7.100000000000001E-003   -2.198711817571895E-021
  7.200000000000002E-003   -1.896049078047411E-021
  7.300000000000002E-003   -1.309778975913778E-021
  7.400000000000001E-003   -4.556745198862372E-022
  7.500000000000001E-003    6.167037351907367E-022
  7.600000000000002E-003    1.823649631250211E-021
  7.700000000000001E-003    3.050763333630401E-021
  7.800000000000001E-003    4.160485915828397E-021
  7.900000000000001E-003    5.003556794795024E-021
  8.000000000000002E-003    5.433790820524254E-021
  8.100000000000001E-003    5.325073581689072E-021
  8.200000000000001E-003    4.589063709910718E-021
  8.300000000000002E-003    3.191743585275633E-021
  8.400000000000001E-003    1.166785074978572E-021
  8.500000000000002E-003   -1.376293795621512E-021
  8.600000000000002E-003   -4.250952897130830E-021
  8.700000000000001E-003   -7.200747040893193E-021
  8.800000000000002E-003   -9.915336623598541E-021
  8.900000000000002E-003   -1.205511640929387E-020
  9.000000000000001E-003   -1.328321426652348E-020
  9.100000000000002E-003   -1.330257483300942E-020
  9.200000000000002E-003   -1.189494221029118E-020
  9.300000000000001E-003   -8.957816115505864E-021
  9.400000000000002E-003   -4.535069034972110E-021
  9.500000000000001E-003    1.163140958981421E-021
  9.600000000000001E-003    7.755014641237528E-021
  9.700000000000002E-003    1.469924400197502E-020
  9.800000000000001E-003    2.132615642928229E-020
  9.900000000000001E-003    2.688755052658741E-020
  1.000000000000000E-002    3.062289464176777E-020
  1.010000000000000E-002    3.183745571941865E-020
  1.020000000000000E-002    2.998589816806432E-020
  1.030000000000000E-002    2.475340291189131E-020
  1.040000000000000E-002    1.612528184175954E-020
  1.050000000000000E-002    4.436040139948676E-021
  1.060000000000000E-002   -9.610491559466035E-021
  1.070000000000000E-002   -2.495655979870079E-020
  1.080000000000000E-002   -4.024509766776448E-020
  1.090000000000000E-002   -5.391386510272996E-020
  1.100000000000000E-002   -6.432525679687009E-020
  1.110000000000000E-002   -6.992349211803582E-020
  1.120000000000000E-002   -6.940695754770126E-020
  1.130000000000000E-002   -6.189997892478723E-020
  1.140000000000000E-002   -4.710607625176967E-020
  1.150000000000000E-002   -2.542408831611672E-020
  1.160000000000000E-002    1.990356630578448E-021
  1.170000000000000E-002    3.323227501003521E-020
  1.180000000000000E-002    6.573293330370216E-020
  1.190000000000000E-002    9.642599348726772E-020
  1.200000000000000E-002    1.219885107397667E-019
  1.210000000000000E-002    1.391426667404723E-019
  1.220000000000000E-002    1.449955921148911E-019
  1.230000000000000E-002    1.373876504431251E-019
  1.240000000000000E-002    1.152144377253340E-019
  1.250000000000000E-002    7.868566134428128E-020
  1.260000000000000E-002    2.948531109311023E-020
  1.270000000000000E-002   -2.919696017113471E-020
  1.280000000000000E-002   -9.278425950844293E-020
  1.290000000000000E-002   -1.555890821367478E-019
  1.300000000000000E-002   -2.112414202202352E-019
  1.310000000000000E-002   -2.532447285022949E-019
  1.320000000000000E-002   -2.756199425631269E-019
  1.330000000000000E-002   -2.735830571314617E-019
  1.340000000000000E-002   -2.441908525657192E-019
  1.350000000000000E-002   -1.868839645337525E-019
  1.360000000000000E-002   -1.038574782194402E-019
  1.370000000000000E-002   -1.977709589883758E-022
  1.380000000000000E-002    1.162599622346135E-019
  1.390000000000000E-002    2.353755024789517E-019
  1.400000000000000E-002    3.454431675844892E-019
  1.410000000000000E-002    4.341894923236240E-019
  1.420000000000000E-002    4.899599833857391E-019
  1.430000000000000E-002    5.029968269378759E-019
  1.440000000000000E-002    4.666868030152300E-019
  1.450000000000000E-002    3.786464612859025E-019
  1.460000000000000E-002    2.415100429338355E-019
  1.470000000000000E-002    6.329929369136214E-020
  1.480000000000000E-002   -1.427180068526454E-019
  1.490000000000000E-002   -3.587323205399754E-019
  1.500000000000000E-002   -5.636603626582892E-019
  1.510000000000000E-002   -7.349181755443121E-019
  1.520000000000000E-002   -8.505794172709153E-019
  1.530000000000000E-002   -8.917439874214651E-019
  1.540000000000000E-002   -8.448970813285463E-019
  1.550000000000000E-002   -7.040101393801796E-019
  1.560000000000000E-002   -4.721298546187340E-019
  1.570000000000000E-002   -1.622231470305627E-019
  1.580000000000000E-002    2.029098168962980E-019
  1.590000000000000E-002    5.917641366586661E-019
  1.600000000000000E-002    9.663192364488396E-019
  1.610000000000000E-002    1.285197729848190E-018
  1.620000000000000E-002    1.507586746439069E-018
  1.630000000000000E-002    1.597609311431254E-018
  1.640000000000000E-002    1.528746173924869E-018
  1.650000000000000E-002    1.287847301179486E-018
  1.660000000000000E-002    8.782571733276664E-019
  1.670000000000000E-002    3.216120891439468E-019
  1.680000000000000E-002   -3.420598403326039E-019
  1.690000000000000E-002   -1.056162569128692E-018
  1.700000000000000E-002   -1.751342233921841E-018
  1.710000000000000E-002   -2.351143972070816E-018
  1.720000000000000E-002   -2.779156786795139E-018
  1.730000000000000E-002   -2.967091408271401E-018
  1.740000000000000E-002   -2.863062125539814E-018
  1.750000000000000E-002   -2.439225100409848E-018
  1.760000000000000E-002   -1.697884532099949E-018
  1.770000000000000E-002   -6.752264848651251E-019
  1.780000000000000E-002    5.580338146250319E-019
  1.790000000000000E-002    1.899545038026066E-018
  1.800000000000000E-002    3.221933317849560E-018
  1.810000000000000E-002    4.382909485879730E-018
  1.820000000000000E-002    5.238271024659409E-018
  1.830000000000000E-002    5.656812170762378E-018
  1.840000000000000E-002    5.535818540614519E-018
  1.850000000000000E-002    4.815598466410304E-018
  1.860000000000000E-002    3.491405411810446E-018
  1.870000000000000E-002    1.621151396852618E-018