 -4.000000000000000E-002    0.000000000000000E+000
 -3.990000000000000E-002    0.000000000000000E+000
 -3.980000000000000E-002    0.000000000000000E+000
 -3.970000000000000E-002    0.000000000000000E+000
 -3.960000000000000E-002    0.000000000000000E+000
 -3.950000000000000E-002    0.000000000000000E+000
 -3.940000000000000E-002    0.000000000000000E+000
 -3.930000000000000E-002    0.000000000000000E+000
 -3.920000000000000E-002    0.000000000000000E+000
 -3.910000000000000E-002    0.000000000000000E+000
 -3.900000000000000E-002    0.000000000000000E+000
 -3.890000000000000E-002    0.000000000000000E+000
 -3.880000000000000E-002    0.000000000000000E+000
 -3.870000000000000E-002    0.000000000000000E+000
 -3.860000000000000E-002    0.000000000000000E+000
 -3.850000000000000E-002    0.000000000000000E+000
 -3.840000000000000E-002    0.000000000000000E+000
 -3.830000000000000E-002    0.000000000000000E+000
 -3.820000000000000E-002    0.000000000000000E+000
 -3.810000000000000E-002    0.000000000000000E+000
 -3.800000000000000E-002    0.000000000000000E+000
 -3.790000000000000E-002    0.000000000000000E+000
 -3.780000000000000E-002    0.000000000000000E+000
 -3.770000000000000E-002    0.000000000000000E+000
 -3.760000000000000E-002    0.000000000000000E+000
 -3.750000000000000E-002    0.000000000000000E+000
 -3.740000000000000E-002    0.000000000000000E+000
 -3.730000000000000E-002    0.000000000000000E+000
 -3.720000000000000E-002    0.000000000000000E+000
 -3.710000000000000E-002    0.000000000000000E+000
 -3.700000000000000E-002    0.000000000000000E+000
 -3.690000000000000E-002    0.000000000000000E+000
 -3.680000000000000E-002    0.000000000000000E+000
 -3.670000000000000E-002    0.000000000000000E+000
 -3.660000000000000E-002    0.000000000000000E+000
 -3.650000000000000E-002    0.000000000000000E+000
 -3.640000000000000E-002    0.000000000000000E+000
 -3.630000000000000E-002    0.000000000000000E+000
 -3.620000000000000E-002    0.000000000000000E+000
 -3.610000000000000E-002    0.000000000000000E+000
 -3.600000000000000E-002    0.000000000000000E+000
 -3.590000000000000E-002    0.000000000000000E+000
 -3.580000000000000E-002    0.000000000000000E+000
 -3.570000000000000E-002    0.000000000000000E+000
 -3.560000000000000E-002    0.000000000000000E+000
 -3.550000000000000E-002    0.000000000000000E+000
 -3.540000000000000E-002    0.000000000000000E+000
 -3.530000000000000E-002    0.000000000000000E+000
 -3.520000000000000E-002    0.000000000000000E+000
 -3.510000000000000E-002    0.000000000000000E+000
 -3.500000000000000E-002    0.000000000000000E+000
 -3.490000000000000E-002    0.000000000000000E+000
 -3.480000000000000E-002    0.000000000000000E+000
 -3.470000000000000E-002    0.000000000000000E+000
 -3.460000000000000E-002    0.000000000000000E+000
 -3.450000000000000E-002    0.000000000000000E+000
 -3.440000000000000E-002    0.000000000000000E+000
 -3.430000000000000E-002    0.000000000000000E+000
 -3.420000000000000E-002    0.000000000000000E+000
 -3.410000000000000E-002    0.000000000000000E+000
 -3.400000000000000E-002    0.000000000000000E+000
 -3.390000000000000E-002    0.000000000000000E+000
 -3.380000000000000E-002    0.000000000000000E+000
 -3.370000000000000E-002    0.000000000000000E+000
 -3.360000000000000E-002    0.000000000000000E+000
 -3.350000000000000E-002    0.000000000000000E+000
 -3.340000000000000E-002    0.000000000000000E+000
 -3.330000000000000E-002    0.000000000000000E+000
 -3.320000000000000E-002    0.000000000000000E+000
 -3.310000000000000E-002    0.000000000000000E+000
 -3.300000000000000E-002    0.000000000000000E+000
 -3.290000000000000E-002    0.000000000000000E+000
 -3.280000000000000E-002    0.000000000000000E+000
 -3.270000000000000E-002    0.000000000000000E+000
 -3.260000000000000E-002    0.000000000000000E+000
 -3.250000000000000E-002    0.000000000000000E+000
 -3.240000000000000E-002    0.000000000000000E+000
 -3.230000000000000E-002    0.000000000000000E+000
 -3.220000000000000E-002    0.000000000000000E+000
 -3.210000000000000E-002    0.000000000000000E+000
 -3.200000000000000E-002    0.000000000000000E+000
 -3.190000000000000E-002    0.000000000000000E+000
 -3.180000000000000E-002    0.000000000000000E+000
 -3.170000000000000E-002    0.000000000000000E+000
 -3.160000000000000E-002    0.000000000000000E+000
 -3.150000000000000E-002    0.000000000000000E+000
 -3.140000000000000E-002    0.000000000000000E+000
 -3.130000000000000E-002    0.000000000000000E+000
 -3.120000000000000E-002    0.000000000000000E+000
 -3.110000000000000E-002    0.000000000000000E+000
 -3.100000000000000E-002    0.000000000000000E+000
 -3.090000000000000E-002    0.000000000000000E+000
 -3.080000000000000E-002    0.000000000000000E+000
 -3.070000000000000E-002    0.000000000000000E+000
 -3.060000000000000E-002    0.000000000000000E+000
 -3.050000000000000E-002    0.000000000000000E+000
 -3.040000000000000E-002    0.000000000000000E+000
 -3.030000000000000E-002    0.000000000000000E+000
 -3.020000000000000E-002    0.000000000000000E+000
 -3.010000000000000E-002    0.000000000000000E+000
 -3.000000000000000E-002    0.000000000000000E+000
 -2.990000000000000E-002    0.000000000000000E+000
 -2.980000000000000E-002    0.000000000000000E+000
 -2.970000000000000E-002    0.000000000000000E+000
 -2.960000000000000E-002    0.000000000000000E+000
 -2.950000000000000E-002    0.000000000000000E+000
 -2.940000000000000E-002    0.000000000000000E+000
 -2.930000000000000E-002    0.000000000000000E+000
 -2.920000000000000E-002    0.000000000000000E+000
 -2.910000000000000E-002    0.000000000000000E+000
 -2.900000000000000E-002    0.000000000000000E+000
 -2.890000000000000E-002    0.000000000000000E+000
 -2.880000000000000E-002    0.000000000000000E+000
 -2.870000000000000E-002    0.000000000000000E+000
 -2.860000000000000E-002    0.000000000000000E+000
 -2.850000000000000E-002    0.000000000000000E+000
 -2.840000000000000E-002    0.000000000000000E+000
 -2.830000000000000E-002    0.000000000000000E+000
 -2.820000000000000E-002    0.000000000000000E+000
 -2.810000000000000E-002    0.000000000000000E+000
 -2.800000000000000E-002    0.000000000000000E+000
 -2.790000000000000E-002    0.000000000000000E+000
 -2.780000000000000E-002    0.000000000000000E+000
 -2.770000000000000E-002    0.000000000000000E+000
 -2.760000000000000E-002    0.000000000000000E+000
 -2.750000000000000E-002    0.000000000000000E+000
 -2.740000000000000E-002    0.000000000000000E+000
 -2.730000000000000E-002    0.000000000000000E+000
 -2.720000000000000E-002    0.000000000000000E+000
 -2.710000000000000E-002    0.000000000000000E+000
 -2.700000000000000E-002    0.000000000000000E+000
 -2.690000000000000E-002    0.000000000000000E+000
 -2.680000000000000E-002    0.000000000000000E+000
 -2.670000000000000E-002    0.000000000000000E+000
 -2.660000000000000E-002    0.000000000000000E+000
 -2.650000000000000E-002    0.000000000000000E+000
 -2.640000000000000E-002    0.000000000000000E+000
 -2.630000000000000E-002    0.000000000000000E+000
 -2.620000000000000E-002    0.000000000000000E+000
 -2.610000000000000E-002    0.000000000000000E+000
 -2.600000000000000E-002    0.000000000000000E+000
 -2.590000000000000E-002    0.000000000000000E+000
 -2.580000000000000E-002    0.000000000000000E+000
 -2.570000000000000E-002    0.000000000000000E+000
 -2.560000000000000E-002    0.000000000000000E+000
 -2.550000000000000E-002    0.000000000000000E+000
 -2.540000000000000E-002    0.000000000000000E+000
 -2.530000000000000E-002    0.000000000000000E+000
 -2.520000000000000E-002    0.000000000000000E+000
 -2.510000000000000E-002    0.000000000000000E+000
 -2.500000000000000E-002    0.000000000000000E+000
 -2.490000000000000E-002    0.000000000000000E+000
 -2.480000000000000E-002    0.000000000000000E+000
 -2.470000000000000E-002    0.000000000000000E+000
 -2.460000000000000E-002    0.000000000000000E+000
 -2.450000000000000E-002    0.000000000000000E+000
 -2.440000000000000E-002    0.000000000000000E+000
 -2.430000000000000E-002    0.000000000000000E+000
 -2.420000000000000E-002    0.000000000000000E+000
 -2.410000000000000E-002    0.000000000000000E+000
 -2.400000000000000E-002    0.000000000000000E+000
 -2.390000000000000E-002    0.000000000000000E+000
 -2.380000000000000E-002    0.000000000000000E+000
 -2.370000000000000E-002    0.000000000000000E+000
 -2.360000000000000E-002    0.000000000000000E+000
 -2.350000000000000E-002    0.000000000000000E+000
 -2.340000000000000E-002    0.000000000000000E+000
 -2.330000000000000E-002    0.000000000000000E+000
 -2.320000000000000E-002    0.000000000000000E+000
 -2.310000000000000E-002    0.000000000000000E+000
 -2.300000000000000E-002    0.000000000000000E+000
 -2.290000000000000E-002    5.485091622035438E-048
 -2.280000000000000E-002    5.485091622035438E-048
 -2.270000000000000E-002    5.485091622035438E-048
 -2.260000000000000E-002    0.000000000000000E+000
 -2.250000000000000E-002   -1.097018324407088E-047
 -2.240000000000000E-002   -1.021105553971594E-047
 -2.230000000000000E-002   -1.306710188995053E-047
 -2.220000000000000E-002    1.280736708591529E-047
 -2.210000000000000E-002    1.806545762951699E-047
 -2.200000000000000E-002   -9.214814635469980E-048
 -2.190000000000000E-002   -2.703401026387336E-047
 -2.180000000000000E-002   -1.167126873608307E-046
 -2.170000000000000E-002   -1.878300904010293E-046
 -2.160000000000000E-002   -2.067705999060372E-046
 -2.150000000000000E-002   -2.038740462412694E-046
 -2.140000000000000E-002   -1.319105563842058E-046
 -2.130000000000000E-002   -3.238092963734786E-047
 -2.120000000000000E-002    2.542382940400419E-046
 -2.110000000000000E-002    4.234439593376701E-046
 -2.100000000000000E-002    7.214184710070929E-046
 -2.090000000000000E-002    1.182385541851614E-045
 -2.080000000000000E-002    8.942525471831326E-046
 -2.070000000000000E-002    1.318230936920210E-045
 -2.060000000000000E-002    1.654477553907631E-045
 -2.050000000000000E-002    1.733538792874651E-045
 -2.040000000000000E-002    1.086735744543657E-045
 -2.030000000000000E-002    8.786652898615488E-046
 -2.020000000000000E-002   -6.137918699695642E-046
 -2.010000000000000E-002   -3.177371236154039E-045
 -2.000000000000000E-002   -6.481044971960980E-045
 -1.990000000000000E-002   -1.016917103951188E-044
 -1.980000000000000E-002   -1.519590769125838E-044
 -1.970000000000000E-002   -2.074906485432277E-044
 -1.960000000000000E-002   -2.590575952293858E-044
 -1.950000000000000E-002   -2.984483414142175E-044
 -1.940000000000000E-002   -3.041606678487517E-044
 -1.930000000000000E-002   -2.541109569996574E-044
 -1.920000000000000E-002   -1.293951271251798E-044
 -1.910000000000000E-002    9.135663024377968E-045
 -1.900000000000000E-002    4.336831102384358E-044
 -1.890000000000000E-002    8.989810428798166E-044
 -1.880000000000000E-002    1.481382280797774E-043
 -1.870000000000000E-002    2.146422050579234E-043
 -1.860000000000000E-002    2.803694679651354E-043
 -1.850000000000000E-002    3.330046204010018E-043
 -1.840000000000000E-002    3.549669607016897E-043
 -1.830000000000000E-002    3.228091893643729E-043
 -1.820000000000000E-002    2.106931556940855E-043
 -1.810000000000000E-002   -9.266599891488820E-045
 -1.800000000000000E-002   -3.595150186479744E-043
 -1.790000000000000E-002   -8.508186432424442E-043
 -1.780000000000000E-002   -1.476129944587579E-042
 -1.770000000000000E-002   -2.198537322123214E-042
 -1.760000000000000E-002   -2.939817243632927E-042
 -1.750000000000000E-002   -3.575263271773259E-042
 -1.740000000000000E-002   -3.924975143793405E-042
 -1.730000000000000E-002   -3.758558924083576E-042
 -1.720000000000000E-002   -2.807227169288773E-042
 -1.710000000000000E-002   -7.916298853850698E-043
 -1.700000000000000E-002    2.534187668840136E-042
 -1.690000000000000E-002    7.318676015365374E-042
 -1.680000000000000E-002    1.353175284293279E-041
 -1.670000000000000E-002    2.086997831799984E-041
 -1.660000000000000E-002    2.865707839908297E-041
 -1.650000000000000E-002    3.576264174990436E-041
 -1.640000000000000E-002    4.054696808599760E-041
 -1.630000000000000E-002    4.087310687440767E-041
 -1.620000000000000E-002    3.421470474358221E-041
 -1.610000000000000E-002    1.788455057562106E-041
 -1.600000000000000E-002   -1.058461960575641E-041
 -1.590000000000000E-002   -5.288875876424875E-041
 -1.580000000000000E-002   -1.092479615310929E-040
 -1.570000000000000E-002   -1.775826687123667E-040
 -1.560000000000000E-002   -2.526532064216190E-040
 -1.550000000000000E-002   -3.252875774167335E-040
 -1.540000000000000E-002   -3.818917825043776E-040
 -1.530000000000000E-002   -4.044426584827624E-040
 -1.520000000000000E-002   -3.712446750167646E-040
 -1.510000000000000E-002   -2.586893595579516E-040
 -1.500000000000000E-002   -4.423334072903008E-041
 -1.490000000000000E-002    2.892884758223569E-040
 -1.480000000000000E-002    7.480685617627909E-040
 -1.470000000000000E-002    1.320761620356820E-039
 -1.460000000000000E-002    1.971543816647440E-039
 -1.450000000000000E-002    2.633781361346808E-039
 -1.440000000000000E-002    3.205649643330358E-039
 -1.430000000000000E-002    3.549387006060082E-039
 -1.420000000000000E-002    3.496076223259670E-039
 -1.410000000000000E-002    2.857844845769831E-039
 -1.400000000000000E-002    1.449053527466734E-039
 -1.390000000000000E-002   -8.826471689254989E-040
 -1.380000000000000E-002   -4.215777199436476E-039
 -1.370000000000000E-002   -8.507041345548895E-039
 -1.360000000000000E-002   -1.354018560992816E-038
 -1.350000000000000E-002   -1.887843608293068E-038
 -1.340000000000000E-002   -2.382985908607691E-038
 -1.330000000000000E-002   -2.743720980341929E-038
 -1.320000000000000E-002   -2.850528307587891E-038
 -1.310000000000000E-002   -2.567864812407637E-038
 -1.300000000000000E-002   -1.758055506791018E-038
 -1.290000000000000E-002   -3.018879254387677E-039
 -1.280000000000000E-002    1.874300786729880E-038
 -1.270000000000000E-002    4.766382545108506E-038
 -1.260000000000000E-002    8.257812182316532E-038
 -1.250000000000000E-002    1.208697317717285E-037
 -1.240000000000000E-002    1.582250247938242E-037
 -1.230000000000000E-002    1.885400656823710E-037
 -1.220000000000000E-002    2.040639443126118E-037
 -1.210000000000000E-002    1.958604007496980E-037
 -1.200000000000000E-002    1.546548811470861E-037
 -1.190000000000000E-002    7.210442269893891E-038
 -1.180000000000000E-002   -5.752252374453211E-038
 -1.170000000000000E-002   -2.353379694373465E-037
 -1.160000000000000E-002   -4.556659254621823E-037
 -1.150000000000000E-002   -7.039776946042936E-037
 -1.140000000000000E-002   -9.552907140473382E-037
 -1.130000000000000E-002   -1.173473819066627E-036
 -1.120000000000000E-002   -1.311946417783743E-036
 -1.110000000000000E-002   -1.316252962840056E-036
 -1.100000000000000E-002   -1.128908607859895E-036
 -1.090000000000000E-002   -6.967284820050275E-037
 -1.080000000000000E-002    1.943149117244007E-038
 -1.070000000000000E-002    1.033000205075243E-036
 -1.060000000000000E-002    2.319030432563594E-036
 -1.050000000000000E-002    3.802060337200594E-036
 -1.040000000000000E-002    5.346515188513316E-036
 -1.030000000000000E-002    6.752130554021474E-036
 -1.020000000000000E-002    7.757094172264809E-036
 -1.010000000000000E-002    8.051567798057974E-036
 -1.000000000000000E-002    7.303734471620458E-036
 -9.899999999999999E-003    5.199542540390491E-036
 -9.800000000000000E-003    1.495695244057865E-036
 -9.699999999999999E-003   -3.916645519165579E-036
 -9.599999999999999E-003   -1.094258687361839E-035
 -9.500000000000000E-003   -1.921664384485402E-035
 -9.399999999999999E-003   -2.804899006046854E-035
 -9.299999999999999E-003   -3.639781776030110E-035
 -9.200000000000000E-003   -4.288184420019817E-035
 -9.099999999999999E-003   -4.584678396742856E-035
 -8.999999999999999E-003   -4.349667527957976E-035
 -8.900000000000000E-003   -3.409604393142072E-035
 -8.799999999999999E-003   -1.624058243184729E-035
 -8.699999999999999E-003    1.081654810964639E-035
 -8.600000000000000E-003    4.680886304957462E-035
 -8.499999999999999E-003    9.011068616530758E-035
 -8.399999999999999E-003    1.374546239161899E-034
 -8.300000000000000E-003    1.837761046495364E-034
 -8.199999999999999E-003    2.222538672958936E-034
 -8.100000000000000E-003    2.446128494260906E-034
 -8.000000000000000E-003    2.417428439232559E-034
 -7.899999999999999E-003    2.046600960246769E-034
 -7.800000000000000E-003    1.258015363436253E-034
 -7.699999999999999E-003    5.889745557906685E-037
 -7.599999999999999E-003   -1.708579787715398E-034
 -7.499999999999999E-003   -3.820476687244124E-034
 -7.399999999999999E-003   -6.187263938492710E-034
 -7.299999999999999E-003   -8.580679061097369E-034
 -7.199999999999999E-003   -1.068757042068571E-033
 -7.100000000000000E-003   -1.212267339484770E-033
 -6.999999999999999E-003   -1.245573832239734E-033
 -6.899999999999999E-003   -1.125420126274481E-033
 -6.800000000000000E-003   -8.140871600852880E-034
 -6.699999999999999E-003   -2.863860459516482E-034
 -6.599999999999999E-003    4.626670148102852E-034
 -6.499999999999999E-003    1.410310842631901E-033
 -6.399999999999999E-003    2.499711224530180E-033
 -6.299999999999999E-003    3.636105348506706E-033
 -6.199999999999999E-003    4.686766427416968E-033
 -6.100000000000000E-003    5.486057031096018E-033
 -5.999999999999999E-003    5.846548141188512E-033
 -5.899999999999999E-003    5.576683073751788E-033
 -5.800000000000000E-003    4.504730675780653E-033
 -5.699999999999999E-003    2.507826009928981E-033
 -5.599999999999999E-003   -4.561907535914775E-034
 -5.499999999999999E-003   -4.317503520027627E-033
 -5.399999999999999E-003   -8.868011715833861E-033
 -5.299999999999999E-003   -1.374505328906895E-032
 -5.199999999999999E-003   -1.843051923700864E-032
 -5.099999999999999E-003   -2.227019058965552E-032
 -4.999999999999999E-003   -2.451705578323384E-032
 -4.899999999999999E-003   -2.440013917888776E-032
 -4.799999999999999E-003   -2.121742249254198E-032
 -4.699999999999999E-003   -1.444786248720154E-032
 -4.599999999999999E-003   -3.873208575411884E-033
 -4.499999999999999E-003    1.030362987227601E-032
 -4.399999999999999E-003    2.736053560066208E-032
 -4.299999999999999E-003    4.599756329335707E-032
 -4.199999999999999E-003    6.433735745533488E-032
 -4.099999999999999E-003    8.000172876525769E-032
 -3.999999999999999E-003    9.027662542008631E-032
 -3.899999999999999E-003    9.236914673357174E-032
 -3.799999999999999E-003    8.374864752353005E-032
 -3.699999999999999E-003    6.255046394925805E-032
 -3.599999999999999E-003    2.800606337556066E-032
 -3.499999999999999E-003   -1.915121728331769E-032
 -3.399999999999999E-003   -7.636627488350632E-032
 -3.299999999999999E-003   -1.390964558353049E-031
 -3.199999999999999E-003   -2.008659650955770E-031
 -3.099999999999999E-003   -2.535956043908031E-031
 -2.999999999999999E-003   -2.882407180289554E-031
 -2.899999999999999E-003   -2.957375649918280E-031
 -2.799999999999999E-003   -2.682140833101184E-031
 -2.699999999999999E-003   -2.003739010046782E-031
 -2.599999999999999E-003   -9.090989826122695E-032
 -2.499999999999999E-003    5.624034454686293E-032
 -2.399999999999999E-003    2.310170246197143E-031
 -2.299999999999999E-003    4.169694472744957E-031
 -2.199999999999999E-003    5.918058380686580E-031
 -2.099999999999999E-003    7.289190766290022E-031
 -1.999999999999999E-003    7.999504415689676E-031
 -1.899999999999999E-003    7.783261943461830E-031
 -1.799999999999999E-003    6.435441575478548E-031
 -1.699999999999999E-003    3.858139725823232E-031
 -1.599999999999999E-003    1.049052954451884E-032
 -1.499999999999999E-003   -4.583967184849840E-031
 -1.399999999999999E-003   -9.762918289043043E-031
 -1.299999999999999E-003   -1.478698267276895E-030
 -1.199999999999999E-003   -1.884843810976113E-030
 -1.099999999999999E-003   -2.104810263590628E-030
 -9.999999999999989E-004   -2.050134345781056E-030
 -8.999999999999990E-004   -1.647395548744329E-030
 -7.999999999999990E-004   -8.537238409263858E-031
 -6.999999999999989E-004    3.274216901413115E-031
 -5.999999999999990E-004    1.832404147287739E-030
 -4.999999999999989E-004    3.528062391821912E-030
 -3.999999999999989E-004    5.209596356126360E-030
 -2.999999999999989E-004    6.608198983443178E-030
 -1.999999999999989E-004    7.410345103787822E-030
 -9.999999999999892E-005    7.289546270560718E-030
  1.084202172485504E-018    5.949964566348689E-030
  1.000000000000011E-004    3.179274007192420E-030
  2.000000000000011E-004   -1.093749795090585E-030
  3.000000000000011E-004   -6.743596630703154E-030
  4.000000000000011E-004   -1.340270888281848E-029
  5.000000000000011E-004   -2.043596494768952E-029
  6.000000000000011E-004   -2.694458671072607E-029
  7.000000000000011E-004   -3.180788593624337E-029
  8.000000000000011E-004   -3.376870712509345E-029
  9.000000000000012E-004   -3.156419013927896E-029
  1.000000000000001E-003   -2.409777466025989E-029
  1.100000000000001E-003   -1.064162643181660E-029
  1.200000000000001E-003    8.948557925679328E-030
  1.300000000000001E-003    3.403154256075768E-029
  1.400000000000001E-003    6.302205637327444E-029
  1.500000000000001E-003    9.330984074067785E-029
  1.600000000000001E-003    1.212898249233437E-028
  1.700000000000001E-003    1.425322521021787E-028
  1.800000000000001E-003    1.521113543678806E-028
  1.900000000000001E-003    1.450961558649639E-028
  2.000000000000001E-003    1.171865489905702E-028
  2.100000000000001E-003    6.545441129416960E-029
  2.200000000000001E-003   -1.087556798470025E-029
  2.300000000000001E-003   -1.096937839452983E-028
  2.400000000000001E-003   -2.254296229541874E-028
  2.500000000000001E-003   -3.487487072979277E-028
  2.600000000000001E-003   -4.666378423296805E-028
  2.700000000000001E-003   -5.629752354837368E-028
  2.800000000000001E-003   -6.196484044137050E-028
  2.900000000000001E-003   -6.182310220037527E-028
  3.000000000000001E-003   -5.421607713976261E-028
  3.100000000000001E-003   -3.792864082294626E-028
  3.200000000000001E-003   -1.245663272032879E-028
  3.300000000000001E-003    2.173722735194482E-028
  3.400000000000001E-003    6.301660105545309E-028
  3.500000000000001E-003    1.084521790643229E-027
  3.600000000000001E-003    1.538273076388881E-027
  3.700000000000001E-003    1.938006114986190E-027
  3.800000000000001E-003    2.222461628069128E-027
  3.900000000000001E-003    2.327765468701373E-027
  4.000000000000001E-003    2.194313634553379E-027
  4.100000000000001E-003    1.774915511870620E-027
  4.200000000000001E-003    1.043525363360704E-027
  4.300000000000001E-003    3.671064977021756E-030
  4.400000000000001E-003   -1.304505468625462E-027
  4.500000000000001E-003   -2.799775625275433E-027
  4.600000000000002E-003   -4.359085970210319E-027
  4.700000000000001E-003   -5.821543451948421E-027
  4.800000000000001E-003   -6.997807457526774E-027
  4.900000000000002E-003   -7.685077086531491E-027
  5.000000000000001E-003   -7.687239780111065E-027
  5.100000000000001E-003   -6.839038422478542E-027
  5.200000000000001E-003   -5.032372836339280E-027
  5.300000000000002E-003   -2.242138759979843E-027
  5.400000000000001E-003    1.451513672864125E-027
  5.500000000000001E-003    5.847941794121870E-027
  5.600000000000002E-003    1.062117630601904E-026
  5.700000000000001E-003    1.532842736192899E-026
  5.800000000000001E-003    1.943395484414769E-026
  5.900000000000002E-003    2.234900103726378E-026
  6.000000000000001E-003    2.348671669836117E-026
  6.100000000000001E-003    2.232904363058972E-026
  6.200000000000002E-003    1.850044088370184E-026
  6.300000000000002E-003    1.184140830680898E-026
  6.400000000000001E-003    2.473262301750322E-027
  6.500000000000001E-003   -9.155219932748333E-027
  6.600000000000002E-003   -2.224858392155647E-026
  6.700000000000001E-003   -3.568097647322863E-026
  6.800000000000001E-003   -4.805356134423290E-026
  6.900000000000002E-003   -5.779510707853732E-026
  7.000000000000001E-003   -6.330326795518758E-026
  7.100000000000001E-003   -6.311854072647767E-026
  7.200000000000002E-003   -5.611778914302135E-026
  7.300000000000002E-003   -4.170888471410464E-026
  7.400000000000001E-003   -2.000428461053680E-026
  7.500000000000001E-003    8.050831063597265E-027
  7.600000000000002E-003    4.061977584607163E-026
  7.700000000000001E-003    7.500575991161754E-026
  7.800000000000001E-003    1.077879066101704E-025
  7.900000000000001E-003    1.350668513917875E-025
  8.000000000000002E-003    1.528132952139209E-025
  8.100000000000001E-003    1.572994413668817E-025
  8.200000000000001E-003    1.455793631789068E-025
  8.300000000000002E-003    1.159723590673648E-025
  8.400000000000001E-003    6.849338200257288E-026
  8.500000000000002E-003    5.170352291658511E-027
  8.600000000000002E-003   -6.981044413563210E-026
  8.700000000000001E-003   -1.501808851618817E-025
  8.800000000000002E-003   -2.279231798836995E-025
  8.900000000000002E-003   -2.938674159910515E-025
  9.000000000000001E-003   -3.385351919251269E-025
  9.100000000000002E-003   -3.531769857990291E-025
  9.200000000000002E-003   -3.309178301571439E-025
  9.300000000000001E-003   -2.678970577557636E-025
  9.400000000000002E-003   -1.642665282318915E-025
  9.500000000000001E-003   -2.490261730417935E-026
  9.600000000000001E-003    1.403062365423659E-025
  9.700000000000002E-003    3.167100331060942E-025
  9.800000000000001E-003    4.857568816589744E-025
  9.900000000000001E-003    6.264749085052112E-025
  1.000000000000000E-002    7.175145973364163E-025
  1.010000000000000E-002    7.396147241425107E-025
  1.020000000000000E-002    6.782747161493139E-025
  1.030000000000000E-002    5.263532639987311E-025
  1.040000000000000E-002    2.862671438575857E-025
  1.050000000000000E-002   -2.855005614942170E-026
  1.060000000000000E-002   -3.932429031839158E-025
  1.070000000000000E-002   -7.724294914748588E-025
  1.080000000000000E-002   -1.122536959148714E-024
  1.090000000000000E-002   -1.395564763308028E-024
  1.100000000000000E-002   -1.544089855092495E-024
  1.110000000000000E-002   -1.527146972018437E-024
  1.120000000000000E-002   -1.316432815557377E-024
  1.130000000000000E-002   -9.021479212264891E-025
  1.140000000000000E-002   -2.976959506267215E-025
  1.150000000000000E-002    4.575474390232237E-025
  1.160000000000000E-002    1.298097734240356E-024
  1.170000000000000E-002    2.135384590812911E-024
  1.180000000000000E-002    2.864165103026709E-024
  1.190000000000000E-002    3.372202473091126E-024
  1.200000000000000E-002    3.552669773019305E-024
  1.210000000000000E-002    3.318287190460121E-024
  1.220000000000000E-002    2.615822092510866E-024
  1.230000000000000E-002    1.439261375464364E-024
  1.240000000000000E-002   -1.601948404801092E-025
  1.250000000000000E-002   -2.069139624932484E-024
  1.260000000000000E-002   -4.113542445764786E-024
  1.270000000000000E-002   -6.067976391349088E-024
  1.280000000000000E-002   -7.672879730750253E-024
  1.290000000000000E-002   -8.659298481059719E-024
  1.300000000000000E-002   -8.779605111904166E-024
  1.310000000000000E-002   -7.841656991557092E-024
  1.320000000000000E-002   -5.742947962228332E-024
  1.330000000000000E-002   -2.500689729839319E-024
  1.340000000000000E-002    1.726587411147331E-024
  1.350000000000000E-002    6.630097637123876E-024
  1.360000000000000E-002    1.175805506808439E-023
  1.370000000000000E-002    1.654135514215974E-023
  1.380000000000000E-002    2.033820371982387E-023
  1.390000000000000E-002    2.249599189729731E-023
  1.400000000000000E-002    2.242645438179182E-023
  1.410000000000000E-002    1.968773331699937E-023
  1.420000000000000E-002    1.406505235986553E-023
  1.430000000000000E-002    5.640170845310618E-024
  1.440000000000000E-002   -5.160555836859460E-024
  1.450000000000000E-002   -1.754931698918999E-023
  1.460000000000000E-002   -3.039894100361044E-023
  1.470000000000000E-002   -4.230874483479460E-023
  1.480000000000000E-002   -5.171476554997286E-023
  1.490000000000000E-002   -5.703972345845801E-023
  1.500000000000000E-002   -5.687287050932181E-023
  1.510000000000000E-002   -5.016444298037770E-023
  1.520000000000000E-002   -3.641486804598471E-023
  1.530000000000000E-002   -1.583604920972658E-023
  1.540000000000000E-002    1.053915396966211E-023
  1.550000000000000E-002    4.082115200167571E-023
  1.560000000000000E-002    7.231946959726866E-023
  1.570000000000000E-002    1.017002468112683E-022
  1.580000000000000E-002    1.252461950830482E-022
  1.590000000000000E-002    1.392075742192377E-022
  1.600000000000000E-002    1.402211380869312E-022
  1.610000000000000E-002    1.257610131007654E-022
  1.620000000000000E-002    9.457667708906573E-023
  1.630000000000000E-002    4.706557457363453E-023
  1.640000000000000E-002   -1.447336087872843E-023
  1.650000000000000E-002   -8.575494499019821E-023
  1.660000000000000E-002   -1.606312678409138E-022
  1.670000000000000E-002   -2.314465131236354E-022
  1.680000000000000E-002   -2.896235398203235E-022
  1.690000000000000E-002   -3.264568172196360E-022
  1.700000000000000E-002   -3.340592323842767E-022
  1.710000000000000E-002   -3.063827606378388E-022
  1.720000000000000E-002   -2.402121464515931E-022
  1.730000000000000E-002   -1.360155648712535E-022
  1.740000000000000E-002    1.466888870421275E-024
  1.750000000000000E-002    1.630075397539875E-022
  1.760000000000000E-002    3.351359717314707E-022
  1.770000000000000E-002    5.008954100758294E-022
  1.780000000000000E-002    6.411120356893198E-022
  1.790000000000000E-002    7.361251619363551E-022
  1.800000000000000E-002    7.678625115005509E-022
  1.810000000000000E-002    7.220891939988320E-022
  1.820000000000000E-002    5.906110502232216E-022
  1.830000000000000E-002    3.731818738993327E-022
  1.840000000000000E-002    7.885552251498581E-023
  1.850000000000000E-002   -2.734576638288405E-022
  1.860000000000000E-002   -6.554209454834344E-022
  1.870000000000000E-002   -1.030803549492071E-021