 -4.000000000000000E-002    0.000000000000000E+000
 -3.990000000000000E-002    0.000000000000000E+000
 -3.980000000000000E-002    0.000000000000000E+000
 -3.970000000000000E-002    0.000000000000000E+000
 -3.960000000000000E-002    0.000000000000000E+000
 -3.950000000000000E-002    0.000000000000000E+000
 -3.940000000000000E-002    0.000000000000000E+000
 -3.930000000000000E-002    0.000000000000000E+000
 -3.920000000000000E-002    0.000000000000000E+000
 -3.910000000000000E-002    0.000000000000000E+000
 -3.900000000000000E-002    0.000000000000000E+000
 -3.890000000000000E-002    0.000000000000000E+000
 -3.880000000000000E-002    0.000000000000000E+000
 -3.870000000000000E-002    0.000000000000000E+000
 -3.860000000000000E-002    0.000000000000000E+000
 -3.850000000000000E-002    0.000000000000000E+000
 -3.840000000000000E-002    0.000000000000000E+000
 -3.830000000000000E-002    0.000000000000000E+000
 -3.820000000000000E-002    0.000000000000000E+000
 -3.810000000000000E-002    0.000000000000000E+000
 -3.800000000000000E-002    0.000000000000000E+000
 -3.790000000000000E-002    0.000000000000000E+000
 -3.780000000000000E-002    0.000000000000000E+000
 -3.770000000000000E-002    0.000000000000000E+000
 -3.760000000000000E-002    0.000000000000000E+000
 -3.750000000000000E-002    0.000000000000000E+000
 -3.740000000000000E-002    0.000000000000000E+000
 -3.730000000000000E-002    0.000000000000000E+000
 -3.720000000000000E-002    0.000000000000000E+000
 -3.710000000000000E-002    0.000000000000000E+000
 -3.700000000000000E-002    0.000000000000000E+000
 -3.690000000000000E-002    0.000000000000000E+000
 -3.680000000000000E-002    0.000000000000000E+000
 -3.670000000000000E-002    0.000000000000000E+000
 -3.660000000000000E-002    0.000000000000000E+000
 -3.650000000000000E-002    0.000000000000000E+000
 -3.640000000000000E-002    0.000000000000000E+000
 -3.630000000000000E-002    0.000000000000000E+000
 -3.620000000000000E-002    0.000000000000000E+000
 -3.610000000000000E-002    0.000000000000000E+000
 -3.600000000000000E-002    0.000000000000000E+000
 -3.590000000000000E-002    0.000000000000000E+000
 -3.580000000000000E-002    0.000000000000000E+000
 -3.570000000000000E-002    0.000000000000000E+000
 -3.560000000000000E-002    0.000000000000000E+000
 -3.550000000000000E-002    0.000000000000000E+000
 -3.540000000000000E-002    0.000000000000000E+000
 -3.530000000000000E-002    0.000000000000000E+000
 -3.520000000000000E-002    0.000000000000000E+000
 -3.510000000000000E-002    0.000000000000000E+000
 -3.500000000000000E-002    0.000000000000000E+000
 -3.490000000000000E-002    0.000000000000000E+000
 -3.480000000000000E-002    0.000000000000000E+000
 -3.470000000000000E-002    0.000000000000000E+000
 -3.460000000000000E-002    0.000000000000000E+000
 -3.450000000000000E-002    0.000000000000000E+000
 -3.440000000000000E-002    0.000000000000000E+000
 -3.430000000000000E-002    0.000000000000000E+000
 -3.420000000000000E-002    0.000000000000000E+000
 -3.410000000000000E-002    0.000000000000000E+000
 -3.400000000000000E-002    0.000000000000000E+000
 -3.390000000000000E-002    0.000000000000000E+000
 -3.380000000000000E-002    0.000000000000000E+000
 -3.370000000000000E-002    0.000000000000000E+000
 -3.360000000000000E-002    0.000000000000000E+000
 -3.350000000000000E-002    0.000000000000000E+000
 -3.340000000000000E-002    0.000000000000000E+000
 -3.330000000000000E-002    0.000000000000000E+000
 -3.320000000000000E-002    0.000000000000000E+000
 -3.310000000000000E-002    0.000000000000000E+000
 -3.300000000000000E-002    0.000000000000000E+000
 -3.290000000000000E-002    0.000000000000000E+000
 -3.280000000000000E-002    0.000000000000000E+000
 -3.270000000000000E-002    0.000000000000000E+000
 -3.260000000000000E-002    0.000000000000000E+000
 -3.250000000000000E-002    0.000000000000000E+000
 -3.240000000000000E-002    0.000000000000000E+000
 -3.230000000000000E-002    0.000000000000000E+000
 -3.220000000000000E-002    0.000000000000000E+000
 -3.210000000000000E-002    0.000000000000000E+000
 -3.200000000000000E-002    0.000000000000000E+000
 -3.190000000000000E-002    0.000000000000000E+000
 -3.180000000000000E-002    0.000000000000000E+000
 -3.170000000000000E-002    0.000000000000000E+000
 -3.160000000000000E-002    0.000000000000000E+000
 -3.150000000000000E-002    0.000000000000000E+000
 -3.140000000000000E-002    0.000000000000000E+000
 -3.130000000000000E-002    0.000000000000000E+000
 -3.120000000000000E-002    0.000000000000000E+000
 -3.110000000000000E-002    0.000000000000000E+000
 -3.100000000000000E-002    0.000000000000000E+000
 -3.090000000000000E-002    0.000000000000000E+000
 -3.080000000000000E-002    0.000000000000000E+000
 -3.070000000000000E-002    0.000000000000000E+000
 -3.060000000000000E-002    0.000000000000000E+000
 -3.050000000000000E-002    0.000000000000000E+000
 -3.040000000000000E-002    0.000000000000000E+000
 -3.030000000000000E-002    0.000000000000000E+000
 -3.020000000000000E-002    0.000000000000000E+000
 -3.010000000000000E-002    0.000000000000000E+000
 -3.000000000000000E-002    0.000000000000000E+000
 -2.990000000000000E-002    0.000000000000000E+000
 -2.980000000000000E-002    0.000000000000000E+000
 -2.970000000000000E-002    0.000000000000000E+000
 -2.960000000000000E-002    0.000000000000000E+000
 -2.950000000000000E-002    0.000000000000000E+000
 -2.940000000000000E-002    0.000000000000000E+000
 -2.930000000000000E-002    0.000000000000000E+000
 -2.920000000000000E-002    0.000000000000000E+000
 -2.910000000000000E-002    0.000000000000000E+000
 -2.900000000000000E-002    0.000000000000000E+000
 -2.890000000000000E-002    0.000000000000000E+000
 -2.880000000000000E-002    0.000000000000000E+000
 -2.870000000000000E-002    0.000000000000000E+000
 -2.860000000000000E-002    0.000000000000000E+000
 -2.850000000000000E-002    0.000000000000000E+000
 -2.840000000000000E-002    0.000000000000000E+000
 -2.830000000000000E-002    0.000000000000000E+000
 -2.820000000000000E-002    0.000000000000000E+000
 -2.810000000000000E-002    0.000000000000000E+000
 -2.800000000000000E-002    0.000000000000000E+000
 -2.790000000000000E-002    0.000000000000000E+000
 -2.780000000000000E-002    0.000000000000000E+000
 -2.770000000000000E-002    0.000000000000000E+000
 -2.760000000000000E-002    0.000000000000000E+000
 -2.750000000000000E-002    0.000000000000000E+000
 -2.740000000000000E-002    0.000000000000000E+000
 -2.730000000000000E-002    0.000000000000000E+000
 -2.720000000000000E-002    0.000000000000000E+000
 -2.710000000000000E-002    0.000000000000000E+000
 -2.700000000000000E-002    0.000000000000000E+000
 -2.690000000000000E-002    0.000000000000000E+000
 -2.680000000000000E-002    0.000000000000000E+000
 -2.670000000000000E-002    0.000000000000000E+000
 -2.660000000000000E-002    0.000000000000000E+000
 -2.650000000000000E-002    0.000000000000000E+000
 -2.640000000000000E-002    0.000000000000000E+000
 -2.630000000000000E-002    0.000000000000000E+000
 -2.620000000000000E-002    0.000000000000000E+000
 -2.610000000000000E-002    0.000000000000000E+000
 -2.600000000000000E-002    0.000000000000000E+000
 -2.590000000000000E-002    0.000000000000000E+000
 -2.580000000000000E-002    0.000000000000000E+000
 -2.570000000000000E-002    0.000000000000000E+000
 -2.560000000000000E-002    0.000000000000000E+000
 -2.550000000000000E-002    0.000000000000000E+000
 -2.540000000000000E-002    0.000000000000000E+000
 -2.530000000000000E-002    0.000000000000000E+000
 -2.520000000000000E-002    0.000000000000000E+000
 -2.510000000000000E-002    0.000000000000000E+000
 -2.500000000000000E-002    0.000000000000000E+000
 -2.490000000000000E-002    0.000000000000000E+000
 -2.480000000000000E-002    0.000000000000000E+000
 -2.470000000000000E-002    0.000000000000000E+000
 -2.460000000000000E-002    0.000000000000000E+000
 -2.450000000000000E-002    0.000000000000000E+000
 -2.440000000000000E-002    0.000000000000000E+000
 -2.430000000000000E-002    0.000000000000000E+000
 -2.420000000000000E-002    0.000000000000000E+000
 -2.410000000000000E-002    0.000000000000000E+000
 -2.400000000000000E-002    0.000000000000000E+000
 -2.390000000000000E-002    0.000000000000000E+000
 -2.380000000000000E-002    0.000000000000000E+000
 -2.370000000000000E-002    0.000000000000000E+000
 -2.360000000000000E-002    0.000000000000000E+000
 -2.350000000000000E-002    0.000000000000000E+000
 -2.340000000000000E-002    0.000000000000000E+000
 -2.330000000000000E-002    0.000000000000000E+000
 -2.320000000000000E-002    0.000000000000000E+000
 -2.310000000000000E-002    0.000000000000000E+000
 -2.300000000000000E-002    0.000000000000000E+000
 -2.290000000000000E-002    0.000000000000000E+000
 -2.280000000000000E-002    0.000000000000000E+000
 -2.270000000000000E-002    0.000000000000000E+000
 -2.260000000000000E-002    0.000000000000000E+000
 -2.250000000000000E-002    0.000000000000000E+000
 -2.240000000000000E-002    0.000000000000000E+000
 -2.230000000000000E-002    0.000000000000000E+000
 -2.220000000000000E-002    0.000000000000000E+000
 -2.210000000000000E-002    0.000000000000000E+000
 -2.200000000000000E-002    0.000000000000000E+000
 -2.190000000000000E-002    0.000000000000000E+000
 -2.180000000000000E-002    0.000000000000000E+000
 -2.170000000000000E-002    0.000000000000000E+000
 -2.160000000000000E-002    0.000000000000000E+000
 -2.150000000000000E-002    0.000000000000000E+000
 -2.140000000000000E-002    0.000000000000000E+000
 -2.130000000000000E-002    0.000000000000000E+000
 -2.120000000000000E-002    0.000000000000000E+000
 -2.110000000000000E-002    0.000000000000000E+000
 -2.100000000000000E-002    0.000000000000000E+000
 -2.090000000000000E-002    0.000000000000000E+000
 -2.080000000000000E-002    0.000000000000000E+000
 -2.070000000000000E-002    0.000000000000000E+000
 -2.060000000000000E-002    0.000000000000000E+000
 -2.050000000000000E-002    0.000000000000000E+000
 -2.040000000000000E-002    0.000000000000000E+000
 -2.030000000000000E-002    0.000000000000000E+000
 -2.020000000000000E-002    0.000000000000000E+000
 -2.010000000000000E-002    0.000000000000000E+000
 -2.000000000000000E-002    0.000000000000000E+000
 -1.990000000000000E-002    0.000000000000000E+000
 -1.980000000000000E-002    0.000000000000000E+000
 -1.970000000000000E-002    0.000000000000000E+000
 -1.960000000000000E-002    0.000000000000000E+000
 -1.950000000000000E-002    0.000000000000000E+000
 -1.940000000000000E-002    0.000000000000000E+000
 -1.930000000000000E-002    0.000000000000000E+000
 -1.920000000000000E-002    0.000000000000000E+000
 -1.910000000000000E-002    0.000000000000000E+000
 -1.900000000000000E-002    0.000000000000000E+000
 -1.890000000000000E-002    0.000000000000000E+000
 -1.880000000000000E-002    0.000000000000000E+000
 -1.870000000000000E-002    0.000000000000000E+000
 -1.860000000000000E-002    0.000000000000000E+000
 -1.850000000000000E-002    0.000000000000000E+000
 -1.840000000000000E-002    0.000000000000000E+000
 -1.830000000000000E-002    0.000000000000000E+000
 -1.820000000000000E-002    0.000000000000000E+000
 -1.810000000000000E-002    0.000000000000000E+000
 -1.800000000000000E-002    0.000000000000000E+000
 -1.790000000000000E-002    0.000000000000000E+000
 -1.780000000000000E-002    0.000000000000000E+000
 -1.770000000000000E-002    0.000000000000000E+000
 -1.760000000000000E-002    0.000000000000000E+000
 -1.750000000000000E-002    0.000000000000000E+000
 -1.740000000000000E-002    0.000000000000000E+000
 -1.730000000000000E-002    0.000000000000000E+000
 -1.720000000000000E-002    0.000000000000000E+000
 -1.710000000000000E-002    0.000000000000000E+000
 -1.700000000000000E-002    0.000000000000000E+000
 -1.690000000000000E-002    0.000000000000000E+000
 -1.680000000000000E-002    0.000000000000000E+000
 -1.670000000000000E-002    0.000000000000000E+000
 -1.660000000000000E-002    0.000000000000000E+000
 -1.650000000000000E-002    0.000000000000000E+000
 -1.640000000000000E-002    0.000000000000000E+000
 -1.630000000000000E-002    0.000000000000000E+000
 -1.620000000000000E-002    0.000000000000000E+000
 -1.610000000000000E-002    0.000000000000000E+000
 -1.600000000000000E-002    0.000000000000000E+000
 -1.590000000000000E-002    0.000000000000000E+000
 -1.580000000000000E-002    0.000000000000000E+000
 -1.570000000000000E-002    0.000000000000000E+000
 -1.560000000000000E-002    0.000000000000000E+000
 -1.550000000000000E-002    0.000000000000000E+000
 -1.540000000000000E-002    0.000000000000000E+000
 -1.530000000000000E-002    0.000000000000000E+000
 -1.520000000000000E-002    0.000000000000000E+000
 -1.510000000000000E-002    0.000000000000000E+000
 -1.500000000000000E-002    0.000000000000000E+000
 -1.490000000000000E-002    0.000000000000000E+000
 -1.480000000000000E-002    0.000000000000000E+000
 -1.470000000000000E-002    0.000000000000000E+000
 -1.460000000000000E-002    0.000000000000000E+000
 -1.450000000000000E-002    0.000000000000000E+000
 -1.440000000000000E-002    0.000000000000000E+000
 -1.430000000000000E-002    0.000000000000000E+000
 -1.420000000000000E-002    0.000000000000000E+000
 -1.410000000000000E-002    0.000000000000000E+000
 -1.400000000000000E-002    0.000000000000000E+000
 -1.390000000000000E-002    0.000000000000000E+000
 -1.380000000000000E-002    0.000000000000000E+000
 -1.370000000000000E-002    0.000000000000000E+000
 -1.360000000000000E-002    0.000000000000000E+000
 -1.350000000000000E-002    0.000000000000000E+000
 -1.340000000000000E-002    0.000000000000000E+000
 -1.330000000000000E-002    0.000000000000000E+000
 -1.320000000000000E-002    0.000000000000000E+000
 -1.310000000000000E-002    0.000000000000000E+000
 -1.300000000000000E-002    0.000000000000000E+000
 -1.290000000000000E-002    0.000000000000000E+000
 -1.280000000000000E-002    0.000000000000000E+000
 -1.270000000000000E-002    0.000000000000000E+000
 -1.260000000000000E-002    0.000000000000000E+000
 -1.250000000000000E-002    0.000000000000000E+000
 -1.240000000000000E-002    0.000000000000000E+000
 -1.230000000000000E-002    0.000000000000000E+000
 -1.220000000000000E-002    0.000000000000000E+000
 -1.210000000000000E-002    0.000000000000000E+000
 -1.200000000000000E-002    0.000000000000000E+000
 -1.190000000000000E-002    0.000000000000000E+000
 -1.180000000000000E-002    0.000000000000000E+000
 -1.170000000000000E-002    0.000000000000000E+000
 -1.160000000000000E-002    0.000000000000000E+000
 -1.150000000000000E-002    0.000000000000000E+000
 -1.140000000000000E-002    0.000000000000000E+000
 -1.130000000000000E-002    0.000000000000000E+000
 -1.120000000000000E-002    0.000000000000000E+000
 -1.110000000000000E-002    0.000000000000000E+000
 -1.100000000000000E-002   -3.590010244341892E-048
 -1.090000000000000E-002   -7.180020488683784E-048
 -1.080000000000000E-002   -3.810423911257175E-047
 -1.070000000000000E-002   -6.902845773645971E-047
 -1.060000000000000E-002   -9.995267636034768E-047
 -1.050000000000000E-002   -9.995267636034768E-047
 -1.040000000000000E-002   -9.636266611600578E-047
 -1.030000000000000E-002   -5.825842700343404E-047
 -1.020000000000000E-002   -1.175030029369899E-047
 -1.010000000000000E-002    6.927205528426591E-047
 -1.000000000000000E-002    1.815012515946729E-046
 -9.899999999999999E-003    3.234307994204884E-046
 -9.800000000000000E-003    4.825084572580171E-046
 -9.699999999999999E-003    6.331822274983825E-046
 -9.599999999999999E-003    7.319756500140014E-046
 -9.500000000000000E-003    7.758570582227220E-046
 -9.399999999999999E-003    7.015531167408313E-046
 -9.299999999999999E-003    3.797720676778502E-046
 -9.200000000000000E-003   -5.471597467902240E-047
 -9.099999999999999E-003   -8.985119130453819E-046
 -8.999999999999999E-003   -1.921632135136604E-045
 -8.900000000000000E-003   -3.080490765011289E-045
 -8.799999999999999E-003   -4.145100504066419E-045
 -8.699999999999999E-003   -5.242307146366728E-045
 -8.600000000000000E-003   -5.984403273874676E-045
 -8.499999999999999E-003   -5.946529499780388E-045
 -8.399999999999999E-003   -5.452252464093970E-045
 -8.300000000000000E-003   -4.222592901475992E-045
 -8.199999999999999E-003   -1.401443075242437E-045
 -8.100000000000000E-003    2.229453845477635E-045
 -8.000000000000000E-003    7.268164178312408E-045
 -7.899999999999999E-003    1.358165576925646E-044
 -7.800000000000000E-003    2.061477625374385E-044
 -7.699999999999999E-003    2.795568379566098E-044
 -7.599999999999999E-003    3.437697591819949E-044
 -7.499999999999999E-003    3.805638181855564E-044
 -7.399999999999999E-003    3.733123242272251E-044
 -7.299999999999999E-003    3.035412405374946E-044
 -7.199999999999999E-003    1.550671829569296E-044
 -7.100000000000000E-003   -7.855269876199449E-045
 -6.999999999999999E-003   -4.040574391210949E-044
 -6.899999999999999E-003   -8.017846506653394E-044
 -6.800000000000000E-003   -1.244240256819904E-043
 -6.699999999999999E-003   -1.687274914812796E-043
 -6.599999999999999E-003   -2.058565469857015E-043
 -6.499999999999999E-003   -2.262959417312363E-043
 -6.399999999999999E-003   -2.195201056721863E-043
 -6.299999999999999E-003   -1.750052492089681E-043
 -6.199999999999999E-003   -8.324781977317736E-044
 -6.100000000000000E-003    6.103758870669403E-044
 -5.999999999999999E-003    2.583938384309256E-043
 -5.899999999999999E-003    5.011077428151584E-043
 -5.800000000000000E-003    7.688245490301443E-043
 -5.699999999999999E-003    1.032324275170308E-042
 -5.599999999999999E-003    1.248483535181854E-042
 -5.499999999999999E-003    1.363800234290637E-042
 -5.399999999999999E-003    1.317047572556765E-042
 -5.299999999999999E-003    1.048303297269146E-042
 -5.199999999999999E-003    5.070424323397779E-043
 -5.099999999999999E-003   -3.386306838214947E-043
 -4.999999999999999E-003   -1.485892788531871E-042
 -4.899999999999999E-003   -2.885698201358540E-042
 -4.799999999999999E-003   -4.428687849452261E-042
 -4.699999999999999E-003   -5.943027692568056E-042
 -4.599999999999999E-003   -7.187676289597165E-042
 -4.499999999999999E-003   -7.867410795341013E-042
 -4.399999999999999E-003   -7.651852055149909E-042
 -4.299999999999999E-003   -6.213048546120283E-042
 -4.199999999999999E-003   -3.273836269425740E-042
 -4.099999999999999E-003    1.329389764719539E-042
 -3.999999999999999E-003    7.579752959650991E-042
 -3.899999999999999E-003    1.520935943097258E-041
 -3.799999999999999E-003    2.364448300715978E-041
 -3.699999999999999E-003    3.197024726410394E-041
 -3.599999999999999E-003    3.893005100112166E-041
 -3.499999999999999E-003    4.298506321945306E-041
 -3.399999999999999E-003    4.242558207464499E-041
 -3.299999999999999E-003    3.555777993236551E-041
 -3.199999999999999E-003    2.095460330098857E-041
 -3.099999999999999E-003   -2.237207661410256E-042
 -2.999999999999999E-003   -3.396031282958276E-041
 -2.899999999999999E-003   -7.291568638340275E-041
 -2.799999999999999E-003   -1.162863209629744E-040
 -2.699999999999999E-003   -1.595863413088451E-040
 -2.599999999999999E-003   -1.966864110464807E-040
 -2.499999999999999E-003   -2.200833959667481E-040
 -2.399999999999999E-003   -2.214698989313629E-040
 -2.299999999999999E-003   -1.926192175306105E-040
 -2.199999999999999E-003   -1.265723721374938E-040
 -2.099999999999999E-003   -1.906911983400160E-041
 -1.999999999999999E-003    1.298977895448624E-040
 -1.899999999999999E-003    3.145801210755508E-040
 -1.799999999999999E-003    5.222575387442949E-040
 -1.699999999999999E-003    7.325794013959701E-040
 -1.599999999999999E-003    9.177407434119784E-040
 -1.499999999999999E-003    1.043764088670811E-039
 -1.399999999999999E-003    1.073074594150594E-039
 -1.299999999999999E-003    9.684540992532163E-040
 -1.199999999999999E-003    6.982679409530144E-040
 -1.099999999999999E-003    2.426772273264513E-040
 -9.999999999999989E-004   -3.997087217902399E-040
 -8.999999999999990E-004   -1.205526383841222E-039
 -7.999999999999990E-004   -2.121673750117064E-039
 -6.999999999999989E-004   -3.062785536712834E-039
 -5.999999999999990E-004   -3.912306916176220E-039
 -4.999999999999989E-004   -4.528170509627579E-039
 -3.999999999999989E-004   -4.753780141828532E-039
 -2.999999999999989E-004   -4.434459862318958E-039
 -1.999999999999989E-004   -3.438841552778901E-039
 -9.999999999999892E-005   -1.683789108942073E-039
  1.084202172485504E-018    8.394565292517314E-040
  1.000000000000011E-004    4.041130820473043E-039
  2.000000000000011E-004    7.714717342594935E-039
  3.000000000000011E-004    1.152896506112857E-038
  4.000000000000011E-004    1.503434267857372E-038
  5.000000000000011E-004    1.768740609987837E-038
  6.000000000000011E-004    1.889511023221452E-038
  7.000000000000011E-004    1.807891917177026E-038
  8.000000000000011E-004    1.475576863392727E-038
  9.000000000000012E-004    8.629717607468330E-039
  1.000000000000001E-003   -3.152030516859279E-040
  1.100000000000001E-003   -1.173337192352525E-038
  1.200000000000001E-003   -2.486171597816299E-038
  1.300000000000001E-003   -3.850462959128475E-038
  1.400000000000001E-003   -5.107346422598213E-038
  1.500000000000001E-003   -6.069051197723826E-038
  1.600000000000001E-003   -6.536115244629321E-038
  1.700000000000001E-003   -6.320921515650474E-038
  1.800000000000001E-003   -5.276019260090749E-038
  1.900000000000001E-003   -3.324561202054341E-038
  2.000000000000001E-003   -4.891421997745778E-039
  2.100000000000001E-003    3.085515825992390E-038
  2.200000000000001E-003    7.120963632588172E-038
  2.300000000000001E-003    1.120924083583104E-037
  2.400000000000001E-003    1.483663189183204E-037
  2.500000000000001E-003    1.742886384151720E-037
  2.600000000000001E-003    1.841701210495026E-037
  2.700000000000001E-003    1.732003480505485E-037
  2.800000000000001E-003    1.383620893809103E-037
  2.900000000000001E-003    7.932157506024262E-038
  3.000000000000001E-003   -8.479888208812658E-040
  3.100000000000001E-003   -9.526743480282823E-038
  3.200000000000001E-003   -1.933326928577043E-037
  3.300000000000001E-003   -2.814010253827730E-037
  3.400000000000001E-003   -3.441516162386297E-037
  3.500000000000001E-003   -3.666034338802786E-037
  3.600000000000001E-003   -3.366641653794742E-037
  3.700000000000001E-003   -2.479600105340159E-037
  3.800000000000001E-003   -1.025729635569713E-037
  3.900000000000001E-003    8.679138413655629E-038
  4.000000000000001E-003    2.957416455194296E-037
  4.100000000000001E-003    4.887786964054906E-037
  4.200000000000001E-003    6.219534043612780E-037
  4.300000000000001E-003    6.478554050541103E-037
  4.400000000000001E-003    5.228892078655077E-037
  4.500000000000001E-003    2.164121994053465E-037
  4.600000000000002E-003   -2.791387416485896E-037
  4.700000000000001E-003   -9.384554807858665E-037
  4.800000000000001E-003   -1.695622708099516E-036
  4.900000000000002E-003   -2.440429512677780E-036
  5.000000000000001E-003   -3.020740829349500E-036
  5.100000000000001E-003   -3.252703557594835E-036
  5.200000000000001E-003   -2.939907591652252E-036
  5.300000000000002E-003   -1.901631961732972E-036
  5.400000000000001E-003   -8.921652868479965E-039
  5.500000000000001E-003    2.774406326274080E-036
  5.600000000000002E-003    6.350490861211628E-036
  5.700000000000001E-003    1.045221002359127E-035
  5.800000000000001E-003    1.462158419011035E-035
  5.900000000000002E-003    1.820992456339959E-035
  6.000000000000001E-003    2.040733631844832E-035
  6.100000000000001E-003    2.030742145116042E-035
  6.200000000000002E-003    1.700977852610795E-035
  6.300000000000002E-003    9.758151761070899E-036
  6.400000000000001E-003   -1.893839284901737E-036
  6.500000000000001E-003   -1.790426386586669E-035
  6.600000000000002E-003   -3.757341321732321E-035
  6.700000000000001E-003   -5.941101204313790E-035
  6.800000000000001E-003   -8.107159375304395E-035
  6.900000000000002E-003   -9.939046471601279E-035
  7.000000000000001E-003   -1.105487316216721E-034
  7.100000000000001E-003   -1.103872088555518E-034
  7.200000000000002E-003   -9.487424042820791E-035
  7.300000000000002E-003   -6.071276825816191E-035
  7.400000000000001E-003   -6.047404717134140E-036
  7.500000000000001E-003    6.879371600315996E-035
  7.600000000000002E-003    1.606139361790300E-034
  7.700000000000001E-003    2.628321417561022E-034
  7.800000000000001E-003    3.652609322664714E-034
  7.900000000000001E-003    4.543029402256174E-034
  8.000000000000002E-003    5.136711399396783E-034
  8.100000000000001E-003    5.257008937276332E-034
  8.200000000000001E-003    4.732627529354663E-034
  8.300000000000002E-003    3.422066049752413E-034
  8.400000000000001E-003    1.241749636860358E-034
  8.500000000000002E-003   -1.804750474373703E-034
  8.600000000000002E-003   -5.599950049426170E-034
  8.700000000000001E-003   -9.892435601383683E-034
  8.800000000000002E-003   -1.428826782072127E-033
  8.900000000000002E-003   -1.825838190994246E-033
  9.000000000000001E-003   -2.116580035393349E-033
  9.100000000000002E-003   -2.231502965308693E-033
  9.200000000000002E-003   -2.102375607206909E-033
  9.300000000000001E-003   -1.671414069161590E-033
  9.400000000000002E-003   -9.017633778415957E-034
  9.500000000000001E-003    2.116267667597339E-034
  9.600000000000001E-003    1.632016720958166E-033
  9.700000000000002E-003    3.273320149999461E-033
  9.800000000000001E-003    4.996639602760176E-033
  9.900000000000001E-003    6.612502340324923E-033
  1.000000000000000E-002    7.890136946451122E-033
  1.010000000000000E-002    8.574588349889825E-033
  1.020000000000000E-002    8.411714724191894E-033
  1.030000000000000E-002    7.180100824026566E-033
  1.040000000000000E-002    4.727784110242914E-033
  1.050000000000000E-002    1.010505656822158E-033
  1.060000000000000E-002   -3.872913563674096E-033
  1.070000000000000E-002   -9.653273008466905E-033
  1.080000000000000E-002   -1.587741322437734E-032
  1.090000000000000E-002   -2.191374806549813E-032
  1.100000000000000E-002   -2.698138485781620E-032
  1.110000000000000E-002   -3.020553099358253E-032
  1.120000000000000E-002   -3.069933286223955E-032
  1.130000000000000E-002   -2.766901137922466E-032
  1.140000000000000E-002   -2.053544328211333E-032
  1.150000000000000E-002   -9.061498652375302E-033
  1.160000000000000E-002    6.529085958888361E-033
  1.170000000000000E-002    2.545811027926908E-032
  1.180000000000000E-002    4.634270467851324E-032
  1.190000000000000E-002    6.720582237008672E-032
  1.200000000000000E-002    8.556179434153576E-032
  1.210000000000000E-002    9.858558661914018E-032
  1.220000000000000E-002    1.033664481281789E-031
  1.230000000000000E-002    9.723627629047086E-032
  1.240000000000000E-002    7.815156964953208E-032
  1.250000000000000E-002    4.509583996874753E-032
  1.260000000000000E-002   -1.541253677632912E-033
  1.270000000000000E-002   -5.965996923632453E-032
  1.280000000000000E-002   -1.252770656698716E-031
  1.290000000000000E-002   -1.925363411293314E-031
  1.300000000000000E-002   -2.539466030827207E-031
  1.310000000000000E-002   -3.008740561804560E-031
  1.320000000000000E-002   -3.242915123342167E-031
  1.330000000000000E-002   -3.157559970077501E-031
  1.340000000000000E-002   -2.685522232696623E-031
  1.350000000000000E-002   -1.789040106848118E-031
  1.360000000000000E-002   -4.712413858480426E-032
  1.370000000000000E-002    1.214498204984715E-031
  1.380000000000000E-002    3.158967996578549E-031
  1.390000000000000E-002    5.196867097781308E-031
  1.400000000000000E-002    7.113154514277654E-031
  1.410000000000000E-002    8.656797820105904E-031
  1.420000000000000E-002    9.561990345388084E-031
  1.430000000000000E-002    9.576034022312834E-031
  1.440000000000000E-002    8.492099355011636E-031
  1.450000000000000E-002    6.184075391546841E-031
  1.460000000000000E-002    2.639831271667817E-031
  1.470000000000000E-002   -2.011424153889063E-031
  1.480000000000000E-002   -7.482290264028082E-031
  1.490000000000000E-002   -1.332519461800481E-030
  1.500000000000000E-002   -1.894886620853656E-030
  1.510000000000000E-002   -2.365544685728277E-030
  1.520000000000000E-002   -2.669843645575428E-030
  1.530000000000000E-002   -2.735922620583308E-030
  1.540000000000000E-002   -2.503725966204443E-030
  1.550000000000000E-002   -1.934616236659086E-030
  1.560000000000000E-002   -1.020576219639724E-030
  1.570000000000000E-002    2.081811581191881E-031
  1.580000000000000E-002    1.678434126677859E-030
  1.590000000000000E-002    3.273192563028406E-030
  1.600000000000000E-002    4.835909165356915E-030
  1.610000000000000E-002    6.180234844531700E-030
  1.620000000000000E-002    7.105355786647055E-030
  1.630000000000000E-002    7.416297465954679E-030
  1.640000000000000E-002    6.947854603555593E-030
  1.650000000000000E-002    5.590092687463494E-030
  1.660000000000000E-002    3.312756087269861E-030
  1.670000000000000E-002    1.854721069985329E-031
  1.680000000000000E-002   -3.609511400025372E-030
  1.690000000000000E-002   -7.775110241646208E-030
  1.700000000000000E-002   -1.191014808856109E-029
  1.710000000000000E-002   -1.553450425912830E-029
  1.720000000000000E-002   -1.812866568581344E-029
  1.730000000000000E-002   -1.918599697738580E-029
  1.740000000000000E-002   -1.827419992059544E-029
  1.750000000000000E-002   -1.510060659145779E-029
  1.760000000000000E-002   -9.574424897723096E-030
  1.770000000000000E-002   -1.857983238716216E-030
  1.780000000000000E-002    7.601235648507402E-030
  1.790000000000000E-002    1.806547026219679E-029
  1.800000000000000E-002    2.853437237287361E-029
  1.810000000000000E-002    3.780896001750800E-029
  1.820000000000000E-002    4.459144927749980E-029
  1.830000000000000E-002    4.761644062677444E-029
  1.840000000000000E-002    4.580426241776598E-029
  1.850000000000000E-002    3.842281758964849E-029
  1.860000000000000E-002    2.524065184187186E-029
  1.870000000000000E-002    6.651468261574869E-030