 -4.000000000000000E-002    0.000000000000000E+000
 -3.990000000000000E-002    0.000000000000000E+000
 -3.980000000000000E-002    0.000000000000000E+000
 -3.970000000000000E-002    0.000000000000000E+000
 -3.960000000000000E-002    0.000000000000000E+000
 -3.950000000000000E-002    0.000000000000000E+000
 -3.940000000000000E-002    0.000000000000000E+000
 -3.930000000000000E-002    0.000000000000000E+000
 -3.920000000000000E-002    0.000000000000000E+000
 -3.910000000000000E-002    0.000000000000000E+000
 -3.900000000000000E-002    0.000000000000000E+000
 -3.890000000000000E-002    0.000000000000000E+000
 -3.880000000000000E-002    0.000000000000000E+000
 -3.870000000000000E-002    0.000000000000000E+000
 -3.860000000000000E-002    0.000000000000000E+000
 -3.850000000000000E-002    0.000000000000000E+000
 -3.840000000000000E-002    0.000000000000000E+000
 -3.830000000000000E-002    0.000000000000000E+000
 -3.820000000000000E-002    0.000000000000000E+000
 -3.810000000000000E-002    0.000000000000000E+000
 -3.800000000000000E-002    0.000000000000000E+000
 -3.790000000000000E-002    0.000000000000000E+000
 -3.780000000000000E-002    0.000000000000000E+000
 -3.770000000000000E-002    0.000000000000000E+000
 -3.760000000000000E-002    0.000000000000000E+000
 -3.750000000000000E-002    0.000000000000000E+000
 -3.740000000000000E-002    0.000000000000000E+000
 -3.730000000000000E-002    0.000000000000000E+000
 -3.720000000000000E-002    0.000000000000000E+000
 -3.710000000000000E-002    0.000000000000000E+000
 -3.700000000000000E-002    0.000000000000000E+000
 -3.690000000000000E-002    0.000000000000000E+000
 -3.680000000000000E-002    0.000000000000000E+000
 -3.670000000000000E-002    0.000000000000000E+000
 -3.660000000000000E-002    0.000000000000000E+000
 -3.650000000000000E-002    0.000000000000000E+000
 -3.640000000000000E-002    0.000000000000000E+000
 -3.630000000000000E-002    0.000000000000000E+000
 -3.620000000000000E-002    0.000000000000000E+000
 -3.610000000000000E-002    0.000000000000000E+000
 -3.600000000000000E-002    0.000000000000000E+000
 -3.590000000000000E-002    0.000000000000000E+000
 -3.580000000000000E-002    0.000000000000000E+000
 -3.570000000000000E-002    0.000000000000000E+000
 -3.560000000000000E-002    0.000000000000000E+000
 -3.550000000000000E-002    0.000000000000000E+000
 -3.540000000000000E-002    0.000000000000000E+000
 -3.530000000000000E-002    0.000000000000000E+000
 -3.520000000000000E-002    0.000000000000000E+000
 -3.510000000000000E-002    0.000000000000000E+000
 -3.500000000000000E-002    0.000000000000000E+000
 -3.490000000000000E-002    0.000000000000000E+000
 -3.480000000000000E-002    0.000000000000000E+000
 -3.470000000000000E-002    0.000000000000000E+000
 -3.460000000000000E-002    0.000000000000000E+000
 -3.450000000000000E-002    0.000000000000000E+000
 -3.440000000000000E-002    0.000000000000000E+000
 -3.430000000000000E-002    0.000000000000000E+000
 -3.420000000000000E-002    0.000000000000000E+000
 -3.410000000000000E-002    0.000000000000000E+000
 -3.400000000000000E-002    0.000000000000000E+000
 -3.390000000000000E-002    0.000000000000000E+000
 -3.380000000000000E-002    0.000000000000000E+000
 -3.370000000000000E-002    0.000000000000000E+000
 -3.360000000000000E-002    0.000000000000000E+000
 -3.350000000000000E-002    0.000000000000000E+000
 -3.340000000000000E-002    0.000000000000000E+000
 -3.330000000000000E-002    0.000000000000000E+000
 -3.320000000000000E-002    0.000000000000000E+000
 -3.310000000000000E-002    0.000000000000000E+000
 -3.300000000000000E-002    0.000000000000000E+000
 -3.290000000000000E-002    0.000000000000000E+000
 -3.280000000000000E-002    0.000000000000000E+000
 -3.270000000000000E-002    0.000000000000000E+000
 -3.260000000000000E-002    0.000000000000000E+000
 -3.250000000000000E-002    0.000000000000000E+000
 -3.240000000000000E-002    0.000000000000000E+000
 -3.230000000000000E-002    0.000000000000000E+000
 -3.220000000000000E-002    0.000000000000000E+000
 -3.210000000000000E-002    0.000000000000000E+000
 -3.200000000000000E-002    0.000000000000000E+000
 -3.190000000000000E-002    0.000000000000000E+000
 -3.180000000000000E-002    0.000000000000000E+000
 -3.170000000000000E-002    0.000000000000000E+000
 -3.160000000000000E-002    0.000000000000000E+000
 -3.150000000000000E-002    0.000000000000000E+000
 -3.140000000000000E-002    0.000000000000000E+000
 -3.130000000000000E-002    0.000000000000000E+000
 -3.120000000000000E-002    0.000000000000000E+000
 -3.110000000000000E-002    0.000000000000000E+000
 -3.100000000000000E-002    0.000000000000000E+000
 -3.090000000000000E-002    0.000000000000000E+000
 -3.080000000000000E-002    0.000000000000000E+000
 -3.070000000000000E-002    0.000000000000000E+000
 -3.060000000000000E-002    0.000000000000000E+000
 -3.050000000000000E-002    0.000000000000000E+000
 -3.040000000000000E-002    0.000000000000000E+000
 -3.030000000000000E-002    0.000000000000000E+000
 -3.020000000000000E-002    0.000000000000000E+000
 -3.010000000000000E-002    0.000000000000000E+000
 -3.000000000000000E-002    0.000000000000000E+000
 -2.990000000000000E-002    0.000000000000000E+000
 -2.980000000000000E-002    0.000000000000000E+000
 -2.970000000000000E-002    0.000000000000000E+000
 -2.960000000000000E-002    0.000000000000000E+000
 -2.950000000000000E-002    0.000000000000000E+000
 -2.940000000000000E-002    0.000000000000000E+000
 -2.930000000000000E-002    0.000000000000000E+000
 -2.920000000000000E-002    0.000000000000000E+000
 -2.910000000000000E-002    0.000000000000000E+000
 -2.900000000000000E-002    0.000000000000000E+000
 -2.890000000000000E-002    0.000000000000000E+000
 -2.880000000000000E-002    0.000000000000000E+000
 -2.870000000000000E-002    0.000000000000000E+000
 -2.860000000000000E-002    0.000000000000000E+000
 -2.850000000000000E-002    0.000000000000000E+000
 -2.840000000000000E-002    0.000000000000000E+000
 -2.830000000000000E-002    0.000000000000000E+000
 -2.820000000000000E-002    0.000000000000000E+000
 -2.810000000000000E-002    0.000000000000000E+000
 -2.800000000000000E-002    0.000000000000000E+000
 -2.790000000000000E-002    0.000000000000000E+000
 -2.780000000000000E-002    0.000000000000000E+000
 -2.770000000000000E-002    0.000000000000000E+000
 -2.760000000000000E-002    0.000000000000000E+000
 -2.750000000000000E-002    0.000000000000000E+000
 -2.740000000000000E-002    0.000000000000000E+000
 -2.730000000000000E-002    0.000000000000000E+000
 -2.720000000000000E-002    0.000000000000000E+000
 -2.710000000000000E-002    0.000000000000000E+000
 -2.700000000000000E-002    0.000000000000000E+000
 -2.690000000000000E-002    0.000000000000000E+000
 -2.680000000000000E-002    0.000000000000000E+000
 -2.670000000000000E-002    0.000000000000000E+000
 -2.660000000000000E-002    0.000000000000000E+000
 -2.650000000000000E-002    0.000000000000000E+000
 -2.640000000000000E-002    0.000000000000000E+000
 -2.630000000000000E-002    0.000000000000000E+000
 -2.620000000000000E-002    0.000000000000000E+000
 -2.610000000000000E-002    0.000000000000000E+000
 -2.600000000000000E-002    0.000000000000000E+000
 -2.590000000000000E-002    0.000000000000000E+000
 -2.580000000000000E-002    0.000000000000000E+000
 -2.570000000000000E-002    0.000000000000000E+000
 -2.560000000000000E-002    0.000000000000000E+000
 -2.550000000000000E-002    0.000000000000000E+000
 -2.540000000000000E-002    0.000000000000000E+000
 -2.530000000000000E-002    0.000000000000000E+000
 -2.520000000000000E-002    0.000000000000000E+000
 -2.510000000000000E-002    0.000000000000000E+000
 -2.500000000000000E-002    0.000000000000000E+000
 -2.490000000000000E-002    0.000000000000000E+000
 -2.480000000000000E-002    0.000000000000000E+000
 -2.470000000000000E-002    0.000000000000000E+000
 -2.460000000000000E-002    0.000000000000000E+000
 -2.450000000000000E-002    0.000000000000000E+000
 -2.440000000000000E-002    0.000000000000000E+000
 -2.430000000000000E-002    0.000000000000000E+000
 -2.420000000000000E-002    0.000000000000000E+000
 -2.410000000000000E-002    0.000000000000000E+000
 -2.400000000000000E-002    0.000000000000000E+000
 -2.390000000000000E-002    0.000000000000000E+000
 -2.380000000000000E-002    0.000000000000000E+000
 -2.370000000000000E-002    0.000000000000000E+000
 -2.360000000000000E-002    0.000000000000000E+000
 -2.350000000000000E-002    0.000000000000000E+000
 -2.340000000000000E-002    0.000000000000000E+000
 -2.330000000000000E-002    0.000000000000000E+000
 -2.320000000000000E-002    0.000000000000000E+000
 -2.310000000000000E-002    0.000000000000000E+000
 -2.300000000000000E-002    0.000000000000000E+000
 -2.290000000000000E-002    0.000000000000000E+000
 -2.280000000000000E-002    0.000000000000000E+000
 -2.270000000000000E-002    0.000000000000000E+000
 -2.260000000000000E-002    0.000000000000000E+000
 -2.250000000000000E-002    0.000000000000000E+000
 -2.240000000000000E-002    0.000000000000000E+000
 -2.230000000000000E-002    0.000000000000000E+000
 -2.220000000000000E-002    0.000000000000000E+000
 -2.210000000000000E-002    0.000000000000000E+000
 -2.200000000000000E-002    0.000000000000000E+000
 -2.190000000000000E-002    0.000000000000000E+000
 -2.180000000000000E-002    0.000000000000000E+000
 -2.170000000000000E-002    0.000000000000000E+000
 -2.160000000000000E-002    0.000000000000000E+000
 -2.150000000000000E-002    0.000000000000000E+000
 -2.140000000000000E-002    0.000000000000000E+000
 -2.130000000000000E-002    0.000000000000000E+000
 -2.120000000000000E-002    0.000000000000000E+000
 -2.110000000000000E-002    0.000000000000000E+000
 -2.100000000000000E-002    0.000000000000000E+000
 -2.090000000000000E-002    0.000000000000000E+000
 -2.080000000000000E-002    0.000000000000000E+000
 -2.070000000000000E-002    0.000000000000000E+000
 -2.060000000000000E-002    0.000000000000000E+000
 -2.050000000000000E-002    0.000000000000000E+000
 -2.040000000000000E-002    0.000000000000000E+000
 -2.030000000000000E-002    0.000000000000000E+000
 -2.020000000000000E-002    0.000000000000000E+000
 -2.010000000000000E-002    0.000000000000000E+000
 -2.000000000000000E-002    0.000000000000000E+000
 -1.990000000000000E-002    0.000000000000000E+000
 -1.980000000000000E-002    0.000000000000000E+000
 -1.970000000000000E-002    0.000000000000000E+000
 -1.960000000000000E-002    0.000000000000000E+000
 -1.950000000000000E-002    0.000000000000000E+000
 -1.940000000000000E-002    0.000000000000000E+000
 -1.930000000000000E-002    0.000000000000000E+000
 -1.920000000000000E-002    0.000000000000000E+000
 -1.910000000000000E-002    0.000000000000000E+000
 -1.900000000000000E-002    0.000000000000000E+000
 -1.890000000000000E-002    0.000000000000000E+000
 -1.880000000000000E-002    0.000000000000000E+000
 -1.870000000000000E-002    0.000000000000000E+000
 -1.860000000000000E-002    0.000000000000000E+000
 -1.850000000000000E-002    0.000000000000000E+000
 -1.840000000000000E-002    0.000000000000000E+000
 -1.830000000000000E-002    0.000000000000000E+000
 -1.820000000000000E-002    0.000000000000000E+000
 -1.810000000000000E-002    0.000000000000000E+000
 -1.800000000000000E-002    0.000000000000000E+000
 -1.790000000000000E-002    0.000000000000000E+000
 -1.780000000000000E-002    0.000000000000000E+000
 -1.770000000000000E-002    0.000000000000000E+000
 -1.760000000000000E-002    0.000000000000000E+000
 -1.750000000000000E-002    0.000000000000000E+000
 -1.740000000000000E-002    0.000000000000000E+000
 -1.730000000000000E-002    0.000000000000000E+000
 -1.720000000000000E-002    0.000000000000000E+000
 -1.710000000000000E-002    0.000000000000000E+000
 -1.700000000000000E-002    0.000000000000000E+000
 -1.690000000000000E-002    0.000000000000000E+000
 -1.680000000000000E-002    0.000000000000000E+000
 -1.670000000000000E-002    0.000000000000000E+000
 -1.660000000000000E-002    0.000000000000000E+000
 -1.650000000000000E-002    0.000000000000000E+000
 -1.640000000000000E-002    0.000000000000000E+000
 -1.630000000000000E-002    0.000000000000000E+000
 -1.620000000000000E-002    0.000000000000000E+000
 -1.610000000000000E-002    0.000000000000000E+000
 -1.600000000000000E-002    0.000000000000000E+000
 -1.590000000000000E-002    0.000000000000000E+000
 -1.580000000000000E-002    0.000000000000000E+000
 -1.570000000000000E-002    0.000000000000000E+000
 -1.560000000000000E-002    0.000000000000000E+000
 -1.550000000000000E-002    0.000000000000000E+000
 -1.540000000000000E-002    0.000000000000000E+000
 -1.530000000000000E-002    0.000000000000000E+000
 -1.520000000000000E-002    0.000000000000000E+000
 -1.510000000000000E-002    0.000000000000000E+000
 -1.500000000000000E-002    0.000000000000000E+000
 -1.490000000000000E-002    0.000000000000000E+000
 -1.480000000000000E-002    0.000000000000000E+000
 -1.470000000000000E-002    0.000000000000000E+000
 -1.460000000000000E-002    0.000000000000000E+000
 -1.450000000000000E-002    0.000000000000000E+000
 -1.440000000000000E-002    0.000000000000000E+000
 -1.430000000000000E-002    0.000000000000000E+000
 -1.420000000000000E-002    0.000000000000000E+000
 -1.410000000000000E-002    0.000000000000000E+000
 -1.400000000000000E-002    0.000000000000000E+000
 -1.390000000000000E-002    0.000000000000000E+000
 -1.380000000000000E-002    0.000000000000000E+000
 -1.370000000000000E-002    0.000000000000000E+000
 -1.360000000000000E-002    0.000000000000000E+000
 -1.350000000000000E-002    0.000000000000000E+000
 -1.340000000000000E-002    0.000000000000000E+000
 -1.330000000000000E-002    0.000000000000000E+000
 -1.320000000000000E-002    0.000000000000000E+000
 -1.310000000000000E-002    0.000000000000000E+000
 -1.300000000000000E-002    0.000000000000000E+000
 -1.290000000000000E-002    0.000000000000000E+000
 -1.280000000000000E-002    0.000000000000000E+000
 -1.270000000000000E-002    0.000000000000000E+000
 -1.260000000000000E-002    0.000000000000000E+000
 -1.250000000000000E-002    0.000000000000000E+000
 -1.240000000000000E-002    0.000000000000000E+000
 -1.230000000000000E-002    0.000000000000000E+000
 -1.220000000000000E-002    0.000000000000000E+000
 -1.210000000000000E-002    0.000000000000000E+000
 -1.200000000000000E-002    0.000000000000000E+000
 -1.190000000000000E-002    0.000000000000000E+000
 -1.180000000000000E-002    0.000000000000000E+000
 -1.170000000000000E-002    0.000000000000000E+000
 -1.160000000000000E-002    0.000000000000000E+000
 -1.150000000000000E-002    0.000000000000000E+000
 -1.140000000000000E-002    0.000000000000000E+000
 -1.130000000000000E-002    0.000000000000000E+000
 -1.120000000000000E-002    0.000000000000000E+000
 -1.110000000000000E-002    0.000000000000000E+000
 -1.100000000000000E-002    0.000000000000000E+000
 -1.090000000000000E-002    0.000000000000000E+000
 -1.080000000000000E-002    0.000000000000000E+000
 -1.070000000000000E-002    0.000000000000000E+000
 -1.060000000000000E-002    0.000000000000000E+000
 -1.050000000000000E-002    0.000000000000000E+000
 -1.040000000000000E-002    0.000000000000000E+000
 -1.030000000000000E-002    0.000000000000000E+000
 -1.020000000000000E-002    0.000000000000000E+000
 -1.010000000000000E-002    0.000000000000000E+000
 -1.000000000000000E-002    0.000000000000000E+000
 -9.899999999999999E-003    0.000000000000000E+000
 -9.800000000000000E-003    0.000000000000000E+000
 -9.699999999999999E-003    0.000000000000000E+000
 -9.599999999999999E-003    0.000000000000000E+000
 -9.500000000000000E-003    0.000000000000000E+000
 -9.399999999999999E-003    0.000000000000000E+000
 -9.299999999999999E-003    0.000000000000000E+000
 -9.200000000000000E-003    0.000000000000000E+000
 -9.099999999999999E-003    0.000000000000000E+000
 -8.999999999999999E-003    0.000000000000000E+000
 -8.900000000000000E-003    0.000000000000000E+000
 -8.799999999999999E-003   -3.039252812784774E-048
 -8.699999999999999E-003    1.184402588453206E-047
 -8.600000000000000E-003    1.634001520927580E-047
 -8.499999999999999E-003    2.083600453401954E-047
 -8.399999999999999E-003    1.779675172123477E-047
 -8.300000000000000E-003    1.779675172123477E-047
 -8.199999999999999E-003    1.152625180764020E-047
 -8.100000000000000E-003    4.835124278372847E-048
 -8.000000000000000E-003   -6.458751641491877E-048
 -7.899999999999999E-003   -1.920936407331556E-047
 -7.800000000000000E-003   -2.273545900093130E-047
 -7.699999999999999E-003   -1.726566975198686E-047
 -7.599999999999999E-003   -1.597800127796700E-047
 -7.499999999999999E-003   -7.778316869704322E-049
 -7.399999999999999E-003    7.984772546586823E-047
 -7.299999999999999E-003    1.395130793816928E-046
 -7.199999999999999E-003    2.519884737861723E-046
 -7.100000000000000E-003    4.005435641062779E-046
 -6.999999999999999E-003    5.221899490467730E-046
 -6.899999999999999E-003   -3.432836195538186E-046
 -6.800000000000000E-003   -1.238065678296318E-045
 -6.699999999999999E-003   -9.226802019100768E-046
 -6.599999999999999E-003   -1.103780458077376E-045
 -6.499999999999999E-003   -1.502546535738570E-045
 -6.399999999999999E-003   -1.490923133450491E-045
 -6.299999999999999E-003   -1.533357778664549E-045
 -6.199999999999999E-003   -1.707653300332079E-045
 -6.100000000000000E-003   -1.949847989288281E-045
 -5.999999999999999E-003   -1.938425321714098E-045
 -5.899999999999999E-003   -2.567386851561120E-045
 -5.800000000000000E-003   -3.477336248381965E-045
 -5.699999999999999E-003   -3.455719711427763E-045
 -5.599999999999999E-003   -3.622321071245698E-045
 -5.499999999999999E-003   -3.036770684553133E-045
 -5.399999999999999E-003   -2.295891629730149E-045
 -5.299999999999999E-003    1.005053057222797E-046
 -5.199999999999999E-003    3.489169636665546E-045
 -5.099999999999999E-003    8.413751434271033E-045
 -4.999999999999999E-003    1.498531586999814E-044
 -4.899999999999999E-003    2.225953846363425E-044
 -4.799999999999999E-003    2.987236295330336E-044
 -4.699999999999999E-003    3.802173259772384E-044
 -4.599999999999999E-003    4.384388523396014E-044
 -4.499999999999999E-003    4.624625817165803E-044
 -4.399999999999999E-003    4.375931081423969E-044
 -4.299999999999999E-003    3.397599109739378E-044
 -4.199999999999999E-003    1.407388385383920E-044
 -4.099999999999999E-003   -1.586442257029442E-044
 -3.999999999999999E-003   -5.810743108442201E-044
 -3.899999999999999E-003   -1.108197321863197E-043
 -3.799999999999999E-003   -1.720932933912149E-043
 -3.699999999999999E-003   -2.362587458940925E-043
 -3.599999999999999E-003   -2.952275169155325E-043
 -3.499999999999999E-003   -3.398205554620030E-043
 -3.399999999999999E-003   -3.567600933100575E-043
 -3.299999999999999E-003   -3.313761903499154E-043
 -3.199999999999999E-003   -2.490163886103847E-043
 -3.099999999999999E-003   -9.550794781961988E-044
 -2.999999999999999E-003    1.372082574234679E-043
 -2.899999999999999E-003    4.507650929405722E-043
 -2.799999999999999E-003    8.373803041720418E-043
 -2.699999999999999E-003    1.273946672121072E-042
 -2.599999999999999E-003    1.722491836004166E-042
 -2.499999999999999E-003    2.126875752216008E-042
 -2.399999999999999E-003    2.413140777140096E-042
 -2.299999999999999E-003    2.491484462167168E-042
 -2.199999999999999E-003    2.266637432452560E-042
 -2.099999999999999E-003    1.641779371985242E-042
 -1.999999999999999E-003    5.357485731480464E-043
 -1.899999999999999E-003   -1.100338307610952E-042
 -1.799999999999999E-003   -3.266054607554924E-042
 -1.699999999999999E-003   -5.886473427592864E-042
 -1.599999999999999E-003   -8.797698627500509E-042
 -1.499999999999999E-003   -1.173116828933044E-041
 -1.399999999999999E-003   -1.430543023451524E-041
 -1.299999999999999E-003   -1.603573950637501E-041
 -1.199999999999999E-003   -1.635434601828147E-041
 -1.099999999999999E-003   -1.465367349423951E-041
 -9.999999999999989E-004   -1.035143488509982E-041
 -8.999999999999990E-004   -2.978386102838887E-042
 -7.999999999999990E-004    7.717917599361029E-042
 -6.999999999999989E-004    2.165489741334112E-041
 -5.999999999999990E-004    3.829252143799940E-041
 -4.999999999999989E-004    5.653180356817514E-041
 -3.999999999999989E-004    7.463549096504226E-041
 -2.999999999999989E-004    9.021622934151343E-041
 -1.999999999999989E-004    1.002888549728432E-040
 -9.999999999999892E-005    1.014328053605403E-040
  1.084202172485504E-018    9.007041487197072E-041
  1.000000000000011E-004    6.286167864099790E-041
  2.000000000000011E-004    1.722811667956126E-041
  3.000000000000011E-004   -4.803085973844877E-041
  4.000000000000011E-004   -1.320665088512578E-040
  5.000000000000011E-004   -2.313242075815853E-040
  6.000000000000011E-004   -3.389874065324795E-040
  7.000000000000011E-004   -4.446321499919339E-040
  8.000000000000011E-004   -5.342159509769571E-040
  9.000000000000012E-004   -5.905210647529127E-040
  1.000000000000001E-003   -5.941632372246814E-040
  1.100000000000001E-003   -5.252441156770249E-040
  1.200000000000001E-003   -3.656635653027050E-040
  1.300000000000001E-003   -1.020481422988894E-040
  1.400000000000001E-003    2.708654046493758E-040
  1.500000000000001E-003    7.466462035412678E-040
  1.600000000000001E-003    1.303768783118311E-039
  1.700000000000001E-003    1.902890185203187E-039
  1.800000000000001E-003    2.485385658570161E-039
  1.900000000000001E-003    2.973761613594028E-039
  2.000000000000001E-003    3.274569328690707E-039
  2.100000000000001E-003    3.284318110791867E-039
  2.200000000000001E-003    2.898703138837156E-039
  2.300000000000001E-003    2.025155347112520E-039
  2.400000000000001E-003    5.983024887262547E-040
  2.500000000000001E-003   -1.402570167939787E-039
  2.600000000000001E-003   -3.935520355754336E-039
  2.700000000000001E-003   -6.879461317258643E-039
  2.800000000000001E-003   -1.002172082376947E-038
  2.900000000000001E-003   -1.305256667482666E-038
  3.000000000000001E-003   -1.556970954400069E-038
  3.100000000000001E-003   -1.709561806601737E-038
  3.200000000000001E-003   -1.710982285346300E-038
  3.300000000000001E-003   -1.509728788726389E-038
  3.400000000000001E-003   -1.061231489230365E-038
  3.500000000000001E-003   -3.355366453756013E-039
  3.600000000000001E-003    6.742275108783998E-039
  3.700000000000001E-003    1.943364154123053E-038
  3.800000000000001E-003    3.408127838300008E-038
  3.900000000000001E-003    4.960481574539789E-038
  4.000000000000001E-003    6.446449747838139E-038
  4.100000000000001E-003    7.669439765036813E-038
  4.200000000000001E-003    8.399732211606314E-038
  4.300000000000001E-003    8.390992139914766E-038
  4.400000000000001E-003    7.404067806328656E-038
  4.500000000000001E-003    5.237566802089333E-038
  4.600000000000002E-003    1.763692843119563E-038
  4.700000000000001E-003   -3.033238551905527E-038
  4.800000000000001E-003   -9.019371182718316E-038
  4.900000000000002E-003   -1.587973269025197E-037
  5.000000000000001E-003   -2.309811166790867E-037
  5.100000000000001E-003   -2.995432135528970E-037
  5.200000000000001E-003   -3.554457360292514E-037
  5.300000000000002E-003   -3.882968430503834E-037
  5.400000000000001E-003   -3.871400813606190E-037
  5.500000000000001E-003   -3.415518033980358E-037
  5.600000000000002E-003   -2.430122193914938E-037
  5.700000000000001E-003   -8.647210791827053E-038
  5.800000000000001E-003    1.280089823593705E-037
  5.900000000000002E-003    3.937228084868639E-037
  6.000000000000001E-003    6.960791790047814E-037
  6.100000000000001E-003    1.011914644625793E-036
  6.200000000000002E-003    1.309584130922247E-036
  6.300000000000002E-003    1.550055454694178E-036
  6.400000000000001E-003    1.689174967116164E-036
  6.500000000000001E-003    1.681185284822567E-036
  6.600000000000002E-003    1.483453667209021E-036
  6.700000000000001E-003    1.062219588765386E-036
  6.800000000000001E-003    3.989942001147215E-037
  6.900000000000002E-003   -5.029324181113250E-037
  7.000000000000001E-003   -1.612590587701184E-036
  7.100000000000001E-003   -2.866877447552654E-036
  7.200000000000002E-003   -4.168472707384516E-036
  7.300000000000002E-003   -5.387018249932301E-036
  7.400000000000001E-003   -6.364345997888218E-036
  7.500000000000001E-003   -6.924289829863202E-036
  7.600000000000002E-003   -6.887241737055455E-036
  7.700000000000001E-003   -6.089126590073782E-036
  7.800000000000001E-003   -4.403876112711555E-036
  7.900000000000001E-003   -1.767836919578434E-036
  8.000000000000002E-003    1.796076042301145E-036
  8.100000000000001E-003    6.157244897736542E-036
  8.200000000000001E-003    1.106239416833220E-035
  8.300000000000002E-003    1.613010596366268E-035
  8.400000000000001E-003    2.085793533060391E-035
  8.500000000000002E-003    2.464465980948657E-035
  8.600000000000002E-003    2.682918822507669E-035
  8.700000000000001E-003    2.674622187118787E-035
  8.800000000000002E-003    2.379695247610132E-035
  8.900000000000002E-003    1.753093030762556E-035
  9.000000000000001E-003    7.733189378322480E-036
  9.100000000000002E-003   -5.491549147145385E-036
  9.200000000000002E-003   -2.164734251698358E-035
  9.300000000000001E-003   -3.979900806983203E-035
  9.400000000000002E-003   -5.855870405494451E-035
  9.500000000000001E-003   -7.611711332379595E-035
  9.600000000000001E-003   -9.032691503145067E-035
  9.700000000000002E-003   -9.884272704652838E-035
  9.800000000000001E-003   -9.931644675850301E-035
  9.900000000000001E-003   -8.964108599025878E-035
  1.000000000000000E-002   -6.822947801328078E-035
  1.010000000000000E-002   -3.430717894396948E-035
  1.020000000000000E-002    1.180715289485205E-035
  1.030000000000000E-002    6.846555190323016E-035
  1.040000000000000E-002    1.325337450395913E-034
  1.050000000000000E-002    1.993471487589938E-034
  1.060000000000000E-002    2.628115942508598E-034
  1.070000000000000E-002    3.156712921006851E-034
  1.080000000000000E-002    3.499573871655575E-034
  1.090000000000000E-002    3.576132998299628E-034
  1.100000000000000E-002    3.312754607877125E-034
  1.110000000000000E-002    2.651701792520605E-034
  1.120000000000000E-002    1.560645939336616E-034
  1.130000000000000E-002    4.192584651516920E-036
  1.140000000000000E-002   -1.859389124677581E-034
  1.150000000000000E-002   -4.049677305053370E-034
  1.160000000000000E-002   -6.384244273637191E-034
  1.170000000000000E-002   -8.669099025056186E-034
  1.180000000000000E-002   -1.066782625224274E-033
  1.190000000000000E-002   -1.211412090163352E-033
  1.200000000000000E-002   -1.273010936840681E-033
  1.210000000000000E-002   -1.225009833330055E-033
  1.220000000000000E-002   -1.044889002516505E-033
  1.230000000000000E-002   -7.173104133690512E-034
  1.240000000000000E-002   -2.373391010156453E-034
  1.250000000000000E-002    3.865222957633538E-034
  1.260000000000000E-002    1.129795548290731E-033
  1.270000000000000E-002    1.950361950008319E-033
  1.280000000000000E-002    2.788017819367294E-033
  1.290000000000000E-002    3.565614726728311E-033
  1.300000000000000E-002    4.192085900855416E-033
  1.310000000000000E-002    4.567572081600883E-033
  1.320000000000000E-002    4.590718245536041E-033
  1.330000000000000E-002    4.168055779519742E-033
  1.340000000000000E-002    3.225141311026753E-033
  1.350000000000000E-002    1.718859079320849E-033
  1.360000000000000E-002   -3.499267712079837E-034
  1.370000000000000E-002   -2.924573793222904E-033
  1.380000000000000E-002   -5.883049458213925E-033
  1.390000000000000E-002   -9.032166570346786E-033
  1.400000000000000E-002   -1.210728341975949E-032
  1.410000000000000E-002   -1.477919706124955E-032
  1.420000000000000E-002   -1.666954307053104E-032
  1.430000000000000E-002   -1.737570961488108E-032
  1.440000000000000E-002   -1.650543712764620E-032
  1.450000000000000E-002   -1.372031238348091E-032
  1.460000000000000E-002   -8.786302846289213E-033
  1.470000000000000E-002   -1.627839120094309E-033
  1.480000000000000E-002    7.619212084420169E-033
  1.490000000000000E-002    1.856193769266184E-032
  1.500000000000000E-002    3.051914099635050E-032
  1.510000000000000E-002    4.251249014862286E-032
  1.520000000000000E-002    5.328748803591885E-032
  1.530000000000000E-002    6.137092493520443E-032
  1.540000000000000E-002    6.516909631688705E-032
  1.550000000000000E-002    6.310789653412553E-032
  1.560000000000000E-002    5.381102748964768E-032
  1.570000000000000E-002    3.630729385302638E-032
  1.580000000000000E-002    1.025203818642767E-032
  1.590000000000000E-002   -2.385902796316494E-032
  1.600000000000000E-002   -6.450994608568517E-032
  1.610000000000000E-002   -1.090494359967361E-031
  1.620000000000000E-002   -1.536723354160104E-031
  1.630000000000000E-002   -1.935274236648310E-031
  1.640000000000000E-002   -2.229750131822574E-031
  1.650000000000000E-002   -2.360065130750929E-031
  1.660000000000000E-002   -2.268224356067731E-031
  1.670000000000000E-002   -1.905462303718799E-031
  1.680000000000000E-002   -1.240279607994593E-031
  1.690000000000000E-002   -2.666769336947677E-032
  1.700000000000000E-002    9.883105133147508E-032
  1.710000000000000E-002    2.458865530731006E-031
  1.720000000000000E-002    4.037583683372653E-031
  1.730000000000000E-002    5.576744024781515E-031
  1.740000000000000E-002    6.894596727855824E-031
  1.750000000000000E-002    7.787269319220138E-031
  1.760000000000000E-002    8.046379379629644E-031
  1.770000000000000E-002    7.481798584408084E-031
  1.780000000000000E-002    5.948222197610753E-031
  1.790000000000000E-002    3.373392335509955E-031
  1.800000000000000E-002   -2.149198253763654E-032
  1.810000000000000E-002   -4.666678925332895E-031
  1.820000000000000E-002   -9.695969600418889E-031
  1.830000000000000E-002   -1.487979899883528E-030
  1.840000000000000E-002   -1.967263847264601E-030
  1.850000000000000E-002   -2.343894653263444E-030
  1.860000000000000E-002   -2.550431431245961E-030
  1.870000000000000E-002   -2.522389660840715E-030