 -4.000000000000000E-002    0.000000000000000E+000
 -3.990000000000000E-002    0.000000000000000E+000
 -3.980000000000000E-002    0.000000000000000E+000
 -3.970000000000000E-002    0.000000000000000E+000
 -3.960000000000000E-002    0.000000000000000E+000
 -3.950000000000000E-002    0.000000000000000E+000
 -3.940000000000000E-002    0.000000000000000E+000
 -3.930000000000000E-002    0.000000000000000E+000
 -3.920000000000000E-002    0.000000000000000E+000
 -3.910000000000000E-002    0.000000000000000E+000
 -3.900000000000000E-002    0.000000000000000E+000
 -3.890000000000000E-002    0.000000000000000E+000
 -3.880000000000000E-002    0.000000000000000E+000
 -3.870000000000000E-002    0.000000000000000E+000
 -3.860000000000000E-002    0.000000000000000E+000
 -3.850000000000000E-002    0.000000000000000E+000
 -3.840000000000000E-002    0.000000000000000E+000
 -3.830000000000000E-002    0.000000000000000E+000
 -3.820000000000000E-002    0.000000000000000E+000
 -3.810000000000000E-002    0.000000000000000E+000
 -3.800000000000000E-002    0.000000000000000E+000
 -3.790000000000000E-002    0.000000000000000E+000
 -3.780000000000000E-002    0.000000000000000E+000
 -3.770000000000000E-002    0.000000000000000E+000
 -3.760000000000000E-002    0.000000000000000E+000
 -3.750000000000000E-002    0.000000000000000E+000
 -3.740000000000000E-002    0.000000000000000E+000
 -3.730000000000000E-002    0.000000000000000E+000
 -3.720000000000000E-002    0.000000000000000E+000
 -3.710000000000000E-002    0.000000000000000E+000
 -3.700000000000000E-002    0.000000000000000E+000
 -3.690000000000000E-002    0.000000000000000E+000
 -3.680000000000000E-002    0.000000000000000E+000
 -3.670000000000000E-002    0.000000000000000E+000
 -3.660000000000000E-002    0.000000000000000E+000
 -3.650000000000000E-002    0.000000000000000E+000
 -3.640000000000000E-002    0.000000000000000E+000
 -3.630000000000000E-002    0.000000000000000E+000
 -3.620000000000000E-002    0.000000000000000E+000
 -3.610000000000000E-002    0.000000000000000E+000
 -3.600000000000000E-002    0.000000000000000E+000
 -3.590000000000000E-002    0.000000000000000E+000
 -3.580000000000000E-002    0.000000000000000E+000
 -3.570000000000000E-002    0.000000000000000E+000
 -3.560000000000000E-002    0.000000000000000E+000
 -3.550000000000000E-002    0.000000000000000E+000
 -3.540000000000000E-002    0.000000000000000E+000
 -3.530000000000000E-002    0.000000000000000E+000
 -3.520000000000000E-002    0.000000000000000E+000
 -3.510000000000000E-002    0.000000000000000E+000
 -3.500000000000000E-002    0.000000000000000E+000
 -3.490000000000000E-002    0.000000000000000E+000
 -3.480000000000000E-002    0.000000000000000E+000
 -3.470000000000000E-002    0.000000000000000E+000
 -3.460000000000000E-002    0.000000000000000E+000
 -3.450000000000000E-002    0.000000000000000E+000
 -3.440000000000000E-002    0.000000000000000E+000
 -3.430000000000000E-002    0.000000000000000E+000
 -3.420000000000000E-002    0.000000000000000E+000
 -3.410000000000000E-002    0.000000000000000E+000
 -3.400000000000000E-002    0.000000000000000E+000
 -3.390000000000000E-002    0.000000000000000E+000
 -3.380000000000000E-002    0.000000000000000E+000
 -3.370000000000000E-002    0.000000000000000E+000
 -3.360000000000000E-002    0.000000000000000E+000
 -3.350000000000000E-002    0.000000000000000E+000
 -3.340000000000000E-002    0.000000000000000E+000
 -3.330000000000000E-002    0.000000000000000E+000
 -3.320000000000000E-002    0.000000000000000E+000
 -3.310000000000000E-002    0.000000000000000E+000
 -3.300000000000000E-002    0.000000000000000E+000
 -3.290000000000000E-002    0.000000000000000E+000
 -3.280000000000000E-002    0.000000000000000E+000
 -3.270000000000000E-002    0.000000000000000E+000
 -3.260000000000000E-002    0.000000000000000E+000
 -3.250000000000000E-002    0.000000000000000E+000
 -3.240000000000000E-002    0.000000000000000E+000
 -3.230000000000000E-002    0.000000000000000E+000
 -3.220000000000000E-002    0.000000000000000E+000
 -3.210000000000000E-002    0.000000000000000E+000
 -3.200000000000000E-002    0.000000000000000E+000
 -3.190000000000000E-002    0.000000000000000E+000
 -3.180000000000000E-002    0.000000000000000E+000
 -3.170000000000000E-002    0.000000000000000E+000
 -3.160000000000000E-002    0.000000000000000E+000
 -3.150000000000000E-002    0.000000000000000E+000
 -3.140000000000000E-002    0.000000000000000E+000
 -3.130000000000000E-002    0.000000000000000E+000
 -3.120000000000000E-002    0.000000000000000E+000
 -3.110000000000000E-002    0.000000000000000E+000
 -3.100000000000000E-002    0.000000000000000E+000
 -3.090000000000000E-002    0.000000000000000E+000
 -3.080000000000000E-002    0.000000000000000E+000
 -3.070000000000000E-002    0.000000000000000E+000
 -3.060000000000000E-002    0.000000000000000E+000
 -3.050000000000000E-002    0.000000000000000E+000
 -3.040000000000000E-002    0.000000000000000E+000
 -3.030000000000000E-002    0.000000000000000E+000
 -3.020000000000000E-002    0.000000000000000E+000
 -3.010000000000000E-002    0.000000000000000E+000
 -3.000000000000000E-002    0.000000000000000E+000
 -2.990000000000000E-002    0.000000000000000E+000
 -2.980000000000000E-002    0.000000000000000E+000
 -2.970000000000000E-002    0.000000000000000E+000
 -2.960000000000000E-002    0.000000000000000E+000
 -2.950000000000000E-002    0.000000000000000E+000
 -2.940000000000000E-002    0.000000000000000E+000
 -2.930000000000000E-002    0.000000000000000E+000
 -2.920000000000000E-002    0.000000000000000E+000
 -2.910000000000000E-002    0.000000000000000E+000
 -2.900000000000000E-002    0.000000000000000E+000
 -2.890000000000000E-002    0.000000000000000E+000
 -2.880000000000000E-002    0.000000000000000E+000
 -2.870000000000000E-002    0.000000000000000E+000
 -2.860000000000000E-002    0.000000000000000E+000
 -2.850000000000000E-002    0.000000000000000E+000
 -2.840000000000000E-002    0.000000000000000E+000
 -2.830000000000000E-002    0.000000000000000E+000
 -2.820000000000000E-002    0.000000000000000E+000
 -2.810000000000000E-002    0.000000000000000E+000
 -2.800000000000000E-002    0.000000000000000E+000
 -2.790000000000000E-002    0.000000000000000E+000
 -2.780000000000000E-002    0.000000000000000E+000
 -2.770000000000000E-002    0.000000000000000E+000
 -2.760000000000000E-002    0.000000000000000E+000
 -2.750000000000000E-002    0.000000000000000E+000
 -2.740000000000000E-002    0.000000000000000E+000
 -2.730000000000000E-002    0.000000000000000E+000
 -2.720000000000000E-002    0.000000000000000E+000
 -2.710000000000000E-002    0.000000000000000E+000
 -2.700000000000000E-002    0.000000000000000E+000
 -2.690000000000000E-002    0.000000000000000E+000
 -2.680000000000000E-002    0.000000000000000E+000
 -2.670000000000000E-002    0.000000000000000E+000
 -2.660000000000000E-002    0.000000000000000E+000
 -2.650000000000000E-002    0.000000000000000E+000
 -2.640000000000000E-002    0.000000000000000E+000
 -2.630000000000000E-002    0.000000000000000E+000
 -2.620000000000000E-002    0.000000000000000E+000
 -2.610000000000000E-002    0.000000000000000E+000
 -2.600000000000000E-002    0.000000000000000E+000
 -2.590000000000000E-002    0.000000000000000E+000
 -2.580000000000000E-002    0.000000000000000E+000
 -2.570000000000000E-002    0.000000000000000E+000
 -2.560000000000000E-002    0.000000000000000E+000
 -2.550000000000000E-002    0.000000000000000E+000
 -2.540000000000000E-002    0.000000000000000E+000
 -2.530000000000000E-002    0.000000000000000E+000
 -2.520000000000000E-002    0.000000000000000E+000
 -2.510000000000000E-002    0.000000000000000E+000
 -2.500000000000000E-002    0.000000000000000E+000
 -2.490000000000000E-002    0.000000000000000E+000
 -2.480000000000000E-002    0.000000000000000E+000
 -2.470000000000000E-002    0.000000000000000E+000
 -2.460000000000000E-002    0.000000000000000E+000
 -2.450000000000000E-002    0.000000000000000E+000
 -2.440000000000000E-002    0.000000000000000E+000
 -2.430000000000000E-002    0.000000000000000E+000
 -2.420000000000000E-002    0.000000000000000E+000
 -2.410000000000000E-002    0.000000000000000E+000
 -2.400000000000000E-002    0.000000000000000E+000
 -2.390000000000000E-002    0.000000000000000E+000
 -2.380000000000000E-002    0.000000000000000E+000
 -2.370000000000000E-002    0.000000000000000E+000
 -2.360000000000000E-002    0.000000000000000E+000
 -2.350000000000000E-002    0.000000000000000E+000
 -2.340000000000000E-002    0.000000000000000E+000
 -2.330000000000000E-002    0.000000000000000E+000
 -2.320000000000000E-002    0.000000000000000E+000
 -2.310000000000000E-002    0.000000000000000E+000
 -2.300000000000000E-002    0.000000000000000E+000
 -2.290000000000000E-002    0.000000000000000E+000
 -2.280000000000000E-002    0.000000000000000E+000
 -2.270000000000000E-002    0.000000000000000E+000
 -2.260000000000000E-002    0.000000000000000E+000
 -2.250000000000000E-002    0.000000000000000E+000
 -2.240000000000000E-002    0.000000000000000E+000
 -2.230000000000000E-002    0.000000000000000E+000
 -2.220000000000000E-002    0.000000000000000E+000
 -2.210000000000000E-002    0.000000000000000E+000
 -2.200000000000000E-002    0.000000000000000E+000
 -2.190000000000000E-002    0.000000000000000E+000
 -2.180000000000000E-002    0.000000000000000E+000
 -2.170000000000000E-002    0.000000000000000E+000
 -2.160000000000000E-002    0.000000000000000E+000
 -2.150000000000000E-002    0.000000000000000E+000
 -2.140000000000000E-002    0.000000000000000E+000
 -2.130000000000000E-002    0.000000000000000E+000
 -2.120000000000000E-002    0.000000000000000E+000
 -2.110000000000000E-002    0.000000000000000E+000
 -2.100000000000000E-002    0.000000000000000E+000
 -2.090000000000000E-002    0.000000000000000E+000
 -2.080000000000000E-002    0.000000000000000E+000
 -2.070000000000000E-002    0.000000000000000E+000
 -2.060000000000000E-002    0.000000000000000E+000
 -2.050000000000000E-002    0.000000000000000E+000
 -2.040000000000000E-002    0.000000000000000E+000
 -2.030000000000000E-002    0.000000000000000E+000
 -2.020000000000000E-002    0.000000000000000E+000
 -2.010000000000000E-002    0.000000000000000E+000
 -2.000000000000000E-002    0.000000000000000E+000
 -1.990000000000000E-002    0.000000000000000E+000
 -1.980000000000000E-002    0.000000000000000E+000
 -1.970000000000000E-002    0.000000000000000E+000
 -1.960000000000000E-002    0.000000000000000E+000
 -1.950000000000000E-002    0.000000000000000E+000
 -1.940000000000000E-002    0.000000000000000E+000
 -1.930000000000000E-002    0.000000000000000E+000
 -1.920000000000000E-002    0.000000000000000E+000
 -1.910000000000000E-002    0.000000000000000E+000
 -1.900000000000000E-002    0.000000000000000E+000
 -1.890000000000000E-002    0.000000000000000E+000
 -1.880000000000000E-002    0.000000000000000E+000
 -1.870000000000000E-002    0.000000000000000E+000
 -1.860000000000000E-002    0.000000000000000E+000
 -1.850000000000000E-002    0.000000000000000E+000
 -1.840000000000000E-002    0.000000000000000E+000
 -1.830000000000000E-002    0.000000000000000E+000
 -1.820000000000000E-002    0.000000000000000E+000
 -1.810000000000000E-002    0.000000000000000E+000
 -1.800000000000000E-002    0.000000000000000E+000
 -1.790000000000000E-002    0.000000000000000E+000
 -1.780000000000000E-002    0.000000000000000E+000
 -1.770000000000000E-002    0.000000000000000E+000
 -1.760000000000000E-002    0.000000000000000E+000
 -1.750000000000000E-002    0.000000000000000E+000
 -1.740000000000000E-002    0.000000000000000E+000
 -1.730000000000000E-002    0.000000000000000E+000
 -1.720000000000000E-002    0.000000000000000E+000
 -1.710000000000000E-002    0.000000000000000E+000
 -1.700000000000000E-002    0.000000000000000E+000
 -1.690000000000000E-002    0.000000000000000E+000
 -1.680000000000000E-002    0.000000000000000E+000
 -1.670000000000000E-002    0.000000000000000E+000
 -1.660000000000000E-002    0.000000000000000E+000
 -1.650000000000000E-002    0.000000000000000E+000
 -1.640000000000000E-002    0.000000000000000E+000
 -1.630000000000000E-002    0.000000000000000E+000
 -1.620000000000000E-002    0.000000000000000E+000
 -1.610000000000000E-002    0.000000000000000E+000
 -1.600000000000000E-002    0.000000000000000E+000
 -1.590000000000000E-002    0.000000000000000E+000
 -1.580000000000000E-002    0.000000000000000E+000
 -1.570000000000000E-002    0.000000000000000E+000
 -1.560000000000000E-002    0.000000000000000E+000
 -1.550000000000000E-002    0.000000000000000E+000
 -1.540000000000000E-002    0.000000000000000E+000
 -1.530000000000000E-002    0.000000000000000E+000
 -1.520000000000000E-002    0.000000000000000E+000
 -1.510000000000000E-002    0.000000000000000E+000
 -1.500000000000000E-002    0.000000000000000E+000
 -1.490000000000000E-002    0.000000000000000E+000
 -1.480000000000000E-002    0.000000000000000E+000
 -1.470000000000000E-002    0.000000000000000E+000
 -1.460000000000000E-002    0.000000000000000E+000
 -1.450000000000000E-002    0.000000000000000E+000
 -1.440000000000000E-002    0.000000000000000E+000
 -1.430000000000000E-002    0.000000000000000E+000
 -1.420000000000000E-002    0.000000000000000E+000
 -1.410000000000000E-002    0.000000000000000E+000
 -1.400000000000000E-002    0.000000000000000E+000
 -1.390000000000000E-002    0.000000000000000E+000
 -1.380000000000000E-002    0.000000000000000E+000
 -1.370000000000000E-002    0.000000000000000E+000
 -1.360000000000000E-002    0.000000000000000E+000
 -1.350000000000000E-002    0.000000000000000E+000
 -1.340000000000000E-002    0.000000000000000E+000
 -1.330000000000000E-002    0.000000000000000E+000
 -1.320000000000000E-002    0.000000000000000E+000
 -1.310000000000000E-002    0.000000000000000E+000
 -1.300000000000000E-002    0.000000000000000E+000
 -1.290000000000000E-002    0.000000000000000E+000
 -1.280000000000000E-002    0.000000000000000E+000
 -1.270000000000000E-002    0.000000000000000E+000
 -1.260000000000000E-002    0.000000000000000E+000
 -1.250000000000000E-002    0.000000000000000E+000
 -1.240000000000000E-002    0.000000000000000E+000
 -1.230000000000000E-002    0.000000000000000E+000
 -1.220000000000000E-002    0.000000000000000E+000
 -1.210000000000000E-002    0.000000000000000E+000
 -1.200000000000000E-002    0.000000000000000E+000
 -1.190000000000000E-002    0.000000000000000E+000
 -1.180000000000000E-002    0.000000000000000E+000
 -1.170000000000000E-002    0.000000000000000E+000
 -1.160000000000000E-002    0.000000000000000E+000
 -1.150000000000000E-002    0.000000000000000E+000
 -1.140000000000000E-002    0.000000000000000E+000
 -1.130000000000000E-002    0.000000000000000E+000
 -1.120000000000000E-002    0.000000000000000E+000
 -1.110000000000000E-002    0.000000000000000E+000
 -1.100000000000000E-002    0.000000000000000E+000
 -1.090000000000000E-002    0.000000000000000E+000
 -1.080000000000000E-002    0.000000000000000E+000
 -1.070000000000000E-002    0.000000000000000E+000
 -1.060000000000000E-002    0.000000000000000E+000
 -1.050000000000000E-002    0.000000000000000E+000
 -1.040000000000000E-002    0.000000000000000E+000
 -1.030000000000000E-002    0.000000000000000E+000
 -1.020000000000000E-002    0.000000000000000E+000
 -1.010000000000000E-002    0.000000000000000E+000
 -1.000000000000000E-002    0.000000000000000E+000
 -9.899999999999999E-003    0.000000000000000E+000
 -9.800000000000000E-003    0.000000000000000E+000
 -9.699999999999999E-003    0.000000000000000E+000
 -9.599999999999999E-003    0.000000000000000E+000
 -9.500000000000000E-003    0.000000000000000E+000
 -9.399999999999999E-003    0.000000000000000E+000
 -9.299999999999999E-003    0.000000000000000E+000
 -9.200000000000000E-003    0.000000000000000E+000
 -9.099999999999999E-003    0.000000000000000E+000
 -8.999999999999999E-003    0.000000000000000E+000
 -8.900000000000000E-003    0.000000000000000E+000
 -8.799999999999999E-003    0.000000000000000E+000
 -8.699999999999999E-003    0.000000000000000E+000
 -8.600000000000000E-003    0.000000000000000E+000
 -8.499999999999999E-003    0.000000000000000E+000
 -8.399999999999999E-003    0.000000000000000E+000
 -8.300000000000000E-003    0.000000000000000E+000
 -8.199999999999999E-003    0.000000000000000E+000
 -8.100000000000000E-003    0.000000000000000E+000
 -8.000000000000000E-003    0.000000000000000E+000
 -7.899999999999999E-003    0.000000000000000E+000
 -7.800000000000000E-003    0.000000000000000E+000
 -7.699999999999999E-003    0.000000000000000E+000
 -7.599999999999999E-003    0.000000000000000E+000
 -7.499999999999999E-003    0.000000000000000E+000
 -7.399999999999999E-003    0.000000000000000E+000
 -7.299999999999999E-003    0.000000000000000E+000
 -7.199999999999999E-003    0.000000000000000E+000
 -7.100000000000000E-003    0.000000000000000E+000
 -6.999999999999999E-003    0.000000000000000E+000
 -6.899999999999999E-003    0.000000000000000E+000
 -6.800000000000000E-003    0.000000000000000E+000
 -6.699999999999999E-003    0.000000000000000E+000
 -6.599999999999999E-003    0.000000000000000E+000
 -6.499999999999999E-003    0.000000000000000E+000
 -6.399999999999999E-003    0.000000000000000E+000
 -6.299999999999999E-003    0.000000000000000E+000
 -6.199999999999999E-003    0.000000000000000E+000
 -6.100000000000000E-003    0.000000000000000E+000
 -5.999999999999999E-003    0.000000000000000E+000
 -5.899999999999999E-003    0.000000000000000E+000
 -5.800000000000000E-003    0.000000000000000E+000
 -5.699999999999999E-003    0.000000000000000E+000
 -5.599999999999999E-003    0.000000000000000E+000
 -5.499999999999999E-003    0.000000000000000E+000
 -5.399999999999999E-003    0.000000000000000E+000
 -5.299999999999999E-003    0.000000000000000E+000
 -5.199999999999999E-003    0.000000000000000E+000
 -5.099999999999999E-003    0.000000000000000E+000
 -4.999999999999999E-003    0.000000000000000E+000
 -4.899999999999999E-003    0.000000000000000E+000
 -4.799999999999999E-003    0.000000000000000E+000
 -4.699999999999999E-003    0.000000000000000E+000
 -4.599999999999999E-003    0.000000000000000E+000
 -4.499999999999999E-003    0.000000000000000E+000
 -4.399999999999999E-003    0.000000000000000E+000
 -4.299999999999999E-003    0.000000000000000E+000
 -4.199999999999999E-003    0.000000000000000E+000
 -4.099999999999999E-003    0.000000000000000E+000
 -3.999999999999999E-003    0.000000000000000E+000
 -3.899999999999999E-003    0.000000000000000E+000
 -3.799999999999999E-003    0.000000000000000E+000
 -3.699999999999999E-003    0.000000000000000E+000
 -3.599999999999999E-003    0.000000000000000E+000
 -3.499999999999999E-003    0.000000000000000E+000
 -3.399999999999999E-003    0.000000000000000E+000
 -3.299999999999999E-003    0.000000000000000E+000
 -3.199999999999999E-003    0.000000000000000E+000
 -3.099999999999999E-003    0.000000000000000E+000
 -2.999999999999999E-003    0.000000000000000E+000
 -2.899999999999999E-003    0.000000000000000E+000
 -2.799999999999999E-003    0.000000000000000E+000
 -2.699999999999999E-003    0.000000000000000E+000
 -2.599999999999999E-003    0.000000000000000E+000
 -2.499999999999999E-003    0.000000000000000E+000
 -2.399999999999999E-003    0.000000000000000E+000
 -2.299999999999999E-003    0.000000000000000E+000
 -2.199999999999999E-003    0.000000000000000E+000
 -2.099999999999999E-003    0.000000000000000E+000
 -1.999999999999999E-003    0.000000000000000E+000
 -1.899999999999999E-003    0.000000000000000E+000
 -1.799999999999999E-003    0.000000000000000E+000
 -1.699999999999999E-003    0.000000000000000E+000
 -1.599999999999999E-003    0.000000000000000E+000
 -1.499999999999999E-003    4.747472157868526E-049
 -1.399999999999999E-003    9.494944315737052E-049
 -1.299999999999999E-003    1.544940090561072E-048
 -1.199999999999999E-003    1.786336976962099E-048
 -1.099999999999999E-003    1.907035420162613E-048
 -9.999999999999989E-004    2.027733863363126E-048
 -8.999999999999990E-004    1.552986647576274E-048
 -7.999999999999990E-004    1.163084184121412E-049
 -6.999999999999989E-004   -2.347290660653036E-048
 -5.999999999999990E-004   -8.468535324286524E-048
 -4.999999999999989E-004   -1.518522564690738E-047
 -3.999999999999989E-004   -2.507237775650612E-047
 -2.999999999999989E-004   -3.464875311839168E-047
 -1.999999999999989E-004   -4.315054558071466E-047
 -9.999999999999892E-005   -4.480166468935963E-047
  1.084202172485504E-018   -4.242741802178640E-047
  1.000000000000011E-004   -8.654020423913691E-047
  2.000000000000011E-004   -1.218657487700616E-046
  3.000000000000011E-004   -3.607294851995120E-046
  4.000000000000011E-004   -5.870079970007961E-046
  5.000000000000011E-004   -8.045990806965559E-046
  6.000000000000011E-004   -1.016483234101674E-045
  7.000000000000011E-004   -1.010201299601324E-045
  8.000000000000011E-004   -7.373193079364298E-046
  9.000000000000012E-004   -2.040148040356108E-046
  1.000000000000001E-003    7.961041060415258E-046
  1.100000000000001E-003    3.470959935871833E-045
  1.200000000000001E-003    6.599555340453668E-045
  1.300000000000001E-003    9.766950252366848E-045
  1.400000000000001E-003    1.414516598836125E-044
  1.500000000000001E-003    1.805835599430089E-044
  1.600000000000001E-003    2.096168823792897E-044
  1.700000000000001E-003    2.122858961749314E-044
  1.800000000000001E-003    1.909844946968423E-044
  1.900000000000001E-003    1.325197857929620E-044
  2.000000000000001E-003    2.317902523285075E-045
  2.100000000000001E-003   -1.396331182262879E-044
  2.200000000000001E-003   -3.442544095534914E-044
  2.300000000000001E-003   -5.834750888192286E-044
  2.400000000000001E-003   -8.383451570134407E-044
  2.500000000000001E-003   -1.086439853103409E-043
  2.600000000000001E-003   -1.270084328657038E-043
  2.700000000000001E-003   -1.347841759103364E-043
  2.800000000000001E-003   -1.260379520225533E-043
  2.900000000000001E-003   -9.623743902704778E-044
  3.000000000000001E-003   -3.950267233832349E-044
  3.100000000000001E-003    4.552930457386765E-044
  3.200000000000001E-003    1.587135076591682E-043
  3.300000000000001E-003    2.944953782569913E-043
  3.400000000000001E-003    4.430426150885924E-043
  3.500000000000001E-003    5.886783499755477E-043
  3.600000000000001E-003    7.095274506878227E-043
  3.700000000000001E-003    7.781654120823931E-043
  3.800000000000001E-003    7.647780493971612E-043
  3.900000000000001E-003    6.382384137169763E-043
  4.000000000000001E-003    3.733790167300942E-043
  4.100000000000001E-003   -4.641502344387504E-044
  4.200000000000001E-003   -6.213925000158197E-043
  4.300000000000001E-003   -1.331210836854666E-042
  4.400000000000001E-003   -2.128369419387401E-042
  4.500000000000001E-003   -2.936262172890186E-042
  4.600000000000002E-003   -3.645813701172568E-042
  4.700000000000001E-003   -4.122066628449831E-042
  4.800000000000001E-003   -4.212357146367183E-042
  4.900000000000002E-003   -3.759216445228603E-042
  5.000000000000001E-003   -2.621462658232249E-042
  5.100000000000001E-003   -7.018675672799268E-043
  5.200000000000001E-003    2.024140710036980E-042
  5.300000000000002E-003    5.481996543006293E-042
  5.400000000000001E-003    9.466587617974582E-042
  5.500000000000001E-003    1.362671973824930E-041
  5.600000000000002E-003    1.746005859304040E-041
  5.700000000000001E-003    2.032554372930100E-041
  5.800000000000001E-003    2.148392923436712E-041
  5.900000000000002E-003    2.016631673009982E-041
  6.000000000000001E-003    1.566306216135581E-041
  6.100000000000001E-003    7.447099578036710E-042
  6.200000000000002E-003   -4.690205276258724E-042
  6.300000000000002E-003   -2.049909666383943E-041
  6.400000000000001E-003   -3.914549891017027E-041
  6.500000000000001E-003   -5.912028097043682E-041
  6.600000000000002E-003   -7.820621251793764E-041
  6.700000000000001E-003   -9.353724648105884E-041
  6.800000000000001E-003   -1.017655343968825E-040
  6.900000000000002E-003   -9.934353983135507E-041
  7.000000000000001E-003   -8.294201067738405E-041
  7.100000000000001E-003   -4.996933740820258E-041
  7.200000000000002E-003    8.234611024649121E-043
  7.300000000000002E-003    6.872372815083698E-041
  7.400000000000001E-003    1.504948999076190E-040
  7.500000000000001E-003    2.399652968905006E-040
  7.600000000000002E-003    3.278771907111523E-040
  7.700000000000001E-003    4.021081815730082E-040
  7.800000000000001E-003    4.483482045681759E-040
  7.900000000000001E-003    4.512952922038560E-040
  8.000000000000002E-003    3.963781116991870E-040
  8.100000000000001E-003    2.719389517700531E-040
  8.200000000000001E-003    7.173212725758271E-041
  8.300000000000002E-003   -2.024958387845853E-040
  8.400000000000001E-003   -5.386766890953586E-040
  8.500000000000002E-003   -9.127198306070832E-040
  8.600000000000002E-003   -1.287895752269228E-039
  8.700000000000001E-003   -1.615702899868284E-039
  8.800000000000002E-003   -1.838591207311852E-039
  8.900000000000002E-003   -1.894744251844080E-039
  9.000000000000001E-003   -1.724922861369306E-039
  9.100000000000002E-003   -1.281087096213255E-039
  9.200000000000002E-003   -5.361909421461452E-040
  9.300000000000001E-003    5.058133725410381E-040
  9.400000000000002E-003    1.801037137331261E-039
  9.500000000000001E-003    3.259306638429347E-039
  9.600000000000001E-003    4.742044029654746E-039
  9.700000000000002E-003    6.065930207782538E-039
  9.800000000000001E-003    7.013595727676870E-039
  9.900000000000001E-003    7.351999883396399E-039
  1.000000000000000E-002    6.858314186281417E-039
  1.010000000000000E-002    5.352071849605157E-039
  1.020000000000000E-002    2.731104041468472E-039
  1.030000000000000E-002   -9.924160158808515E-040
  1.040000000000000E-002   -5.660602779049845E-039
  1.050000000000000E-002   -1.094871098572320E-038
  1.060000000000000E-002   -1.635993196663753E-038
  1.070000000000000E-002   -2.124138550103992E-038
  1.080000000000000E-002   -2.482517002835561E-038
  1.090000000000000E-002   -2.629605522747243E-038
  1.100000000000000E-002   -2.488423769031406E-038
  1.110000000000000E-002   -1.997780659315391E-038
  1.120000000000000E-002   -1.124537654861192E-038
  1.130000000000000E-002    1.244650836171841E-039
  1.140000000000000E-002    1.692495505538614E-038
  1.150000000000000E-002    3.466897010414569E-038
  1.160000000000000E-002    5.278785695693965E-038
  1.170000000000000E-002    6.910047911977708E-038
  1.180000000000000E-002    8.108655271102257E-038
  1.190000000000000E-002    8.612451921404043E-038
  1.200000000000000E-002    8.180473121578805E-038
  1.210000000000000E-002    6.629582666534589E-038
  1.220000000000000E-002    3.872926445829852E-038
  1.230000000000000E-002   -4.447091180565082E-040
  1.240000000000000E-002   -4.918455136879019E-038
  1.250000000000000E-002   -1.037260297204296E-037
  1.260000000000000E-002   -1.586453169993026E-037
  1.270000000000000E-002   -2.071570170826342E-037
  1.280000000000000E-002   -2.416656644900340E-037
  1.290000000000000E-002   -2.545594917345713E-037
  1.300000000000000E-002   -2.391991926703809E-037
  1.310000000000000E-002   -1.910156312133898E-037
  1.320000000000000E-002   -1.085946053272429E-037
  1.330000000000000E-002    5.402489530438351E-039
  1.340000000000000E-002    1.436465791049845E-037
  1.350000000000000E-002    2.940379262659213E-037
  1.360000000000000E-002    4.402231588351086E-037
  1.370000000000000E-002    5.628087248337251E-037
  1.380000000000000E-002    6.412677924195612E-037
  1.390000000000000E-002    6.564396935416426E-037
  1.400000000000000E-002    5.934122261292133E-037
  1.410000000000000E-002    4.444716275256276E-037
  1.420000000000000E-002    2.117207854803951E-037
  1.430000000000000E-002   -9.108558177512224E-038
  1.440000000000000E-002   -4.379330315326638E-037
  1.450000000000000E-002   -7.915423720563507E-037
  1.460000000000000E-002   -1.106200075901568E-036
  1.470000000000000E-002   -1.332442859397570E-036
  1.480000000000000E-002   -1.423345951923072E-036
  1.490000000000000E-002   -1.341865553445660E-036
  1.500000000000000E-002   -1.068391640043170E-036
  1.510000000000000E-002   -6.074277466467979E-037
  1.520000000000000E-002    7.825892257258035E-039
  1.530000000000000E-002    7.141945363051612E-037
  1.540000000000000E-002    1.421568048915749E-036
  1.550000000000000E-002    2.020860576864896E-036
  1.560000000000000E-002    2.396886221515430E-036
  1.570000000000000E-002    2.445384638635099E-036
  1.580000000000000E-002    2.092576835826318E-036
  1.590000000000000E-002    1.314804623333414E-036
  1.600000000000000E-002    1.551462347977998E-037
  1.610000000000000E-002   -1.266473563977544E-036
  1.620000000000000E-002   -2.753061283018863E-036
  1.630000000000000E-002   -4.042985043992603E-036
  1.640000000000000E-002   -4.836553332970353E-036
  1.650000000000000E-002   -4.836437784839950E-036
  1.660000000000000E-002   -3.799310016547300E-036
  1.670000000000000E-002   -1.593561843136019E-036
  1.680000000000000E-002    1.744467655228914E-036
  1.690000000000000E-002    5.965276954770576E-036
  1.700000000000000E-002    1.058251049436737E-035
  1.710000000000000E-002    1.488095791741849E-035
  1.720000000000000E-002    1.796437290307533E-035
  1.730000000000000E-002    1.884734427907048E-035
  1.740000000000000E-002    1.658978138249018E-035
  1.750000000000000E-002    1.046551924266850E-035
  1.760000000000000E-002    1.487285704662160E-037
  1.770000000000000E-002   -1.410570662308619E-035
  1.780000000000000E-002   -3.131776559556385E-035
  1.790000000000000E-002   -4.970694342527404E-035
  1.800000000000000E-002   -6.671824996541471E-035
  1.810000000000000E-002   -7.917579556882007E-035
  1.820000000000000E-002   -8.357848678484697E-035
  1.830000000000000E-002   -7.653515648421520E-035
  1.840000000000000E-002   -5.531469160477998E-035
  1.850000000000000E-002   -1.846250591545470E-035
  1.860000000000000E-002    3.358913991805572E-035
  1.870000000000000E-002    9.800934014645305E-035