 -4.000000000000000E-002    0.000000000000000E+000
 -3.990000000000000E-002    0.000000000000000E+000
 -3.980000000000000E-002    0.000000000000000E+000
 -3.970000000000000E-002    0.000000000000000E+000
 -3.960000000000000E-002    0.000000000000000E+000
 -3.950000000000000E-002    0.000000000000000E+000
 -3.940000000000000E-002    0.000000000000000E+000
 -3.930000000000000E-002    0.000000000000000E+000
 -3.920000000000000E-002    0.000000000000000E+000
 -3.910000000000000E-002    0.000000000000000E+000
 -3.900000000000000E-002    0.000000000000000E+000
 -3.890000000000000E-002    0.000000000000000E+000
 -3.880000000000000E-002    0.000000000000000E+000
 -3.870000000000000E-002    0.000000000000000E+000
 -3.860000000000000E-002    0.000000000000000E+000
 -3.850000000000000E-002    0.000000000000000E+000
 -3.840000000000000E-002    0.000000000000000E+000
 -3.830000000000000E-002    0.000000000000000E+000
 -3.820000000000000E-002    0.000000000000000E+000
 -3.810000000000000E-002    0.000000000000000E+000
 -3.800000000000000E-002    0.000000000000000E+000
 -3.790000000000000E-002    0.000000000000000E+000
 -3.780000000000000E-002    0.000000000000000E+000
 -3.770000000000000E-002    0.000000000000000E+000
 -3.760000000000000E-002    0.000000000000000E+000
 -3.750000000000000E-002    0.000000000000000E+000
 -3.740000000000000E-002    0.000000000000000E+000
 -3.730000000000000E-002    0.000000000000000E+000
 -3.720000000000000E-002    0.000000000000000E+000
 -3.710000000000000E-002    0.000000000000000E+000
 -3.700000000000000E-002    0.000000000000000E+000
 -3.690000000000000E-002    0.000000000000000E+000
 -3.680000000000000E-002    0.000000000000000E+000
 -3.670000000000000E-002    0.000000000000000E+000
 -3.660000000000000E-002    0.000000000000000E+000
 -3.650000000000000E-002    0.000000000000000E+000
 -3.640000000000000E-002    0.000000000000000E+000
 -3.630000000000000E-002    0.000000000000000E+000
 -3.620000000000000E-002    0.000000000000000E+000
 -3.610000000000000E-002    0.000000000000000E+000
 -3.600000000000000E-002    0.000000000000000E+000
 -3.590000000000000E-002    0.000000000000000E+000
 -3.580000000000000E-002    0.000000000000000E+000
 -3.570000000000000E-002    0.000000000000000E+000
 -3.560000000000000E-002    0.000000000000000E+000
 -3.550000000000000E-002    0.000000000000000E+000
 -3.540000000000000E-002    0.000000000000000E+000
 -3.530000000000000E-002    0.000000000000000E+000
 -3.520000000000000E-002    0.000000000000000E+000
 -3.510000000000000E-002    0.000000000000000E+000
 -3.500000000000000E-002    0.000000000000000E+000
 -3.490000000000000E-002    0.000000000000000E+000
 -3.480000000000000E-002    0.000000000000000E+000
 -3.470000000000000E-002    0.000000000000000E+000
 -3.460000000000000E-002    0.000000000000000E+000
 -3.450000000000000E-002    0.000000000000000E+000
 -3.440000000000000E-002    0.000000000000000E+000
 -3.430000000000000E-002    0.000000000000000E+000
 -3.420000000000000E-002    0.000000000000000E+000
 -3.410000000000000E-002    0.000000000000000E+000
 -3.400000000000000E-002    0.000000000000000E+000
 -3.390000000000000E-002    0.000000000000000E+000
 -3.380000000000000E-002    0.000000000000000E+000
 -3.370000000000000E-002    0.000000000000000E+000
 -3.360000000000000E-002    0.000000000000000E+000
 -3.350000000000000E-002    0.000000000000000E+000
 -3.340000000000000E-002    0.000000000000000E+000
 -3.330000000000000E-002    0.000000000000000E+000
 -3.320000000000000E-002    0.000000000000000E+000
 -3.310000000000000E-002    0.000000000000000E+000
 -3.300000000000000E-002    0.000000000000000E+000
 -3.290000000000000E-002    0.000000000000000E+000
 -3.280000000000000E-002    0.000000000000000E+000
 -3.270000000000000E-002    0.000000000000000E+000
 -3.260000000000000E-002    0.000000000000000E+000
 -3.250000000000000E-002    0.000000000000000E+000
 -3.240000000000000E-002    0.000000000000000E+000
 -3.230000000000000E-002    0.000000000000000E+000
 -3.220000000000000E-002    0.000000000000000E+000
 -3.210000000000000E-002    0.000000000000000E+000
 -3.200000000000000E-002    0.000000000000000E+000
 -3.190000000000000E-002    0.000000000000000E+000
 -3.180000000000000E-002    0.000000000000000E+000
 -3.170000000000000E-002    0.000000000000000E+000
 -3.160000000000000E-002    0.000000000000000E+000
 -3.150000000000000E-002    0.000000000000000E+000
 -3.140000000000000E-002    0.000000000000000E+000
 -3.130000000000000E-002    0.000000000000000E+000
 -3.120000000000000E-002    0.000000000000000E+000
 -3.110000000000000E-002    0.000000000000000E+000
 -3.100000000000000E-002    0.000000000000000E+000
 -3.090000000000000E-002    0.000000000000000E+000
 -3.080000000000000E-002    0.000000000000000E+000
 -3.070000000000000E-002    0.000000000000000E+000
 -3.060000000000000E-002    0.000000000000000E+000
 -3.050000000000000E-002    0.000000000000000E+000
 -3.040000000000000E-002    0.000000000000000E+000
 -3.030000000000000E-002    0.000000000000000E+000
 -3.020000000000000E-002    0.000000000000000E+000
 -3.010000000000000E-002    0.000000000000000E+000
 -3.000000000000000E-002    0.000000000000000E+000
 -2.990000000000000E-002    0.000000000000000E+000
 -2.980000000000000E-002    0.000000000000000E+000
 -2.970000000000000E-002    0.000000000000000E+000
 -2.960000000000000E-002    0.000000000000000E+000
 -2.950000000000000E-002    0.000000000000000E+000
 -2.940000000000000E-002    0.000000000000000E+000
 -2.930000000000000E-002    0.000000000000000E+000
 -2.920000000000000E-002    0.000000000000000E+000
 -2.910000000000000E-002    0.000000000000000E+000
 -2.900000000000000E-002    0.000000000000000E+000
 -2.890000000000000E-002    0.000000000000000E+000
 -2.880000000000000E-002    0.000000000000000E+000
 -2.870000000000000E-002    0.000000000000000E+000
 -2.860000000000000E-002    0.000000000000000E+000
 -2.850000000000000E-002    0.000000000000000E+000
 -2.840000000000000E-002    0.000000000000000E+000
 -2.830000000000000E-002    0.000000000000000E+000
 -2.820000000000000E-002    0.000000000000000E+000
 -2.810000000000000E-002    0.000000000000000E+000
 -2.800000000000000E-002    0.000000000000000E+000
 -2.790000000000000E-002    0.000000000000000E+000
 -2.780000000000000E-002    0.000000000000000E+000
 -2.770000000000000E-002    0.000000000000000E+000
 -2.760000000000000E-002    0.000000000000000E+000
 -2.750000000000000E-002    0.000000000000000E+000
 -2.740000000000000E-002    0.000000000000000E+000
 -2.730000000000000E-002    0.000000000000000E+000
 -2.720000000000000E-002    0.000000000000000E+000
 -2.710000000000000E-002    0.000000000000000E+000
 -2.700000000000000E-002    0.000000000000000E+000
 -2.690000000000000E-002    0.000000000000000E+000
 -2.680000000000000E-002    0.000000000000000E+000
 -2.670000000000000E-002    0.000000000000000E+000
 -2.660000000000000E-002    0.000000000000000E+000
 -2.650000000000000E-002    0.000000000000000E+000
 -2.640000000000000E-002    0.000000000000000E+000
 -2.630000000000000E-002    0.000000000000000E+000
 -2.620000000000000E-002    0.000000000000000E+000
 -2.610000000000000E-002    0.000000000000000E+000
 -2.600000000000000E-002    0.000000000000000E+000
 -2.590000000000000E-002    0.000000000000000E+000
 -2.580000000000000E-002   -5.492804786279251E-048
 -2.570000000000000E-002   -1.098560957255850E-047
 -2.560000000000000E-002   -2.216416351138781E-047
 -2.550000000000000E-002   -8.545811689952570E-048
 -2.540000000000000E-002    1.075828928403273E-047
 -2.530000000000000E-002    5.265484497753475E-048
 -2.520000000000000E-002    1.644403843658278E-047
 -2.510000000000000E-002    3.145464005532876E-047
 -2.500000000000000E-002    5.501105336402731E-047
 -2.490000000000000E-002    4.147805894576424E-047
 -2.480000000000000E-002    3.004493187123968E-047
 -2.470000000000000E-002    3.565244669570308E-047
 -2.460000000000000E-002    7.956420501784364E-047
 -2.450000000000000E-002    5.629705562451906E-047
 -2.440000000000000E-002    1.094561640190709E-046
 -2.430000000000000E-002    1.885548598746483E-046
 -2.420000000000000E-002    2.047108243760214E-046
 -2.410000000000000E-002    2.747691033473198E-046
 -2.400000000000000E-002    5.123533735117491E-046
 -2.390000000000000E-002    4.989562301846282E-046
 -2.380000000000000E-002    1.316857531775710E-046
 -2.370000000000000E-002   -6.221979369795671E-046
 -2.360000000000000E-002   -1.053178619043606E-045
 -2.350000000000000E-002   -2.635722818369354E-045
 -2.340000000000000E-002   -5.086305399100428E-045
 -2.330000000000000E-002   -8.271247651912454E-045
 -2.320000000000000E-002   -1.139376319203256E-044
 -2.310000000000000E-002   -1.420971591311888E-044
 -2.300000000000000E-002   -1.670780642806333E-044
 -2.290000000000000E-002   -1.746797142348963E-044
 -2.280000000000000E-002   -1.632622154288089E-044
 -2.270000000000000E-002   -1.008958891100281E-044
 -2.260000000000000E-002    1.882876578281094E-045
 -2.250000000000000E-002    2.224086962935221E-044
 -2.240000000000000E-002    5.228062114982337E-044
 -2.230000000000000E-002    9.299557705918819E-044
 -2.220000000000000E-002    1.438892133230995E-043
 -2.210000000000000E-002    2.007250566305319E-043
 -2.200000000000000E-002    2.562562482375815E-043
 -2.190000000000000E-002    2.981819545456928E-043
 -2.180000000000000E-002    3.092136746881844E-043
 -2.170000000000000E-002    2.670080337582362E-043
 -2.160000000000000E-002    1.442387853129413E-043
 -2.150000000000000E-002   -8.698667954017387E-044
 -2.140000000000000E-002   -4.514656749303024E-043
 -2.130000000000000E-002   -9.635460263557324E-043
 -2.120000000000000E-002   -1.617413759024428E-042
 -2.110000000000000E-002   -2.376833348896256E-042
 -2.100000000000000E-002   -3.161173825777787E-042
 -2.090000000000000E-002   -3.831544154796612E-042
 -2.080000000000000E-002   -4.188373815352453E-042
 -2.070000000000000E-002   -3.964508531208604E-042
 -2.060000000000000E-002   -2.840831190056363E-042
 -2.050000000000000E-002   -4.736731031050708E-043
 -2.040000000000000E-002    3.452002228566828E-042
 -2.030000000000000E-002    9.144766464954145E-042
 -2.020000000000000E-002    1.660185774226945E-041
 -2.010000000000000E-002    2.547992836844212E-041
 -2.000000000000000E-002    3.495628696343631E-041
 -1.990000000000000E-002    4.359583166360499E-041
 -1.980000000000000E-002    4.925671397154462E-041
 -1.970000000000000E-002    4.907542142088980E-041
 -1.960000000000000E-002    3.957697734675597E-041
 -1.950000000000000E-002    1.696879432835949E-041
 -1.940000000000000E-002   -2.233180363413577E-041
 -1.930000000000000E-002   -8.090625127859217E-041
 -1.920000000000000E-002   -1.592642590413039E-040
 -1.910000000000000E-002   -2.545446781823909E-040
 -1.900000000000000E-002   -3.590824798004125E-040
 -1.890000000000000E-002   -4.590518464745596E-040
 -1.880000000000000E-002   -5.334585450941520E-040
 -1.870000000000000E-002   -5.538805597454780E-040
 -1.860000000000000E-002   -4.854156261040054E-040
 -1.850000000000000E-002   -2.893406048784458E-040
 -1.840000000000000E-002    7.204109548935780E-041
 -1.830000000000000E-002    6.280318868504433E-040
 -1.820000000000000E-002    1.389587991415568E-039
 -1.810000000000000E-002    2.337143561667017E-039
 -1.800000000000000E-002    3.407178707578649E-039
 -1.790000000000000E-002    4.479236668861436E-039
 -1.780000000000000E-002    5.365931015720007E-039
 -1.770000000000000E-002    5.809322962616574E-039
 -1.760000000000000E-002    5.487705125075674E-039
 -1.750000000000000E-002    4.037172950573087E-039
 -1.740000000000000E-002    1.092015506597781E-039
 -1.730000000000000E-002   -3.653129785046266E-039
 -1.720000000000000E-002   -1.035872375315681E-038
 -1.710000000000000E-002   -1.893627278862208E-038
 -1.700000000000000E-002   -2.893251438414149E-038
 -1.690000000000000E-002   -3.941556687914367E-038
 -1.680000000000000E-002   -4.888352073600886E-038
 -1.670000000000000E-002   -5.522230299959341E-038
 -1.660000000000000E-002   -5.574509149482289E-038
 -1.650000000000000E-002   -4.734769204992577E-038
 -1.640000000000000E-002   -2.681218497659431E-038
 -1.630000000000000E-002    8.718172673882223E-039
 -1.620000000000000E-002    6.108655209117484E-038
 -1.610000000000000E-002    1.303135098302365E-037
 -1.600000000000000E-002    2.136881030675389E-037
 -1.590000000000000E-002    3.048602772826352E-037
 -1.580000000000000E-002    3.930840965584519E-037
 -1.570000000000000E-002    4.628088541725396E-037
 -1.560000000000000E-002    4.938513038393612E-037
 -1.550000000000000E-002    4.623996103235811E-037
 -1.540000000000000E-002    3.430800630037549E-037
 -1.530000000000000E-002    1.122570320548354E-037
 -1.520000000000000E-002   -2.473880726017823E-037
 -1.510000000000000E-002   -7.411360876208103E-037
 -1.500000000000000E-002   -1.355749406632605E-036
 -1.490000000000000E-002   -2.052919996640722E-036
 -1.480000000000000E-002   -2.763650341497637E-036
 -1.470000000000000E-002   -3.384890424065872E-036
 -1.460000000000000E-002   -3.779986801895225E-036
 -1.450000000000000E-002   -3.784602818617742E-036
 -1.440000000000000E-002   -3.219637676627522E-036
 -1.430000000000000E-002   -1.912250349969597E-036
 -1.420000000000000E-002    2.746808648279254E-037
 -1.410000000000000E-002    3.405539956783202E-036
 -1.400000000000000E-002    7.429815221787896E-036
 -1.390000000000000E-002    1.213911212099483E-035
 -1.380000000000000E-002    1.712963066286355E-035
 -1.370000000000000E-002    2.177829858860273E-035
 -1.360000000000000E-002    2.524214865351284E-035
 -1.350000000000000E-002    2.649103927735865E-035
 -1.340000000000000E-002    2.438299820215126E-035
 -1.330000000000000E-002    1.778873147354803E-035
 -1.320000000000000E-002    5.767246875973274E-036
 -1.310000000000000E-002   -1.221283772784511E-035
 -1.300000000000000E-002   -3.602060853992810E-035
 -1.290000000000000E-002   -6.460430243740749E-035
 -1.280000000000000E-002   -9.576360650875972E-035
 -1.270000000000000E-002   -1.260000383172740E-034
 -1.260000000000000E-002   -1.505005346353072E-034
 -1.250000000000000E-002   -1.633111150858330E-034
 -1.240000000000000E-002   -1.577526133631476E-034
 -1.230000000000000E-002   -1.271144742961892E-034
 -1.220000000000000E-002   -6.563519831130941E-035
 -1.210000000000000E-002    3.026128434007579E-035
 -1.200000000000000E-002    1.605556589121130E-034
 -1.190000000000000E-002    3.201902666387139E-034
 -1.180000000000000E-002    4.977948666217728E-034
 -1.170000000000000E-002    6.748380348159489E-034
 -1.160000000000000E-002    8.254981324059107E-034
 -1.150000000000000E-002    9.175569880444627E-034
 -1.140000000000000E-002    9.145839223209107E-034
 -1.130000000000000E-002    7.795946762399915E-034
 -1.120000000000000E-002    4.802190571766914E-034
 -1.110000000000000E-002   -4.798984758277687E-036
 -1.100000000000000E-002   -6.782050199398145E-034
 -1.090000000000000E-002   -1.516681764715650E-033
 -1.080000000000000E-002   -2.464184202036049E-033
 -1.070000000000000E-002   -3.427471032898905E-033
 -1.060000000000000E-002   -4.275315954260721E-033
 -1.050000000000000E-002   -4.842905927772623E-033
 -1.040000000000000E-002   -4.942735937957120E-033
 -1.030000000000000E-002   -4.382876736360707E-033
 -1.020000000000000E-002   -2.992700054370625E-033
 -1.010000000000000E-002   -6.551648194714898E-034
 -1.000000000000000E-002    2.656563229942303E-033
 -9.899999999999999E-003    6.841814653992632E-033
 -9.800000000000000E-003    1.163950784075854E-032
 -9.699999999999999E-003    1.660594194338472E-032
 -9.599999999999999E-003    2.111031108884124E-032
 -9.500000000000000E-003    2.435504410106194E-032
 -9.399999999999999E-003    2.542694629565945E-032
 -9.299999999999999E-003    2.338302063774726E-032
 -9.200000000000000E-003    1.737122434973078E-032
 -9.099999999999999E-003    6.781515474641873E-033
 -8.999999999999999E-003   -8.583184165677032E-033
 -8.900000000000000E-003   -2.833314897088116E-032
 -8.799999999999999E-003   -5.133840145940505E-032
 -8.699999999999999E-003   -7.562402265272668E-032
 -8.600000000000000E-003   -9.834581949355403E-032
 -8.499999999999999E-003   -1.158773333456733E-031
 -8.399999999999999E-003   -1.240342697381634E-031
 -8.300000000000000E-003   -1.184524196425536E-031
 -8.199999999999999E-003   -9.511867592596149E-032
 -8.100000000000000E-003   -5.103447408209319E-032
 -8.000000000000000E-003    1.503553246866231E-032
 -7.899999999999999E-003    1.018032363575356E-031
 -7.800000000000000E-003    2.047852220047690E-031
 -7.699999999999999E-003    3.158404672678750E-031
 -7.599999999999999E-003    4.230488074667554E-031
 -7.499999999999999E-003    5.110585967397622E-031
 -7.399999999999999E-003    5.620080792719217E-031
 -7.299999999999999E-003    5.570825037553827E-031
 -7.199999999999999E-003    4.786999000006796E-031
 -7.100000000000000E-003    3.132320950195639E-031
 -6.999999999999999E-003    5.406549970661416E-032
 -6.899999999999999E-003   -2.953031457737004E-031
 -6.800000000000000E-003   -7.185400445710270E-031
 -6.699999999999999E-003   -1.184596689862099E-030
 -6.599999999999999E-003   -1.647198035534930E-030
 -6.499999999999999E-003   -2.046185520555964E-030
 -6.399999999999999E-003   -2.311106213476676E-030
 -6.299999999999999E-003   -2.367256118518858E-030
 -6.199999999999999E-003   -2.144118132807967E-030
 -6.100000000000000E-003   -1.585796514761097E-030
 -5.999999999999999E-003   -6.626552621194237E-031
 -5.899999999999999E-003    6.170209702602395E-031
 -5.800000000000000E-003    2.196892040650835E-030
 -5.699999999999999E-003    3.965752098511031E-030
 -5.599999999999999E-003    5.755924249653093E-030
 -5.499999999999999E-003    7.348603586473991E-030
 -5.399999999999999E-003    8.487467065898851E-030
 -5.299999999999999E-003    8.901132687268567E-030
 -5.199999999999999E-003    8.334050372575527E-030
 -5.099999999999999E-003    6.584139808315018E-030
 -4.999999999999999E-003    3.544078968814027E-030
 -4.899999999999999E-003   -7.581816767929323E-031
 -4.799999999999999E-003   -6.125340502379234E-030
 -4.699999999999999E-003   -1.216944564850195E-029
 -4.599999999999999E-003   -1.830986335361599E-029
 -4.499999999999999E-003   -2.379619792683000E-029
 -4.399999999999999E-003   -2.776010166991552E-029
 -4.299999999999999E-003   -2.929712244769318E-029
 -4.199999999999999E-003   -2.757599832502520E-029
 -4.099999999999999E-003   -2.196831153110556E-029
 -3.999999999999999E-003   -1.218670003388468E-029
 -3.899999999999999E-003    1.584705194033911E-030
 -3.799999999999999E-003    1.858740293354063E-029
 -3.699999999999999E-003    3.743489289292174E-029
 -3.599999999999999E-003    5.612930017716714E-029
 -3.499999999999999E-003    7.216543138446379E-029
 -3.399999999999999E-003    8.273251045041000E-029
 -3.299999999999999E-003    8.501317971297817E-029
 -3.199999999999999E-003    7.656580396059697E-029
 -3.099999999999999E-003    5.576107671021856E-029
 -2.999999999999999E-003    2.222788505769556E-029
 -2.899999999999999E-003   -2.275029091139962E-029
 -2.799999999999999E-003   -7.595685163121241E-029
 -2.699999999999999E-003   -1.321530435849543E-028
 -2.599999999999999E-003   -1.842443030340065E-028
 -2.499999999999999E-003   -2.237504037737994E-028
 -2.399999999999999E-003   -2.416011550268507E-028
 -2.299999999999999E-003   -2.292394044611294E-028
 -2.199999999999999E-003   -1.799662460824506E-028
 -2.099999999999999E-003   -9.041137427462764E-029
 -1.999999999999999E-003    3.803832143049012E-029
 -1.899999999999999E-003    1.980615139544198E-028
 -1.799999999999999E-003    3.757100477608076E-028
 -1.699999999999999E-003    5.504352649056385E-028
 -1.599999999999999E-003    6.960357004687671E-028
 -1.499999999999999E-003    7.826599719991489E-028
 -1.399999999999999E-003    7.798925774994603E-028
 -1.299999999999999E-003    6.608126079735730E-028
 -1.199999999999999E-003    4.067521053394937E-028
 -1.099999999999999E-003    1.230830878566833E-029
 -9.999999999999989E-004   -5.099965080288427E-028
 -8.999999999999990E-004   -1.126134578270341E-027
 -7.999999999999990E-004   -1.778864148342186E-027
 -6.999999999999989E-004   -2.388649193128421E-027
 -5.999999999999990E-004   -2.857839426645815E-027
 -4.999999999999989E-004   -3.078471219180432E-027
 -3.999999999999989E-004   -2.943683244699506E-027
 -2.999999999999989E-004   -2.362260395443155E-027
 -1.999999999999989E-004   -1.275270649694741E-027
 -9.999999999999892E-005    3.267996312161957E-028
  1.084202172485504E-018    2.388500791535547E-027
  1.000000000000011E-004    4.777936264072873E-027
  2.000000000000011E-004    7.281944294642503E-027
  3.000000000000011E-004    9.610398323200241E-027
  4.000000000000011E-004    1.141159430365562E-026
  5.000000000000011E-004    1.229974230180392E-026
  6.000000000000011E-004    1.189439861816056E-026
  7.000000000000011E-004    9.870034512142268E-027
  8.000000000000011E-004    6.012190600179471E-027
  9.000000000000012E-004    2.749332997678906E-028
  1.000000000000001E-003   -7.167254961313282E-027
  1.100000000000001E-003   -1.588111455417006E-026
  1.200000000000001E-003   -2.515809438087750E-026
  1.300000000000001E-003   -3.402745619441509E-026
  1.400000000000001E-003   -4.130504041515478E-026
  1.500000000000001E-003   -4.568092031169305E-026
  1.600000000000001E-003   -4.584511820820190E-026
  1.700000000000001E-003   -4.064575295224076E-026
  1.800000000000001E-003   -2.926849357798426E-026
  1.900000000000001E-003   -1.142088801714840E-026
  2.000000000000001E-003    1.249956793114827E-026
  2.100000000000001E-003    4.127788977666485E-026
  2.200000000000001E-003    7.282008724234695E-026
  2.300000000000001E-003    1.041810827577213E-025
  2.400000000000001E-003    1.317005747548721E-025
  2.500000000000001E-003    1.512565383614490E-025
  2.600000000000001E-003    1.586346535748283E-025
  2.700000000000001E-003    1.499970648198188E-025
  2.800000000000001E-003    1.224185551901131E-025
  2.900000000000001E-003    7.444252103634391E-026
  3.000000000000001E-003    6.595725834077141E-027
  3.100000000000001E-003   -7.820834395324483E-026
  3.200000000000001E-003   -1.744504679850168E-025
  3.300000000000001E-003   -2.740388765315962E-025
  3.400000000000001E-003   -3.666480389701113E-025
  3.500000000000001E-003   -4.403915915079453E-025
  3.600000000000001E-003   -4.828267556849180E-025
  3.700000000000001E-003   -4.822452792157178E-025
  3.800000000000001E-003   -4.291650089737794E-025
  3.900000000000001E-003   -3.178921441637293E-025
  4.000000000000001E-003   -1.479881283265018E-025
  4.100000000000001E-003    7.454916654377382E-026
  4.200000000000001E-003    3.365879346026692E-025
  4.300000000000001E-003    6.178320645685898E-025
  4.400000000000001E-003    8.916024149971355E-025
  4.500000000000001E-003    1.126509509174326E-024
  4.600000000000002E-003    1.289009902298659E-024
  4.700000000000001E-003    1.346734083423824E-024
  4.800000000000001E-003    1.272360182309165E-024
  4.900000000000002E-003    1.047698698248998E-024
  5.000000000000001E-003    6.675585211528949E-025
  5.100000000000001E-003    1.429065445060255E-025
  5.200000000000001E-003   -4.971872498094440E-025
  5.300000000000002E-003   -1.205283497918690E-024
  5.400000000000001E-003   -1.917349327886509E-024
  5.500000000000001E-003   -2.556770871853596E-024
  5.600000000000002E-003   -3.040577612157768E-024
  5.700000000000001E-003   -3.287587066263071E-024
  5.800000000000001E-003   -3.227896915062419E-024
  5.900000000000002E-003   -2.812887183487284E-024
  6.000000000000001E-003   -2.024664426816349E-024
  6.100000000000001E-003   -8.837515473153780E-025
  6.200000000000002E-003    5.462104344582708E-025
  6.300000000000002E-003    2.157851891314394E-024
  6.400000000000001E-003    3.804404192136334E-024
  6.500000000000001E-003    5.309380977961221E-024
  6.600000000000002E-003    6.481482498900772E-024
  6.700000000000001E-003    7.133940894411468E-024
  6.800000000000001E-003    7.106869486903480E-024
  6.900000000000002E-003    6.290528203912347E-024
  7.000000000000001E-003    4.646941404981639E-024
  7.100000000000001E-003    2.227006996045341E-024
  7.200000000000002E-003   -8.197661815721142E-025
  7.300000000000002E-003   -4.245395222825767E-024
  7.400000000000001E-003   -7.715251003649608E-024
  7.500000000000001E-003   -1.083229919542269E-023
  7.600000000000002E-003   -1.317316737597223E-023
  7.700000000000001E-003   -1.433389526341729E-023
  7.800000000000001E-003   -1.398166321554476E-023
  7.900000000000001E-003   -1.190739425995805E-023
  8.000000000000002E-003   -8.073065520761512E-024
  8.100000000000001E-003   -2.647044331088249E-024
  8.200000000000001E-003    3.979037455801288E-024
  8.300000000000002E-003    1.119736672413391E-023
  8.400000000000001E-003    1.821857143820155E-023
  8.500000000000002E-003    2.413484319714167E-023
  8.600000000000002E-003    2.800928806951299E-023
  8.700000000000001E-003    2.898551932399704E-023
  8.800000000000002E-003    2.640807996254959E-023
  8.900000000000002E-003    1.994100930191744E-023
  9.000000000000001E-003    9.669867605383078E-024
  9.100000000000002E-003   -3.828342808154020E-024
  9.200000000000002E-003   -1.946199912542416E-023
  9.300000000000001E-003   -3.566017815939055E-023
  9.400000000000002E-003   -5.047324935274103E-023
  9.500000000000001E-003   -6.173932342641360E-023
  9.600000000000001E-003   -6.730864713898628E-023
  9.700000000000002E-003   -6.531028870669721E-023
  9.800000000000001E-003   -5.443671883806843E-023
  9.900000000000001E-003   -3.421560295473982E-023
  1.000000000000000E-002   -5.233337447699614E-024
  1.010000000000000E-002    3.072568099498554E-023
  1.020000000000000E-002    7.065712577870195E-023
  1.030000000000000E-002    1.104575008218261E-022
  1.040000000000000E-002    1.452005206758580E-022
  1.050000000000000E-002    1.695662101521176E-022
  1.060000000000000E-002    1.784008614672264E-022
  1.070000000000000E-002    1.673666352598414E-022
  1.080000000000000E-002    1.336210639451109E-022
  1.090000000000000E-002    7.645144362964290E-023
  1.100000000000000E-002   -2.218832562116841E-024
  1.110000000000000E-002   -9.753644921504565E-023
  1.120000000000000E-002   -2.017116570713117E-022
  1.130000000000000E-002   -3.043537864076553E-022
  1.140000000000000E-002   -3.931754126511703E-022
  1.150000000000000E-002   -4.550517068362832E-022
  1.160000000000000E-002   -4.773791637690843E-022
  1.170000000000000E-002   -4.496319212804833E-022
  1.180000000000000E-002   -3.649728833171485E-022
  1.190000000000000E-002   -2.217441052019399E-022
  1.200000000000000E-002   -2.464257619182670E-023
  1.210000000000000E-002    2.146119180971737E-022
  1.220000000000000E-002    4.772860846098428E-022
  1.230000000000000E-002    7.384424980559219E-022
  1.240000000000000E-002    9.686021794438506E-022
  1.250000000000000E-002    1.136226709516664E-021
  1.260000000000000E-002    1.210884734139538E-021
  1.270000000000000E-002    1.166868398282651E-021
  1.280000000000000E-002    9.869302786204704E-022
  1.290000000000000E-002    6.657420639378786E-022
  1.300000000000000E-002    2.126346623581286E-022
  1.310000000000000E-002   -3.468124180781508E-022
  1.320000000000000E-002   -9.707151821367086E-022
  1.330000000000000E-002   -1.602634411468185E-021
  1.340000000000000E-002   -2.175247723967224E-021
  1.350000000000000E-002   -2.615870168918452E-021
  1.360000000000000E-002   -2.853521383533767E-021
  1.370000000000000E-002   -2.827022437984843E-021
  1.380000000000000E-002   -2.493394913691836E-021
  1.390000000000000E-002   -1.835684947348040E-021
  1.400000000000000E-002   -8.692468003871763E-022
  1.410000000000000E-002    3.544674417415141E-022
  1.420000000000000E-002    1.747445617004238E-021
  1.430000000000000E-002    3.188586700042966E-021
  1.440000000000000E-002    4.531373163832487E-021
  1.450000000000000E-002    5.615591793146416E-021
  1.460000000000000E-002    6.282481189085063E-021
  1.470000000000000E-002    6.392196256268966E-021
  1.480000000000000E-002    5.842055472404130E-021
  1.490000000000000E-002    4.583698199377589E-021
  1.500000000000000E-002    2.637095195928646E-021
  1.510000000000000E-002    9.937411670903969E-023
  1.520000000000000E-002   -2.853320595813879E-021
  1.530000000000000E-002   -5.972259579047864E-021
  1.540000000000000E-002   -8.951455344191896E-021
  1.550000000000000E-002   -1.145160889197480E-020
  1.560000000000000E-002   -1.313142960383830E-020
  1.570000000000000E-002   -1.368407504303224E-020
  1.580000000000000E-002   -1.287554264407118E-020
  1.590000000000000E-002   -1.058113261648320E-020
  1.600000000000000E-002   -6.815740362118479E-021
  1.610000000000000E-002   -1.753752004755758E-021
  1.620000000000000E-002    4.265241305874034E-021
  1.630000000000000E-002    1.074765707952681E-020
  1.640000000000000E-002    1.707544421713030E-020
  1.650000000000000E-002    2.255349280107924E-020
  1.660000000000000E-002    2.647248817262217E-020
  1.670000000000000E-002    2.818274210218702E-020
  1.680000000000000E-002    2.717269388802665E-020
  1.690000000000000E-002    2.314426626308379E-020
  1.700000000000000E-002    1.607650245291511E-020
  1.710000000000000E-002    6.268884042796813E-021
  1.720000000000000E-002   -5.643375054481934E-021
  1.730000000000000E-002   -1.870776251224630E-020
  1.740000000000000E-002   -3.170968097771507E-020
  1.750000000000000E-002   -4.326378021735572E-020
  1.760000000000000E-002   -5.193693655698039E-020
  1.770000000000000E-002   -5.639419219876868E-020
  1.780000000000000E-002   -5.555529948037190E-020
  1.790000000000000E-002   -4.874662288471238E-020
  1.800000000000000E-002   -3.583137001250590E-020
  1.810000000000000E-002   -1.730107137549160E-020
  1.820000000000000E-002    5.686991080127934E-021
  1.830000000000000E-002    3.133821864557004E-020
  1.840000000000000E-002    5.732121833827890E-020
  1.850000000000000E-002    8.093987747656526E-020
  1.860000000000000E-002    9.936880549272321E-020
  1.870000000000000E-002    1.099354993334880E-019