 -4.000000000000000E-002    0.000000000000000E+000
 -3.990000000000000E-002    0.000000000000000E+000
 -3.980000000000000E-002    0.000000000000000E+000
 -3.970000000000000E-002    0.000000000000000E+000
 -3.960000000000000E-002    0.000000000000000E+000
 -3.950000000000000E-002    0.000000000000000E+000
 -3.940000000000000E-002    0.000000000000000E+000
 -3.930000000000000E-002    0.000000000000000E+000
 -3.920000000000000E-002    0.000000000000000E+000
 -3.910000000000000E-002    0.000000000000000E+000
 -3.900000000000000E-002    0.000000000000000E+000
 -3.890000000000000E-002    1.220140652004018E-036
 -3.880000000000000E-002    3.313956343975702E-035
 -3.870000000000000E-002    4.516534231793074E-034
 -3.860000000000000E-002    4.143993709876585E-033
 -3.850000000000000E-002    2.889558314655242E-032
 -3.840000000000000E-002    1.636355326741426E-031
 -3.830000000000000E-002    7.846476594250668E-031
 -3.820000000000000E-002    3.277731178165293E-030
 -3.810000000000000E-002    1.217459766809482E-029
 -3.800000000000000E-002    4.082646085201496E-029
 -3.790000000000000E-002    1.250537418680528E-028
 -3.780000000000000E-002    3.530573164284092E-028
 -3.770000000000000E-002    9.252192256382177E-028
 -3.760000000000000E-002    2.262838683391044E-027
 -3.750000000000000E-002    5.186003386599204E-027
 -3.740000000000000E-002    1.116838427089945E-026
 -3.730000000000000E-002    2.263449220870621E-026
 -3.720000000000000E-002    4.316899369605146E-026
 -3.710000000000000E-002    7.732955979779507E-026
 -3.700000000000000E-002    1.294709788461784E-025
 -3.690000000000000E-002    2.006002410683936E-025
 -3.680000000000000E-002    2.818473709013654E-025
 -3.670000000000000E-002    3.428108992729194E-025
 -3.660000000000000E-002    3.131183875231733E-025
 -3.650000000000000E-002    5.650231549715936E-026
 -3.640000000000000E-002   -6.608385770329586E-025
 -3.630000000000000E-002   -2.201146881316826E-024
 -3.620000000000000E-002   -5.071398792285297E-024
 -3.610000000000000E-002   -9.900850421853413E-024
 -3.600000000000000E-002   -1.734360798466568E-023
 -3.590000000000000E-002   -2.785861158355262E-023
 -3.580000000000000E-002   -4.131349942988527E-023
 -3.570000000000000E-002   -5.636553060571746E-023
 -3.560000000000000E-002   -6.960145607762443E-023
 -3.550000000000000E-002   -7.447923172697471E-023
 -3.540000000000000E-002   -6.021647484670030E-023
 -3.530000000000000E-002   -1.091682792744982E-023
 -3.520000000000000E-002    9.459135671440013E-023
 -3.510000000000000E-002    2.815336950136421E-022
 -3.500000000000000E-002    5.757523357146308E-022
 -3.490000000000000E-002    9.971591129487302E-022
 -3.480000000000000E-002    1.549321927365423E-021
 -3.470000000000000E-002    2.204865126897961E-021
 -3.460000000000000E-002    2.887202565299644E-021
 -3.450000000000000E-002    3.450422731176985E-021
 -3.440000000000000E-002    3.660892615971608E-021
 -3.430000000000000E-002    3.186214625126396E-021
 -3.420000000000000E-002    1.599245376043294E-021
 -3.410000000000000E-002   -1.593489266437332E-021
 -3.400000000000000E-002   -6.889167659808448E-021
 -3.390000000000000E-002   -1.468345102641231E-020
 -3.380000000000000E-002   -2.511847269094881E-020
 -3.370000000000000E-002   -3.788743806973304E-020
 -3.360000000000000E-002   -5.201052657521741E-020
 -3.350000000000000E-002   -6.561140787929142E-020
 -3.340000000000000E-002   -7.574036284911657E-020
 -3.330000000000000E-002   -7.830626555721051E-020
 -3.320000000000000E-002   -6.819202388717524E-020
 -3.310000000000000E-002   -3.963191357722464E-020
 -3.300000000000000E-002    1.308063862392270E-020
 -3.290000000000000E-002    9.451466345505546E-020
 -3.280000000000000E-002    2.066630413342386E-019
 -3.270000000000000E-002    3.472274422182875E-019
 -3.260000000000000E-002    5.078037557936047E-019
 -3.250000000000000E-002    6.722488115524439E-019
 -3.240000000000000E-002    8.156101795712485E-019
 -3.230000000000000E-002    9.040761184227610E-019
 -3.220000000000000E-002    8.964308058389132E-019
 -3.210000000000000E-002    7.474503371111045E-019
 -3.200000000000000E-002    4.135267089192678E-019
 -3.190000000000000E-002   -1.394578950076274E-019
 -3.180000000000000E-002   -9.263644303351857E-019
 -3.170000000000000E-002   -1.931974329129053E-018
 -3.160000000000000E-002   -3.100477188770483E-018
 -3.150000000000000E-002   -4.327145151886724E-018
 -3.140000000000000E-002   -5.454463879111391E-018
 -3.130000000000000E-002   -6.275151074534331E-018
 -3.120000000000000E-002   -6.544310081387966E-018
 -3.110000000000000E-002   -6.002330881484257E-018
 -3.100000000000000E-002   -4.409003057171769E-018
 -3.090000000000000E-002   -1.587663262977615E-018
 -3.080000000000000E-002    2.523876884804349E-018
 -3.070000000000000E-002    7.821154615424066E-018
 -3.060000000000000E-002    1.398737837001051E-017
 -3.050000000000000E-002    2.046373661726990E-017
 -3.040000000000000E-002    2.644599694166019E-017
 -3.030000000000000E-002    3.091717031297800E-017
 -3.020000000000000E-002    3.272371211808130E-017
 -3.010000000000000E-002    3.069849782920956E-017
 -3.000000000000000E-002    2.382763043065480E-017
 -2.990000000000000E-002    1.145036911864150E-017
 -2.980000000000000E-002   -6.527140791781209E-018
 -2.970000000000000E-002   -2.943206095796363E-017
 -2.960000000000000E-002   -5.567348651342165E-017
 -2.950000000000000E-002   -8.267766115618938E-017
 -2.940000000000000E-002   -1.069467542764915E-016
 -2.930000000000000E-002   -1.242711607729023E-016
 -2.920000000000000E-002   -1.301113548095080E-016
 -2.910000000000000E-002   -1.201449222208260E-016
 -2.900000000000000E-002   -9.094848740996170E-017
 -2.890000000000000E-002   -4.075512210897115E-017
 -2.880000000000000E-002    2.980077174479972E-017
 -2.870000000000000E-002    1.170630503871715E-016
 -2.860000000000000E-002    2.139839421582553E-016
 -2.850000000000000E-002    3.101303128402925E-016
 -2.840000000000000E-002    3.921724535872909E-016
 -2.830000000000000E-002    4.449218730002244E-016
 -2.820000000000000E-002    4.529236111095525E-016
 -2.810000000000000E-002    4.025303533996068E-016
 -2.800000000000000E-002    2.842965235568433E-016
 -2.790000000000000E-002    9.544160437537048E-017
 -2.780000000000000E-002   -1.579460390051208E-016
 -2.770000000000000E-002   -4.593429299842533E-016
 -2.760000000000000E-002   -7.812500929560524E-016
 -2.750000000000000E-002   -1.086023494305449E-015
 -2.740000000000000E-002   -1.328316556116089E-015
 -2.730000000000000E-002   -1.459213596378224E-015
 -2.720000000000000E-002   -1.431917066314782E-015
 -2.710000000000000E-002   -1.208603105567963E-015
 -2.700000000000000E-002   -7.678013595113345E-016
 -2.690000000000000E-002   -1.114261151961530E-016
 -2.680000000000000E-002    7.295801499890401E-016
 -2.670000000000000E-002    1.692089786960543E-015
 -2.660000000000000E-002    2.681147543907418E-015
 -2.650000000000000E-002    3.574633214210602E-015
 -2.640000000000000E-002    4.232632818733259E-015
 -2.630000000000000E-002    4.511379005346470E-015
 -2.620000000000000E-002    4.280981985768849E-015
 -2.610000000000000E-002    3.445495464249419E-015
 -2.600000000000000E-002    1.963221733377542E-015
 -2.590000000000000E-002   -1.353340673405360E-016
 -2.580000000000000E-002   -2.734710492709079E-015
 -2.570000000000000E-002   -5.629730549496495E-015
 -2.560000000000000E-002   -8.531084615701402E-015
 -2.550000000000000E-002   -1.108277063898251E-014
 -2.540000000000000E-002   -1.289169232637747E-014
 -2.530000000000000E-002   -1.356821610224477E-014
 -2.520000000000000E-002   -1.277484875909122E-014
 -2.510000000000000E-002   -1.027858270716560E-014
 -2.500000000000000E-002   -6.001098209282622E-015
 -2.490000000000000E-002   -6.015565605625807E-017
 -2.480000000000000E-002    7.204705196434171E-015
 -2.470000000000000E-002    1.522838564847383E-014
 -2.460000000000000E-002    2.324302541579244E-014
 -2.450000000000000E-002    3.032963597297410E-014
 -2.440000000000000E-002    3.549762875684686E-014
 -2.430000000000000E-002    3.778770118919178E-014
 -2.420000000000000E-002    3.638984466591996E-014
 -2.410000000000000E-002    3.076492363475075E-014
 -2.400000000000000E-002    2.075578431891258E-014
 -2.390000000000000E-002    6.672746931044000E-015
 -2.380000000000000E-002   -1.066117853402433E-014
 -2.370000000000000E-002   -2.991754487569711E-014
 -2.360000000000000E-002   -4.933010031922005E-014
 -2.350000000000000E-002   -6.682465361945216E-014
 -2.340000000000000E-002   -8.020591404937945E-014
 -2.330000000000000E-002   -8.738822393028127E-014
 -2.320000000000000E-002   -8.664990185368830E-014
 -2.310000000000000E-002   -7.688489322097449E-014
 -2.300000000000000E-002   -5.782159814880107E-014
 -2.290000000000000E-002   -3.017828694786498E-014
 -2.280000000000000E-002    4.272730052370321E-015
 -2.270000000000000E-002    4.275316507554615E-014
 -2.260000000000000E-002    8.164984748360756E-014
 -2.250000000000000E-002    1.168066627873836E-013
 -2.240000000000000E-002    1.439205899911208E-013
 -2.230000000000000E-002    1.590103428300735E-013
 -2.220000000000000E-002    1.589133946691425E-013
 -2.210000000000000E-002    1.417575081204596E-013
 -2.200000000000000E-002    1.073485672985695E-013
 -2.190000000000000E-002    5.741860106301318E-014
 -2.180000000000000E-002   -4.313749658127749E-015
 -2.170000000000000E-002   -7.230211558446169E-014
 -2.160000000000000E-002   -1.395616080438432E-013
 -2.150000000000000E-002   -1.982738645090566E-013
 -2.140000000000000E-002   -2.405668305563353E-013
 -2.130000000000000E-002   -2.594029229607885E-013
 -2.120000000000000E-002   -2.494884077248022E-013
 -2.110000000000000E-002   -2.081038639229990E-013
 -2.100000000000000E-002   -1.357515762597493E-013
 -2.090000000000000E-002   -3.652471360067230E-014
 -2.080000000000000E-002    8.187777422728679E-014
 -2.070000000000000E-002    2.085354241114746E-013
 -2.060000000000000E-002    3.300957479603485E-013
 -2.050000000000000E-002    4.319300939384398E-013
 -2.040000000000000E-002    4.995728611246684E-013
 -2.030000000000000E-002    5.203199774795039E-013
 -2.020000000000000E-002    4.848319024869045E-013
 -2.010000000000000E-002    3.885681411248899E-013
 -2.000000000000000E-002    2.328808147433578E-013
 -1.990000000000000E-002    2.561185309278499E-014
 -1.980000000000000E-002   -2.189237786272376E-013
 -1.970000000000000E-002   -4.806346022819947E-013
 -1.960000000000000E-002   -7.350292579371459E-013
 -1.950000000000000E-002   -9.552025388717682E-013
 -1.940000000000000E-002   -1.114290326717975E-012
 -1.930000000000000E-002   -1.188189867643089E-012
 -1.920000000000000E-002   -1.158296656304260E-012
 -1.910000000000000E-002   -1.013982275120143E-012
 -1.900000000000000E-002   -7.545397161826702E-013
 -1.890000000000000E-002   -3.903491796978792E-013
 -1.880000000000000E-002    5.692648355269315E-014
 -1.870000000000000E-002    5.552294659030189E-013
 -1.860000000000000E-002    1.064094261061065E-012
 -1.850000000000000E-002    1.537646629553315E-012
 -1.840000000000000E-002    1.928419797137218E-012
 -1.830000000000000E-002    2.191699782793331E-012
 -1.820000000000000E-002    2.290034799330616E-012
 -1.810000000000000E-002    2.197498697044698E-012
 -1.800000000000000E-002    1.903284353594873E-012
 -1.790000000000000E-002    1.414226482335914E-012
 -1.780000000000000E-002    7.559214396569658E-013
 -1.770000000000000E-002   -2.779520706239540E-014
 -1.760000000000000E-002   -8.771192846060324E-013
 -1.750000000000000E-002   -1.720259046664166E-012
 -1.740000000000000E-002   -2.478924739061089E-012
 -1.730000000000000E-002   -3.074976975808682E-012
 -1.720000000000000E-002   -3.437739475591831E-012
 -1.710000000000000E-002   -3.511378069209127E-012
 -1.700000000000000E-002   -3.261676296322025E-012
 -1.690000000000000E-002   -2.681524966429461E-012
 -1.680000000000000E-002   -1.794481607854074E-012
 -1.670000000000000E-002   -6.558606951868867E-013
 -1.660000000000000E-002    6.490265649007767E-013
 -1.650000000000000E-002    2.009650914327674E-012
 -1.640000000000000E-002    3.297967043210634E-012
 -1.630000000000000E-002    4.378679416865172E-012
 -1.620000000000000E-002    5.121414063919760E-012
 -1.610000000000000E-002    5.413888111258219E-012
 -1.600000000000000E-002    5.174951702894830E-012
 -1.590000000000000E-002    4.366239426642296E-012
 -1.580000000000000E-002    3.001131324551611E-012
 -1.570000000000000E-002    1.149803938820612E-012
 -1.560000000000000E-002   -1.060638534687340E-012
 -1.550000000000000E-002   -3.451618104566291E-012
 -1.540000000000000E-002   -5.804338252572229E-012
 -1.530000000000000E-002   -7.876501455939449E-012
 -1.520000000000000E-002   -9.423554064127891E-012
 -1.510000000000000E-002   -1.022294661242908E-011
 -1.500000000000000E-002   -1.009934992126658E-011
 -1.490000000000000E-002   -8.948398782255180E-012
 -1.480000000000000E-002   -6.756326994929193E-012
 -1.470000000000000E-002   -3.612909844723087E-012
 -1.460000000000000E-002    2.845334505545140E-013
 -1.450000000000000E-002    4.637713144173725E-012
 -1.440000000000000E-002    9.065259947286301E-012
 -1.430000000000000E-002    1.313158771638053E-011
 -1.420000000000000E-002    1.638516511127260E-011
 -1.410000000000000E-002    1.840338832604920E-011
 -1.400000000000000E-002    1.884020410620789E-011
 -1.390000000000000E-002    1.747175068577236E-011
 -1.380000000000000E-002    1.423488224046403E-011
 -1.370000000000000E-002    9.253532559205372E-012
 -1.360000000000000E-002    2.848498056619386E-012
 -1.350000000000000E-002   -4.472553418922227E-012
 -1.340000000000000E-002   -1.204630431902084E-011
 -1.330000000000000E-002   -1.910555842686334E-011
 -1.320000000000000E-002   -2.484856129803826E-011
 -1.310000000000000E-002   -2.852053645994134E-011
 -1.300000000000000E-002   -2.950012333462742E-011
 -1.290000000000000E-002   -2.738189257337744E-011
 -1.280000000000000E-002   -2.204550365330826E-011
 -1.270000000000000E-002   -1.370235171783588E-011
 -1.260000000000000E-002   -2.911898191892686E-012
 -1.250000000000000E-002    9.437689617641153E-012
 -1.240000000000000E-002    2.218669165369749E-011
 -1.230000000000000E-002    3.399696817049120E-011
 -1.220000000000000E-002    4.347508100653580E-011
 -1.210000000000000E-002    4.931542264278625E-011
 -1.200000000000000E-002    5.045001654606450E-011
 -1.190000000000000E-002    4.618943585916859E-011
 -1.180000000000000E-002    3.633853977842403E-011
 -1.170000000000000E-002    2.127166048408411E-011
 -1.160000000000000E-002    1.954747971580913E-012
 -1.150000000000000E-002   -2.009358097130583E-011
 -1.140000000000000E-002   -4.290429189435414E-011
 -1.130000000000000E-002   -6.421888419410587E-011
 -1.120000000000000E-002   -8.169765426135041E-011
 -1.110000000000000E-002   -9.315740552261925E-011
 -1.100000000000000E-002   -9.681582333801202E-011
 -1.090000000000000E-002   -9.151669287082423E-011
 -1.080000000000000E-002   -7.690987823557843E-011
 -1.070000000000000E-002   -5.356215611140523E-011
 -1.060000000000000E-002   -2.298069756575633E-011
 -1.050000000000000E-002    1.246143317726776E-011
 -1.040000000000000E-002    4.969850161845755E-011
 -1.030000000000000E-002    8.523400299709799E-011
 -1.020000000000000E-002    1.154707341577164E-010
 -1.010000000000000E-002    1.370790703213617E-010
 -1.000000000000000E-002    1.473668874241530E-010
 -9.899999999999999E-003    1.446111136210504E-010
 -9.800000000000000E-003    1.283118536530808E-010
 -9.699999999999999E-003    9.933517290523690E-011
 -9.599999999999999E-003    5.992009966587185E-011
 -9.500000000000000E-003    1.353831550135420E-011
 -9.399999999999999E-003   -3.538974904803211E-011
 -9.299999999999999E-003   -8.190271973960975E-011
 -9.200000000000000E-003   -1.209948872995911E-010
 -9.099999999999999E-003   -1.481544617025324E-010
 -8.999999999999999E-003   -1.598875724850327E-010
 -8.900000000000000E-003   -1.541697951356483E-010
 -8.799999999999999E-003   -1.307703519380743E-010
 -8.699999999999999E-003   -9.140395537133867E-011
 -8.600000000000000E-003   -3.968096150441340E-011
 -8.499999999999999E-003    1.915384896709039E-011
 -8.399999999999999E-003    7.868069195018446E-011
 -8.300000000000000E-003    1.319269390795991E-010
 -8.199999999999999E-003    1.720958975436725E-010
 -8.100000000000000E-003    1.933304953075251E-010
 -8.000000000000000E-003    1.914314134392745E-010
 -7.899999999999999E-003    1.644478845914105E-010
 -7.800000000000000E-003    1.130681774308403E-010
 -7.699999999999999E-003    4.075315535097002E-011
 -7.599999999999999E-003   -4.642011288783457E-011
 -7.499999999999999E-003   -1.402079327811772E-010
 -7.399999999999999E-003   -2.309151595749106E-010
 -7.299999999999999E-003   -3.083177250588749E-010
 -7.199999999999999E-003   -3.627081020166794E-010
 -7.100000000000000E-003   -3.859606967787363E-010
 -6.999999999999999E-003   -3.725054779231186E-010
 -6.899999999999999E-003   -3.201009184148868E-010
 -6.800000000000000E-003   -2.303114554621627E-010
 -6.699999999999999E-003   -1.086210925880724E-010
 -6.599999999999999E-003    3.585219094112946E-011
 -6.499999999999999E-003    1.910352669212250E-010
 -6.399999999999999E-003    3.429249648943570E-010
 -6.299999999999999E-003    4.768734078619967E-010
 -6.199999999999999E-003    5.790156217150440E-010
 -6.100000000000000E-003    6.376996933374972E-010
 -5.999999999999999E-003    6.447725453018373E-010
 -5.899999999999999E-003    5.965816492528177E-010
 -5.800000000000000E-003    4.945754274582216E-010
 -5.699999999999999E-003    3.454201676606655E-010
 -5.599999999999999E-003    1.605982434693291E-010
 -5.499999999999999E-003   -4.449633856696813E-011
 -5.399999999999999E-003   -2.518965659476054E-010
 -5.299999999999999E-003   -4.427187359466294E-010
 -5.199999999999999E-003   -5.989820251727206E-010
 -5.099999999999999E-003   -7.054140489254159E-010
 -4.999999999999999E-003   -7.510582884054951E-010
 -4.899999999999999E-003   -7.305126242617143E-010
 -4.799999999999999E-003   -6.446582097820998E-010
 -4.699999999999999E-003   -5.007851461951521E-010
 -4.599999999999999E-003   -3.120783872438319E-010
 -4.499999999999999E-003   -9.649195543109219E-011
 -4.399999999999999E-003    1.248976763761329E-010
 -4.299999999999999E-003    3.299118441991673E-010
 -4.199999999999999E-003    4.974727946773256E-010
 -4.099999999999999E-003    6.097729543901548E-010
 -3.999999999999999E-003    6.541910504675395E-010
 -3.899999999999999E-003    6.247505800627425E-010
 -3.799999999999999E-003    5.229584725681144E-010
 -3.699999999999999E-003    3.579162267589679E-010
 -3.599999999999999E-003    1.456669099764651E-010
 -3.499999999999999E-003   -9.218345134596069E-011
 -3.399999999999999E-003   -3.304576154448958E-010
 -3.299999999999999E-003   -5.428325508463054E-010
 -3.199999999999999E-003   -7.044723176557864E-010
 -3.099999999999999E-003   -7.946095792003421E-010
 -2.999999999999999E-003   -7.988183502283690E-010
 -2.899999999999999E-003   -7.107367784704262E-010
 -2.799999999999999E-003   -5.330516342680373E-010
 -2.699999999999999E-003   -2.776176572581484E-010
 -2.599999999999999E-003    3.532895389648894E-011
 -2.499999999999999E-003    3.788189589094421E-010
 -2.399999999999999E-003    7.215260402524440E-010
 -2.299999999999999E-003    1.030661153974551E-009
 -2.199999999999999E-003    1.275118198315239E-009
 -2.099999999999999E-003    1.428567576743841E-009
 -1.999999999999999E-003    1.472190586896657E-009
 -1.899999999999999E-003    1.396771701044771E-009
 -1.799999999999999E-003    1.203918717619565E-009
 -1.699999999999999E-003    9.062583834088848E-010
 -1.599999999999999E-003    5.265510985094197E-010
 -1.499999999999999E-003    9.577259588066662E-011
 -1.399999999999999E-003   -3.496865874541276E-010
 -1.299999999999999E-003   -7.714576241714130E-010
 -1.199999999999999E-003   -1.132949564790727E-009
 -1.099999999999999E-003   -1.403063257839046E-009
 -9.999999999999989E-004   -1.559488152568979E-009
 -8.999999999999990E-004   -1.591233655242073E-009
 -7.999999999999990E-004   -1.500107912780943E-009
 -6.999999999999989E-004   -1.300943286426069E-009
 -5.999999999999990E-004   -1.020486468304314E-009
 -4.999999999999989E-004   -6.949962233097084E-010
 -3.999999999999989E-004   -3.667224330753880E-010
 -2.999999999999989E-004   -7.955989701925722E-011
 -1.999999999999989E-004    1.257343277070447E-010
 -9.999999999999892E-005    2.163052872569707E-010
  1.084202172485504E-018    1.714685880308618E-010
  1.000000000000011E-004   -1.397326398213901E-011
  2.000000000000011E-004   -3.277566498152393E-010
  3.000000000000011E-004   -7.398097855222203E-010
  4.000000000000011E-004   -1.203674035854302E-009
  5.000000000000011E-004   -1.659676635151764E-009
  6.000000000000011E-004   -2.039667927291430E-009
  7.000000000000011E-004   -2.272977531367701E-009
  8.000000000000011E-004   -2.293109975591394E-009
  9.000000000000012E-004   -2.044598187915531E-009
  1.000000000000001E-003   -1.489396298984547E-009
  1.100000000000001E-003   -6.121900788326761E-010
  1.200000000000001E-003    5.759164967554908E-010
  1.300000000000001E-003    2.035768000937520E-009
  1.400000000000001E-003    3.700828498470518E-009
  1.500000000000001E-003    5.480218848590236E-009
  1.600000000000001E-003    7.263960916055250E-009
  1.700000000000001E-003    8.930064870047314E-009
  1.800000000000001E-003    1.035291887258674E-008
  1.900000000000001E-003    1.141230061137109E-008
  2.000000000000001E-003    1.200225785820244E-008
  2.100000000000001E-003    1.203910236125252E-008
  2.200000000000001E-003    1.146782842372175E-008
  2.300000000000001E-003    1.026641103598854E-008
  2.400000000000001E-003    8.447626336684273E-009
  2.500000000000001E-003    6.058291917499891E-009
  2.600000000000001E-003    3.176062977681255E-009
  2.700000000000001E-003   -9.581435807238828E-011
  2.800000000000001E-003   -3.635180141461007E-009
  2.900000000000001E-003   -7.308289339125122E-009
  3.000000000000001E-003   -1.097693376806338E-008
  3.100000000000001E-003   -1.450448252452628E-008
  3.200000000000001E-003   -1.776007351538540E-008
  3.300000000000001E-003   -2.062035202441045E-008
  3.400000000000001E-003   -2.296839938145570E-008
  3.500000000000001E-003   -2.468979132366654E-008
  3.600000000000001E-003   -2.566602120656722E-008
  3.700000000000001E-003   -2.576586271781178E-008
  3.800000000000001E-003   -2.483544317421226E-008
  3.900000000000001E-003   -2.268803775848568E-008
  4.000000000000001E-003   -1.909465841110167E-008
  4.100000000000001E-003   -1.377647132210970E-008
  4.200000000000001E-003   -6.399982219486248E-009
  4.300000000000001E-003    3.424289899667135E-009
  4.400000000000001E-003    1.613935591901744E-008
  4.500000000000001E-003    3.223540175748190E-008
  4.600000000000002E-003    5.224005969071764E-008
  4.700000000000001E-003    7.670582558349388E-008
  4.800000000000001E-003    1.061959971405103E-007
  4.900000000000002E-003    1.412700726186990E-007
  5.000000000000001E-003    1.824701908455376E-007
  5.100000000000001E-003    2.303099648967524E-007
  5.200000000000001E-003    2.852665415265478E-007
  5.300000000000002E-003    3.477772322659075E-007
  5.400000000000001E-003    4.182410298129313E-007
  5.500000000000001E-003    4.970246305222343E-007
  5.600000000000002E-003    5.844734260360376E-007
  5.700000000000001E-003    6.809257865749235E-007
  5.800000000000001E-003    7.867296755370934E-007
  5.900000000000002E-003    9.022608806931854E-007
  6.000000000000001E-003    1.027939734775898E-006
  6.100000000000001E-003    1.164246589045278E-006
  6.200000000000002E-003    1.311733470793334E-006
  6.300000000000002E-003    1.471031322439188E-006
  6.400000000000001E-003    1.642852503976023E-006
  6.500000000000001E-003    1.827988180894560E-006
  6.600000000000002E-003    2.027301146324501E-006
  6.700000000000001E-003    2.241715094377238E-006
  6.800000000000001E-003    2.472201035754219E-006
  6.900000000000002E-003    2.719764394320489E-006
  7.000000000000001E-003    2.985430921829476E-006
  7.100000000000001E-003    3.270237199074544E-006
  7.200000000000002E-003    3.575223421867176E-006
  7.300000000000002E-003    3.901432660905960E-006
  7.400000000000001E-003    4.249914370791424E-006
  7.500000000000001E-003    4.621734461090345E-006
  7.600000000000002E-003    5.017989326187657E-006
  7.700000000000001E-003    5.439825824175592E-006
  7.800000000000001E-003    5.888461355555439E-006
  7.900000000000001E-003    6.365207071728823E-006
  8.000000000000002E-003    6.871488472586866E-006
  8.100000000000001E-003    7.408865714108392E-006
  8.200000000000001E-003    7.979045383031418E-006
  8.300000000000002E-003    8.583892609141695E-006
  8.400000000000001E-003    9.225433499057449E-006
  8.500000000000002E-003    9.905853406352570E-006
  8.600000000000002E-003    1.062748844596975E-005
  8.700000000000001E-003    1.139281590277322E-005
  8.800000000000002E-003    1.220443970067024E-005
  8.900000000000002E-003    1.306507573851474E-005
  9.000000000000001E-003    1.397753884301071E-005
  9.100000000000002E-003    1.494473415070085E-005
  9.200000000000002E-003    1.596964913546443E-005
  9.300000000000001E-003    1.705535899970380E-005
  9.400000000000002E-003    1.820503325810326E-005
  9.500000000000001E-003    1.942194965942209E-005
  9.600000000000001E-003    2.070952186206221E-005
  9.700000000000002E-003    2.207131802680192E-005
  9.800000000000001E-003    2.351110178025817E-005
  9.900000000000001E-003    2.503285464686700E-005
  1.000000000000000E-002    2.664081981062751E-005
  1.010000000000000E-002    2.833952219461337E-005
  1.020000000000000E-002    3.013380000559085E-005
  1.030000000000000E-002    3.202882217191283E-005
  1.040000000000000E-002    3.403009795874473E-005
  1.050000000000000E-002    3.614348896438056E-005
  1.060000000000000E-002    3.837520296176241E-005
  1.070000000000000E-002    4.073178646219347E-005
  1.080000000000000E-002    4.322011550010938E-005
  1.090000000000000E-002    4.584738647216835E-005
  1.100000000000000E-002    4.862109350797343E-005
  1.110000000000000E-002    5.154902655641021E-005
  1.120000000000000E-002    5.463926075362323E-005
  1.130000000000000E-002    5.790016492674861E-005
  1.140000000000000E-002    6.134040241547493E-005
  1.150000000000000E-002    6.496895606294763E-005
  1.160000000000000E-002    6.879514344747210E-005
  1.170000000000000E-002    7.282867031208675E-005
  1.180000000000000E-002    7.707965742568680E-005
  1.190000000000000E-002    8.155868753652371E-005
  1.200000000000000E-002    8.627685940680864E-005
  1.210000000000000E-002    9.124580201353147E-005
  1.220000000000000E-002    9.647776814191367E-005
  1.230000000000000E-002    1.019856355770276E-004
  1.240000000000000E-002    1.077829437603186E-004
  1.250000000000000E-002    1.138839223636186E-004
  1.260000000000000E-002    1.203034847725901E-004
  1.270000000000000E-002    1.270572687362664E-004
  1.280000000000000E-002    1.341616154481749E-004
  1.290000000000000E-002    1.416335923926007E-004
  1.300000000000000E-002    1.494909611852692E-004
  1.310000000000000E-002    1.577521942902924E-004
  1.320000000000000E-002    1.664364822469798E-004
  1.330000000000000E-002    1.755637408355664E-004
  1.340000000000000E-002    1.851546039954461E-004
  1.350000000000000E-002    1.952305211320976E-004
  1.360000000000000E-002    2.058137335592392E-004
  1.370000000000000E-002    2.169273690535836E-004
  1.380000000000000E-002    2.285954166812404E-004
  1.390000000000000E-002    2.408428857120085E-004
  1.400000000000000E-002    2.536958096940560E-004
  1.410000000000000E-002    2.671813174646788E-004
  1.420000000000000E-002    2.813276633201760E-004
  1.430000000000000E-002    2.961643383055746E-004
  1.440000000000000E-002    3.117220659538784E-004
  1.450000000000000E-002    3.280328292220550E-004
  1.460000000000000E-002    3.451299266068627E-004
  1.470000000000000E-002    3.630479665298903E-004
  1.480000000000000E-002    3.818228941902378E-004
  1.490000000000000E-002    4.014919399894116E-004
  1.500000000000000E-002    4.220936897632009E-004
  1.510000000000000E-002    4.436681165999820E-004
  1.520000000000000E-002    4.662564848927023E-004
  1.530000000000000E-002    4.899014801414841E-004
  1.540000000000000E-002    5.146471820353835E-004
  1.550000000000000E-002    5.405391554705692E-004
  1.560000000000000E-002    5.676244275753249E-004
  1.570000000000000E-002    5.959516825559841E-004
  1.580000000000000E-002    6.255712004835187E-004
  1.590000000000000E-002    6.565350294142995E-004
  1.600000000000000E-002    6.888970350943923E-004
  1.610000000000000E-002    7.227130356870159E-004
  1.620000000000000E-002    7.580406916269850E-004
  1.630000000000000E-002    7.949398776705626E-004
  1.640000000000000E-002    8.334724799840725E-004
  1.650000000000000E-002    8.737025215710028E-004
  1.660000000000000E-002    9.156962227446267E-004
  1.670000000000000E-002    9.595220245943343E-004
  1.680000000000000E-002    1.005250630325427E-003
  1.690000000000000E-002    1.052954855996557E-003
  1.700000000000000E-002    1.102709913192981E-003
  1.710000000000000E-002    1.154593180962400E-003
  1.720000000000000E-002    1.208684253456089E-003
  1.730000000000000E-002    1.265065171690624E-003
  1.740000000000000E-002    1.323820113306613E-003
  1.750000000000000E-002    1.385035725356240E-003
  1.760000000000000E-002    1.448801023626709E-003
  1.770000000000000E-002    1.515207580781961E-003
  1.780000000000000E-002    1.584349492751837E-003
  1.790000000000000E-002    1.656323453511005E-003
  1.800000000000000E-002    1.731228878262196E-003
  1.810000000000000E-002    1.809167842185578E-003
  1.820000000000000E-002    1.890245103510948E-003
  1.830000000000000E-002    1.974568662025263E-003
  1.840000000000000E-002    2.062249279286710E-003
  1.850000000000000E-002    2.153400609461815E-003
  1.860000000000000E-002    2.248139202270626E-003
  1.870000000000000E-002    2.346584808769885E-003