 -4.000000000000000E-002    0.000000000000000E+000
 -3.990000000000000E-002    0.000000000000000E+000
 -3.980000000000000E-002    0.000000000000000E+000
 -3.970000000000000E-002    0.000000000000000E+000
 -3.960000000000000E-002    0.000000000000000E+000
 -3.950000000000000E-002    0.000000000000000E+000
 -3.940000000000000E-002    0.000000000000000E+000
 -3.930000000000000E-002    0.000000000000000E+000
 -3.920000000000000E-002    0.000000000000000E+000
 -3.910000000000000E-002    0.000000000000000E+000
 -3.900000000000000E-002    0.000000000000000E+000
 -3.890000000000000E-002    0.000000000000000E+000
 -3.880000000000000E-002    0.000000000000000E+000
 -3.870000000000000E-002    0.000000000000000E+000
 -3.860000000000000E-002    0.000000000000000E+000
 -3.850000000000000E-002    0.000000000000000E+000
 -3.840000000000000E-002    0.000000000000000E+000
 -3.830000000000000E-002    0.000000000000000E+000
 -3.820000000000000E-002    0.000000000000000E+000
 -3.810000000000000E-002    0.000000000000000E+000
 -3.800000000000000E-002    0.000000000000000E+000
 -3.790000000000000E-002    0.000000000000000E+000
 -3.780000000000000E-002    0.000000000000000E+000
 -3.770000000000000E-002    0.000000000000000E+000
 -3.760000000000000E-002    0.000000000000000E+000
 -3.750000000000000E-002    0.000000000000000E+000
 -3.740000000000000E-002    0.000000000000000E+000
 -3.730000000000000E-002    0.000000000000000E+000
 -3.720000000000000E-002    0.000000000000000E+000
 -3.710000000000000E-002    0.000000000000000E+000
 -3.700000000000000E-002    0.000000000000000E+000
 -3.690000000000000E-002    0.000000000000000E+000
 -3.680000000000000E-002    0.000000000000000E+000
 -3.670000000000000E-002    0.000000000000000E+000
 -3.660000000000000E-002    0.000000000000000E+000
 -3.650000000000000E-002    0.000000000000000E+000
 -3.640000000000000E-002    0.000000000000000E+000
 -3.630000000000000E-002    0.000000000000000E+000
 -3.620000000000000E-002    0.000000000000000E+000
 -3.610000000000000E-002    0.000000000000000E+000
 -3.600000000000000E-002    0.000000000000000E+000
 -3.590000000000000E-002    0.000000000000000E+000
 -3.580000000000000E-002    0.000000000000000E+000
 -3.570000000000000E-002    0.000000000000000E+000
 -3.560000000000000E-002    0.000000000000000E+000
 -3.550000000000000E-002    0.000000000000000E+000
 -3.540000000000000E-002    0.000000000000000E+000
 -3.530000000000000E-002    0.000000000000000E+000
 -3.520000000000000E-002    0.000000000000000E+000
 -3.510000000000000E-002    0.000000000000000E+000
 -3.500000000000000E-002    0.000000000000000E+000
 -3.490000000000000E-002    0.000000000000000E+000
 -3.480000000000000E-002    0.000000000000000E+000
 -3.470000000000000E-002    0.000000000000000E+000
 -3.460000000000000E-002    0.000000000000000E+000
 -3.450000000000000E-002    0.000000000000000E+000
 -3.440000000000000E-002    0.000000000000000E+000
 -3.430000000000000E-002    0.000000000000000E+000
 -3.420000000000000E-002    0.000000000000000E+000
 -3.410000000000000E-002    0.000000000000000E+000
 -3.400000000000000E-002    0.000000000000000E+000
 -3.390000000000000E-002    0.000000000000000E+000
 -3.380000000000000E-002    0.000000000000000E+000
 -3.370000000000000E-002    0.000000000000000E+000
 -3.360000000000000E-002    0.000000000000000E+000
 -3.350000000000000E-002    0.000000000000000E+000
 -3.340000000000000E-002    0.000000000000000E+000
 -3.330000000000000E-002    0.000000000000000E+000
 -3.320000000000000E-002    0.000000000000000E+000
 -3.310000000000000E-002    0.000000000000000E+000
 -3.300000000000000E-002    0.000000000000000E+000
 -3.290000000000000E-002    0.000000000000000E+000
 -3.280000000000000E-002    0.000000000000000E+000
 -3.270000000000000E-002    0.000000000000000E+000
 -3.260000000000000E-002    0.000000000000000E+000
 -3.250000000000000E-002    0.000000000000000E+000
 -3.240000000000000E-002    0.000000000000000E+000
 -3.230000000000000E-002    0.000000000000000E+000
 -3.220000000000000E-002    0.000000000000000E+000
 -3.210000000000000E-002    0.000000000000000E+000
 -3.200000000000000E-002    0.000000000000000E+000
 -3.190000000000000E-002    0.000000000000000E+000
 -3.180000000000000E-002    0.000000000000000E+000
 -3.170000000000000E-002    0.000000000000000E+000
 -3.160000000000000E-002    0.000000000000000E+000
 -3.150000000000000E-002    0.000000000000000E+000
 -3.140000000000000E-002    0.000000000000000E+000
 -3.130000000000000E-002    0.000000000000000E+000
 -3.120000000000000E-002    0.000000000000000E+000
 -3.110000000000000E-002    0.000000000000000E+000
 -3.100000000000000E-002    0.000000000000000E+000
 -3.090000000000000E-002    0.000000000000000E+000
 -3.080000000000000E-002    0.000000000000000E+000
 -3.070000000000000E-002    0.000000000000000E+000
 -3.060000000000000E-002    0.000000000000000E+000
 -3.050000000000000E-002    0.000000000000000E+000
 -3.040000000000000E-002    0.000000000000000E+000
 -3.030000000000000E-002    0.000000000000000E+000
 -3.020000000000000E-002    0.000000000000000E+000
 -3.010000000000000E-002    0.000000000000000E+000
 -3.000000000000000E-002    0.000000000000000E+000
 -2.990000000000000E-002    0.000000000000000E+000
 -2.980000000000000E-002    0.000000000000000E+000
 -2.970000000000000E-002    0.000000000000000E+000
 -2.960000000000000E-002    0.000000000000000E+000
 -2.950000000000000E-002    0.000000000000000E+000
 -2.940000000000000E-002    0.000000000000000E+000
 -2.930000000000000E-002    0.000000000000000E+000
 -2.920000000000000E-002    0.000000000000000E+000
 -2.910000000000000E-002    0.000000000000000E+000
 -2.900000000000000E-002    0.000000000000000E+000
 -2.890000000000000E-002    0.000000000000000E+000
 -2.880000000000000E-002    0.000000000000000E+000
 -2.870000000000000E-002    0.000000000000000E+000
 -2.860000000000000E-002    0.000000000000000E+000
 -2.850000000000000E-002    0.000000000000000E+000
 -2.840000000000000E-002    0.000000000000000E+000
 -2.830000000000000E-002    0.000000000000000E+000
 -2.820000000000000E-002    0.000000000000000E+000
 -2.810000000000000E-002    0.000000000000000E+000
 -2.800000000000000E-002    0.000000000000000E+000
 -2.790000000000000E-002    0.000000000000000E+000
 -2.780000000000000E-002    0.000000000000000E+000
 -2.770000000000000E-002    0.000000000000000E+000
 -2.760000000000000E-002    0.000000000000000E+000
 -2.750000000000000E-002    0.000000000000000E+000
 -2.740000000000000E-002    0.000000000000000E+000
 -2.730000000000000E-002    0.000000000000000E+000
 -2.720000000000000E-002    0.000000000000000E+000
 -2.710000000000000E-002    0.000000000000000E+000
 -2.700000000000000E-002    0.000000000000000E+000
 -2.690000000000000E-002    0.000000000000000E+000
 -2.680000000000000E-002    0.000000000000000E+000
 -2.670000000000000E-002    0.000000000000000E+000
 -2.660000000000000E-002    0.000000000000000E+000
 -2.650000000000000E-002    0.000000000000000E+000
 -2.640000000000000E-002    0.000000000000000E+000
 -2.630000000000000E-002    0.000000000000000E+000
 -2.620000000000000E-002    0.000000000000000E+000
 -2.610000000000000E-002    0.000000000000000E+000
 -2.600000000000000E-002    0.000000000000000E+000
 -2.590000000000000E-002    0.000000000000000E+000
 -2.580000000000000E-002    0.000000000000000E+000
 -2.570000000000000E-002    0.000000000000000E+000
 -2.560000000000000E-002    0.000000000000000E+000
 -2.550000000000000E-002    0.000000000000000E+000
 -2.540000000000000E-002    0.000000000000000E+000
 -2.530000000000000E-002    0.000000000000000E+000
 -2.520000000000000E-002    0.000000000000000E+000
 -2.510000000000000E-002    0.000000000000000E+000
 -2.500000000000000E-002    0.000000000000000E+000
 -2.490000000000000E-002    0.000000000000000E+000
 -2.480000000000000E-002    0.000000000000000E+000
 -2.470000000000000E-002    0.000000000000000E+000
 -2.460000000000000E-002    0.000000000000000E+000
 -2.450000000000000E-002    0.000000000000000E+000
 -2.440000000000000E-002    0.000000000000000E+000
 -2.430000000000000E-002    0.000000000000000E+000
 -2.420000000000000E-002    0.000000000000000E+000
 -2.410000000000000E-002    0.000000000000000E+000
 -2.400000000000000E-002    0.000000000000000E+000
 -2.390000000000000E-002    0.000000000000000E+000
 -2.380000000000000E-002    0.000000000000000E+000
 -2.370000000000000E-002    0.000000000000000E+000
 -2.360000000000000E-002    0.000000000000000E+000
 -2.350000000000000E-002    0.000000000000000E+000
 -2.340000000000000E-002    0.000000000000000E+000
 -2.330000000000000E-002    0.000000000000000E+000
 -2.320000000000000E-002    0.000000000000000E+000
 -2.310000000000000E-002    0.000000000000000E+000
 -2.300000000000000E-002    0.000000000000000E+000
 -2.290000000000000E-002    0.000000000000000E+000
 -2.280000000000000E-002    0.000000000000000E+000
 -2.270000000000000E-002    0.000000000000000E+000
 -2.260000000000000E-002    0.000000000000000E+000
 -2.250000000000000E-002    0.000000000000000E+000
 -2.240000000000000E-002    0.000000000000000E+000
 -2.230000000000000E-002    0.000000000000000E+000
 -2.220000000000000E-002    0.000000000000000E+000
 -2.210000000000000E-002    0.000000000000000E+000
 -2.200000000000000E-002    0.000000000000000E+000
 -2.190000000000000E-002    0.000000000000000E+000
 -2.180000000000000E-002    0.000000000000000E+000
 -2.170000000000000E-002    0.000000000000000E+000
 -2.160000000000000E-002    0.000000000000000E+000
 -2.150000000000000E-002    0.000000000000000E+000
 -2.140000000000000E-002    0.000000000000000E+000
 -2.130000000000000E-002    0.000000000000000E+000
 -2.120000000000000E-002    0.000000000000000E+000
 -2.110000000000000E-002    0.000000000000000E+000
 -2.100000000000000E-002    0.000000000000000E+000
 -2.090000000000000E-002    0.000000000000000E+000
 -2.080000000000000E-002    0.000000000000000E+000
 -2.070000000000000E-002    0.000000000000000E+000
 -2.060000000000000E-002    0.000000000000000E+000
 -2.050000000000000E-002    0.000000000000000E+000
 -2.040000000000000E-002    0.000000000000000E+000
 -2.030000000000000E-002    0.000000000000000E+000
 -2.020000000000000E-002    0.000000000000000E+000
 -2.010000000000000E-002    0.000000000000000E+000
 -2.000000000000000E-002    0.000000000000000E+000
 -1.990000000000000E-002    0.000000000000000E+000
 -1.980000000000000E-002    0.000000000000000E+000
 -1.970000000000000E-002    0.000000000000000E+000
 -1.960000000000000E-002    0.000000000000000E+000
 -1.950000000000000E-002    0.000000000000000E+000
 -1.940000000000000E-002    0.000000000000000E+000
 -1.930000000000000E-002    0.000000000000000E+000
 -1.920000000000000E-002    0.000000000000000E+000
 -1.910000000000000E-002    0.000000000000000E+000
 -1.900000000000000E-002    0.000000000000000E+000
 -1.890000000000000E-002    0.000000000000000E+000
 -1.880000000000000E-002    0.000000000000000E+000
 -1.870000000000000E-002    0.000000000000000E+000
 -1.860000000000000E-002    0.000000000000000E+000
 -1.850000000000000E-002    0.000000000000000E+000
 -1.840000000000000E-002    0.000000000000000E+000
 -1.830000000000000E-002    0.000000000000000E+000
 -1.820000000000000E-002    0.000000000000000E+000
 -1.810000000000000E-002    0.000000000000000E+000
 -1.800000000000000E-002    0.000000000000000E+000
 -1.790000000000000E-002    0.000000000000000E+000
 -1.780000000000000E-002    0.000000000000000E+000
 -1.770000000000000E-002    0.000000000000000E+000
 -1.760000000000000E-002    0.000000000000000E+000
 -1.750000000000000E-002    0.000000000000000E+000
 -1.740000000000000E-002    0.000000000000000E+000
 -1.730000000000000E-002    0.000000000000000E+000
 -1.720000000000000E-002    0.000000000000000E+000
 -1.710000000000000E-002    0.000000000000000E+000
 -1.700000000000000E-002    0.000000000000000E+000
 -1.690000000000000E-002    0.000000000000000E+000
 -1.680000000000000E-002    0.000000000000000E+000
 -1.670000000000000E-002    0.000000000000000E+000
 -1.660000000000000E-002    0.000000000000000E+000
 -1.650000000000000E-002    0.000000000000000E+000
 -1.640000000000000E-002    0.000000000000000E+000
 -1.630000000000000E-002    0.000000000000000E+000
 -1.620000000000000E-002    0.000000000000000E+000
 -1.610000000000000E-002   -4.131159200739039E-047
 -1.600000000000000E-002   -8.741907038204505E-047
 -1.590000000000000E-002   -1.335265487566997E-046
 -1.580000000000000E-002   -1.844299134986186E-046
 -1.570000000000000E-002   -2.521881052907706E-046
 -1.560000000000000E-002   -2.934996972981610E-046
 -1.550000000000000E-002   -3.285489055928074E-046
 -1.540000000000000E-002   -2.778140047398928E-046
 -1.530000000000000E-002   -1.645196878532664E-046
 -1.520000000000000E-002    8.695777372801105E-047
 -1.510000000000000E-002    5.231961975893423E-046
 -1.500000000000000E-002    1.080038893537546E-045
 -1.490000000000000E-002    1.773990443775159E-045
 -1.480000000000000E-002    2.400098261464096E-045
 -1.470000000000000E-002    3.006855700409544E-045
 -1.460000000000000E-002    3.339151289158611E-045
 -1.450000000000000E-002    3.354399048040160E-045
 -1.440000000000000E-002    2.581943796424083E-045
 -1.430000000000000E-002    1.112428982636787E-045
 -1.420000000000000E-002   -1.334763440847693E-045
 -1.410000000000000E-002   -5.039997641861798E-045
 -1.400000000000000E-002   -9.767592722134237E-045
 -1.390000000000000E-002   -1.531282603920068E-044
 -1.380000000000000E-002   -2.106517070961564E-044
 -1.370000000000000E-002   -2.618360033854513E-044
 -1.360000000000000E-002   -3.013707581022686E-044
 -1.350000000000000E-002   -3.082973116841158E-044
 -1.340000000000000E-002   -2.651412805662771E-044
 -1.330000000000000E-002   -1.545944932904128E-044
 -1.320000000000000E-002    3.541343114482958E-045
 -1.310000000000000E-002    3.172556884981083E-044
 -1.300000000000000E-002    6.819419768435145E-044
 -1.290000000000000E-002    1.111419694455608E-043
 -1.280000000000000E-002    1.556270958257225E-043
 -1.270000000000000E-002    1.962135111842076E-043
 -1.260000000000000E-002    2.251668384061951E-043
 -1.250000000000000E-002    2.294743635642276E-043
 -1.240000000000000E-002    1.978319955753206E-043
 -1.230000000000000E-002    1.186635661520948E-043
 -1.220000000000000E-002   -1.866606895602787E-044
 -1.210000000000000E-002   -2.191646792225611E-043
 -1.200000000000000E-002   -4.779799108466591E-043
 -1.190000000000000E-002   -7.808404400110887E-043
 -1.180000000000000E-002   -1.097970830212227E-042
 -1.170000000000000E-002   -1.381669740243692E-042
 -1.160000000000000E-002   -1.570620682048631E-042
 -1.150000000000000E-002   -1.588976786911588E-042
 -1.140000000000000E-002   -1.355303962971044E-042
 -1.130000000000000E-002   -7.895990667444206E-043
 -1.120000000000000E-002    1.668312473266909E-043
 -1.110000000000000E-002    1.535434087127693E-042
 -1.100000000000000E-002    3.280122249117451E-042
 -1.090000000000000E-002    5.284773623955778E-042
 -1.080000000000000E-002    7.339244334848163E-042
 -1.070000000000000E-002    9.128377715586976E-042
 -1.060000000000000E-002    1.023846951448480E-041
 -1.050000000000000E-002    1.018208801894430E-041
 -1.040000000000000E-002    8.442450587084126E-042
 -1.030000000000000E-002    4.550533191686914E-042
 -1.020000000000000E-002   -1.821845883481562E-042
 -1.010000000000000E-002   -1.074174052683094E-041
 -1.000000000000000E-002   -2.189033153940187E-041
 -9.899999999999999E-003   -3.444337968630198E-041
 -9.800000000000000E-003   -4.698641897303255E-041
 -9.699999999999999E-003   -5.748215013661924E-041
 -9.599999999999999E-003   -6.333292085113889E-041
 -9.500000000000000E-003   -6.155925022986301E-041
 -9.399999999999999E-003   -4.911624000213207E-041
 -9.299999999999999E-003   -2.335967050130522E-041
 -9.200000000000000E-003    1.735542167135641E-041
 -9.099999999999999E-003    7.297645163834345E-041
 -8.999999999999999E-003    1.410360514752739E-040
 -8.900000000000000E-003    2.160147969480671E-040
 -8.799999999999999E-003    2.889230344376721E-040
 -8.699999999999999E-003    3.472700814481230E-040
 -8.600000000000000E-003    3.755742779157264E-040
 -8.499999999999999E-003    3.565699553401499E-040
 -8.399999999999999E-003    2.732039699490682E-040
 -8.300000000000000E-003    1.114286612406355E-040
 -8.199999999999999E-003   -1.363145619065474E-040
 -8.100000000000000E-003   -4.672023247865566E-040
 -8.000000000000000E-003   -8.641627955819156E-040
 -7.899999999999999E-003   -1.292671069691433E-039
 -7.800000000000000E-003   -1.698977581565670E-039
 -7.699999999999999E-003   -2.010628375207721E-039
 -7.599999999999999E-003   -2.140134788892298E-039
 -7.499999999999999E-003   -1.992477401034640E-039
 -7.399999999999999E-003   -1.476816285390186E-039
 -7.299999999999999E-003   -5.222754888465433E-040
 -7.199999999999999E-003    9.030475708081688E-040
 -7.100000000000000E-003    2.771508562837801E-039
 -6.999999999999999E-003    4.976355411745266E-039
 -6.899999999999999E-003    7.316599546620442E-039
 -6.800000000000000E-003    9.490409537384849E-039
 -6.699999999999999E-003    1.110137575941228E-038
 -6.599999999999999E-003    1.168170363622318E-038
 -6.499999999999999E-003    1.073536355882780E-038
 -6.399999999999999E-003    7.802321714404542E-039
 -6.299999999999999E-003    2.542164977392499E-039
 -6.199999999999999E-003   -5.168150494589494E-039
 -6.100000000000000E-003   -1.513190053705774E-038
 -5.999999999999999E-003   -2.673928280658937E-038
 -5.899999999999999E-003   -3.890075272455152E-038
 -5.800000000000000E-003   -5.002715272693423E-038
 -5.699999999999999E-003   -5.807719859633379E-038
 -5.599999999999999E-003   -6.069044219026990E-038
 -5.499999999999999E-003   -5.541764030154185E-038
 -5.399999999999999E-003   -4.005024288112017E-038
 -5.299999999999999E-003   -1.303647008181536E-038
 -5.199999999999999E-003    2.604613477078865E-038
 -5.099999999999999E-003    7.601120840443236E-038
 -4.999999999999999E-003    1.336457401512355E-037
 -4.899999999999999E-003    1.934382330942376E-037
 -4.799999999999999E-003    2.475457857194196E-037
 -4.699999999999999E-003    2.860911314435852E-037
 -4.599999999999999E-003    2.978643257739178E-037
 -4.499999999999999E-003    2.714704436438803E-037
 -4.399999999999999E-003    1.969138578300155E-037
 -4.299999999999999E-003    6.754158808194300E-038
 -4.199999999999999E-003   -1.178114333548909E-037
 -4.099999999999999E-003   -3.527172157210506E-037
 -3.999999999999999E-003   -6.214101587387891E-037
 -3.899999999999999E-003   -8.977823603024859E-037
 -3.799999999999999E-003   -1.145520453130942E-036
 -3.699999999999999E-003   -1.319758471310745E-036
 -3.599999999999999E-003   -1.370527946939955E-036
 -3.499999999999999E-003   -1.248121262645711E-036
 -3.399999999999999E-003   -9.102469180792029E-037
 -3.299999999999999E-003   -3.305519529455082E-037
 -3.199999999999999E-003    4.922514662610202E-037
 -3.099999999999999E-003    1.525764183367610E-036
 -2.999999999999999E-003    2.697188134401254E-036
 -2.899999999999999E-003    3.890124082343872E-036
 -2.799999999999999E-003    4.946498557575915E-036
 -2.699999999999999E-003    5.675044129906590E-036
 -2.599999999999999E-003    5.867269468732273E-036
 -2.499999999999999E-003    5.321100926061243E-036
 -2.399999999999999E-003    3.871320518500052E-036
 -2.299999999999999E-003    1.424675620766569E-036
 -2.199999999999999E-003   -2.003833266028606E-036
 -2.099999999999999E-003   -6.258262576697226E-036
 -1.999999999999999E-003   -1.101844974612051E-035
 -1.899999999999999E-003   -1.579245967450346E-035
 -1.799999999999999E-003   -1.993084789209888E-035
 -1.699999999999999E-003   -2.266762561278742E-035
 -1.599999999999999E-003   -2.319056876846493E-035
 -1.499999999999999E-003   -2.074013233002178E-035
 -1.399999999999999E-003   -1.473190164681967E-035
 -1.299999999999999E-003   -4.892570088613590E-036
 -1.199999999999999E-003    8.605630803282493E-036
 -1.099999999999999E-003    2.503164655914547E-035
 -9.999999999999989E-004    4.302609091812626E-035
 -8.999999999999990E-004    6.059892844394578E-035
 -7.999999999999990E-004    7.521542530087103E-035
 -6.999999999999989E-004    8.398525566900895E-035
 -5.999999999999990E-004    8.395959920238812E-035
 -4.999999999999989E-004    7.252695357921330E-035
 -3.999999999999989E-004    4.788145723534794E-035
 -2.999999999999989E-004    9.519157575596298E-036
 -1.999999999999989E-004   -4.130011246904057E-035
 -9.999999999999892E-005   -1.012015709610789E-034
  1.084202172485504E-018   -1.645387684850544E-034
  1.000000000000011E-004   -2.235126823920085E-034
  2.000000000000011E-004   -2.686330767261927E-034
  3.000000000000011E-004   -2.895595404178751E-034
  4.000000000000011E-004   -2.763164962521827E-034
  5.000000000000011E-004   -2.208207243089242E-034
  6.000000000000011E-004   -1.185967227603233E-034
  7.000000000000011E-004    2.950993313037416E-035
  8.000000000000011E-004    2.158682785794079E-034
  9.000000000000012E-004    4.251318160189606E-034
  1.000000000000001E-003    6.341383367781964E-034
  1.100000000000001E-003    8.129036327457954E-034
  1.200000000000001E-003    9.268965903358877E-034
  1.300000000000001E-003    9.406539564536537E-034
  1.400000000000001E-003    8.226181715423244E-034
  1.500000000000001E-003    5.508698563586338E-034
  1.600000000000001E-003    1.191987016937826E-034
  1.700000000000001E-003   -4.572613743019994E-034
  1.800000000000001E-003   -1.137776620873504E-033
  1.900000000000001E-003   -1.854168468990627E-033
  2.000000000000001E-003   -2.512375907135900E-033
  2.100000000000001E-003   -2.998230694592466E-033
  2.200000000000001E-003   -3.187891256756854E-033
  2.300000000000001E-003   -2.962846242873061E-033
  2.400000000000001E-003   -2.228715437067182E-033
  2.500000000000001E-003   -9.363012181807896E-034
  2.600000000000001E-003    8.974475963519323E-034
  2.700000000000001E-003    3.171588682096892E-033
  2.800000000000001E-003    5.689953732573135E-033
  2.900000000000001E-003    8.160136329339210E-033
  3.000000000000001E-003    1.020594720002686E-032
  3.100000000000001E-003    1.139563352545078E-032
  3.200000000000001E-003    1.128662937705033E-032
  3.300000000000001E-003    9.485490270657068E-033
  3.400000000000001E-003    5.719115995265218E-033
  3.500000000000001E-003   -8.937970852444891E-035
  3.600000000000001E-003   -7.749445834061744E-033
  3.700000000000001E-003   -1.674790315562705E-032
  3.800000000000001E-003   -2.622234860771377E-032
  3.900000000000001E-003   -3.497542164463075E-032
  4.000000000000001E-003   -4.154020734306109E-032
  4.100000000000001E-003   -4.430287429153464E-032
  4.200000000000001E-003   -4.168267246825899E-032
  4.300000000000001E-003   -3.236138373879122E-032
  4.400000000000001E-003   -1.554526184731240E-032
  4.500000000000001E-003    8.766955027481431E-033
  4.600000000000002E-003    3.954490024969180E-032
  4.700000000000001E-003    7.455752818965660E-032
  4.800000000000001E-003    1.103176894481343E-031
  4.900000000000002E-003    1.421810746971579E-031
  5.000000000000001E-003    1.646310904639064E-031
  5.100000000000001E-003    1.717650390291986E-031
  5.200000000000001E-003    1.579742950613198E-031
  5.300000000000002E-003    1.187830615113953E-031
  5.400000000000001E-003    5.177867063207612E-032
  5.500000000000001E-003   -4.246458916478885E-032
  5.600000000000002E-003   -1.595931489457255E-031
  5.700000000000001E-003   -2.909558551234732E-031
  5.800000000000001E-003   -4.235059569912688E-031
  5.900000000000002E-003   -5.402546053638523E-031
  6.000000000000001E-003   -6.213708093331392E-031
  6.100000000000001E-003   -6.459635687630213E-031
  6.200000000000002E-003   -5.945027292532570E-031
  6.300000000000002E-003   -4.517382368183520E-031
  6.400000000000001E-003   -2.098751456210190E-031
  6.500000000000001E-003    1.283390556863119E-031
  6.600000000000002E-003    5.470388019745287E-031
  6.700000000000001E-003    1.015650025385185E-030
  6.800000000000001E-003    1.488755865250511E-030
  6.900000000000002E-003    1.907830351878536E-030
  7.000000000000001E-003    2.205117132490989E-030
  7.100000000000001E-003    2.309730103282063E-030
  7.200000000000002E-003    2.155786379821857E-030
  7.300000000000002E-003    1.692072303713825E-030
  7.400000000000001E-003    8.924136503232384E-031
  7.500000000000001E-003   -2.343809443305819E-031
  7.600000000000002E-003   -1.636378163361322E-030
  7.700000000000001E-003   -3.213676955223820E-030
  7.800000000000001E-003   -4.818331768606819E-030
  7.900000000000001E-003   -6.260276563939421E-030
  8.000000000000002E-003   -7.320045721106885E-030
  8.100000000000001E-003   -7.768425254940473E-030
  8.200000000000001E-003   -7.392333917284464E-030
  8.300000000000002E-003   -6.025266576579283E-030
  8.400000000000001E-003   -3.579647535732997E-030
  8.500000000000002E-003   -7.753463236058775E-032
  8.600000000000002E-003    4.324557525698236E-030
  8.700000000000001E-003    9.321259704912524E-030
  8.800000000000002E-003    1.445873931094430E-029
  8.900000000000002E-003    1.915346476909773E-029
  9.000000000000001E-003    2.273150756780667E-029
  9.100000000000002E-003    2.448854474703584E-029
  9.200000000000002E-003    2.376814945738142E-029
  9.300000000000001E-003    2.005315584717062E-029
  9.400000000000002E-003    1.306198274073448E-029
  9.500000000000001E-003    2.839265989113589E-030
  9.600000000000001E-003   -1.017166917693410E-029
  9.700000000000002E-003   -2.508770098840841E-029
  9.800000000000001E-003   -4.058856060241705E-029
  9.900000000000001E-003   -5.497320534934212E-029
  1.000000000000000E-002   -6.627556752889251E-029
  1.010000000000000E-002   -7.243933483953326E-029
  1.020000000000000E-002   -7.154414725843802E-029
  1.030000000000000E-002   -6.206747626754407E-029
  1.040000000000000E-002   -4.315850180624518E-029
  1.050000000000000E-002   -1.489345585360645E-029
  1.060000000000000E-002    2.152282668392237E-029
  1.070000000000000E-002    6.364577145526732E-029
  1.080000000000000E-002    1.078041760432388E-028
  1.090000000000000E-002    1.492639251661852E-028
  1.100000000000000E-002    1.825559716422380E-028
  1.110000000000000E-002    2.019656033332131E-028
  1.120000000000000E-002    2.021594397027395E-028
  1.130000000000000E-002    1.789046976587482E-028
  1.140000000000000E-002    1.298142635522214E-028
  1.150000000000000E-002    5.503310377255050E-029
  1.160000000000000E-002   -4.222949314570032E-029
  1.170000000000000E-002   -1.554195630842244E-028
  1.180000000000000E-002   -2.746981299938938E-028
  1.190000000000000E-002   -3.874069295891682E-028
  1.200000000000000E-002   -4.789710208911049E-028
  1.210000000000000E-002   -5.342230583627615E-028
  1.220000000000000E-002   -5.390791015616799E-028
  1.230000000000000E-002   -4.824391846121093E-028
  1.240000000000000E-002   -3.581309942371404E-028
  1.250000000000000E-002   -1.666720935661887E-028
  1.260000000000000E-002    8.339927346243987E-029
  1.270000000000000E-002    3.748749657727847E-028
  1.280000000000000E-002    6.821291130491613E-028
  1.290000000000000E-002    9.724281039309994E-028
  1.300000000000000E-002    1.208359303790013E-027
  1.310000000000000E-002    1.351317506711963E-027
  1.320000000000000E-002    1.365845661532870E-027
  1.330000000000000E-002    1.224484236609040E-027
  1.340000000000000E-002    9.126487893447310E-028
  1.350000000000000E-002    4.329559039315794E-028
  1.360000000000000E-002   -1.916344653018012E-028
  1.370000000000000E-002   -9.164779064874442E-028
  1.380000000000000E-002   -1.676227521186046E-027
  1.390000000000000E-002   -2.388489561070214E-027
  1.400000000000000E-002   -2.960247090562095E-027
  1.410000000000000E-002   -3.296829673481836E-027
  1.420000000000000E-002   -3.312860934323598E-027
  1.430000000000000E-002   -2.944254364236572E-027
  1.440000000000000E-002   -2.160025517864714E-027
  1.450000000000000E-002   -9.724592003206767E-028
  1.460000000000000E-002    5.559149099926834E-028
  1.470000000000000E-002    2.310005521938210E-027
  1.480000000000000E-002    4.125695795975773E-027
  1.490000000000000E-002    5.799949822406551E-027
  1.500000000000000E-002    7.107553044962873E-027
  1.510000000000000E-002    7.823763836488819E-027
  1.520000000000000E-002    7.751291078887993E-027
  1.530000000000000E-002    6.749185146755157E-027
  1.540000000000000E-002    4.760523916675964E-027
  1.550000000000000E-002    1.835325380822870E-027
  1.560000000000000E-002   -1.855005626735674E-027
  1.570000000000000E-002   -6.015066425590972E-027
  1.580000000000000E-002   -1.023727728839723E-026
  1.590000000000000E-002   -1.402946773633621E-026
  1.600000000000000E-002   -1.685793182779665E-026
  1.610000000000000E-002   -1.820368418823618E-026
  1.620000000000000E-002   -1.762767681911723E-026
  1.630000000000000E-002   -1.483876012060608E-026
  1.640000000000000E-002   -9.756724728184362E-027
  1.650000000000000E-002   -2.561846077391755E-027
  1.660000000000000E-002    6.277619489378777E-027
  1.670000000000000E-002    1.600751109886481E-026
  1.680000000000000E-002    2.562474752688545E-026
  1.690000000000000E-002    3.395139803502045E-026
  1.700000000000000E-002    3.974385210900140E-026
  1.710000000000000E-002    4.183054008913566E-026
  1.720000000000000E-002    3.926692820367839E-026
  1.730000000000000E-002    3.149228029970390E-026
  1.740000000000000E-002    1.846955246341501E-026
  1.750000000000000E-002    7.883119423603191E-028
  1.760000000000000E-002   -2.028872912879813E-026
  1.770000000000000E-002   -4.285182185441667E-026
  1.780000000000000E-002   -6.445340306200693E-026
  1.790000000000000E-002   -8.230281562249698E-026
  1.800000000000000E-002   -9.353907488314583E-026
  1.810000000000000E-002   -9.556328356474979E-026
  1.820000000000000E-002   -8.640168516647369E-026
  1.830000000000000E-002   -6.506129171365580E-026
  1.840000000000000E-002   -3.183365585376706E-026
  1.850000000000000E-002    1.149955026646799E-026
  1.860000000000000E-002    6.160227333592002E-026
  1.870000000000000E-002    1.136953209815176E-025