 -4.000000000000000E-002    0.000000000000000E+000
 -3.990000000000000E-002    0.000000000000000E+000
 -3.980000000000000E-002    0.000000000000000E+000
 -3.970000000000000E-002    0.000000000000000E+000
 -3.960000000000000E-002    0.000000000000000E+000
 -3.950000000000000E-002    0.000000000000000E+000
 -3.940000000000000E-002    0.000000000000000E+000
 -3.930000000000000E-002    0.000000000000000E+000
 -3.920000000000000E-002    0.000000000000000E+000
 -3.910000000000000E-002    0.000000000000000E+000
 -3.900000000000000E-002    0.000000000000000E+000
 -3.890000000000000E-002    0.000000000000000E+000
 -3.880000000000000E-002    0.000000000000000E+000
 -3.870000000000000E-002    0.000000000000000E+000
 -3.860000000000000E-002    0.000000000000000E+000
 -3.850000000000000E-002    0.000000000000000E+000
 -3.840000000000000E-002    0.000000000000000E+000
 -3.830000000000000E-002    0.000000000000000E+000
 -3.820000000000000E-002    0.000000000000000E+000
 -3.810000000000000E-002    0.000000000000000E+000
 -3.800000000000000E-002    0.000000000000000E+000
 -3.790000000000000E-002    0.000000000000000E+000
 -3.780000000000000E-002    0.000000000000000E+000
 -3.770000000000000E-002    0.000000000000000E+000
 -3.760000000000000E-002    0.000000000000000E+000
 -3.750000000000000E-002    0.000000000000000E+000
 -3.740000000000000E-002    0.000000000000000E+000
 -3.730000000000000E-002    0.000000000000000E+000
 -3.720000000000000E-002    0.000000000000000E+000
 -3.710000000000000E-002    0.000000000000000E+000
 -3.700000000000000E-002    0.000000000000000E+000
 -3.690000000000000E-002    0.000000000000000E+000
 -3.680000000000000E-002    0.000000000000000E+000
 -3.670000000000000E-002    0.000000000000000E+000
 -3.660000000000000E-002    0.000000000000000E+000
 -3.650000000000000E-002    0.000000000000000E+000
 -3.640000000000000E-002    0.000000000000000E+000
 -3.630000000000000E-002    0.000000000000000E+000
 -3.620000000000000E-002    0.000000000000000E+000
 -3.610000000000000E-002    0.000000000000000E+000
 -3.600000000000000E-002    0.000000000000000E+000
 -3.590000000000000E-002    0.000000000000000E+000
 -3.580000000000000E-002    0.000000000000000E+000
 -3.570000000000000E-002    0.000000000000000E+000
 -3.560000000000000E-002    0.000000000000000E+000
 -3.550000000000000E-002    0.000000000000000E+000
 -3.540000000000000E-002    0.000000000000000E+000
 -3.530000000000000E-002    0.000000000000000E+000
 -3.520000000000000E-002    0.000000000000000E+000
 -3.510000000000000E-002    0.000000000000000E+000
 -3.500000000000000E-002    0.000000000000000E+000
 -3.490000000000000E-002    0.000000000000000E+000
 -3.480000000000000E-002    0.000000000000000E+000
 -3.470000000000000E-002    0.000000000000000E+000
 -3.460000000000000E-002    0.000000000000000E+000
 -3.450000000000000E-002    0.000000000000000E+000
 -3.440000000000000E-002    0.000000000000000E+000
 -3.430000000000000E-002    0.000000000000000E+000
 -3.420000000000000E-002    0.000000000000000E+000
 -3.410000000000000E-002    0.000000000000000E+000
 -3.400000000000000E-002    0.000000000000000E+000
 -3.390000000000000E-002    0.000000000000000E+000
 -3.380000000000000E-002    0.000000000000000E+000
 -3.370000000000000E-002    0.000000000000000E+000
 -3.360000000000000E-002    0.000000000000000E+000
 -3.350000000000000E-002    0.000000000000000E+000
 -3.340000000000000E-002    0.000000000000000E+000
 -3.330000000000000E-002    0.000000000000000E+000
 -3.320000000000000E-002    0.000000000000000E+000
 -3.310000000000000E-002    1.557103218230065E-047
 -3.300000000000000E-002    3.114206436460130E-047
 -3.290000000000000E-002    4.671309654690194E-047
 -3.280000000000000E-002    6.228412872920259E-047
 -3.270000000000000E-002    6.228412872920259E-047
 -3.260000000000000E-002    4.671309654690194E-047
 -3.250000000000000E-002   -4.808749087431855E-047
 -3.240000000000000E-002   -2.035641613663852E-046
 -3.230000000000000E-002   -4.154069041839896E-046
 -3.220000000000000E-002   -6.189935593734444E-046
 -3.210000000000000E-002   -1.104578040019673E-045
 -3.200000000000000E-002   -1.589388357026612E-045
 -3.190000000000000E-002   -2.342546261384247E-045
 -3.180000000000000E-002   -3.745071991879982E-045
 -3.170000000000000E-002   -5.498429731744172E-045
 -3.160000000000000E-002   -6.952813206641431E-045
 -3.150000000000000E-002   -8.030559169564971E-045
 -3.140000000000000E-002   -8.637821616822111E-045
 -3.130000000000000E-002   -5.604627800949409E-045
 -3.120000000000000E-002    5.968020144593025E-045
 -3.110000000000000E-002    3.035071305953704E-044
 -3.100000000000000E-002    7.542941397589474E-044
 -3.090000000000000E-002    1.497316228259647E-043
 -3.080000000000000E-002    2.633579275844452E-043
 -3.070000000000000E-002    4.244658434332978E-043
 -3.060000000000000E-002    6.346717186076709E-043
 -3.050000000000000E-002    8.788606496467916E-043
 -3.040000000000000E-002    1.113855067362072E-042
 -3.030000000000000E-002    1.252758948918357E-042
 -3.020000000000000E-002    1.140111081361653E-042
 -3.010000000000000E-002    5.310467876351706E-043
 -3.000000000000000E-002   -9.266603100818801E-043
 -2.990000000000000E-002   -3.700153725151310E-042
 -2.980000000000000E-002   -8.348601782714432E-042
 -2.970000000000000E-002   -1.545268327084974E-041
 -2.960000000000000E-002   -2.546503802218808E-041
 -2.950000000000000E-002   -3.845920936715434E-041
 -2.940000000000000E-002   -5.373500163858114E-041
 -2.930000000000000E-002   -6.927266067230239E-041
 -2.920000000000000E-002   -8.103650024272892E-041
 -2.910000000000000E-002   -8.217787196420411E-041
 -2.900000000000000E-002   -6.226425981318517E-041
 -2.890000000000000E-002   -6.750130434077623E-042
 -2.880000000000000E-002    1.029485698576683E-040
 -2.870000000000000E-002    2.882884732864824E-040
 -2.860000000000000E-002    5.706985141439630E-040
 -2.850000000000000E-002    9.661908787258910E-040
 -2.840000000000000E-002    1.476768527716683E-039
 -2.830000000000000E-002    2.078038673737498E-039
 -2.820000000000000E-002    2.702954820390999E-039
 -2.810000000000000E-002    3.222438086612348E-039
 -2.800000000000000E-002    3.424938695723444E-039
 -2.790000000000000E-002    2.998938639271340E-039
 -2.780000000000000E-002    1.524682514543805E-039
 -2.770000000000000E-002   -1.515722759515738E-039
 -2.760000000000000E-002   -6.698101767849355E-039
 -2.750000000000000E-002   -1.457204304569325E-038
 -2.740000000000000E-002   -2.551847791782335E-038
 -2.730000000000000E-002   -3.953725519601227E-038
 -2.720000000000000E-002   -5.595952538583890E-038
 -2.710000000000000E-002   -7.309286878345827E-038
 -2.700000000000000E-002   -8.782704999094198E-038
 -2.690000000000000E-002   -9.525728287501296E-038
 -2.680000000000000E-002   -8.841763411925054E-038
 -2.670000000000000E-002   -5.825857387431270E-038
 -2.660000000000000E-002    5.953496917886051E-039
 -2.650000000000000E-002    1.156084736461349E-037
 -2.640000000000000E-002    2.808732435066319E-037
 -2.630000000000000E-002    5.077695411491168E-037
 -2.620000000000000E-002    7.941018208372729E-037
 -2.610000000000000E-002    1.124293626406965E-036
 -2.600000000000000E-002    1.463450548275434E-036
 -2.590000000000000E-002    1.751345026963563E-036
 -2.580000000000000E-002    1.897470425093192E-036
 -2.570000000000000E-002    1.778867300262055E-036
 -2.560000000000000E-002    1.242937612873388E-036
 -2.550000000000000E-002    1.179256999950400E-037
 -2.540000000000000E-002   -1.766124145578736E-036
 -2.530000000000000E-002   -4.543379152543853E-036
 -2.520000000000000E-002   -8.263659910299949E-036
 -2.510000000000000E-002   -1.282959116640675E-035
 -2.500000000000000E-002   -1.792284466623312E-035
 -2.490000000000000E-002   -2.292693087960282E-035
 -2.480000000000000E-002   -2.685937492310816E-035
 -2.470000000000000E-002   -2.833203468987811E-035
 -2.460000000000000E-002   -2.556427267978089E-035
 -2.450000000000000E-002   -1.647844260999930E-035
 -2.440000000000000E-002    1.090870318746763E-036
 -2.430000000000000E-002    2.904571684554716E-035
 -2.420000000000000E-002    6.851349526977634E-035
 -2.410000000000000E-002    1.191773908232792E-034
 -2.400000000000000E-002    1.784808188178823E-034
 -2.390000000000000E-002    2.407814698458292E-034
 -2.380000000000000E-002    2.965838955635519E-034
 -2.370000000000000E-002    3.320380210064791E-034
 -2.360000000000000E-002    3.289518874934990E-034
 -2.350000000000000E-002    2.656093169809243E-034
 -2.340000000000000E-002    1.187049939518072E-034
 -2.330000000000000E-002   -1.333300838026127E-034
 -2.320000000000000E-002   -5.054258408935626E-034
 -2.310000000000000E-002   -9.994091841606270E-034
 -2.300000000000000E-002   -1.596278842988776E-033
 -2.290000000000000E-002   -2.247917272898470E-033
 -2.280000000000000E-002   -2.869423515113122E-033
 -2.270000000000000E-002   -3.333802916243989E-033
 -2.260000000000000E-002   -3.471242498072739E-033
 -2.250000000000000E-002   -3.075638100243426E-033
 -2.240000000000000E-002   -1.921125250652930E-033
 -2.230000000000000E-002    2.088837785260113E-034
 -2.220000000000000E-002    3.478575258298988E-033
 -2.210000000000000E-002    7.942555948287693E-033
 -2.200000000000000E-002    1.347722373951354E-032
 -2.190000000000000E-002    1.970652162933858E-032
 -2.180000000000000E-002    2.593218234342852E-032
 -2.170000000000000E-002    3.108272434694470E-032
 -2.160000000000000E-002    3.370004863083988E-032
 -2.150000000000000E-002    3.198506984086758E-032
 -2.140000000000000E-002    2.392545343888402E-032
 -2.130000000000000E-002    7.525347572827814E-033
 -2.120000000000000E-002   -1.884983734553798E-032
 -2.110000000000000E-002   -5.601333756912501E-032
 -2.100000000000000E-002   -1.034014005488274E-031
 -2.090000000000000E-002   -1.584671179960215E-031
 -2.080000000000000E-002   -2.160999302803393E-031
 -2.070000000000000E-002   -2.681795094696663E-031
 -2.060000000000000E-002   -3.034044779920193E-031
 -2.050000000000000E-002   -3.075567027688756E-031
 -2.040000000000000E-002   -2.643704020131746E-031
 -2.030000000000000E-002   -1.571548512785735E-031
 -2.020000000000000E-002    2.873301342819164E-032
 -2.010000000000000E-002    3.025613454466193E-031
 -2.000000000000000E-002    6.641751030527415E-031
 -1.990000000000000E-002    1.099535551266248E-030
 -1.980000000000000E-002    1.576371379466856E-030
 -1.970000000000000E-002    2.040679698875730E-030
 -1.960000000000000E-002    2.415023212416968E-030
 -1.950000000000000E-002    2.599709673314872E-030
 -1.940000000000000E-002    2.477974550933476E-030
 -1.930000000000000E-002    1.926153138053876E-030
 -1.920000000000000E-002    8.294861888038382E-031
 -1.910000000000000E-002   -8.963896502348664E-031
 -1.900000000000000E-002   -3.279096779330243E-030
 -1.890000000000000E-002   -6.260235900665292E-030
 -1.880000000000000E-002   -9.666395435535225E-030
 -1.870000000000000E-002   -1.318500201937901E-029
 -1.860000000000000E-002   -1.635074972592632E-029
 -1.850000000000000E-002   -1.854919309447490E-029
 -1.840000000000000E-002   -1.904414623170256E-029
 -1.830000000000000E-002   -1.703478633694157E-029
 -1.820000000000000E-002   -1.174622448190169E-029
 -1.810000000000000E-002   -2.553794844882207E-030
 -1.800000000000000E-002    1.086367229906171E-029
 -1.790000000000000E-002    2.835251376945562E-029
 -1.780000000000000E-002    4.911306274310869E-029
 -1.770000000000000E-002    7.155397148479354E-029
 -1.760000000000000E-002    9.320371354759351E-029
 -1.750000000000000E-002    1.107150797621645E-028
 -1.740000000000000E-002    1.199983800705808E-028
 -1.730000000000000E-002    1.165146235424975E-028
 -1.720000000000000E-002    9.574749467971753E-029
 -1.710000000000000E-002    5.385487229851044E-029
 -1.700000000000000E-002   -1.152634754107939E-029
 -1.690000000000000E-002   -1.003805946564565E-028
 -1.680000000000000E-002   -2.094133354622161E-028
 -1.670000000000000E-002   -3.312804942327776E-028
 -1.660000000000000E-002   -4.541074139098775E-028
 -1.650000000000000E-002   -5.614743780353063E-028
 -1.640000000000000E-002   -6.330440560824255E-028
 -1.630000000000000E-002   -6.459760525138117E-028
 -1.620000000000000E-002   -5.772133398891524E-028
 -1.610000000000000E-002   -4.066323414644535E-028
 -1.600000000000000E-002   -1.209135656766994E-028
 -1.590000000000000E-002    2.821563428763728E-028
 -1.580000000000000E-002    7.894153535488476E-028
 -1.570000000000000E-002    1.368708412344662E-027
 -1.560000000000000E-002    1.966669523337823E-027
 -1.550000000000000E-002    2.508711118342881E-027
 -1.540000000000000E-002    2.902000758360270E-027
 -1.530000000000000E-002    3.042042297894809E-027
 -1.520000000000000E-002    2.823182390829100E-027
 -1.510000000000000E-002    2.152910387734634E-027
 -1.500000000000000E-002    9.692394126257152E-028
 -1.490000000000000E-002   -7.402534735341484E-028
 -1.480000000000000E-002   -2.919831500286069E-027
 -1.470000000000000E-002   -5.430248853687476E-027
 -1.460000000000000E-002   -8.039892806661921E-027
 -1.450000000000000E-002   -1.042588729538982E-026
 -1.440000000000000E-002   -1.218834114528386E-026
 -1.430000000000000E-002   -1.288011584690031E-026
 -1.420000000000000E-002   -1.205315856882645E-026
 -1.410000000000000E-002   -9.320361230650557E-027
 -1.400000000000000E-002   -4.429409738797302E-027
 -1.390000000000000E-002    2.657747270500752E-027
 -1.380000000000000E-002    1.168911509308835E-026
 -1.370000000000000E-002    2.206234513040183E-026
 -1.360000000000000E-002    3.279335928023360E-026
 -1.350000000000000E-002    4.252776628861555E-026
 -1.340000000000000E-002    4.960724901430346E-026
 -1.330000000000000E-002    5.219958255920299E-026
 -1.320000000000000E-002    4.849455028443840E-026
 -1.310000000000000E-002    3.695990805049006E-026
 -1.300000000000000E-002    1.664104551708337E-026
 -1.290000000000000E-002   -1.252310407156561E-026
 -1.280000000000000E-002   -4.940614789368823E-026
 -1.270000000000000E-002   -9.146990469220600E-026
 -1.260000000000000E-002   -1.346622532375214E-025
 -1.250000000000000E-002   -1.734892431680698E-025
 -1.240000000000000E-002   -2.013061815900453E-025
 -1.230000000000000E-002   -2.108559579747028E-025
 -1.220000000000000E-002   -1.950576657977886E-025
 -1.210000000000000E-002   -1.480154033975372E-025
 -1.200000000000000E-002   -6.617844533359497E-026
 -1.190000000000000E-002    5.045828128376182E-026
 -1.180000000000000E-002    1.972631861318406E-025
 -1.170000000000000E-002    3.641655989906019E-025
 -1.160000000000000E-002    5.353378042011510E-025
 -1.150000000000000E-002    6.895472707439103E-025
 -1.140000000000000E-002    8.013341526799915E-025
 -1.130000000000000E-002    8.430987423734116E-025
 -1.120000000000000E-002    7.880928878711262E-025
 -1.110000000000000E-002    6.141804733531678E-025
 -1.100000000000000E-002    3.080967988405627E-025
 -1.090000000000000E-002   -1.302132540801569E-025
 -1.080000000000000E-002   -6.837256827929799E-025
 -1.070000000000000E-002   -1.315580511986294E-024
 -1.060000000000000E-002   -1.968116235563928E-024
 -1.050000000000000E-002   -2.564332232890240E-024
 -1.040000000000000E-002   -3.012274622757270E-024
 -1.030000000000000E-002   -3.212590075902893E-024
 -1.020000000000000E-002   -3.069161940537485E-024
 -1.010000000000000E-002   -2.502294173655135E-024
 -1.000000000000000E-002   -1.463445581355556E-024
 -9.899999999999999E-003    4.996778663721289E-026
 -9.800000000000000E-003    1.981589621206617E-024
 -9.699999999999999E-003    4.207133612792204E-024
 -9.599999999999999E-003    6.531610184120976E-024
 -9.500000000000000E-003    8.694805256260042E-024
 -9.399999999999999E-003    1.038652683005701E-023
 -9.299999999999999E-003    1.127221942541135E-023
 -9.200000000000000E-003    1.102847692505398E-023
 -9.099999999999999E-003    9.386465492788672E-024
 -8.999999999999999E-003    6.179821454623914E-024
 -8.900000000000000E-003    1.392091241343044E-024
 -8.799999999999999E-003   -4.802457087484665E-024
 -8.699999999999999E-003   -1.201150573550627E-023
 -8.600000000000000E-003   -1.961779153646919E-023
 -8.499999999999999E-003   -2.679870602846003E-023
 -8.399999999999999E-003   -3.257660940870196E-023
 -8.300000000000000E-003   -3.590121045070207E-023
 -8.199999999999999E-003   -3.576174910718684E-023
 -8.100000000000000E-003   -3.132207539619766E-023
 -8.000000000000000E-003   -2.206737240477360E-023
 -7.899999999999999E-003   -7.946902419397718E-024
 -7.800000000000000E-003    1.050628686174244E-023
 -7.699999999999999E-003    3.209936574990128E-023
 -7.599999999999999E-003    5.496768957860018E-023
 -7.499999999999999E-003    7.664383742396962E-023
 -7.399999999999999E-003    9.421856395397806E-023
 -7.299999999999999E-003    1.045955764916502E-022
 -7.199999999999999E-003    1.048307127495755E-022
 -7.100000000000000E-003    9.253301834106319E-023
 -6.999999999999999E-003    6.629184133244102E-023
 -6.899999999999999E-003    2.608281061811426E-023
 -6.800000000000000E-003   -2.640366237000526E-023
 -6.699999999999999E-003   -8.757083174768698E-023
 -6.599999999999999E-003   -1.519170972205051E-022
 -6.499999999999999E-003   -2.122762486252094E-022
 -6.399999999999999E-003   -2.603215984249632E-022
 -6.299999999999999E-003   -2.873325231342627E-022
 -6.199999999999999E-003   -2.851884018785722E-022
 -6.100000000000000E-003   -2.475184536287326E-022
 -5.999999999999999E-003   -1.708987408195580E-022
 -5.899999999999999E-003   -5.595774221978091E-023
 -5.800000000000000E-003    9.176906501916407E-023
 -5.699999999999999E-003    2.614004566201487E-022
 -5.599999999999999E-003    4.368370185180100E-022
 -5.499999999999999E-003    5.975683207887503E-022
 -5.399999999999999E-003    7.202156790962377E-022
 -5.299999999999999E-003    7.807836167758950E-022
 -5.199999999999999E-003    7.575027372492470E-022
 -5.099999999999999E-003    6.340438298926000E-022
 -4.999999999999999E-003    4.027874207576793E-022
 -4.899999999999999E-003    6.775605021307519E-023
 -4.799999999999999E-003   -3.532320575651490E-022
 -4.699999999999999E-003   -8.276275067134058E-022
 -4.599999999999999E-003   -1.308821858309632E-021
 -4.499999999999999E-003   -1.738707142061086E-021
 -4.399999999999999E-003   -2.052222888233799E-021
 -4.299999999999999E-003   -2.183778845573608E-021
 -4.199999999999999E-003   -2.075178841733819E-021
 -4.099999999999999E-003   -1.684404017257873E-021
 -3.999999999999999E-003   -9.943760764756075E-022
 -3.899999999999999E-003   -2.062087103658810E-023
 -3.799999999999999E-003    1.183336805831339E-021
 -3.699999999999999E-003    2.524000753693079E-021
 -3.599999999999999E-003    3.870333590357439E-021
 -3.499999999999999E-003    5.061252253854173E-021
 -3.399999999999999E-003    5.918366543750808E-021
 -3.299999999999999E-003    6.263566662266152E-021
 -3.199999999999999E-003    5.940352683486441E-021
 -3.099999999999999E-003    4.837182885639503E-021
 -2.999999999999999E-003    2.910446707633454E-021
 -2.899999999999999E-003    2.042441619651680E-022
 -2.799999999999999E-003   -3.136035615631687E-021
 -2.699999999999999E-003   -6.859259148446870E-021
 -2.599999999999999E-003   -1.061563498010268E-020
 -2.499999999999999E-003   -1.397686423071430E-020
 -2.399999999999999E-003   -1.646968822668150E-020
 -2.299999999999999E-003   -1.762159397730297E-020
 -2.199999999999999E-003   -1.701579653471323E-020
 -2.099999999999999E-003   -1.435088031427438E-020
 -1.999999999999999E-003   -9.499120266078982E-021
 -1.899999999999999E-003   -2.556370140385649E-021
 -1.799999999999999E-003    6.123948412575347E-021
 -1.699999999999999E-003    1.591985350515012E-020
 -1.599999999999999E-003    2.595853707308818E-020
 -1.499999999999999E-003    3.516642523894673E-020
 -1.399999999999999E-003    4.235194021708281E-020
 -1.299999999999999E-003    4.631779401180215E-020
 -1.199999999999999E-003    4.599538442581393E-020
 -1.099999999999999E-003    4.059011097525451E-020
 -9.999999999999989E-004    2.972297734641853E-020
 -8.999999999999990E-004    1.355146218639145E-020
 -7.999999999999990E-004   -7.147955239052735E-021
 -6.999999999999989E-004   -3.095218425854857E-020
 -5.999999999999990E-004   -5.583207772682751E-020
 -4.999999999999989E-004   -7.926892943021301E-020
 -3.999999999999989E-004   -9.844734711244658E-020
 -2.999999999999989E-004   -1.105164217865223E-019
 -1.999999999999989E-004   -1.129015441075442E-019
 -9.999999999999892E-005   -1.036404132107781E-019
  1.084202172485504E-018   -8.170941499057016E-020
  1.000000000000011E-004   -4.730148062722306E-020
  2.000000000000011E-004   -2.015376205400412E-021
  3.000000000000011E-004    5.108038170080206E-020
  4.000000000000011E-004    1.075381071466324E-019
  5.000000000000011E-004    1.617919236777219E-019
  6.000000000000011E-004    2.075894623023835E-019
  7.000000000000011E-004    2.385731089932859E-019
  8.000000000000011E-004    2.489715905007360E-019
  9.000000000000012E-004    2.343409801582432E-019
  1.000000000000001E-003    1.922797324973329E-019
  1.100000000000001E-003    1.230321727318408E-019
  1.200000000000001E-003    2.989328336262768E-020
  1.300000000000001E-003   -8.066425720728187E-020
  1.400000000000001E-003   -1.992007673361128E-019
  1.500000000000001E-003   -3.138904902584796E-019
  1.600000000000001E-003   -4.114665697718925E-019
  1.700000000000001E-003   -4.784831374205731E-019
  1.800000000000001E-003   -5.028020146127380E-019
  1.900000000000001E-003   -4.751716713438338E-019
  2.000000000000001E-003   -3.907337830370054E-019
  2.100000000000001E-003   -2.502739253518466E-019
  2.200000000000001E-003   -6.103188782612752E-020
  2.300000000000001E-003    1.630914807465474E-019
  2.400000000000001E-003    4.020523333463756E-019
  2.500000000000001E-003    6.309655351658279E-019
  2.600000000000001E-003    8.221663053608276E-019
  2.700000000000001E-003    9.479213153830488E-019
  2.800000000000001E-003    9.835829786412676E-019
  2.900000000000001E-003    9.109004493038528E-019
  3.000000000000001E-003    7.211325123795110E-019
  3.100000000000001E-003    4.175783025952020E-019
  3.200000000000001E-003    1.714226403097721E-020
  3.300000000000001E-003   -4.494002478926475E-019
  3.400000000000001E-003   -9.386744895037238E-019
  3.500000000000001E-003   -1.397620434661190E-018
  3.600000000000001E-003   -1.767977785128743E-018
  3.700000000000001E-003   -1.992090416601184E-018
  3.800000000000001E-003   -2.019580153518013E-018
  3.900000000000001E-003   -1.814276025985875E-018
  4.000000000000001E-003   -1.360655428478480E-018
  4.100000000000001E-003   -6.689913673198304E-019
  4.200000000000001E-003    2.215789043690128E-019
  4.300000000000001E-003    1.242743979661738E-018
  4.400000000000001E-003    2.299939875976279E-018
  4.500000000000001E-003    3.278690398241563E-018
  4.600000000000002E-003    4.054201376603112E-018
  4.700000000000001E-003    4.503651731749733E-018
  4.800000000000001E-003    4.520239477798128E-018
  4.900000000000002E-003    4.027696692257683E-018
  5.000000000000001E-003    2.993736745438047E-018
  5.100000000000001E-003    1.440780391051163E-018
  5.200000000000001E-003   -5.476530363028970E-019
  5.300000000000002E-003   -2.826268227580754E-018
  5.400000000000001E-003   -5.193989822557529E-018
  5.500000000000001E-003   -7.407009514284172E-018
  5.600000000000002E-003   -9.198542818219034E-018
  5.700000000000001E-003   -1.030416120959614E-017
  5.800000000000001E-003   -1.049081160085003E-017
  5.900000000000002E-003   -9.586908660268563E-018
  6.000000000000001E-003   -7.510412288152759E-018
  6.100000000000001E-003   -4.291553076076643E-018
  6.200000000000002E-003   -8.694500956616853E-020
  6.300000000000002E-003    4.817710023567216E-018
  6.400000000000001E-003    1.001831620695401E-017
  6.500000000000001E-003    1.501729267945717E-017
  6.600000000000002E-003    1.926213183855983E-017
  6.700000000000001E-003    2.219546573881754E-017
  6.800000000000001E-003    2.331298857152081E-017
  6.900000000000002E-003    2.222418350887191E-017
  7.000000000000001E-003    1.870985536886965E-017
  7.100000000000001E-003    1.276985489425212E-017
  7.200000000000002E-003    4.654625137969313E-018
  7.300000000000002E-003   -5.125086574115431E-018
  7.400000000000001E-003   -1.581440036693822E-017
  7.500000000000001E-003   -2.645825965017851E-017
  7.600000000000002E-003   -3.597236015224624E-017
  7.700000000000001E-003   -4.323736147986110E-017
  7.800000000000001E-003   -4.720959634276445E-017
  7.900000000000001E-003   -4.703894870326945E-017
  8.000000000000002E-003   -4.218254603345236E-017
  8.100000000000001E-003   -3.250178472307196E-017
  8.200000000000001E-003   -1.833031209463097E-017
  8.300000000000002E-003   -5.020686930730577E-019
  8.400000000000001E-003    1.966881695421495E-017
  8.500000000000002E-003    4.046052039064139E-017
  8.600000000000002E-003    5.986753491423643E-017
  8.700000000000001E-003    7.577014844167759E-017
  8.800000000000002E-003    8.613736933219527E-017
  8.900000000000002E-003    8.924656546478147E-017
  9.000000000000001E-003    8.389902564614435E-017
  9.100000000000002E-003    6.960847561714432E-017
  9.200000000000002E-003    4.673945438272819E-017
  9.300000000000001E-003    1.657485259530080E-017
  9.400000000000002E-003   -1.870331736563191E-017
  9.500000000000001E-003   -5.612883933381919E-017
  9.600000000000001E-003   -9.216164261858278E-017
  9.700000000000002E-003   -1.229837031017494E-016
  9.800000000000001E-003   -1.448599430323656E-016
  9.900000000000001E-003   -1.545346443318061E-016
  1.000000000000000E-002   -1.496262707016805E-016
  1.010000000000000E-002   -1.289791104690768E-016
  1.020000000000000E-002   -9.292970805854083E-017
  1.030000000000000E-002   -4.344977588241981E-017
  1.040000000000000E-002    1.586450822355604E-017
  1.050000000000000E-002    7.997445380821132E-017
  1.060000000000000E-002    1.427539894493530E-016
  1.070000000000000E-002    1.975016525409471E-016
  1.080000000000000E-002    2.375744566109312E-016
  1.090000000000000E-002    2.570927536429975E-016
  1.100000000000000E-002    2.516494608672980E-016
  1.110000000000000E-002    2.189504085166200E-016
  1.120000000000000E-002    1.593091936757575E-016
  1.130000000000000E-002    7.592737472574398E-017
  1.140000000000000E-002   -2.509631413502181E-017
  1.150000000000000E-002   -1.350616230405848E-016
  1.160000000000000E-002   -2.432732343370173E-016
  1.170000000000000E-002   -3.379322651143359E-016
  1.180000000000000E-002   -4.072534457316114E-016
  1.190000000000000E-002   -4.407178152835973E-016
  1.200000000000000E-002   -4.303447111279599E-016
  1.210000000000000E-002   -3.718519227281487E-016
  1.220000000000000E-002   -2.655667691370463E-016
  1.230000000000000E-002   -1.169617249426488E-016
  1.240000000000000E-002    6.328838966041087E-017
  1.250000000000000E-002    2.597927075716439E-016
  1.260000000000000E-002    4.534902709151438E-016
  1.270000000000000E-002    6.232135378568778E-016
  1.280000000000000E-002    7.476687193235859E-016
  1.290000000000000E-002    8.076767692657652E-016
  1.300000000000000E-002    7.884688395135580E-016
  1.310000000000000E-002    6.818033845068622E-016
  1.320000000000000E-002    4.876582861454738E-016
  1.330000000000000E-002    2.152683414767409E-016
  1.340000000000000E-002   -1.166822566134650E-016
  1.350000000000000E-002   -4.808362688747600E-016
  1.360000000000000E-002   -8.429485223869510E-016
  1.370000000000000E-002   -1.164613642465462E-015
  1.380000000000000E-002   -1.406770385419257E-015
  1.390000000000000E-002   -1.533707249310951E-015
  1.400000000000000E-002   -1.517214696263926E-015
  1.410000000000000E-002   -1.340466771094855E-015
  1.420000000000000E-002   -1.001192476561356E-015
  1.430000000000000E-002   -5.137217059298088E-016
  1.440000000000000E-002    9.044670384357003E-017
  1.450000000000000E-002    7.637924975318378E-016
  1.460000000000000E-002    1.445726670289048E-015
  1.470000000000000E-002    2.067256515568451E-015
  1.480000000000000E-002    2.557090005280952E-015
  1.490000000000000E-002    2.848713667133336E-015
  1.500000000000000E-002    2.887827883006535E-015
  1.510000000000000E-002    2.639412664728343E-015
  1.520000000000000E-002    2.093644128138220E-015
  1.530000000000000E-002    1.269916177175448E-015
  1.540000000000000E-002    2.183272833361617E-016
  1.550000000000000E-002   -9.818225425210028E-016
  1.560000000000000E-002   -2.226714457227343E-015
  1.570000000000000E-002   -3.395766282855579E-015
  1.580000000000000E-002   -4.362014372269488E-015
  1.590000000000000E-002   -5.004350840484080E-015
  1.600000000000000E-002   -5.220577503706523E-015
  1.610000000000000E-002   -4.940011400500775E-015
  1.620000000000000E-002   -4.134305856517353E-015
  1.630000000000000E-002   -2.825153879476769E-015
  1.640000000000000E-002   -1.087737303749368E-015
  1.650000000000000E-002    9.509199257858487E-016
  1.660000000000000E-002    3.119095576247029E-015
  1.670000000000000E-002    5.212896930723534E-015
  1.680000000000000E-002    7.013469928569805E-015
  1.690000000000000E-002    8.307658231392594E-015
  1.700000000000000E-002    8.910349187362234E-015
  1.710000000000000E-002    8.686411817616448E-015
  1.720000000000000E-002    7.569900264750233E-015
  1.730000000000000E-002    5.578275106676410E-015
  1.740000000000000E-002    2.819612650422256E-015
  1.750000000000000E-002   -5.086887775395160E-016
  1.760000000000000E-002   -4.130492419736520E-015
  1.770000000000000E-002   -7.710715668951263E-015
  1.780000000000000E-002   -1.088327080652172E-014
  1.790000000000000E-002   -1.328515546220211E-014
  1.800000000000000E-002   -1.459384641481034E-014
  1.810000000000000E-002   -1.456447108938718E-014
  1.820000000000000E-002   -1.306293357288748E-014
  1.830000000000000E-002   -1.009113857104604E-014
  1.840000000000000E-002   -5.800892421629409E-015
  1.850000000000000E-002   -4.938617546667845E-016
  1.860000000000000E-002    5.393857326658395E-015
  1.870000000000000E-002    1.132257661751642E-014