 -4.000000000000000E-002    0.000000000000000E+000
 -3.990000000000000E-002    0.000000000000000E+000
 -3.980000000000000E-002    0.000000000000000E+000
 -3.970000000000000E-002    0.000000000000000E+000
 -3.960000000000000E-002    0.000000000000000E+000
 -3.950000000000000E-002    0.000000000000000E+000
 -3.940000000000000E-002    0.000000000000000E+000
 -3.930000000000000E-002    0.000000000000000E+000
 -3.920000000000000E-002    0.000000000000000E+000
 -3.910000000000000E-002    0.000000000000000E+000
 -3.900000000000000E-002    0.000000000000000E+000
 -3.890000000000000E-002    0.000000000000000E+000
 -3.880000000000000E-002    0.000000000000000E+000
 -3.870000000000000E-002    0.000000000000000E+000
 -3.860000000000000E-002    0.000000000000000E+000
 -3.850000000000000E-002    0.000000000000000E+000
 -3.840000000000000E-002    0.000000000000000E+000
 -3.830000000000000E-002    0.000000000000000E+000
 -3.820000000000000E-002    0.000000000000000E+000
 -3.810000000000000E-002    0.000000000000000E+000
 -3.800000000000000E-002    0.000000000000000E+000
 -3.790000000000000E-002    0.000000000000000E+000
 -3.780000000000000E-002    0.000000000000000E+000
 -3.770000000000000E-002    0.000000000000000E+000
 -3.760000000000000E-002    0.000000000000000E+000
 -3.750000000000000E-002    0.000000000000000E+000
 -3.740000000000000E-002    0.000000000000000E+000
 -3.730000000000000E-002    0.000000000000000E+000
 -3.720000000000000E-002    0.000000000000000E+000
 -3.710000000000000E-002    0.000000000000000E+000
 -3.700000000000000E-002    0.000000000000000E+000
 -3.690000000000000E-002    0.000000000000000E+000
 -3.680000000000000E-002    0.000000000000000E+000
 -3.670000000000000E-002    0.000000000000000E+000
 -3.660000000000000E-002    0.000000000000000E+000
 -3.650000000000000E-002    0.000000000000000E+000
 -3.640000000000000E-002    0.000000000000000E+000
 -3.630000000000000E-002    0.000000000000000E+000
 -3.620000000000000E-002    0.000000000000000E+000
 -3.610000000000000E-002    0.000000000000000E+000
 -3.600000000000000E-002    0.000000000000000E+000
 -3.590000000000000E-002    0.000000000000000E+000
 -3.580000000000000E-002    0.000000000000000E+000
 -3.570000000000000E-002    0.000000000000000E+000
 -3.560000000000000E-002    0.000000000000000E+000
 -3.550000000000000E-002    0.000000000000000E+000
 -3.540000000000000E-002    0.000000000000000E+000
 -3.530000000000000E-002    0.000000000000000E+000
 -3.520000000000000E-002    0.000000000000000E+000
 -3.510000000000000E-002    0.000000000000000E+000
 -3.500000000000000E-002    0.000000000000000E+000
 -3.490000000000000E-002    0.000000000000000E+000
 -3.480000000000000E-002    0.000000000000000E+000
 -3.470000000000000E-002    0.000000000000000E+000
 -3.460000000000000E-002    0.000000000000000E+000
 -3.450000000000000E-002    0.000000000000000E+000
 -3.440000000000000E-002    0.000000000000000E+000
 -3.430000000000000E-002    0.000000000000000E+000
 -3.420000000000000E-002    0.000000000000000E+000
 -3.410000000000000E-002    0.000000000000000E+000
 -3.400000000000000E-002    0.000000000000000E+000
 -3.390000000000000E-002    0.000000000000000E+000
 -3.380000000000000E-002    0.000000000000000E+000
 -3.370000000000000E-002    0.000000000000000E+000
 -3.360000000000000E-002    0.000000000000000E+000
 -3.350000000000000E-002    0.000000000000000E+000
 -3.340000000000000E-002    0.000000000000000E+000
 -3.330000000000000E-002    0.000000000000000E+000
 -3.320000000000000E-002    0.000000000000000E+000
 -3.310000000000000E-002    0.000000000000000E+000
 -3.300000000000000E-002    0.000000000000000E+000
 -3.290000000000000E-002    0.000000000000000E+000
 -3.280000000000000E-002    0.000000000000000E+000
 -3.270000000000000E-002    0.000000000000000E+000
 -3.260000000000000E-002    0.000000000000000E+000
 -3.250000000000000E-002    0.000000000000000E+000
 -3.240000000000000E-002    0.000000000000000E+000
 -3.230000000000000E-002    0.000000000000000E+000
 -3.220000000000000E-002    0.000000000000000E+000
 -3.210000000000000E-002    0.000000000000000E+000
 -3.200000000000000E-002    0.000000000000000E+000
 -3.190000000000000E-002    0.000000000000000E+000
 -3.180000000000000E-002    0.000000000000000E+000
 -3.170000000000000E-002    0.000000000000000E+000
 -3.160000000000000E-002    0.000000000000000E+000
 -3.150000000000000E-002    0.000000000000000E+000
 -3.140000000000000E-002    0.000000000000000E+000
 -3.130000000000000E-002    0.000000000000000E+000
 -3.120000000000000E-002    0.000000000000000E+000
 -3.110000000000000E-002    0.000000000000000E+000
 -3.100000000000000E-002    0.000000000000000E+000
 -3.090000000000000E-002    0.000000000000000E+000
 -3.080000000000000E-002    0.000000000000000E+000
 -3.070000000000000E-002    0.000000000000000E+000
 -3.060000000000000E-002    0.000000000000000E+000
 -3.050000000000000E-002    0.000000000000000E+000
 -3.040000000000000E-002    0.000000000000000E+000
 -3.030000000000000E-002    0.000000000000000E+000
 -3.020000000000000E-002    0.000000000000000E+000
 -3.010000000000000E-002    0.000000000000000E+000
 -3.000000000000000E-002    0.000000000000000E+000
 -2.990000000000000E-002    0.000000000000000E+000
 -2.980000000000000E-002    0.000000000000000E+000
 -2.970000000000000E-002    0.000000000000000E+000
 -2.960000000000000E-002    0.000000000000000E+000
 -2.950000000000000E-002    0.000000000000000E+000
 -2.940000000000000E-002    0.000000000000000E+000
 -2.930000000000000E-002    0.000000000000000E+000
 -2.920000000000000E-002    0.000000000000000E+000
 -2.910000000000000E-002    0.000000000000000E+000
 -2.900000000000000E-002    0.000000000000000E+000
 -2.890000000000000E-002    0.000000000000000E+000
 -2.880000000000000E-002    0.000000000000000E+000
 -2.870000000000000E-002    0.000000000000000E+000
 -2.860000000000000E-002    0.000000000000000E+000
 -2.850000000000000E-002    0.000000000000000E+000
 -2.840000000000000E-002    0.000000000000000E+000
 -2.830000000000000E-002    0.000000000000000E+000
 -2.820000000000000E-002    0.000000000000000E+000
 -2.810000000000000E-002    0.000000000000000E+000
 -2.800000000000000E-002    0.000000000000000E+000
 -2.790000000000000E-002    0.000000000000000E+000
 -2.780000000000000E-002    0.000000000000000E+000
 -2.770000000000000E-002    0.000000000000000E+000
 -2.760000000000000E-002    0.000000000000000E+000
 -2.750000000000000E-002    0.000000000000000E+000
 -2.740000000000000E-002    0.000000000000000E+000
 -2.730000000000000E-002    0.000000000000000E+000
 -2.720000000000000E-002    0.000000000000000E+000
 -2.710000000000000E-002    1.190951253420294E-047
 -2.700000000000000E-002    1.144976234990895E-046
 -2.690000000000000E-002    2.289952469981790E-046
 -2.680000000000000E-002    3.434928704972686E-046
 -2.670000000000000E-002    4.579904939963581E-046
 -2.660000000000000E-002    5.724881174954476E-046
 -2.650000000000000E-002    6.591066549021808E-046
 -2.640000000000000E-002    6.152579952516710E-046
 -2.630000000000000E-002    2.787233713571505E-046
 -2.620000000000000E-002   -4.125979538070337E-046
 -2.610000000000000E-002   -2.007019979277779E-045
 -2.600000000000000E-002   -4.186013884939207E-045
 -2.590000000000000E-002   -7.143797269168686E-045
 -2.580000000000000E-002   -1.104007924098815E-044
 -2.570000000000000E-002   -1.522888747093676E-044
 -2.560000000000000E-002   -1.918291889447245E-044
 -2.550000000000000E-002   -2.327150079892554E-044
 -2.540000000000000E-002   -2.435741282831533E-044
 -2.530000000000000E-002   -2.051128107382841E-044
 -2.520000000000000E-002   -8.686262198813866E-045
 -2.510000000000000E-002    1.349912136651337E-044
 -2.500000000000000E-002    5.133955219493939E-044
 -2.490000000000000E-002    1.090475280309982E-043
 -2.480000000000000E-002    1.876702248587142E-043
 -2.470000000000000E-002    2.868000446300670E-043
 -2.460000000000000E-002    3.989101390668352E-043
 -2.450000000000000E-002    5.064250984411979E-043
 -2.440000000000000E-002    5.813290017772901E-043
 -2.430000000000000E-002    5.802961624592851E-043
 -2.420000000000000E-002    4.460596753285776E-043
 -2.410000000000000E-002    1.075632516509546E-043
 -2.400000000000000E-002   -5.169397257409276E-043
 -2.390000000000000E-002   -1.500476160416919E-042
 -2.380000000000000E-002   -2.892681389359917E-042
 -2.370000000000000E-002   -4.690830224473643E-042
 -2.360000000000000E-002   -6.799702239081095E-042
 -2.350000000000000E-002   -8.986479601419551E-042
 -2.340000000000000E-002   -1.083767071750958E-041
 -2.330000000000000E-002   -1.171758052710664E-041
 -2.320000000000000E-002   -1.075303459151006E-041
 -2.310000000000000E-002   -6.853104788770155E-042
 -2.300000000000000E-002    1.207543056476849E-042
 -2.290000000000000E-002    1.462758148826964E-041
 -2.280000000000000E-002    3.430682560600003E-041
 -2.270000000000000E-002    6.046117372583854E-041
 -2.260000000000000E-002    9.213002949767710E-041
 -2.250000000000000E-002    1.265982973536908E-040
 -2.240000000000000E-002    1.588043769015556E-040
 -2.230000000000000E-002    1.808533263105385E-040
 -2.220000000000000E-002    1.817764286573215E-040
 -2.210000000000000E-002    1.477737507067771E-040
 -2.200000000000000E-002    6.315626469585732E-041
 -2.190000000000000E-002   -8.774342388152544E-041
 -2.180000000000000E-002   -3.174939510727573E-040
 -2.170000000000000E-002   -6.312115183482577E-040
 -2.160000000000000E-002   -1.021025934935125E-039
 -2.150000000000000E-002   -1.459733360493114E-039
 -2.140000000000000E-002   -1.894385531694173E-039
 -2.130000000000000E-002   -2.241023803464526E-039
 -2.120000000000000E-002   -2.382233787695388E-039
 -2.110000000000000E-002   -2.169621008408678E-039
 -2.100000000000000E-002   -1.433576918008778E-039
 -2.090000000000000E-002   -2.641830763370519E-042
 -2.080000000000000E-002    2.265731380722993E-039
 -2.070000000000000E-002    5.442375830793619E-039
 -2.060000000000000E-002    9.472826101469903E-039
 -2.050000000000000E-002    1.411694308790027E-038
 -2.040000000000000E-002    1.888917368477838E-038
 -2.030000000000000E-002    2.301082221325024E-038
 -2.020000000000000E-002    2.538961760021324E-038
 -2.010000000000000E-002    2.464508607015148E-038
 -2.000000000000000E-002    1.919964549472354E-038
 -1.990000000000000E-002    7.453938441995885E-039
 -1.980000000000000E-002   -1.194070422219924E-038
 -1.970000000000000E-002   -3.971066734643871E-038
 -1.960000000000000E-002   -7.550422170592005E-038
 -1.950000000000000E-002   -1.173892129438140E-037
 -1.940000000000000E-002   -1.613697670211191E-037
 -1.930000000000000E-002   -2.010176209088245E-037
 -1.920000000000000E-002   -2.273415996060002E-037
 -1.910000000000000E-002   -2.290386885720356E-037
 -1.900000000000000E-002   -1.932746235338457E-037
 -1.890000000000000E-002   -1.071215741408514E-037
 -1.880000000000000E-002    4.027157204200392E-038
 -1.870000000000000E-002    2.547926772226993E-037
 -1.860000000000000E-002    5.339132250389926E-037
 -1.850000000000000E-002    8.629896375341863E-037
 -1.840000000000000E-002    1.211838633680025E-036
 -1.830000000000000E-002    1.532308081590209E-036
 -1.820000000000000E-002    1.757737853456141E-036
 -1.810000000000000E-002    1.805303039808548E-036
 -1.800000000000000E-002    1.582207907568487E-036
 -1.790000000000000E-002    9.964901220418895E-037
 -1.780000000000000E-002   -2.723807033676448E-038
 -1.770000000000000E-002   -1.527474446570166E-036
 -1.760000000000000E-002   -3.482250701397835E-036
 -1.750000000000000E-002   -5.784766229036815E-036
 -1.740000000000000E-002   -8.221966598928992E-036
 -1.730000000000000E-002   -1.046100749743462E-035
 -1.720000000000000E-002   -1.204946107736722E-035
 -1.710000000000000E-002   -1.243543561588016E-035
 -1.700000000000000E-002   -1.101322543076982E-035
 -1.690000000000000E-002   -7.198325495166339E-036
 -1.680000000000000E-002   -5.324496601704556E-037
 -1.670000000000000E-002    9.185535369567804E-036
 -1.660000000000000E-002    2.175296231474617E-035
 -1.650000000000000E-002    3.641828680735919E-035
 -1.640000000000000E-002    5.176211830122005E-035
 -1.630000000000000E-002    6.563534760419139E-035
 -1.620000000000000E-002    7.518916390739975E-035
 -1.610000000000000E-002    7.703178660789866E-035
 -1.600000000000000E-002    6.754074384212459E-035
 -1.590000000000000E-002    4.334636566674395E-035
 -1.580000000000000E-002    1.980812424988747E-036
 -1.570000000000000E-002   -5.734239577375514E-035
 -1.560000000000000E-002   -1.328895597249178E-034
 -1.550000000000000E-002   -2.196191242929844E-034
 -1.540000000000000E-002   -3.085937144719189E-034
 -1.530000000000000E-002   -3.867695454913117E-034
 -1.520000000000000E-002   -4.373539347826650E-034
 -1.510000000000000E-002   -4.409082844997963E-034
 -1.500000000000000E-002   -3.773274865214822E-034
 -1.490000000000000E-002   -2.287389539381528E-034
 -1.480000000000000E-002    1.676421949766205E-035
 -1.470000000000000E-002    3.608099225099329E-034
 -1.460000000000000E-002    7.903018385512334E-034
 -1.450000000000000E-002    1.273492696058120E-033
 -1.440000000000000E-002    1.757402483002401E-033
 -1.430000000000000E-002    2.167527586978325E-033
 -1.420000000000000E-002    2.410797410751710E-033
 -1.410000000000000E-002    2.382604735654879E-033
 -1.400000000000000E-002    1.978419775252379E-033
 -1.390000000000000E-002    1.109977738349873E-033
 -1.380000000000000E-002   -2.746838104226281E-034
 -1.370000000000000E-002   -2.168950303109157E-033
 -1.360000000000000E-002   -4.485697984894054E-033
 -1.350000000000000E-002   -7.039223940387535E-033
 -1.340000000000000E-002   -9.535316544398918E-033
 -1.330000000000000E-002   -1.157411143501260E-032
 -1.320000000000000E-002   -1.267017728501164E-032
 -1.310000000000000E-002   -1.229332142320806E-032
 -1.300000000000000E-002   -9.931718914451888E-033
 -1.290000000000000E-002   -5.176169424419095E-033
 -1.280000000000000E-002    2.179381198026464E-033
 -1.270000000000000E-002    1.203022629052952E-032
 -1.260000000000000E-002    2.385981399052612E-032
 -1.250000000000000E-002    3.666288429972090E-032
 -1.240000000000000E-002    4.891331242547019E-032
 -1.230000000000000E-002    5.859794325587854E-032
 -1.220000000000000E-002    6.333546870234383E-032
 -1.210000000000000E-002    6.059355073524988E-032
 -1.200000000000000E-002    4.800748089708604E-032
 -1.190000000000000E-002    2.378959946181839E-032
 -1.180000000000000E-002   -1.279866355039343E-032
 -1.170000000000000E-002   -6.095959600649621E-032
 -1.160000000000000E-002   -1.179234468062243E-031
 -1.150000000000000E-002   -1.786465215398859E-031
 -1.140000000000000E-002   -2.357348942677219E-031
 -1.130000000000000E-002   -2.796841246116796E-031
 -1.120000000000000E-002   -2.995105496430114E-031
 -1.110000000000000E-002   -2.838184889545870E-031
 -1.100000000000000E-002   -2.222987652808727E-031
 -1.090000000000000E-002   -1.075900574832263E-031
 -1.080000000000000E-002    6.264263594941708E-032
 -1.070000000000000E-002    2.836386150731315E-031
 -1.060000000000000E-002    5.417836444773169E-031
 -1.050000000000000E-002    8.135218289916387E-031
 -1.040000000000000E-002    1.065320894973143E-030
 -1.030000000000000E-002    1.255049195511901E-030
 -1.020000000000000E-002    1.335039732965099E-030
 -1.010000000000000E-002    1.256965851264190E-030
 -1.000000000000000E-002    9.784335423801858E-031
 -9.899999999999999E-003    4.709192283575171E-031
 -9.800000000000000E-003   -2.716323028844153E-031
 -9.699999999999999E-003   -1.224552158132607E-030
 -9.599999999999999E-003   -2.325813635960462E-030
 -9.500000000000000E-003   -3.472481487144569E-030
 -9.399999999999999E-003   -4.521742778598845E-030
 -9.299999999999999E-003   -5.297844154853735E-030
 -9.200000000000000E-003   -5.605851340115947E-030
 -9.099999999999999E-003   -5.252478791673080E-030
 -8.999999999999999E-003   -4.073317288093791E-030
 -8.900000000000000E-003   -1.964678134299880E-030
 -8.799999999999999E-003    1.082929182942617E-030
 -8.699999999999999E-003    4.953832033875260E-030
 -8.600000000000000E-003    9.383822908553236E-030
 -8.499999999999999E-003    1.394997509804700E-029
 -8.399999999999999E-003    1.807912411705336E-029
 -8.300000000000000E-003    2.107958444874871E-029
 -8.199999999999999E-003    2.219883764549435E-029
 -8.100000000000000E-003    2.070716550181696E-029
 -8.000000000000000E-003    1.600361769759432E-029
 -7.899999999999999E-003    7.736502266953187E-030
 -7.800000000000000E-003   -4.073716453420548E-030
 -7.699999999999999E-003   -1.892520554625402E-029
 -7.599999999999999E-003   -3.575822537239890E-029
 -7.499999999999999E-003   -5.293140729843975E-029
 -7.399999999999999E-003   -6.826968031535232E-029
 -7.299999999999999E-003   -7.919843490101801E-029
 -7.199999999999999E-003   -8.297096606007152E-029
 -7.100000000000000E-003   -7.698561599978574E-029
 -6.999999999999999E-003   -5.917574406444486E-029
 -6.899999999999999E-003   -2.844088575912423E-029
 -6.800000000000000E-003    1.492721296003738E-029
 -6.699999999999999E-003    6.888260431877627E-029
 -6.599999999999999E-003    1.293943224541894E-028
 -6.499999999999999E-003    1.904149212806858E-028
 -6.399999999999999E-003    2.441094111008315E-028
 -6.299999999999999E-003    2.813872530822571E-028
 -6.199999999999999E-003    2.927514384789764E-028
 -6.100000000000000E-003    2.694398535515262E-028
 -5.999999999999999E-003    2.047880395768241E-028
 -5.899999999999999E-003    9.569277419615604E-029
 -5.800000000000000E-003   -5.599080092076701E-029
 -5.699999999999999E-003   -2.423231803887152E-028
 -5.599999999999999E-003   -4.486496869692368E-028
 -5.499999999999999E-003   -6.536853636798571E-028
 -5.399999999999999E-003   -8.304987238169262E-028
 -5.299999999999999E-003   -9.485093248250033E-028
 -5.199999999999999E-003   -9.765088014217274E-028
 -5.099999999999999E-003   -8.865813340534854E-028
 -4.999999999999999E-003   -6.586479340161049E-028
 -4.899999999999999E-003   -2.851998745147223E-028
 -4.799999999999999E-003    2.243530720356077E-028
 -4.699999999999999E-003    8.403961403757621E-028
 -4.599999999999999E-003    1.511601328410774E-027
 -4.499999999999999E-003    2.165867562930688E-027
 -4.399999999999999E-003    2.714232623903128E-027
 -4.299999999999999E-003    3.058025755426933E-027
 -4.199999999999999E-003    3.099172438580952E-027
 -4.099999999999999E-003    2.753125565632908E-027
 -3.999999999999999E-003    1.963410611633016E-027
 -3.899999999999999E-003    7.163017838839960E-028
 -3.799999999999999E-003   -9.462591898966434E-028
 -3.699999999999999E-003   -2.917646708375439E-027
 -3.599999999999999E-003   -5.023626090673517E-027
 -3.499999999999999E-003   -7.027466013908112E-027
 -3.399999999999999E-003   -8.644494208943218E-027
 -3.299999999999999E-003   -9.566623556216554E-027
 -3.199999999999999E-003   -9.496197810237444E-027
 -3.099999999999999E-003   -8.187153139444317E-027
 -2.999999999999999E-003   -5.489999030253550E-027
 -2.899999999999999E-003   -1.395771666651189E-027
 -2.799999999999999E-003    3.926993816392824E-027
 -2.699999999999999E-003    1.010881665497836E-026
 -2.599999999999999E-003    1.657577777060283E-026
 -2.499999999999999E-003    2.257143658558681E-026
 -2.399999999999999E-003    2.720770823668709E-026
 -2.299999999999999E-003    2.954539875010649E-026
 -2.199999999999999E-003    2.870143685690078E-026
 -2.099999999999999E-003    2.397571050730906E-026
 -1.999999999999999E-003    1.498615409743852E-026
 -1.899999999999999E-003    1.796867989095214E-027
 -1.799999999999999E-003   -1.497878589229693E-026
 -1.699999999999999E-003   -3.411931953185474E-026
 -1.599999999999999E-003   -5.379880941346979E-026
 -1.499999999999999E-003   -7.166796274214025E-026
 -1.399999999999999E-003   -8.502106009268208E-026
 -1.299999999999999E-003   -9.104854595704716E-026
 -1.199999999999999E-003   -8.716415274931752E-026
 -1.099999999999999E-003   -7.138333384467738E-026
 -9.999999999999989E-004   -4.271788656377952E-026
 -8.999999999999990E-004   -1.541204515602569E-027
 -7.999999999999990E-004    5.012847306563990E-026
 -6.999999999999989E-004    1.084814725597723E-025
 -5.999999999999990E-004    1.679574169862769E-025
 -4.999999999999989E-004    2.215122474802591E-025
 -3.999999999999989E-004    2.611314062086137E-025
 -2.999999999999989E-004    2.785834764654849E-025
 -1.999999999999989E-004    2.663769539803479E-025
 -9.999999999999892E-005    2.188497317391333E-025
  1.084202172485504E-018    1.332881397584228E-025
  1.000000000000011E-004    1.094513153961803E-026
  2.000000000000011E-004   -1.421897419376834E-025
  3.000000000000011E-004   -3.150187092996262E-025
  4.000000000000011E-004   -4.914979730834357E-025
  5.000000000000011E-004   -6.514343205609581E-025
  6.000000000000011E-004   -7.719616057462698E-025
  7.000000000000011E-004   -8.296701625257222E-025
  8.000000000000011E-004   -8.032778207314554E-025
  9.000000000000012E-004   -6.766396885548384E-025
  1.000000000000001E-003   -4.418108467793373E-025
  1.100000000000001E-003   -1.018051907380196E-025
  1.200000000000001E-003    3.273443354092041E-025
  1.300000000000001E-003    8.156215255821301E-025
  1.400000000000001E-003    1.319508972362741E-024
  1.500000000000001E-003    1.784169225714647E-024
  1.600000000000001E-003    2.147425112407226E-024
  1.700000000000001E-003    2.345451548926626E-024
  1.800000000000001E-003    2.319861975662858E-024
  1.900000000000001E-003    2.025647942960766E-024
  2.000000000000001E-003    1.439211597177937E-024
  2.100000000000001E-003    5.655659436170302E-025
  2.200000000000001E-003   -5.563149078939106E-025
  2.300000000000001E-003   -1.850998391094125E-024
  2.400000000000001E-003   -3.207825863181335E-024
  2.500000000000001E-003   -4.486480499109771E-024
  2.600000000000001E-003   -5.527112012225779E-024
  2.700000000000001E-003   -6.164750871936635E-024
  2.800000000000001E-003   -6.247178894165640E-024
  2.900000000000001E-003   -5.654864587895567E-024
  3.000000000000001E-003   -4.321045442777303E-024
  3.100000000000001E-003   -2.249655080706236E-024
  3.200000000000001E-003    4.714045815398366E-025
  3.300000000000001E-003    3.664084916871799E-024
  3.400000000000001E-003    7.063188161075143E-024
  3.500000000000001E-003    1.032994630130073E-023
  3.600000000000001E-003    1.307662129704186E-023
  3.700000000000001E-003    1.490136581519792E-023
  3.800000000000001E-003    1.543124265137768E-023
  3.900000000000001E-003    1.436996059060509E-023
  4.000000000000001E-003    1.154567616208514E-023
  4.100000000000001E-003    6.953357323938225E-024
  4.200000000000001E-003    7.858012276283593E-025
  4.300000000000001E-003   -6.552373524563876E-024
  4.400000000000001E-003   -1.445247880628372E-023
  4.500000000000001E-003   -2.213435957536711E-023
  4.600000000000002E-003   -2.870455225510585E-023
  4.700000000000001E-003   -3.323793345153514E-023
  4.800000000000001E-003   -3.487762092020666E-023
  4.900000000000002E-003   -3.294488048350379E-023
  5.000000000000001E-003   -2.704805782643780E-023
  5.100000000000001E-003   -1.717777204379231E-023
  5.200000000000001E-003   -3.774834374987376E-024
  5.300000000000002E-003    1.224180598616467E-023
  5.400000000000001E-003    2.949745835363238E-023
  5.500000000000001E-003    4.624077823988449E-023
  5.600000000000002E-003    6.048038575684437E-023
  5.700000000000001E-003    7.017327474386014E-023
  5.800000000000001E-003    7.345227576703372E-023
  5.900000000000002E-003    6.887297288729886E-023
  6.000000000000001E-003    5.565468306972664E-023
  6.100000000000001E-003    3.388638443733349E-023
  6.200000000000002E-003    4.667357339550671E-024
  6.300000000000002E-003   -2.984538463557010E-023
  6.400000000000001E-003   -6.650493707072363E-023
  6.500000000000001E-003   -1.013700313640217E-022
  6.600000000000002E-003   -1.300278531310111E-022
  6.700000000000001E-003   -1.480291053309498E-022
  6.800000000000001E-003   -1.514042915092058E-022
  6.900000000000002E-003   -1.372151138728230E-022
  7.000000000000001E-003   -1.040829268683207E-022
  7.100000000000001E-003   -5.262842361090319E-023
  7.200000000000002E-003    1.424492735511762E-023
  7.300000000000002E-003    9.128400745229456E-023
  7.400000000000001E-003    1.710826337959238E-022
  7.500000000000001E-003    2.445655926008924E-022
  7.600000000000002E-003    3.017546956059233E-022
  7.700000000000001E-003    3.327785199401857E-022
  7.800000000000001E-003    3.290517428316592E-022
  7.900000000000001E-003    2.845176486646770E-022
  8.000000000000002E-003    1.968208553680803E-022
  8.100000000000001E-003    6.826202039325764E-023
  8.200000000000001E-003   -9.361490000528359E-023
  8.300000000000002E-003   -2.759363796535959E-022
  8.400000000000001E-003   -4.610136606463785E-022
  8.500000000000002E-003   -6.275071488475828E-022
  8.600000000000002E-003   -7.522215721723820E-022
  8.700000000000001E-003   -8.124414174217291E-022
  8.800000000000002E-003   -7.886351399699019E-022
  8.900000000000002E-003   -6.672858188410973E-022
  9.000000000000001E-003   -4.435492690781950E-022
  9.100000000000002E-003   -1.234065904227700E-022
  9.200000000000002E-003    2.750221326603258E-022
  9.300000000000001E-003    7.212984862223360E-022
  9.400000000000002E-003    1.173846583409715E-021
  9.500000000000001E-003    1.582596049723704E-021
  9.600000000000001E-003    1.893052498488871E-021
  9.700000000000002E-003    2.051589599763087E-021
  9.800000000000001E-003    2.011588377646609E-021
  9.900000000000001E-003    1.739887492482324E-021
  1.000000000000000E-002    1.222883512510666E-021
  1.010000000000000E-002    4.715457050501543E-022
  1.020000000000000E-002   -4.753956440225415E-022
  1.030000000000000E-002   -1.550756393956500E-021
  1.040000000000000E-002   -2.661200468956428E-021
  1.050000000000000E-002   -3.692803074216115E-021
  1.060000000000000E-002   -4.519819260577158E-021
  1.070000000000000E-002   -5.016247636235691E-021
  1.080000000000000E-002   -5.069403464012676E-021
  1.090000000000000E-002   -4.594365149435216E-021
  1.100000000000000E-002   -3.547878378184380E-021
  1.110000000000000E-002   -1.940119396260199E-021
  1.120000000000000E-002    1.572988864500668E-022
  1.130000000000000E-002    2.608567505971514E-021
  1.140000000000000E-002    5.217328484682164E-021
  1.150000000000000E-002    7.737386702199990E-021
  1.160000000000000E-002    9.890488127740070E-021
  1.170000000000000E-002    1.139042389069381E-020
  1.180000000000000E-002    1.197189900211900E-020
  1.190000000000000E-002    1.142187124318476E-020
  1.200000000000000E-002    9.610413124101358E-021
  1.210000000000000E-002    6.517757836042412E-021
  1.220000000000000E-002    2.254047024339254E-021
  1.230000000000000E-002   -2.931454054865932E-021
  1.240000000000000E-002   -8.654295893020390E-021
  1.250000000000000E-002   -1.441359931509010E-020
  1.260000000000000E-002   -1.962592766147208E-020
  1.270000000000000E-002   -2.367306038912437E-020
  1.280000000000000E-002   -2.596079553968573E-020
  1.290000000000000E-002   -2.598426101080160E-020
  1.300000000000000E-002   -2.339391190117933E-020
  1.310000000000000E-002   -1.805536507231669E-020
  1.320000000000000E-002   -1.009585686289929E-020
  1.330000000000000E-002    6.949574567129231E-023
  1.340000000000000E-002    1.173749935564862E-020
  1.350000000000000E-002    2.394657520544083E-020
  1.360000000000000E-002    3.553773710313802E-020
  1.370000000000000E-002    4.524506839575552E-020
  1.380000000000000E-002    5.181061017411482E-020
  1.390000000000000E-002    5.411525612815180E-020
  1.400000000000000E-002    5.131428664908814E-020
  1.410000000000000E-002    4.296411161415903E-020
  1.420000000000000E-002    2.912565349884456E-020
  1.430000000000000E-002    1.043028793655886E-020
  1.440000000000000E-002   -1.190396916995804E-020
  1.450000000000000E-002   -3.611491286933747E-020
  1.460000000000000E-002   -6.000106577660892E-020
  1.470000000000000E-002   -8.108709438057209E-020
  1.480000000000000E-002   -9.684102461147253E-020
  1.490000000000000E-002   -1.049279005762489E-019
  1.500000000000000E-002   -1.034785480322615E-019
  1.510000000000000E-002   -9.134747809114328E-020
  1.520000000000000E-002   -6.833146853997166E-020
  1.530000000000000E-002   -3.532047437906364E-020
  1.540000000000000E-002    5.644367771379586E-021
  1.550000000000000E-002    5.142455830093259E-020
  1.560000000000000E-002    9.795992365949061E-020
  1.570000000000000E-002    1.405645254299958E-019
  1.580000000000000E-002    1.743284312241579E-019
  1.590000000000000E-002    1.945979198088402E-019
  1.600000000000000E-002    1.974945823384626E-019
  1.610000000000000E-002    1.804241385306774E-019
  1.620000000000000E-002    1.425202525286480E-019
  1.630000000000000E-002    8.496794303424258E-020
  1.640000000000000E-002    1.115592480955160E-020
  1.650000000000000E-002   -7.338099187279446E-020
  1.660000000000000E-002   -1.612526798128795E-019
  1.670000000000000E-002   -2.437380041471282E-019
  1.680000000000000E-002   -3.115198805619332E-019
  1.690000000000000E-002   -3.555820624775923E-019
  1.700000000000000E-002   -3.681950126345648E-019
  1.710000000000000E-002   -3.438994594830648E-019
  1.720000000000000E-002   -2.803832287851561E-019
  1.730000000000000E-002   -1.791451434760995E-019
  1.740000000000000E-002   -4.584649033338256E-020
  1.750000000000000E-002    1.097285989953391E-019
  1.760000000000000E-002    2.741523671513244E-019
  1.770000000000000E-002    4.312811052427428E-019
  1.780000000000000E-002    5.635935408028774E-019
  1.790000000000000E-002    6.538534953714799E-019
  1.800000000000000E-002    6.869654478352018E-019
  1.810000000000000E-002    6.518518997474437E-019
  1.820000000000000E-002    5.431584471503813E-019
  1.830000000000000E-002    3.625817759867611E-019
  1.840000000000000E-002    1.196309693749232E-019
  1.850000000000000E-002   -1.683341848925588E-019
  1.860000000000000E-002   -4.768892828412811E-019
  1.870000000000000E-002   -7.761815353035928E-019