 -4.000000000000000E-002    0.000000000000000E+000
 -3.990000000000000E-002    0.000000000000000E+000
 -3.980000000000000E-002    0.000000000000000E+000
 -3.970000000000000E-002    0.000000000000000E+000
 -3.960000000000000E-002    0.000000000000000E+000
 -3.950000000000000E-002    0.000000000000000E+000
 -3.940000000000000E-002    0.000000000000000E+000
 -3.930000000000000E-002    0.000000000000000E+000
 -3.920000000000000E-002    0.000000000000000E+000
 -3.910000000000000E-002    0.000000000000000E+000
 -3.900000000000000E-002    0.000000000000000E+000
 -3.890000000000000E-002    0.000000000000000E+000
 -3.880000000000000E-002    0.000000000000000E+000
 -3.870000000000000E-002    0.000000000000000E+000
 -3.860000000000000E-002    0.000000000000000E+000
 -3.850000000000000E-002    0.000000000000000E+000
 -3.840000000000000E-002    0.000000000000000E+000
 -3.830000000000000E-002    0.000000000000000E+000
 -3.820000000000000E-002    0.000000000000000E+000
 -3.810000000000000E-002    0.000000000000000E+000
 -3.800000000000000E-002    0.000000000000000E+000
 -3.790000000000000E-002    0.000000000000000E+000
 -3.780000000000000E-002    0.000000000000000E+000
 -3.770000000000000E-002    0.000000000000000E+000
 -3.760000000000000E-002    0.000000000000000E+000
 -3.750000000000000E-002    0.000000000000000E+000
 -3.740000000000000E-002    0.000000000000000E+000
 -3.730000000000000E-002    0.000000000000000E+000
 -3.720000000000000E-002    0.000000000000000E+000
 -3.710000000000000E-002    0.000000000000000E+000
 -3.700000000000000E-002    0.000000000000000E+000
 -3.690000000000000E-002    0.000000000000000E+000
 -3.680000000000000E-002    0.000000000000000E+000
 -3.670000000000000E-002    0.000000000000000E+000
 -3.660000000000000E-002    0.000000000000000E+000
 -3.650000000000000E-002    0.000000000000000E+000
 -3.640000000000000E-002    0.000000000000000E+000
 -3.630000000000000E-002    0.000000000000000E+000
 -3.620000000000000E-002    0.000000000000000E+000
 -3.610000000000000E-002    0.000000000000000E+000
 -3.600000000000000E-002    0.000000000000000E+000
 -3.590000000000000E-002    0.000000000000000E+000
 -3.580000000000000E-002    0.000000000000000E+000
 -3.570000000000000E-002    0.000000000000000E+000
 -3.560000000000000E-002    0.000000000000000E+000
 -3.550000000000000E-002    0.000000000000000E+000
 -3.540000000000000E-002    0.000000000000000E+000
 -3.530000000000000E-002    0.000000000000000E+000
 -3.520000000000000E-002    0.000000000000000E+000
 -3.510000000000000E-002    0.000000000000000E+000
 -3.500000000000000E-002    0.000000000000000E+000
 -3.490000000000000E-002    0.000000000000000E+000
 -3.480000000000000E-002    0.000000000000000E+000
 -3.470000000000000E-002    0.000000000000000E+000
 -3.460000000000000E-002    0.000000000000000E+000
 -3.450000000000000E-002    0.000000000000000E+000
 -3.440000000000000E-002    0.000000000000000E+000
 -3.430000000000000E-002    0.000000000000000E+000
 -3.420000000000000E-002    0.000000000000000E+000
 -3.410000000000000E-002    0.000000000000000E+000
 -3.400000000000000E-002   -1.624932229848407E-047
 -3.390000000000000E-002   -3.249864459696815E-047
 -3.380000000000000E-002   -1.266431127647337E-046
 -3.370000000000000E-002   -1.243942331499946E-046
 -3.360000000000000E-002   -1.221453535352556E-046
 -3.350000000000000E-002   -4.484706073636498E-047
 -3.340000000000000E-002    3.020235244778649E-047
 -3.330000000000000E-002    1.654878983111795E-046
 -3.320000000000000E-002    2.234519215496004E-046
 -3.310000000000000E-002    2.737930437499109E-046
 -3.300000000000000E-002    7.763822122788236E-046
 -3.290000000000000E-002    2.264073542165398E-045
 -3.280000000000000E-002    4.711283170219837E-045
 -3.270000000000000E-002    9.004112792212456E-045
 -3.260000000000000E-002    1.518714180874482E-044
 -3.250000000000000E-002    2.488166882706341E-044
 -3.240000000000000E-002    3.717711506792748E-044
 -3.230000000000000E-002    5.122561516195190E-044
 -3.220000000000000E-002    6.186708489510416E-044
 -3.210000000000000E-002    5.981402823270893E-044
 -3.200000000000000E-002    2.755854468905950E-044
 -3.190000000000000E-002   -6.366847011731612E-044
 -3.180000000000000E-002   -2.581508937979446E-043
 -3.170000000000000E-002   -6.188756416704277E-043
 -3.160000000000000E-002   -1.224649234358681E-042
 -3.150000000000000E-002   -2.163758777722847E-042
 -3.140000000000000E-002   -3.509387840715207E-042
 -3.130000000000000E-002   -5.278851874503749E-042
 -3.120000000000000E-002   -7.354234870809841E-042
 -3.110000000000000E-002   -9.370122562946371E-042
 -3.100000000000000E-002   -1.054911025927328E-041
 -3.090000000000000E-002   -9.493750280011703E-042
 -3.080000000000000E-002   -3.950430518418118E-042
 -3.070000000000000E-002    9.396607673804504E-042
 -3.060000000000000E-002    3.502986610110424E-041
 -3.050000000000000E-002    7.843931082175215E-041
 -3.040000000000000E-002    1.454917454135566E-040
 -3.030000000000000E-002    2.410438229150851E-040
 -3.020000000000000E-002    3.664614548156081E-040
 -3.010000000000000E-002    5.157073632289503E-040
 -3.000000000000000E-002    6.697267282100889E-040
 -2.990000000000000E-002    7.891204904962098E-040
 -2.980000000000000E-002    8.055280930202296E-040
 -2.970000000000000E-002    6.129010113380716E-040
 -2.960000000000000E-002    6.089488510474713E-041
 -2.950000000000000E-002   -1.045934777997269E-039
 -2.940000000000000E-002   -2.937809269478601E-039
 -2.930000000000000E-002   -5.851242431913202E-039
 -2.920000000000000E-002   -9.973967074695027E-039
 -2.910000000000000E-002   -1.535457334838746E-038
 -2.900000000000000E-002   -2.176959456872174E-038
 -2.890000000000000E-002   -2.854539202394964E-038
 -2.880000000000000E-002   -3.434104819613495E-038
 -2.870000000000000E-002   -3.691267293250000E-038
 -2.860000000000000E-002   -3.290024290970184E-038
 -2.850000000000000E-002   -1.770503994507870E-038
 -2.840000000000000E-002    1.444251472188421E-038
 -2.830000000000000E-002    7.009242422139950E-038
 -2.820000000000000E-002    1.557024696760988E-037
 -2.810000000000000E-002    2.761132019734175E-037
 -2.800000000000000E-002    4.322202925644597E-037
 -2.790000000000000E-002    6.177598188511651E-037
 -2.780000000000000E-002    8.152603026889476E-037
 -2.770000000000000E-002    9.914273555557035E-037
 -2.760000000000000E-002    1.092553088594457E-036
 -2.750000000000000E-002    1.040949448823096E-036
 -2.740000000000000E-002    7.338974973544228E-037
 -2.730000000000000E-002    4.710021821899438E-038
 -2.720000000000000E-002   -1.154923281750290E-036
 -2.710000000000000E-002   -2.998852715397665E-036
 -2.700000000000000E-002   -5.570521945531882E-036
 -2.690000000000000E-002   -8.869210661096838E-036
 -2.680000000000000E-002   -1.274831566352733E-035
 -2.670000000000000E-002   -1.684533667646499E-035
 -2.660000000000000E-002   -2.050823448629306E-035
 -2.650000000000000E-002   -2.273053158891743E-035
 -2.640000000000000E-002   -2.211380271356049E-035
 -2.630000000000000E-002   -1.688308456043847E-035
 -2.620000000000000E-002   -4.986013754858471E-036
 -2.610000000000000E-002    1.568996737162936E-035
 -2.600000000000000E-002    4.694922311601598E-035
 -2.590000000000000E-002    8.974593297756140E-035
 -2.580000000000000E-002    1.434631086971957E-034
 -2.570000000000000E-002    2.050419320462546E-034
 -2.560000000000000E-002    2.680367348193189E-034
 -2.550000000000000E-002    3.217299970790569E-034
 -2.540000000000000E-002    3.505163326871111E-034
 -2.530000000000000E-002    3.338348672067293E-034
 -2.520000000000000E-002    2.469958463578230E-034
 -2.510000000000000E-002    6.328346795121249E-035
 -2.500000000000000E-002   -2.423029263919786E-034
 -2.490000000000000E-002   -6.873925453275185E-034
 -2.480000000000000E-002   -1.274612942001471E-033
 -2.470000000000000E-002   -1.982248190924999E-033
 -2.460000000000000E-002   -2.753931873610448E-033
 -2.450000000000000E-002   -3.488737027219793E-033
 -2.440000000000000E-002   -4.033737452242611E-033
 -2.430000000000000E-002   -4.181841047778687E-033
 -2.420000000000000E-002   -3.678308841512819E-033
 -2.410000000000000E-002   -2.239754379636489E-033
 -2.400000000000000E-002    4.108516100975731E-034
 -2.390000000000000E-002    4.490453055765916E-033
 -2.380000000000000E-002    1.008281025175905E-032
 -2.370000000000000E-002    1.704851894047840E-032
 -2.360000000000000E-002    2.492496302843561E-032
 -2.350000000000000E-002    3.282887133716908E-032
 -2.340000000000000E-002    3.938037314370220E-032
 -2.330000000000000E-002    4.267405618725716E-032
 -2.320000000000000E-002    4.032770156586295E-032
 -2.310000000000000E-002    2.964250778427756E-032
 -2.300000000000000E-002    7.906135937204536E-033
 -2.290000000000000E-002   -2.713785192491333E-032
 -2.280000000000000E-002   -7.664860372249460E-032
 -2.270000000000000E-002   -1.398949103456392E-031
 -2.260000000000000E-002   -2.133701138609046E-031
 -2.250000000000000E-002   -2.899194893472620E-031
 -2.240000000000000E-002   -3.580392409613328E-031
 -2.230000000000000E-002   -4.015566795264518E-031
 -2.220000000000000E-002   -3.999430155942570E-031
 -2.210000000000000E-002   -3.295328292787306E-031
 -2.200000000000000E-002   -1.659023425036734E-031
 -2.190000000000000E-002    1.124038180764266E-031
 -2.180000000000000E-002    5.187519653743376E-031
 -2.170000000000000E-002    1.052061841707410E-030
 -2.160000000000000E-002    1.689655668450148E-030
 -2.150000000000000E-002    2.380125881611305E-030
 -2.140000000000000E-002    3.037394346734603E-030
 -2.130000000000000E-002    3.537543427262710E-030
 -2.120000000000000E-002    3.720275520030922E-030
 -2.110000000000000E-002    3.396998804303543E-030
 -2.100000000000000E-002    2.367402429623549E-030
 -2.090000000000000E-002    4.458791153543119E-031
 -2.080000000000000E-002   -2.501811663386287E-030
 -2.070000000000000E-002   -6.512718504306099E-030
 -2.060000000000000E-002   -1.147474223060450E-029
 -2.050000000000000E-002   -1.707400619770087E-029
 -2.040000000000000E-002   -2.274955127760736E-029
 -2.030000000000000E-002   -2.766582752496108E-029
 -2.020000000000000E-002   -3.071541344350479E-029
 -2.010000000000000E-002   -3.056511245354520E-029
 -2.000000000000000E-002   -2.575760784957264E-029
 -1.990000000000000E-002   -1.487759639766368E-029
 -1.980000000000000E-002    3.214854251433329E-030
 -1.970000000000000E-002    2.909018461574888E-029
 -1.960000000000000E-002    6.241320051076967E-029
 -1.950000000000000E-002    1.015979262227385E-028
 -1.940000000000000E-002    1.435020678165600E-028
 -1.930000000000000E-002    1.832241663491836E-028
 -1.920000000000000E-002    2.140771261773688E-028
 -1.910000000000000E-002    2.278160625012905E-028
 -1.900000000000000E-002    2.151915400928944E-028
 -1.890000000000000E-002    1.668801155967530E-028
 -1.880000000000000E-002    7.480835672893787E-029
 -1.870000000000000E-002   -6.616762990539995E-029
 -1.860000000000000E-002   -2.563288622987609E-028
 -1.850000000000000E-002   -4.890923103707387E-028
 -1.840000000000000E-002   -7.492072902174421E-028
 -1.830000000000000E-002   -1.011491257246909E-027
 -1.820000000000000E-002   -1.240500972973528E-027
 -1.810000000000000E-002   -1.391550396329864E-027
 -1.800000000000000E-002   -1.413446312956013E-027
 -1.790000000000000E-002   -1.253208478610766E-027
 -1.780000000000000E-002   -8.628413108122614E-028
 -1.770000000000000E-002   -2.079595861844994E-028
 -1.760000000000000E-002    7.222724654776828E-028
 -1.750000000000000E-002    1.904829676595122E-027
 -1.740000000000000E-002    3.273482923857232E-027
 -1.730000000000000E-002    4.712106826135684E-027
 -1.720000000000000E-002    6.052580221444751E-027
 -1.710000000000000E-002    7.079230004696593E-027
 -1.700000000000000E-002    7.541557058413475E-027
 -1.690000000000000E-002    7.176426246790595E-027
 -1.680000000000000E-002    5.739919398870129E-027
 -1.670000000000000E-002    3.047794818574262E-027
 -1.660000000000000E-002   -9.781423408518393E-028
 -1.650000000000000E-002   -6.262239235995907E-027
 -1.640000000000000E-002   -1.253201667303479E-026
 -1.630000000000000E-002   -1.928774181784686E-026
 -1.620000000000000E-002   -2.579316184311285E-026
 -1.610000000000000E-002   -3.109602148299712E-026
 -1.600000000000000E-002   -3.408552413638091E-026
 -1.590000000000000E-002   -3.359143001647095E-026
 -1.580000000000000E-002   -2.852479292375912E-026
 -1.570000000000000E-002   -1.805471295297941E-026
 -1.560000000000000E-002   -1.808357886631402E-027
 -1.550000000000000E-002    1.992593204971868E-026
 -1.540000000000000E-002    4.601991516324837E-026
 -1.530000000000000E-002    7.438413147030094E-026
 -1.520000000000000E-002    1.019399340187941E-025
 -1.510000000000000E-002    1.247191948300053E-025
 -1.500000000000000E-002    1.381199581599837E-025
 -1.490000000000000E-002    1.373328453307420E-025
 -1.480000000000000E-002    1.179343403249398E-025
 -1.470000000000000E-002    7.661838477811534E-026
 -1.460000000000000E-002    1.200932144807174E-026
 -1.450000000000000E-002   -7.453102216044204E-026
 -1.440000000000000E-002   -1.782153553117200E-025
 -1.430000000000000E-002   -2.903960646410297E-025
 -1.420000000000000E-002   -3.985228974768789E-025
 -1.410000000000000E-002   -4.866251812735582E-025
 -1.400000000000000E-002   -5.364147284082484E-025
 -1.390000000000000E-002   -5.290553831545662E-025
 -1.380000000000000E-002   -4.475615245398190E-025
 -1.370000000000000E-002   -2.796949704687163E-025
 -1.360000000000000E-002   -2.111537845684062E-026
 -1.350000000000000E-002    3.215671983581509E-025
 -1.340000000000000E-002    7.282853328548742E-025
 -1.330000000000000E-002    1.164063492795720E-024
 -1.320000000000000E-002    1.579142289229575E-024
 -1.310000000000000E-002    1.911142249442376E-024
 -1.300000000000000E-002    2.089593495912264E-024
 -1.290000000000000E-002    2.042933364503895E-024
 -1.280000000000000E-002    1.707766779317875E-024
 -1.270000000000000E-002    1.039824518168036E-024
 -1.260000000000000E-002    2.565344113955291E-026
 -1.250000000000000E-002   -1.306317051288718E-024
 -1.240000000000000E-002   -2.876990790427062E-024
 -1.230000000000000E-002   -4.551951359944712E-024
 -1.220000000000000E-002   -6.142769478801500E-024
 -1.210000000000000E-002   -7.415827305176827E-024
 -1.200000000000000E-002   -8.109691263870920E-024
 -1.190000000000000E-002   -7.961172054648679E-024
 -1.180000000000000E-002   -6.739153922017456E-024
 -1.170000000000000E-002   -4.283966407334132E-024
 -1.160000000000000E-002   -5.486856304635323E-025
 -1.150000000000000E-002    4.362485444259179E-024
 -1.140000000000000E-002    1.016458871261908E-023
 -1.130000000000000E-002    1.637734568258987E-023
 -1.120000000000000E-002    2.233174600611842E-023
 -1.110000000000000E-002    2.720275820043950E-023
 -1.100000000000000E-002    3.007115463031668E-023
 -1.090000000000000E-002    3.001436458295618E-023
 -1.080000000000000E-002    2.622263729441066E-023
 -1.070000000000000E-002    1.813230015546199E-023
 -1.060000000000000E-002    5.563703875472212E-024
 -1.050000000000000E-002   -1.115259879447202E-023
 -1.040000000000000E-002   -3.108068607368938E-023
 -1.030000000000000E-002   -5.263542407997082E-023
 -1.020000000000000E-002   -7.360904385076481E-023
 -1.010000000000000E-002   -9.128306738711579E-023
 -1.000000000000000E-002   -1.026336950771179E-022
 -9.899999999999999E-003   -1.046284372024471E-022
 -9.800000000000000E-003   -9.460025091052648E-023
 -9.699999999999999E-003   -7.067148320990141E-023
 -9.599999999999999E-003   -3.218673761780932E-023
 -9.500000000000000E-003    1.989736330265988E-023
 -9.399999999999999E-003    8.272559338835923E-023
 -9.299999999999999E-003    1.514222568023276E-022
 -9.200000000000000E-003    2.191903625675571E-022
 -9.099999999999999E-003    2.776736246781367E-022
 -8.999999999999999E-003    3.176010375451095E-022
 -8.900000000000000E-003    3.297013832114594E-022
 -8.799999999999999E-003    3.058398503683223E-022
 -8.699999999999999E-003    2.402877778666025E-022
 -8.600000000000000E-003    1.309996159603235E-022
 -8.499999999999999E-003   -1.926109776552069E-023
 -8.399999999999999E-003   -2.021225956379106E-022
 -8.300000000000000E-003   -4.033095311561810E-022
 -8.199999999999999E-003   -6.030072537744865E-022
 -8.100000000000000E-003   -7.769951986620616E-022
 -8.000000000000000E-003   -8.985876615297181E-022
 -7.899999999999999E-003   -9.413295820241927E-022
 -7.800000000000000E-003   -8.822872308537084E-022
 -7.699999999999999E-003   -7.056601288674257E-022
 -7.599999999999999E-003   -4.063429909636378E-022
 -7.499999999999999E-003    7.019199479562090E-024
 -7.399999999999999E-003    5.099765518167225E-022
 -7.299999999999999E-003    1.061702688120178E-021
 -7.199999999999999E-003    1.606315743124516E-021
 -7.100000000000000E-003    2.076353417415016E-021
 -6.999999999999999E-003    2.398459324816344E-021
 -6.899999999999999E-003    2.501073121784818E-021
 -6.800000000000000E-003    2.323619005551828E-021
 -6.699999999999999E-003    1.826391795527224E-021
 -6.599999999999999E-003    1.000071729411593E-021
 -6.499999999999999E-003   -1.263920970456362E-022
 -6.399999999999999E-003   -1.480865708458648E-021
 -6.299999999999999E-003   -2.947346419787043E-021
 -6.199999999999999E-003   -4.370531094751792E-021
 -6.100000000000000E-003   -5.566232806798441E-021
 -5.999999999999999E-003   -6.337636303588784E-021
 -5.899999999999999E-003   -6.496685455069970E-021
 -5.800000000000000E-003   -5.889089868497795E-021
 -5.699999999999999E-003   -4.420651948505789E-021
 -5.599999999999999E-003   -2.081999381285055E-021
 -5.499999999999999E-003    1.031684770069678E-021
 -5.399999999999999E-003    4.709407597265700E-021
 -5.299999999999999E-003    8.624821120205091E-021
 -5.199999999999999E-003    1.235081345714619E-020
 -5.099999999999999E-003    1.538955274181074E-020
 -4.999999999999999E-003    1.721756260353922E-020
 -4.899999999999999E-003    1.734363664653391E-020
 -4.799999999999999E-003    1.537526919421628E-020
 -4.699999999999999E-003    1.108735912808965E-020
 -4.599999999999999E-003    4.485399545870205E-021
 -4.499999999999999E-003   -4.145626238004768E-021
 -4.399999999999999E-003   -1.421554426764807E-020
 -4.299999999999999E-003   -2.483437271236215E-020
 -4.199999999999999E-003   -3.485467299750876E-020
 -4.099999999999999E-003   -4.295344433186684E-020
 -3.999999999999999E-003   -4.775188687698887E-020
 -3.899999999999999E-003   -4.796674670952002E-020
 -3.799999999999999E-003   -4.258157074653105E-020
 -3.699999999999999E-003   -3.102179621181059E-020
 -3.599999999999999E-003   -1.331361283873860E-020
 -3.499999999999999E-003    9.795220079754610E-021
 -3.399999999999999E-003    3.677451578438998E-020
 -3.299999999999999E-003    6.532986302408338E-020
 -3.199999999999999E-003    9.251351265945119E-020
 -3.099999999999999E-003    1.149330393856658E-019
 -2.999999999999999E-003    1.290528340446782E-019
 -2.899999999999999E-003    1.315715936401043E-019
 -2.799999999999999E-003    1.198465266556888E-019
 -2.699999999999999E-003    9.232428427472147E-020
 -2.599999999999999E-003    4.893016516728053E-020
 -2.499999999999999E-003   -8.637181833660000E-021
 -2.399999999999999E-003   -7.675744412176053E-020
 -2.299999999999999E-003   -1.499310992031258E-019
 -2.199999999999999E-003   -2.210434199197423E-019
 -2.099999999999999E-003   -2.818611387234513E-019
 -1.999999999999999E-003   -3.237475388033934E-019
 -1.899999999999999E-003   -3.385547767497338E-019
 -1.799999999999999E-003   -3.196241385334114E-019
 -1.699999999999999E-003   -2.627997552772751E-019
 -1.599999999999999E-003   -1.673434438500169E-019
 -1.499999999999999E-003   -3.662934865667358E-020
 -1.399999999999999E-003    1.214994126034917E-019
 -1.299999999999999E-003    2.948116773021606E-019
 -1.199999999999999E-003    4.672740902631225E-019
 -1.099999999999999E-003    6.201639409148520E-019
 -9.999999999999989E-004    7.336736131778440E-019
 -8.999999999999990E-004    7.889117918352722E-019
 -7.999999999999990E-004    7.701410921353685E-019
 -6.999999999999989E-004    6.670445070185701E-019
 -5.999999999999990E-004    4.767665234982435E-019
 -4.999999999999989E-004    2.054650122408383E-019
 -3.999999999999989E-004   -1.308833221795360E-019
 -2.999999999999989E-004   -5.066376859073481E-019
 -1.999999999999989E-004   -8.877481218109842E-019
 -9.999999999999892E-005   -1.234151557988627E-018
  1.084202172485504E-018   -1.503224146519895E-018
  1.000000000000011E-004   -1.654073542096251E-018
  2.000000000000011E-004   -1.652327412131200E-018
  3.000000000000011E-004   -1.474956640562804E-018
  4.000000000000011E-004   -1.114601894400712E-018
  5.000000000000011E-004   -5.828326042215170E-019
  6.000000000000011E-004    8.819153743247650E-020
  7.000000000000011E-004    8.461002730217352E-019
  8.000000000000011E-004    1.621010300125721E-018
  9.000000000000012E-004    2.330603926301215E-018
  1.000000000000001E-003    2.887388270895302E-018
  1.100000000000001E-003    3.207663218039832E-018
  1.200000000000001E-003    3.221451615862598E-018
  1.300000000000001E-003    2.882425554394118E-018
  1.400000000000001E-003    2.176711297724445E-018
  1.500000000000001E-003    1.129403413762541E-018
  1.600000000000001E-003   -1.922992239279577E-019
  1.700000000000001E-003   -1.680213011651819E-018
  1.800000000000001E-003   -3.191078197200413E-018
  1.900000000000001E-003   -4.557331438645580E-018
  2.000000000000001E-003   -5.602281468747173E-018
  2.100000000000001E-003   -6.158655117125157E-018
  2.200000000000001E-003   -6.088951710033565E-018
  2.300000000000001E-003   -5.305588638256583E-018
  2.400000000000001E-003   -3.788541483371988E-018
  2.500000000000001E-003   -1.598103129288478E-018
  2.600000000000001E-003    1.119421935496230E-018
  2.700000000000001E-003    4.134817018513481E-018
  2.800000000000001E-003    7.148857741977959E-018
  2.900000000000001E-003    9.815097849284904E-018
  3.000000000000001E-003    1.177148363843301E-017
  3.100000000000001E-003    1.267865754969496E-017
  3.200000000000001E-003    1.226167561800934E-017
  3.300000000000001E-003    1.035103691599682E-017
  3.400000000000001E-003    6.918334472795696E-018
  3.500000000000001E-003    2.101763382418165E-018
  3.600000000000001E-003   -3.782910352466212E-018
  3.700000000000001E-003   -1.024936484284883E-017
  3.800000000000001E-003   -1.666766645078433E-017
  3.900000000000001E-003   -2.231124880880582E-017
  4.000000000000001E-003   -2.642178787133834E-017
  4.100000000000001E-003   -2.828756592151464E-017
  4.200000000000001E-003   -2.732881319704442E-017
  4.300000000000001E-003   -2.318173187351157E-017
  4.400000000000001E-003   -1.577189335173150E-017
  4.500000000000001E-003   -5.367394437402135E-018
  4.600000000000002E-003    7.396979063332096E-018
  4.700000000000001E-003    2.153150941371918E-017
  4.800000000000001E-003    3.574330205920350E-017
  4.900000000000002E-003    4.852832346113450E-017
  5.000000000000001E-003    5.829977142722130E-017
  5.100000000000001E-003    6.354440461753359E-017
  5.200000000000001E-003    6.299402557243835E-017
  5.300000000000002E-003    5.579628142232417E-017
  5.400000000000001E-003    4.166626575538564E-017
  5.500000000000001E-003    2.100026685018188E-017
  5.600000000000002E-003   -5.065825032490976E-018
  5.700000000000001E-003   -3.466747252666859E-017
  5.800000000000001E-003   -6.530038346334900E-017
  5.900000000000002E-003   -9.398886164802614E-017
  6.000000000000001E-003   -1.175270373625776E-016
  6.100000000000001E-003   -1.327777556020751E-016
  6.200000000000002E-003   -1.370057172365388E-016
  6.300000000000002E-003   -1.282147791883201E-016
  6.400000000000001E-003   -1.054548744867022E-016
  6.500000000000001E-003   -6.906228604443287E-017
  6.600000000000002E-003   -2.079965342778332E-017
  6.700000000000001E-003    3.613241291815375E-017
  6.800000000000001E-003    9.723011002399576E-017
  6.900000000000002E-003    1.569730109261532E-016
  7.000000000000001E-003    2.092526459140918E-016
  7.100000000000001E-003    2.479168446245868E-016
  7.200000000000002E-003    2.673888492066860E-016
  7.300000000000002E-003    2.633069641044057E-016
  7.400000000000001E-003    2.331208105701222E-016
  7.500000000000001E-003    1.765777235153657E-016
  7.600000000000002E-003    9.603492611529314E-017
  7.700000000000001E-003   -3.456379502449382E-018
  7.800000000000001E-003   -1.143321477469103E-016
  7.900000000000001E-003   -2.269760954139746E-016
  8.000000000000002E-003   -3.304466693603960E-016
  8.100000000000001E-003   -4.134282773861432E-016
  8.200000000000001E-003   -4.653361978050818E-016
  8.300000000000002E-003   -4.774790975880929E-016
  8.400000000000001E-003   -4.441676272213810E-016
  8.500000000000002E-003   -3.636463414834861E-016
  8.600000000000002E-003   -2.387326133426357E-016
  8.700000000000001E-003   -7.706090771688012E-017
  8.800000000000002E-003    1.091404160623314E-016
  8.900000000000002E-003    3.037717108236024E-016
  9.000000000000001E-003    4.880697257310548E-016
  9.100000000000002E-003    6.422314845378588E-016
  9.200000000000002E-003    7.473360505823602E-016
  9.300000000000001E-003    7.873992073515809E-016
  9.400000000000002E-003    7.513630612567600E-016
  9.500000000000001E-003    6.348057023269226E-016
  9.600000000000001E-003    4.411593445447234E-016
  9.700000000000002E-003    1.822517960984422E-016
  9.800000000000001E-003   -1.219653280141604E-016
  9.900000000000001E-003   -4.445697338416052E-016
  1.000000000000000E-002   -7.536861567795754E-016
  1.010000000000000E-002   -1.015259537766390E-015
  1.020000000000000E-002   -1.196383410935013E-015
  1.030000000000000E-002   -1.268898594188583E-015
  1.040000000000000E-002   -1.212916849739455E-015
  1.050000000000000E-002   -1.019890930192021E-015
  1.060000000000000E-002   -6.948520189696717E-016
  1.070000000000000E-002   -2.574817339540000E-016
  1.080000000000000E-002    2.582361054772819E-016
  1.090000000000000E-002    8.059152587262920E-016
  1.100000000000000E-002    1.330206257916204E-015
  1.110000000000000E-002    1.771597308979954E-015
  1.120000000000000E-002    2.072235888298642E-015
  1.130000000000000E-002    2.182276367489058E-015
  1.140000000000000E-002    2.066154900566736E-015
  1.150000000000000E-002    1.708114988710945E-015
  1.160000000000000E-002    1.116313629142411E-015
  1.170000000000000E-002    3.249029310586751E-016
  1.180000000000000E-002   -6.063794187583034E-016
  1.190000000000000E-002   -1.595370011250020E-015
  1.200000000000000E-002   -2.543390262897480E-015
  1.210000000000000E-002   -3.343622742124175E-015
  1.220000000000000E-002   -3.891377569948131E-015
  1.230000000000000E-002   -4.095387642275885E-015
  1.240000000000000E-002   -3.889091031465731E-015
  1.250000000000000E-002   -3.240699318344423E-015
  1.260000000000000E-002   -2.160863219483746E-015
  1.270000000000000E-002   -7.068338256211414E-016
  1.280000000000000E-002    1.017735612147944E-015
  1.290000000000000E-002    2.867855161754826E-015
  1.300000000000000E-002    4.667187373864052E-015
  1.310000000000000E-002    6.222514553334130E-015
  1.320000000000000E-002    7.341714757182852E-015
  1.330000000000000E-002    7.853790435734257E-015
  1.340000000000000E-002    7.629134125847371E-015
  1.350000000000000E-002    6.597923290195884E-015
  1.360000000000000E-002    4.764549132485382E-015
  1.370000000000000E-002    2.216093909529405E-015
  1.380000000000000E-002   -8.767117375847046E-016
  1.390000000000000E-002   -4.267034752418512E-015
  1.400000000000000E-002   -7.648198819847575E-015
  1.410000000000000E-002   -1.067799606068041E-014
  1.420000000000000E-002   -1.300947241489102E-014
  1.430000000000000E-002   -1.432576390466438E-014
  1.440000000000000E-002   -1.437585353067517E-014
  1.450000000000000E-002   -1.300768606313545E-014
  1.460000000000000E-002   -1.019492330626888E-014
  1.470000000000000E-002   -6.053874765501840E-015
  1.480000000000000E-002   -8.477647818116995E-016
  1.490000000000000E-002    5.023524514212969E-015
  1.500000000000000E-002    1.104880166469794E-014
  1.510000000000000E-002    1.664506716521506E-014
  1.520000000000000E-002    2.120868399461032E-014
  1.530000000000000E-002    2.417425356229341E-014
  1.540000000000000E-002    2.507599509791862E-014
  1.550000000000000E-002    2.360559099751813E-014
  1.560000000000000E-002    1.966022701800660E-014
  1.570000000000000E-002    1.337482751991557E-014
  1.580000000000000E-002    5.133488013329137E-015
  1.590000000000000E-002   -4.443270852861064E-015
  1.600000000000000E-002   -1.453665902509656E-014
  1.610000000000000E-002   -2.419200625531506E-014
  1.620000000000000E-002   -3.240146431326437E-014
  1.630000000000000E-002   -3.820070013816926E-014
  1.640000000000000E-002   -4.077113009487509E-014
  1.650000000000000E-002   -3.953773296399993E-014
  1.660000000000000E-002   -3.425201644913470E-014
  1.670000000000000E-002   -2.505006996237682E-014
  1.680000000000000E-002   -1.247719814649502E-014
  1.690000000000000E-002    2.526766391841542E-015
  1.700000000000000E-002    1.868393636182336E-014
  1.710000000000000E-002    3.447507672934387E-014
  1.720000000000000E-002    4.827060815271189E-014
  1.730000000000000E-002    5.848588962294269E-014
  1.740000000000000E-002    6.374724832731632E-014
  1.750000000000000E-002    6.305268294698588E-014
  1.760000000000000E-002    5.591031340300695E-014
  1.770000000000000E-002    4.243800846181702E-014
  1.780000000000000E-002    2.341019005153642E-014
  1.790000000000000E-002    2.418004672010495E-016
  1.800000000000000E-002   -2.509498772598847E-014
  1.810000000000000E-002   -5.021938360308591E-014
  1.820000000000000E-002   -7.254684436429576E-014
  1.830000000000000E-002   -8.953455686314262E-014
  1.840000000000000E-002   -9.894615700278428E-014
  1.850000000000000E-002   -9.911020024185263E-014
  1.860000000000000E-002   -8.914514828723399E-014
  1.870000000000000E-002   -6.912454768434976E-014