 -4.000000000000000E-002    0.000000000000000E+000
 -3.990000000000000E-002    0.000000000000000E+000
 -3.980000000000000E-002    0.000000000000000E+000
 -3.970000000000000E-002    0.000000000000000E+000
 -3.960000000000000E-002    0.000000000000000E+000
 -3.950000000000000E-002    0.000000000000000E+000
 -3.940000000000000E-002    0.000000000000000E+000
 -3.930000000000000E-002    0.000000000000000E+000
 -3.920000000000000E-002    0.000000000000000E+000
 -3.910000000000000E-002    0.000000000000000E+000
 -3.900000000000000E-002    0.000000000000000E+000
 -3.890000000000000E-002    0.000000000000000E+000
 -3.880000000000000E-002    0.000000000000000E+000
 -3.870000000000000E-002    0.000000000000000E+000
 -3.860000000000000E-002    0.000000000000000E+000
 -3.850000000000000E-002    0.000000000000000E+000
 -3.840000000000000E-002    0.000000000000000E+000
 -3.830000000000000E-002    0.000000000000000E+000
 -3.820000000000000E-002    0.000000000000000E+000
 -3.810000000000000E-002    0.000000000000000E+000
 -3.800000000000000E-002    0.000000000000000E+000
 -3.790000000000000E-002    0.000000000000000E+000
 -3.780000000000000E-002    0.000000000000000E+000
 -3.770000000000000E-002    0.000000000000000E+000
 -3.760000000000000E-002    0.000000000000000E+000
 -3.750000000000000E-002    0.000000000000000E+000
 -3.740000000000000E-002   -1.923946669247390E-047
 -3.730000000000000E-002   -7.497097595098811E-047
 -3.720000000000000E-002   -1.976853290436465E-046
 -3.710000000000000E-002   -5.374528005793003E-046
 -3.700000000000000E-002   -1.733355739791809E-045
 -3.690000000000000E-002   -5.466513132203441E-045
 -3.680000000000000E-002   -1.598750292165155E-044
 -3.670000000000000E-002   -4.234973035840207E-044
 -3.660000000000000E-002   -1.057459849906406E-043
 -3.650000000000000E-002   -2.473880040902249E-043
 -3.640000000000000E-002   -5.338184562351443E-043
 -3.630000000000000E-002   -1.041044791901418E-042
 -3.620000000000000E-002   -1.769205374210845E-042
 -3.610000000000000E-002   -2.335835125232326E-042
 -3.600000000000000E-002   -1.161740944207686E-042
 -3.590000000000000E-002    6.476373151381459E-042
 -3.580000000000000E-002    3.265666686034512E-041
 -3.570000000000000E-002    1.052100000788099E-040
 -3.560000000000000E-002    2.832247862190975E-040
 -3.550000000000000E-002    6.834999867010208E-040
 -3.540000000000000E-002    1.521789227939253E-039
 -3.530000000000000E-002    3.170002209300864E-039
 -3.520000000000000E-002    6.221873114733512E-039
 -3.510000000000000E-002    1.153969404340457E-038
 -3.500000000000000E-002    2.021576917674792E-038
 -3.490000000000000E-002    3.331477701094193E-038
 -3.480000000000000E-002    5.115837134489686E-038
 -3.470000000000000E-002    7.176754453265260E-038
 -3.460000000000000E-002    8.790474964579165E-038
 -3.450000000000000E-002    8.200251146317031E-038
 -3.440000000000000E-002    1.822569871979421E-038
 -3.430000000000000E-002   -1.688216275576315E-037
 -3.420000000000000E-002   -5.883784434706998E-037
 -3.410000000000000E-002   -1.408569648131850E-036
 -3.400000000000000E-002   -2.866595794071093E-036
 -3.390000000000000E-002   -5.263042919563128E-036
 -3.380000000000000E-002   -8.921486275754569E-036
 -3.370000000000000E-002   -1.408460752130498E-035
 -3.360000000000000E-002   -2.070720337457732E-035
 -3.350000000000000E-002   -2.809763927581550E-035
 -3.340000000000000E-002   -3.435819015276867E-035
 -3.330000000000000E-002   -3.559011663030180E-035
 -3.320000000000000E-002   -2.487312803947500E-035
 -3.310000000000000E-002    8.882356775903555E-036
 -3.300000000000000E-002    8.196255100265800E-035
 -3.290000000000000E-002    2.162869781665468E-034
 -3.280000000000000E-002    4.384840803211982E-034
 -3.270000000000000E-002    7.764772447600576E-034
 -3.260000000000000E-002    1.252092350264252E-033
 -3.250000000000000E-002    1.867927336849915E-033
 -3.240000000000000E-002    2.586737306914094E-033
 -3.230000000000000E-002    3.302077639898623E-033
 -3.220000000000000E-002    3.800285892388035E-033
 -3.210000000000000E-002    3.716328946399394E-033
 -3.200000000000000E-002    2.489993388676870E-033
 -3.190000000000000E-002   -6.655101966376567E-034
 -3.180000000000000E-002   -6.763313737488735E-033
 -3.170000000000000E-002   -1.698359327961717E-032
 -3.160000000000000E-002   -3.251998085296579E-032
 -3.150000000000000E-002   -5.429075909919982E-032
 -3.140000000000000E-002   -8.247422407441085E-032
 -3.130000000000000E-002   -1.158376836671937E-031
 -3.120000000000000E-002   -1.508543007531315E-031
 -3.110000000000000E-002   -1.806474989357929E-031
 -3.100000000000000E-002   -1.938726108279332E-031
 -3.090000000000000E-002   -1.737419851701297E-031
 -3.080000000000000E-002   -9.751910501081318E-032
 -3.070000000000000E-002    6.305508453778159E-032
 -3.060000000000000E-002    3.398172543155802E-031
 -3.050000000000000E-002    7.640322958714312E-031
 -3.040000000000000E-002    1.359349907737201E-030
 -3.030000000000000E-002    2.131304284237796E-030
 -3.020000000000000E-002    3.053126892028446E-030
 -3.010000000000000E-002    4.048240297185600E-030
 -3.000000000000000E-002    4.970743315539190E-030
 -2.990000000000000E-002    5.586435722733550E-030
 -2.980000000000000E-002    5.558518996738958E-030
 -2.970000000000000E-002    4.443866682142409E-030
 -2.960000000000000E-002    1.707449069221105E-030
 -2.950000000000000E-002   -3.236208603742456E-030
 -2.940000000000000E-002   -1.094523436308800E-029
 -2.930000000000000E-002   -2.182836506654978E-029
 -2.920000000000000E-002   -3.597378193140903E-029
 -2.910000000000000E-002   -5.293111882009732E-029
 -2.900000000000000E-002   -7.145794849903123E-029
 -2.890000000000000E-002   -8.925698057529613E-029
 -2.880000000000000E-002   -1.027463711845559E-028
 -2.870000000000000E-002   -1.069254339822933E-028
 -2.860000000000000E-002   -9.541666898818082E-029
 -2.850000000000000E-002   -6.078040580248830E-029
 -2.840000000000000E-002    4.796136468441496E-030
 -2.830000000000000E-002    1.083427680861349E-028
 -2.820000000000000E-002    2.544241223251287E-028
 -2.810000000000000E-002    4.429316498978577E-028
 -2.800000000000000E-002    6.664498571100843E-028
 -2.790000000000000E-002    9.074271114907028E-028
 -2.780000000000000E-002    1.135549461469918E-027
 -2.770000000000000E-002    1.305897556053323E-027
 -2.760000000000000E-002    1.358650600137244E-027
 -2.750000000000000E-002    1.221248107348035E-027
 -2.740000000000000E-002    8.139630693547532E-028
 -2.730000000000000E-002    5.976084099922016E-029
 -2.720000000000000E-002   -1.100979977816160E-027
 -2.710000000000000E-002   -2.690869413128437E-027
 -2.700000000000000E-002   -4.671910600228520E-027
 -2.690000000000000E-002   -6.919901762082316E-027
 -2.680000000000000E-002   -9.200356058631057E-027
 -2.670000000000000E-002   -1.115094341757034E-026
 -2.660000000000000E-002   -1.227708209411391E-026
 -2.650000000000000E-002   -1.196823957895652E-026
 -2.640000000000000E-002   -9.543064514322769E-027
 -2.630000000000000E-002   -4.330280267432463E-027
 -2.620000000000000E-002    4.210228114315696E-027
 -2.610000000000000E-002    1.632657914216696E-026
 -2.600000000000000E-002    3.178200231880761E-026
 -2.590000000000000E-002    4.964713208744702E-026
 -2.580000000000000E-002    6.810577084469702E-026
 -2.570000000000000E-002    8.431496114156415E-026
 -2.560000000000000E-002    9.437045814349790E-026
 -2.550000000000000E-002    9.343650695479117E-026
 -2.540000000000000E-002    7.609946355082719E-026
 -2.530000000000000E-002    3.699613140294407E-026
 -2.520000000000000E-002   -2.825450853238289E-026
 -2.510000000000000E-002   -1.218253014323521E-025
 -2.500000000000000E-002   -2.422229293461042E-025
 -2.490000000000000E-002   -3.827289604690250E-025
 -2.480000000000000E-002   -5.299521908639122E-025
 -2.470000000000000E-002   -6.627827430233376E-025
 -2.460000000000000E-002   -7.521109171114265E-025
 -2.450000000000000E-002   -7.617160838350876E-025
 -2.440000000000000E-002   -6.507267902157139E-025
 -2.430000000000000E-002   -3.779815050171423E-025
 -2.420000000000000E-002    9.153394032247006E-026
 -2.410000000000000E-002    7.782622955180182E-025
 -2.400000000000000E-002    1.678084796332435E-024
 -2.390000000000000E-002    2.751659462280897E-024
 -2.380000000000000E-002    3.914443696676556E-024
 -2.370000000000000E-002    5.029259599413518E-024
 -2.360000000000000E-002    5.903666113290592E-024
 -2.350000000000000E-002    6.294626138766243E-024
 -2.340000000000000E-002    5.922872036833942E-024
 -2.330000000000000E-002    4.498915798593468E-024
 -2.320000000000000E-002    1.761714824606073E-024
 -2.310000000000000E-002   -2.470597100076039E-024
 -2.300000000000000E-002   -8.240416179423320E-024
 -2.290000000000000E-002   -1.538590059990097E-023
 -2.280000000000000E-002   -2.347943726341168E-023
 -2.270000000000000E-002   -3.177968552959602E-023
 -2.260000000000000E-002   -3.920958759374211E-023
 -2.250000000000000E-002   -4.437382603205758E-023
 -2.240000000000000E-002   -4.562857195861782E-023
 -2.230000000000000E-002   -4.121373058743635E-023
 -2.220000000000000E-002   -2.945286029708358E-023
 -2.210000000000000E-002   -9.017846566782446E-024
 -2.200000000000000E-002    2.075460842484987E-023
 -2.190000000000000E-002    5.952016704683047E-023
 -2.180000000000000E-002    1.055958476968201E-022
 -2.170000000000000E-002    1.556916429447890E-022
 -2.160000000000000E-002    2.047643857724784E-022
 -2.150000000000000E-002    2.460583848863765E-022
 -2.140000000000000E-002    2.713928262994342E-022
 -2.130000000000000E-002    2.717437820110223E-022
 -2.120000000000000E-002    2.381436993820926E-022
 -2.110000000000000E-002    1.628841635268872E-022
 -2.100000000000000E-002    4.096338264880144E-023
 -2.090000000000000E-002   -1.283359434014847E-022
 -2.080000000000000E-002   -3.399078401130276E-022
 -2.070000000000000E-002   -5.815431630077123E-022
 -2.060000000000000E-002   -8.331663142912579E-022
 -2.050000000000000E-002   -1.066859366431245E-021
 -2.040000000000000E-002   -1.247924082265286E-021
 -2.030000000000000E-002   -1.337174180818419E-021
 -2.020000000000000E-002   -1.294540910336943E-021
 -2.010000000000000E-002   -1.083929256514310E-021
 -2.000000000000000E-002   -6.790696673961924E-022
 -1.990000000000000E-002   -6.989763977984499E-023
 -1.980000000000000E-002    7.312181716508269E-022
 -1.970000000000000E-002    1.684269065884902E-021
 -1.960000000000000E-002    2.718414432615938E-021
 -1.950000000000000E-002    3.731832582296936E-021
 -1.940000000000000E-002    4.595533151470735E-021
 -1.930000000000000E-002    5.161807991879117E-021
 -1.920000000000000E-002    5.277562747154340E-021
 -1.910000000000000E-002    4.802205018597472E-021
 -1.900000000000000E-002    3.629057596917225E-021
 -1.890000000000000E-002    1.708506346567888E-021
 -1.880000000000000E-002   -9.296680225653764E-022
 -1.870000000000000E-002   -4.157921135989679E-021
 -1.860000000000000E-002   -7.740069107046682E-021
 -1.850000000000000E-002   -1.133143386719609E-020
 -1.840000000000000E-002   -1.449305864701783E-020
 -1.830000000000000E-002   -1.672203783640812E-020
 -1.820000000000000E-002   -1.749845643337980E-020
 -1.810000000000000E-002   -1.634730204498107E-020
 -1.800000000000000E-002   -1.291142164216495E-020
 -1.790000000000000E-002   -7.028893025984183E-021
 -1.780000000000000E-002    1.194067378777896E-021
 -1.770000000000000E-002    1.132540942105777E-020
 -1.760000000000000E-002    2.257644203040061E-020
 -1.750000000000000E-002    3.380907314857476E-020
 -1.740000000000000E-002    4.359038848196907E-020
 -1.730000000000000E-002    5.029995771321221E-020
 -1.720000000000000E-002    5.228985878160791E-020
 -1.710000000000000E-002    4.809038702971060E-020
 -1.700000000000000E-002    3.664674043824562E-020
 -1.690000000000000E-002    1.756390931531448E-020
 -1.680000000000000E-002   -8.669978018190200E-021
 -1.670000000000000E-002   -4.051640617654517E-020
 -1.660000000000000E-002   -7.531169353767046E-020
 -1.650000000000000E-002   -1.093181328090894E-019
 -1.640000000000000E-002   -1.379271590083629E-019
 -1.630000000000000E-002   -1.560267922599269E-019
 -1.620000000000000E-002   -1.585287170984162E-019
 -1.610000000000000E-002   -1.410270042089057E-019
 -1.600000000000000E-002   -1.005377156728776E-019
 -1.590000000000000E-002   -3.624496950100796E-020
 -1.580000000000000E-002    4.984056937400149E-020
 -1.570000000000000E-002    1.524164290616128E-019
 -1.560000000000000E-002    2.627241915173047E-019
 -1.550000000000000E-002    3.687817590287468E-019
 -1.540000000000000E-002    4.560803221192179E-019
 -1.530000000000000E-002    5.087732072714640E-019
 -1.520000000000000E-002    5.113256572582719E-019
 -1.510000000000000E-002    4.505313164826304E-019
 -1.500000000000000E-002    3.177313756632941E-019
 -1.490000000000000E-002    1.110071848100431E-019
 -1.480000000000000E-002   -1.629329175297739E-019
 -1.470000000000000E-002   -4.874795530979905E-019
 -1.460000000000000E-002   -8.357648543532103E-019
 -1.450000000000000E-002   -1.171480720632885E-018
 -1.440000000000000E-002   -1.451045641249614E-018
 -1.430000000000000E-002   -1.627168765502826E-018
 -1.420000000000000E-002   -1.653695005923296E-018
 -1.410000000000000E-002   -1.491433197128481E-018
 -1.400000000000000E-002   -1.114480938320637E-018
 -1.390000000000000E-002   -5.163871677658179E-019
 -1.380000000000000E-002    2.846274604445211E-019
 -1.370000000000000E-002    1.242237067090499E-018
 -1.360000000000000E-002    2.281172273277287E-018
 -1.350000000000000E-002    3.299649803541652E-018
 -1.340000000000000E-002    4.175487634367689E-018
 -1.330000000000000E-002    4.775980004091952E-018
 -1.320000000000000E-002    4.971151119897777E-018
 -1.310000000000000E-002    4.649538880106689E-018
 -1.300000000000000E-002    3.735156166985362E-018
 -1.290000000000000E-002    2.203880279972582E-018
 -1.280000000000000E-002    9.718899535711042E-020
 -1.270000000000000E-002   -2.468911908029990E-018
 -1.260000000000000E-002   -5.301829921040645E-018
 -1.250000000000000E-002   -8.138826622614095E-018
 -1.240000000000000E-002   -1.066293935324479E-017
 -1.230000000000000E-002   -1.252842671034992E-017
 -1.220000000000000E-002   -1.339463103283477E-017
 -1.210000000000000E-002   -1.296600398657029E-017
 -1.200000000000000E-002   -1.103480874786673E-017
 -1.190000000000000E-002   -7.522043009705805E-018
 -1.180000000000000E-002   -2.511457081387918E-018
 -1.170000000000000E-002    3.728610471106107E-018
 -1.160000000000000E-002    1.074047850284958E-017
 -1.150000000000000E-002    1.789324856293790E-017
 -1.140000000000000E-002    2.442187567900936E-017
 -1.130000000000000E-002    2.948902819955635E-017
 -1.120000000000000E-002    3.226674075013241E-017
 -1.110000000000000E-002    3.203216800985335E-017
 -1.100000000000000E-002    2.826889304765960E-017
 -1.090000000000000E-002    2.076315546576427E-017
 -1.080000000000000E-002    9.682896679777705E-018
 -1.070000000000000E-002   -4.372607108945878E-018
 -1.060000000000000E-002   -2.036355725396082E-017
 -1.050000000000000E-002   -3.684925046679824E-017
 -1.040000000000000E-002   -5.208063777325062E-017
 -1.030000000000000E-002   -6.414465228901525E-017
 -1.020000000000000E-002   -7.115272393178557E-017
 -1.010000000000000E-002   -7.145971662443180E-017
 -1.000000000000000E-002   -6.389335760998828E-017
 -9.899999999999999E-003   -4.796963940036183E-017
 -9.800000000000000E-003   -2.406697166587993E-017
 -9.699999999999999E-003    6.468061825884182E-018
 -9.599999999999999E-003    4.130733086376553E-017
 -9.500000000000000E-003    7.723759601022824E-017
 -9.399999999999999E-003    1.103746209560014E-016
 -9.299999999999999E-003    1.364905485197345E-016
 -9.200000000000000E-003    1.514363170504968E-016
 -9.099999999999999E-003    1.516272568396633E-016
 -8.999999999999999E-003    1.345468586749745E-016
 -8.900000000000000E-003    9.921445329451314E-017
 -8.799999999999999E-003    4.655746596889330E-017
 -8.699999999999999E-003   -2.037016456717782E-017
 -8.600000000000000E-003   -9.637393254215766E-017
 -8.499999999999999E-003   -1.743448121628164E-016
 -8.399999999999999E-003   -2.457397317504318E-016
 -8.300000000000000E-003   -3.013041569290921E-016
 -8.199999999999999E-003   -3.319957213495678E-016
 -8.100000000000000E-003   -3.300372577202466E-016
 -8.000000000000000E-003   -2.900028756982304E-016
 -7.899999999999999E-003   -2.098198839720480E-016
 -7.800000000000000E-003   -9.156126566164436E-017
 -7.699999999999999E-003    5.809400156910927E-017
 -7.599999999999999E-003    2.278376724679249E-016
 -7.499999999999999E-003    4.022188564436919E-016
 -7.399999999999999E-003    5.626680768857379E-016
 -7.299999999999999E-003    6.890310185949104E-016
 -7.199999999999999E-003    7.615235614564555E-016
 -7.100000000000000E-003    7.629597295513373E-016
 -6.999999999999999E-003    6.810497117142077E-016
 -6.899999999999999E-003    5.105279763671218E-016
 -6.800000000000000E-003    2.548527886030296E-016
 -6.699999999999999E-003   -7.277426950431432E-017
 -6.599999999999999E-003   -4.492843183012335E-016
 -6.499999999999999E-003   -8.426610268767510E-016
 -6.399999999999999E-003   -1.213965389516106E-015
 -6.299999999999999E-003   -1.520409983355079E-015
 -6.199999999999999E-003   -1.719312299408369E-015
 -6.100000000000000E-003   -1.772631249518571E-015
 -5.999999999999999E-003   -1.651687436529658E-015
 -5.899999999999999E-003   -1.341592674246582E-015
 -5.800000000000000E-003   -8.448710480613541E-016
 -5.699999999999999E-003   -1.837742703110786E-016
 -5.599999999999999E-003    5.991442402295189E-016
 -5.499999999999999E-003    1.442502562942073E-015
 -5.399999999999999E-003    2.269744262370799E-015
 -5.299999999999999E-003    2.994895441158419E-015
 -5.199999999999999E-003    3.530107691645254E-015
 -5.099999999999999E-003    3.794446391388178E-015
 -4.999999999999999E-003    3.723167059483170E-015
 -4.899999999999999E-003    3.276584499337985E-015
 -4.799999999999999E-003    2.447542817539909E-015
 -4.699999999999999E-003    1.266529848722025E-015
 -4.599999999999999E-003   -1.964186801724553E-016
 -4.499999999999999E-003   -1.833641417515412E-015
 -4.399999999999999E-003   -3.505903750643121E-015
 -4.299999999999999E-003   -5.052488698418202E-015
 -4.199999999999999E-003   -6.304801683492499E-015
 -4.099999999999999E-003   -7.102526002566408E-015
 -3.999999999999999E-003   -7.310981773116804E-015
 -3.899999999999999E-003   -6.838039976387950E-015
 -3.799999999999999E-003   -5.648785550675666E-015
 -3.699999999999999E-003   -3.776115287156461E-015
 -3.599999999999999E-003   -1.325680111444058E-015
 -3.499999999999999E-003    1.526057749947247E-015
 -3.399999999999999E-003    4.541298182303499E-015
 -3.299999999999999E-003    7.437864664653033E-015
 -3.199999999999999E-003    9.912802809553870E-015
 -3.099999999999999E-003    1.167098969125703E-014
 -2.999999999999999E-003    1.245640329551186E-014
 -2.899999999999999E-003    1.208311835605965E-014
 -2.799999999999999E-003    1.046276795032472E-014
 -2.699999999999999E-003    7.625202710786813E-015
 -2.599999999999999E-003    3.729343517652650E-015
 -2.499999999999999E-003   -9.380874797261218E-016
 -2.399999999999999E-003   -5.977309607987086E-015
 -2.299999999999999E-003   -1.090380564781566E-014
 -2.199999999999999E-003   -1.518892437843466E-014
 -2.099999999999999E-003   -1.831004585423196E-014
 -1.999999999999999E-003   -1.980619860640760E-014
 -1.899999999999999E-003   -1.933403379735383E-014
 -1.799999999999999E-003   -1.671831005240342E-014
 -1.699999999999999E-003   -1.199093451989926E-014
 -1.599999999999999E-003   -5.413053118199996E-015
 -1.499999999999999E-003    2.524223510801954E-015
 -1.399999999999999E-003    1.112321407194666E-014
 -1.299999999999999E-003    1.952772696471928E-014
 -1.199999999999999E-003    2.679387135242570E-014
 -1.099999999999999E-003    3.197907942549102E-014
 -9.999999999999989E-004    3.424229832471312E-014
 -8.999999999999990E-004    3.294632767089210E-014
 -7.999999999999990E-004    2.775185857873654E-014
 -6.999999999999989E-004    1.869236653873277E-014
 -5.999999999999990E-004    6.219611131376145E-015
 -4.999999999999989E-004   -8.788774219426471E-015
 -3.999999999999989E-004   -2.506519926905935E-014
 -2.999999999999989E-004   -4.103338665939681E-014
 -1.999999999999989E-004   -5.493243062714384E-014
 -9.999999999999892E-005   -6.497622948650612E-014
  1.084202172485504E-018   -6.953627530474765E-014
  1.000000000000011E-004   -6.733208409445426E-014
  2.000000000000011E-004   -5.761050170132599E-014
  3.000000000000011E-004   -4.029403543926227E-014
  4.000000000000011E-004   -1.607906349702051E-014
  5.000000000000011E-004    1.353253083977083E-014
  6.000000000000011E-004    4.628000234712768E-014
  7.000000000000011E-004    7.927375290061318E-014
  8.000000000000011E-004    1.092061208671653E-013
  9.000000000000012E-004    1.326313913935657E-013
  1.000000000000001E-003    1.462954956835755E-013
  1.100000000000001E-003    1.474879814866162E-013
  1.200000000000001E-003    1.343834711833179E-013
  1.300000000000001E-003    1.063367577052075E-013
  1.400000000000001E-003    6.409611530754006E-014
  1.500000000000001E-003    9.903278196411251E-015
  1.600000000000001E-003   -5.254359181364680E-014
  1.700000000000001E-003   -1.182765913188786E-013
  1.800000000000001E-003   -1.813939989647867E-013
  1.900000000000001E-003   -2.355285714683393E-013
  2.000000000000001E-003   -2.744177682082829E-013
  2.100000000000001E-003   -2.925300090021091E-013
  2.200000000000001E-003   -2.856911201151581E-013
  2.300000000000001E-003   -2.516481341695344E-013
  2.400000000000001E-003   -1.905071189746348E-013
  2.500000000000001E-003   -1.049868148566059E-013
  2.600000000000001E-003   -4.423386640098345E-016
  2.700000000000001E-003    1.153690305503124E-013
  2.800000000000001E-003    2.327851916710105E-013
  2.900000000000001E-003    3.409780417786232E-013
  3.000000000000001E-003    4.288868749055040E-013
  3.100000000000001E-003    4.862728007399738E-013
  3.200000000000001E-003    5.048020003045362E-013
  3.300000000000001E-003    4.790521411353868E-013
  3.400000000000001E-003    4.073325792611307E-013
  3.500000000000001E-003    2.922167072776704E-013
  3.600000000000001E-003    1.407032640585081E-013
  3.700000000000001E-003   -3.604785166211333E-014
  3.800000000000001E-003   -2.234216076922485E-013
  3.900000000000001E-003   -4.044689989593005E-013
  4.000000000000001E-003   -5.613713184683143E-013
  4.100000000000001E-003   -6.771332142579234E-013
  4.200000000000001E-003   -7.373541451444830E-013
  4.300000000000001E-003   -7.319065906367563E-013
  4.400000000000001E-003   -6.563389394727018E-013
  4.500000000000001E-003   -5.128335330815260E-013
  4.600000000000002E-003   -3.105770140301227E-013
  4.700000000000001E-003   -6.544821446206713E-014
  4.800000000000001E-003    2.010108922466945E-013
  4.900000000000002E-003    4.633046059285262E-013
  5.000000000000001E-003    6.942615373938553E-013
  5.100000000000001E-003    8.677010592492392E-013
  5.200000000000001E-003    9.612466333759188E-013
  5.300000000000002E-003    9.590087863792295E-013
  5.400000000000001E-003    8.538430955683848E-013
  5.500000000000001E-003    6.489052615838494E-013
  5.600000000000002E-003    3.582722687384169E-013
  5.700000000000001E-003    6.471736028349841E-015
  5.800000000000001E-003   -3.731382847934324E-013
  5.900000000000002E-003   -7.410825991759798E-013
  6.000000000000001E-003   -1.055395896082466E-012
  6.100000000000001E-003   -1.275874434079936E-012
  6.200000000000002E-003   -1.368562819722008E-012
  6.300000000000002E-003   -1.310028707497745E-012
  6.400000000000001E-003   -1.090950148211298E-012
  6.500000000000001E-003   -7.185688176491855E-013
  6.600000000000002E-003   -2.176343690526288E-013
  6.700000000000001E-003    3.704108026799926E-013
  6.800000000000001E-003    9.901014380169802E-013
  6.900000000000002E-003    1.576379758769895E-012
  7.000000000000001E-003    2.060498671106990E-012
  7.100000000000001E-003    2.376930506500872E-012
  7.200000000000002E-003    2.470655557244202E-012
  7.300000000000002E-003    2.304110289732901E-012
  7.400000000000001E-003    1.863029279766020E-012
  7.500000000000001E-003    1.160465353484910E-012
  7.600000000000002E-003    2.383809801897964E-013
  7.700000000000001E-003   -8.335952638618949E-013
  7.800000000000001E-003   -1.962404892478943E-012
  7.900000000000001E-003   -3.038647896292137E-012
  8.000000000000002E-003   -3.946074119091683E-012
  8.100000000000001E-003   -4.572740935871839E-012
  8.200000000000001E-003   -4.822851850113966E-012
  8.300000000000002E-003   -4.628134774270601E-012
  8.400000000000001E-003   -3.957547396756065E-012
  8.500000000000002E-003   -2.824167182068549E-012
  8.600000000000002E-003   -1.288293570101211E-012
  8.700000000000001E-003    5.439062386225756E-013
  8.800000000000002E-003    2.526484561530381E-012
  8.900000000000002E-003    4.484354445608678E-012
  9.000000000000001E-003    6.227828706310832E-012
  9.100000000000002E-003    7.569938713879890E-012
  9.200000000000002E-003    8.345045390704681E-012
  9.300000000000001E-003    8.426989336341617E-012
  9.400000000000002E-003    7.744915912061088E-012
  9.500000000000001E-003    6.294995561138544E-012
  9.600000000000001E-003    4.146524620986429E-012
  9.700000000000002E-003    1.441319691801639E-012
  9.800000000000001E-003   -1.614083883466145E-012
  9.900000000000001E-003   -4.763241739078442E-012
  1.000000000000000E-002   -7.720707832597385E-012
  1.010000000000000E-002   -1.019743886557257E-011
  1.020000000000000E-002   -1.192852736745404E-011
  1.030000000000000E-002   -1.270068143737498E-011
  1.040000000000000E-002   -1.237669638297584E-011
  1.050000000000000E-002   -1.091425547520649E-011
  1.060000000000000E-002   -8.376767311639484E-012
  1.070000000000000E-002   -4.934568538150848E-012
  1.080000000000000E-002   -8.556706659469023E-013
  1.090000000000000E-002    3.513788448394326E-012
  1.100000000000000E-002    7.778159464633825E-012
  1.110000000000000E-002    1.152777764854149E-011
  1.120000000000000E-002    1.437823096902959E-011
  1.130000000000000E-002    1.600978694139543E-011
  1.140000000000000E-002    1.620298900863927E-011
  1.150000000000000E-002    1.486662332280037E-011
  1.160000000000000E-002    1.205471572700290E-011
  1.170000000000000E-002    7.970101723252068E-012
  1.180000000000000E-002    2.953314865346970E-012
  1.190000000000000E-002   -2.543081468899048E-012
  1.200000000000000E-002   -7.993097124181148E-012
  1.210000000000000E-002   -1.284581590682574E-011
  1.220000000000000E-002   -1.657954256452257E-011
  1.230000000000000E-002   -1.875648701258051E-011
  1.240000000000000E-002   -1.907247282984606E-011
  1.250000000000000E-002   -1.739628493754467E-011
  1.260000000000000E-002   -1.379395795689807E-011
  1.270000000000000E-002   -8.534549251910388E-012
  1.280000000000000E-002   -2.075543810777031E-012
  1.290000000000000E-002    4.971971414113610E-012
  1.300000000000000E-002    1.189618258533018E-011
  1.310000000000000E-002    1.795127720164605E-011
  1.320000000000000E-002    2.243217817401113E-011
  1.330000000000000E-002    2.475017369439270E-011
  1.340000000000000E-002    2.450179597319397E-011
  1.350000000000000E-002    2.152344417458727E-011
  1.360000000000000E-002    1.592521231564934E-011
  1.370000000000000E-002    8.099032695984085E-012
  1.380000000000000E-002   -1.301462299316938E-012
  1.390000000000000E-002   -1.140925622688891E-011
  1.400000000000000E-002   -2.121750744136938E-011
  1.410000000000000E-002   -2.967257107000943E-011
  1.420000000000000E-002   -3.577843713264305E-011
  1.430000000000000E-002   -3.870275213281263E-011
  1.440000000000000E-002   -3.787381327568852E-011
  1.450000000000000E-002   -3.305807686901244E-011
  1.460000000000000E-002   -2.440901339500253E-011
  1.470000000000000E-002   -1.248039099065985E-011
  1.480000000000000E-002    1.799818160671717E-012
  1.490000000000000E-002    1.719501404354045E-011
  1.500000000000000E-002    3.226113651314224E-011
  1.510000000000000E-002    4.547577960089166E-011
  1.520000000000000E-002    5.538421402205330E-011
  1.530000000000000E-002    6.074890567106315E-011
  1.540000000000000E-002    6.068787411823792E-011
  1.550000000000000E-002    5.478733608165099E-011
  1.560000000000000E-002    4.317575185057603E-011
  1.570000000000000E-002    2.654936670855919E-011
  1.580000000000000E-002    6.143438788793143E-012
  1.590000000000000E-002   -1.635150190654796E-011
  1.600000000000000E-002   -3.892376065540695E-011
  1.610000000000000E-002   -5.941499590274100E-011
  1.620000000000000E-002   -7.572050832412506E-011
  1.630000000000000E-002   -8.599741973293283E-011
  1.640000000000000E-002   -8.886063533984589E-011
  1.650000000000000E-002   -8.354678429070256E-011
  1.660000000000000E-002   -7.002797496992390E-011
  1.670000000000000E-002   -4.906118488076506E-011
  1.680000000000000E-002   -2.216453941572819E-011
  1.690000000000000E-002    8.481679350187745E-012
  1.700000000000000E-002    4.020419811174545E-011
  1.710000000000000E-002    7.006372432727825E-011
  1.720000000000000E-002    9.512115459676880E-011
  1.730000000000000E-002    1.127193096530430E-010
  1.740000000000000E-002    1.207539753737172E-010
  1.750000000000000E-002    1.179069565926748E-010
  1.760000000000000E-002    1.038167301211816E-010
  1.770000000000000E-002    7.916649249366989E-011
  1.780000000000000E-002    4.567649588648673E-011
  1.790000000000000E-002    5.996205901221586E-012
  1.800000000000000E-002   -3.649870435245927E-011
  1.810000000000000E-002   -7.798992380317098E-011
  1.820000000000000E-002   -1.145575004108642E-010
  1.830000000000000E-002   -1.425480335476110E-010
  1.840000000000000E-002   -1.589360269456088E-010
  1.850000000000000E-002   -1.616426773067937E-010
  1.860000000000000E-002   -1.497792023692487E-010
  1.870000000000000E-002   -1.237871529601281E-010