 -4.000000000000000E-002    0.000000000000000E+000
 -3.990000000000000E-002    0.000000000000000E+000
 -3.980000000000000E-002    0.000000000000000E+000
 -3.970000000000000E-002    0.000000000000000E+000
 -3.960000000000000E-002    0.000000000000000E+000
 -3.950000000000000E-002    0.000000000000000E+000
 -3.940000000000000E-002    0.000000000000000E+000
 -3.930000000000000E-002    0.000000000000000E+000
 -3.920000000000000E-002    0.000000000000000E+000
 -3.910000000000000E-002    0.000000000000000E+000
 -3.900000000000000E-002   -1.886572849245336E-036
 -3.890000000000000E-002   -3.383813367668697E-035
 -3.880000000000000E-002   -3.088233599483415E-034
 -3.870000000000000E-002   -1.891267976307913E-033
 -3.860000000000000E-002   -8.592928919812945E-033
 -3.850000000000000E-002   -2.990852853001586E-032
 -3.840000000000000E-002   -7.689525329717762E-032
 -3.830000000000000E-002   -1.105420761753926E-031
 -3.820000000000000E-002    1.976979767092773E-031
 -3.810000000000000E-002    2.291926185038683E-030
 -3.800000000000000E-002    1.113041585444461E-029
 -3.790000000000000E-002    4.133749050950340E-029
 -3.780000000000000E-002    1.314947023147367E-028
 -3.770000000000000E-002    3.746610803920671E-028
 -3.760000000000000E-002    9.788753503405187E-028
 -3.750000000000000E-002    2.379074940621414E-027
 -3.740000000000000E-002    5.430820140107483E-027
 -3.730000000000000E-002    1.172367987408654E-026
 -3.720000000000000E-002    2.405283504051156E-026
 -3.710000000000000E-002    4.707114145040907E-026
 -3.700000000000000E-002    8.809369068608904E-026
 -3.690000000000000E-002    1.579225033128774E-025
 -3.680000000000000E-002    2.713655459811092E-025
 -3.670000000000000E-002    4.468164801937023E-025
 -3.660000000000000E-002    7.038041960256529E-025
 -3.650000000000000E-002    1.056811761342842E-024
 -3.640000000000000E-002    1.502933208610420E-024
 -3.630000000000000E-002    2.000213437197091E-024
 -3.620000000000000E-002    2.432986890634619E-024
 -3.610000000000000E-002    2.560655704025369E-024
 -3.600000000000000E-002    1.947619223913310E-024
 -3.590000000000000E-002   -1.246104537485642E-025
 -3.580000000000000E-002   -4.756041188510701E-024
 -3.570000000000000E-002   -1.352034887135166E-023
 -3.560000000000000E-002   -2.851901192360626E-023
 -3.550000000000000E-002   -5.234681888781021E-023
 -3.540000000000000E-002   -8.789577301787151E-023
 -3.530000000000000E-002   -1.379017273491003E-022
 -3.520000000000000E-002   -2.041200178313103E-022
 -3.510000000000000E-002   -2.860126565489794E-022
 -3.500000000000000E-002   -3.788479709335250E-022
 -3.490000000000000E-002   -4.711762998304788E-022
 -3.480000000000000E-002   -5.417508992729266E-022
 -3.470000000000000E-002   -5.561483623705501E-022
 -3.460000000000000E-002   -4.635855163007029E-022
 -3.450000000000000E-002   -1.947487466516130E-022
 -3.440000000000000E-002    3.381905642873251E-022
 -3.430000000000000E-002    1.237854094372027E-021
 -3.420000000000000E-002    2.612432042513917E-021
 -3.410000000000000E-002    4.559098449670797E-021
 -3.400000000000000E-002    7.138432694727301E-021
 -3.390000000000000E-002    1.033896249742597E-020
 -3.380000000000000E-002    1.403223593642536E-020
 -3.370000000000000E-002    1.792084091326139E-020
 -3.360000000000000E-002    2.148455472450312E-020
 -3.350000000000000E-002    2.393295746389523E-020
 -3.340000000000000E-002    2.417649381007205E-020
 -3.330000000000000E-002    2.083121951610832E-020
 -3.320000000000000E-002    1.227472473605005E-020
 -3.310000000000000E-002   -3.228975987681960E-021
 -3.300000000000000E-002   -2.732012277493586E-020
 -3.290000000000000E-002   -6.124108744661814E-020
 -3.280000000000000E-002   -1.054433930212277E-019
 -3.270000000000000E-002   -1.591238768308188E-019
 -3.260000000000000E-002   -2.197284918846789E-019
 -3.250000000000000E-002   -2.824887681928291E-019
 -3.240000000000000E-002   -3.400781491763605E-019
 -3.230000000000000E-002   -3.824983670316137E-019
 -3.220000000000000E-002   -3.973153392173954E-019
 -3.210000000000000E-002   -3.703640489191070E-019
 -3.200000000000000E-002   -2.870164164100082E-019
 -3.190000000000000E-002   -1.340563696317998E-019
 -3.180000000000000E-002    9.786872272550405E-020
 -3.170000000000000E-002    4.113628100979864E-019
 -3.160000000000000E-002    7.992270694174102E-019
 -3.150000000000000E-002    1.241645239196336E-018
 -3.140000000000000E-002    1.704146349926928E-018
 -3.130000000000000E-002    2.136979384085648E-018
 -3.120000000000000E-002    2.476566133872123E-018
 -3.110000000000000E-002    2.649650349763185E-018
 -3.100000000000000E-002    2.580569899311603E-018
 -3.090000000000000E-002    2.201757701875360E-018
 -3.080000000000000E-002    1.467113559986454E-018
 -3.070000000000000E-002    3.672680207914610E-019
 -3.060000000000000E-002   -1.054904919779032E-018
 -3.050000000000000E-002   -2.690873921527298E-018
 -3.040000000000000E-002   -4.358139426361192E-018
 -3.030000000000000E-002   -5.800317374208586E-018
 -3.020000000000000E-002   -6.699037466261260E-018
 -3.010000000000000E-002   -6.700508375035091E-018
 -3.000000000000000E-002   -5.458504546957665E-018
 -2.990000000000000E-002   -2.693675984941201E-018
 -2.980000000000000E-002    1.733322703681472E-018
 -2.970000000000000E-002    7.740652343965065E-018
 -2.960000000000000E-002    1.494490880701470E-017
 -2.950000000000000E-002    2.259403173951993E-017
 -2.940000000000000E-002    2.952842937249622E-017
 -2.930000000000000E-002    3.418686346212706E-017
 -2.920000000000000E-002    3.467351013551381E-017
 -2.910000000000000E-002    2.889961076217684E-017
 -2.900000000000000E-002    1.480786532767603E-017
 -2.890000000000000E-002   -9.321147316829117E-018
 -2.880000000000000E-002   -4.449283356073477E-017
 -2.870000000000000E-002   -9.057838062491722E-017
 -2.860000000000000E-002   -1.458920693812581E-016
 -2.850000000000000E-002   -2.068207386244839E-016
 -2.840000000000000E-002   -2.675730558962087E-016
 -2.830000000000000E-002   -3.201221634595658E-016
 -2.820000000000000E-002   -3.544145369063100E-016
 -2.810000000000000E-002   -3.589066723487562E-016
 -2.800000000000000E-002   -3.214702086635151E-016
 -2.790000000000000E-002   -2.306696620660291E-016
 -2.780000000000000E-002   -7.737444001330907E-017
 -2.770000000000000E-002    1.433903561975530E-016
 -2.760000000000000E-002    4.305045148563878E-016
 -2.750000000000000E-002    7.749346135910778E-016
 -2.740000000000000E-002    1.158288788649061E-015
 -2.730000000000000E-002    1.552028112473848E-015
 -2.720000000000000E-002    1.917616268304428E-015
 -2.710000000000000E-002    2.207854815029345E-015
 -2.700000000000000E-002    2.369580696346041E-015
 -2.690000000000000E-002    2.347783932890696E-015
 -2.680000000000000E-002    2.091055200162569E-015
 -2.670000000000000E-002    1.558092286682284E-015
 -2.660000000000000E-002    7.247945010645731E-016
 -2.650000000000000E-002   -4.087035362098167E-016
 -2.640000000000000E-002   -1.811874262736201E-015
 -2.630000000000000E-002   -3.419418881286000E-015
 -2.620000000000000E-002   -5.129590868479900E-015
 -2.610000000000000E-002   -6.806054270936344E-015
 -2.600000000000000E-002   -8.283888999655788E-015
 -2.590000000000000E-002   -9.380035845350836E-015
 -2.580000000000000E-002   -9.907999911235931E-015
 -2.570000000000000E-002   -9.696169923890835E-015
 -2.560000000000000E-002   -8.608458932709794E-015
 -2.550000000000000E-002   -6.565523480448704E-015
 -2.540000000000000E-002   -3.564318554379210E-015
 -2.530000000000000E-002    3.065228446975550E-016
 -2.520000000000000E-002    4.858022154154484E-015
 -2.510000000000000E-002    9.801222966809170E-015
 -2.500000000000000E-002    1.475831001173913E-014
 -2.490000000000000E-002    1.928535918708388E-014
 -2.480000000000000E-002    2.290637721815622E-014
 -2.470000000000000E-002    2.515701862579942E-014
 -2.460000000000000E-002    2.563480504102392E-014
 -2.450000000000000E-002    2.405151080339687E-014
 -2.440000000000000E-002    2.028207058984052E-014
 -2.430000000000000E-002    1.440396075803881E-014
 -2.420000000000000E-002    6.720801306599548E-015
 -2.410000000000000E-002   -2.235326829813057E-015
 -2.400000000000000E-002   -1.172684045089537E-014
 -2.390000000000000E-002   -2.086072660374035E-014
 -2.380000000000000E-002   -2.866466856781614E-014
 -2.370000000000000E-002   -3.418500615728566E-014
 -2.360000000000000E-002   -3.659884806413766E-014
 -2.350000000000000E-002   -3.532974710811940E-014
 -2.340000000000000E-002   -3.015397398408544E-014
 -2.330000000000000E-002   -2.128329329684610E-014
 -2.320000000000000E-002   -9.410335974543487E-015
 -2.310000000000000E-002    4.295366067332798E-015
 -2.300000000000000E-002    1.824875861368012E-014
 -2.290000000000000E-002    3.057098269678392E-014
 -2.280000000000000E-002    3.926764526357496E-014
 -2.270000000000000E-002    4.245243159333143E-014
 -2.260000000000000E-002    3.859777917527021E-014
 -2.250000000000000E-002    2.678783622785457E-014
 -2.240000000000000E-002    6.944064162909005E-015
 -2.230000000000000E-002   -2.000723731940243E-014
 -2.220000000000000E-002   -5.205598679085949E-014
 -2.210000000000000E-002   -8.614213396414518E-014
 -2.200000000000000E-002   -1.183184645854079E-013
 -2.190000000000000E-002   -1.440458621778162E-013
 -2.180000000000000E-002   -1.586101657778189E-013
 -2.170000000000000E-002   -1.576339117254351E-013
 -2.160000000000000E-002   -1.376408599161515E-013
 -2.150000000000000E-002   -9.661850860022200E-014
 -2.140000000000000E-002   -3.451469688457473E-014
 -2.130000000000000E-002    4.639841285757134E-014
 -2.120000000000000E-002    1.413555702467390E-013
 -2.110000000000000E-002    2.431755004798436E-013
 -2.100000000000000E-002    3.426156825735814E-013
 -2.090000000000000E-002    4.290105075647541E-013
 -2.080000000000000E-002    4.911679037872611E-013
 -2.070000000000000E-002    5.184681578816302E-013
 -2.060000000000000E-002    5.020773389124414E-013
 -2.050000000000000E-002    4.361619549040201E-013
 -2.040000000000000E-002    3.189752508273500E-013
 -2.030000000000000E-002    1.536803536939491E-013
 -2.020000000000000E-002   -5.121823434324597E-014
 -2.010000000000000E-002   -2.819360553603677E-013
 -2.000000000000000E-002   -5.200288350873478E-013
 -1.990000000000000E-002   -7.435868159965732E-013
 -1.980000000000000E-002   -9.289595453002137E-013
 -1.970000000000000E-002   -1.052905765234490E-012
 -1.960000000000000E-002   -1.095004884852868E-012
 -1.950000000000000E-002   -1.040115210460786E-012
 -1.940000000000000E-002   -8.806340941101153E-013
 -1.930000000000000E-002   -6.182986929270928E-013
 -1.920000000000000E-002   -2.652842456018393E-013
 -1.910000000000000E-002    1.556055991873787E-013
 -1.900000000000000E-002    6.117941143362415E-013
 -1.890000000000000E-002    1.062880194816607E-012
 -1.880000000000000E-002    1.463623762431836E-012
 -1.870000000000000E-002    1.767798530078631E-012
 -1.860000000000000E-002    1.932636346827887E-012
 -1.850000000000000E-002    1.923488925817444E-012
 -1.840000000000000E-002    1.718274165479942E-012
 -1.830000000000000E-002    1.311237095060183E-012
 -1.820000000000000E-002    7.155730266166844E-013
 -1.810000000000000E-002   -3.548412275750294E-014
 -1.800000000000000E-002   -8.893942704689004E-013
 -1.790000000000000E-002   -1.777008974096205E-012
 -1.780000000000000E-002   -2.617197352876314E-012
 -1.770000000000000E-002   -3.323175552528139E-012
 -1.760000000000000E-002   -3.810116486249119E-012
 -1.750000000000000E-002   -4.003455435222545E-012
 -1.740000000000000E-002   -3.847158512299697E-012
 -1.730000000000000E-002   -3.311161290587094E-012
 -1.720000000000000E-002   -2.397168393440605E-012
 -1.710000000000000E-002   -1.142075426275014E-012
 -1.700000000000000E-002    3.815722826190128E-013
 -1.690000000000000E-002    2.068447126637533E-012
 -1.680000000000000E-002    3.786720609840760E-012
 -1.670000000000000E-002    5.387520245426775E-012
 -1.660000000000000E-002    6.716995821361576E-012
 -1.650000000000000E-002    7.630122528213014E-012
 -1.640000000000000E-002    8.005095716912722E-012
 -1.630000000000000E-002    7.757011383731271E-012
 -1.620000000000000E-002    6.849430810228881E-012
 -1.610000000000000E-002    5.302523703875948E-012
 -1.600000000000000E-002    3.196616994646883E-012
 -1.590000000000000E-002    6.703466304342053E-013
 -1.580000000000000E-002   -2.086974690895808E-012
 -1.570000000000000E-002   -4.848654544647192E-012
 -1.560000000000000E-002   -7.368865478641349E-012
 -1.550000000000000E-002   -9.404598703638559E-012
 -1.540000000000000E-002   -1.073955215029934E-011
 -1.530000000000000E-002   -1.120781928429229E-011
 -1.520000000000000E-002   -1.071499881239226E-011
 -1.510000000000000E-002   -9.254386467502340E-012
 -1.500000000000000E-002   -6.916040303583344E-012
 -1.490000000000000E-002   -3.887060424568294E-012
 -1.480000000000000E-002   -4.420547842200715E-013
 -1.470000000000000E-002    3.076356820688144E-012
 -1.460000000000000E-002    6.286186648776325E-012
 -1.450000000000000E-002    8.802002222911010E-012
 -1.440000000000000E-002    1.027534285918603E-011
 -1.430000000000000E-002    1.043602589097215E-011
 -1.420000000000000E-002    9.130220956084920E-012
 -1.410000000000000E-002    6.350996084104527E-012
 -1.400000000000000E-002    2.257272691963860E-012
 -1.390000000000000E-002   -2.822188948732878E-012
 -1.380000000000000E-002   -8.402066094031105E-012
 -1.370000000000000E-002   -1.387178962601507E-011
 -1.360000000000000E-002   -1.854398185344983E-011
 -1.350000000000000E-002   -2.171719521982320E-011
 -1.340000000000000E-002   -2.274832913384115E-011
 -1.330000000000000E-002   -2.112851969982198E-011
 -1.320000000000000E-002   -1.655518794375898E-011
 -1.310000000000000E-002   -8.992408211042995E-012
 -1.300000000000000E-002    1.288085623645158E-012
 -1.290000000000000E-002    1.369185294570812E-011
 -1.280000000000000E-002    2.731743800099832E-011
 -1.270000000000000E-002    4.100509706786662E-011
 -1.260000000000000E-002    5.341769455956809E-011
 -1.250000000000000E-002    6.314959991346291E-011
 -1.240000000000000E-002    6.885599375153842E-011
 -1.230000000000000E-002    6.939214302390977E-011
 -1.220000000000000E-002    6.394981912484536E-011
 -1.210000000000000E-002    5.217694077900069E-011
 -1.200000000000000E-002    3.426650845919875E-011
 -1.190000000000000E-002    1.100258116166765E-011
 -1.180000000000000E-002   -1.624619052838551E-011
 -1.170000000000000E-002   -4.559052947244974E-011
 -1.160000000000000E-002   -7.474194895033893E-011
 -1.150000000000000E-002   -1.011856080172061E-010
 -1.140000000000000E-002   -1.223929343930103E-010
 -1.130000000000000E-002   -1.360569072554941E-010
 -1.120000000000000E-002   -1.403291263733353E-010
 -1.110000000000000E-002   -1.340350604670628E-010
 -1.100000000000000E-002   -1.168443320480120E-010
 -1.090000000000000E-002   -8.937445506846410E-011
 -1.080000000000000E-002   -5.321194265702785E-011
 -1.070000000000000E-002   -1.084080093190384E-011
 -1.060000000000000E-002    3.452253777968641E-011
 -1.050000000000000E-002    7.917957584046967E-011
 -1.040000000000000E-002    1.192675176700113E-010
 -1.030000000000000E-002    1.511182225382274E-010
 -1.020000000000000E-002    1.716252708472114E-010
 -1.010000000000000E-002    1.785826655991313E-010
 -1.000000000000000E-002    1.709582736499342E-010
 -9.899999999999999E-003    1.490686860921812E-010
 -9.800000000000000E-003    1.146296838497712E-010
 -9.699999999999999E-003    7.066741105319980E-011
 -9.599999999999999E-003    2.128822651153804E-011
 -9.500000000000000E-003   -2.867943673516820E-011
 -9.399999999999999E-003   -7.414404745834429E-011
 -9.299999999999999E-003   -1.102700532027142E-010
 -9.200000000000000E-003   -1.330073409259214E-010
 -9.099999999999999E-003   -1.395753894750272E-010
 -8.999999999999999E-003   -1.288473419460340E-010
 -8.900000000000000E-003   -1.015847906418397E-010
 -8.799999999999999E-003   -6.048659592088342E-011
 -8.699999999999999E-003   -1.003106824881935E-011
 -8.600000000000000E-003    4.388794514539670E-011
 -8.499999999999999E-003    9.450902568710740E-011
 -8.399999999999999E-003    1.348912520085650E-010
 -8.300000000000000E-003    1.586799681785919E-010
 -8.199999999999999E-003    1.608740855892581E-010
 -8.100000000000000E-003    1.385125106571264E-010
 -8.000000000000000E-003    9.119875677072803E-011
 -7.899999999999999E-003    2.139317845269492E-011
 -7.800000000000000E-003   -6.557825215467613E-011
 -7.699999999999999E-003   -1.618244852599071E-010
 -7.599999999999999E-003   -2.574943151803831E-010
 -7.499999999999999E-003   -3.416475700100962E-010
 -7.399999999999999E-003   -4.033237504697757E-010
 -7.299999999999999E-003   -4.327121834950720E-010
 -7.199999999999999E-003   -4.223100111676764E-010
 -7.100000000000000E-003   -3.679447286359891E-010
 -6.999999999999999E-003   -2.695438550872744E-010
 -6.899999999999999E-003   -1.315501926120522E-010
 -6.800000000000000E-003    3.709079701887262E-011
 -6.699999999999999E-003    2.234051620339242E-010
 -6.599999999999999E-003    4.113162949661522E-010
 -6.499999999999999E-003    5.829648894244599E-010
 -6.399999999999999E-003    7.203205906383607E-010
 -6.299999999999999E-003    8.069460866680604E-010
 -6.199999999999999E-003    8.297485084709983E-010
 -6.100000000000000E-003    7.805418361140560E-010
 -5.999999999999999E-003    6.572501893536218E-010
 -5.899999999999999E-003    4.646084915710924E-010
 -5.800000000000000E-003    2.142527522076519E-010
 -5.699999999999999E-003   -7.584919541671235E-011
 -5.599999999999999E-003   -3.826174915594275E-010
 -5.499999999999999E-003   -6.796539042770883E-010
 -5.399999999999999E-003   -9.394725921270414E-010
 -5.299999999999999E-003   -1.135980174214220E-009
 -5.199999999999999E-003   -1.246980643902142E-009
 -5.099999999999999E-003   -1.256466694613540E-009
 -4.999999999999999E-003   -1.156465860062392E-009
 -4.899999999999999E-003   -9.482410336915266E-010
 -4.799999999999999E-003   -6.426990225141122E-010
 -4.699999999999999E-003   -2.599259570682724E-010
 -4.599999999999999E-003    1.721441197843128E-010
 -4.499999999999999E-003    6.198437534205246E-010
 -4.399999999999999E-003    1.046500900540900E-009
 -4.299999999999999E-003    1.415550152618705E-009
 -4.199999999999999E-003    1.693746872829648E-009
 -4.099999999999999E-003    1.854182893118164E-009
 -3.999999999999999E-003    1.878813986878599E-009
 -3.899999999999999E-003    1.760242912693836E-009
 -3.799999999999999E-003    1.502568784092149E-009
 -3.699999999999999E-003    1.121198566094699E-009
 -3.599999999999999E-003    6.416151945156655E-010
 -3.499999999999999E-003    9.720148004641378E-011
 -3.399999999999999E-003   -4.736877436267233E-010
 -3.299999999999999E-003   -1.031126628078589E-009
 -3.199999999999999E-003   -1.537162518549201E-009
 -3.099999999999999E-003   -1.959148762200699E-009
 -2.999999999999999E-003   -2.272520498438830E-009
 -2.899999999999999E-003   -2.462720082783718E-009
 -2.799999999999999E-003   -2.526053617198703E-009
 -2.699999999999999E-003   -2.469367510612870E-009
 -2.599999999999999E-003   -2.308555730359379E-009
 -2.499999999999999E-003   -2.066030821098514E-009
 -2.399999999999999E-003   -1.767409649684054E-009
 -2.299999999999999E-003   -1.437761597976570E-009
 -2.199999999999999E-003   -1.097828810418738E-009
 -2.099999999999999E-003   -7.606536530153587E-010
 -1.999999999999999E-003   -4.290293670487017E-010
 -1.899999999999999E-003   -9.412545153795675E-011
 -1.799999999999999E-003    2.644624540595008E-010
 -1.699999999999999E-003    6.771262428040456E-010
 -1.599999999999999E-003    1.181159687953551E-009
 -1.499999999999999E-003    1.816377362816113E-009
 -1.399999999999999E-003    2.619784607258750E-009
 -1.299999999999999E-003    3.619768525865135E-009
 -1.199999999999999E-003    4.830370856231911E-009
 -1.099999999999999E-003    6.246224738808186E-009
 -9.999999999999989E-004    7.838734750309221E-009
 -8.999999999999990E-004    9.553983738879491E-009
 -7.999999999999990E-004    1.131273444114590E-008
 -6.999999999999989E-004    1.301272144774050E-008
 -5.999999999999990E-004    1.453323075663996E-008
 -4.999999999999989E-004    1.574175584180700E-008
 -3.999999999999989E-004    1.650233357607959E-008
 -2.999999999999989E-004    1.668497037652275E-008
 -1.999999999999989E-004    1.617548135952242E-008
 -9.999999999999892E-005    1.488496627746321E-008
  1.084202172485504E-018    1.275817792440532E-008
  1.000000000000011E-004    9.780096999344206E-009
  2.000000000000011E-004    5.980177386918644E-009
  3.000000000000011E-004    1.433907242034996E-009
  4.000000000000011E-004   -3.738409208080859E-009
  5.000000000000011E-004   -9.375525464557412E-009
  6.000000000000011E-004   -1.528137610517437E-008
  7.000000000000011E-004   -2.123285638122615E-008
  8.000000000000011E-004   -2.698847106464564E-008
  9.000000000000012E-004   -3.229698743341018E-008
  1.000000000000001E-003   -3.690519090326606E-008
  1.100000000000001E-003   -4.056390578389416E-008
  1.200000000000001E-003   -4.303163822103232E-008
  1.300000000000001E-003   -4.407530825211103E-008
  1.400000000000001E-003   -4.346794939387481E-008
  1.500000000000001E-003   -4.098342819121870E-008
  1.600000000000001E-003   -3.638861758249127E-008
  1.700000000000001E-003   -2.943367937622315E-008
  1.800000000000001E-003   -1.984135415641145E-008
  1.900000000000001E-003   -7.296246444837297E-009
  2.000000000000001E-003    8.564742292756900E-009
  2.100000000000001E-003    2.815996805574775E-008
  2.200000000000001E-003    5.196763386156925E-008
  2.300000000000001E-003    8.052691988888461E-008
  2.400000000000001E-003    1.144353245057623E-007
  2.500000000000001E-003    1.543423436980503E-007
  2.600000000000001E-003    2.009400302862627E-007
  2.700000000000001E-003    2.549510901733850E-007
  2.800000000000001E-003    3.171157086271694E-007
  2.900000000000001E-003    3.881783890782457E-007
  3.000000000000001E-003    4.688760099639346E-007
  3.100000000000001E-003    5.599284402365451E-007
  3.200000000000001E-003    6.620328881973876E-007
  3.300000000000001E-003    7.758627203011924E-007
  3.400000000000001E-003    9.020708754918992E-007
  3.500000000000001E-003    1.041298569661615E-006
  3.600000000000001E-003    1.194188044404462E-006
  3.700000000000001E-003    1.361399008286273E-006
  3.800000000000001E-003    1.543627135677479E-006
  3.900000000000001E-003    1.741623375939074E-006
  4.000000000000001E-003    1.956212976813648E-006
  4.100000000000001E-003    2.188311359614694E-006
  4.200000000000001E-003    2.438937177568952E-006
  4.300000000000001E-003    2.709220154513014E-006
  4.400000000000001E-003    3.000403734871073E-006
  4.500000000000001E-003    3.313843133920633E-006
  4.600000000000002E-003    3.650997561822161E-006
  4.700000000000001E-003    4.013419976667761E-006
  4.800000000000001E-003    4.402742606744858E-006
  4.900000000000002E-003    4.820663755604966E-006
  5.000000000000001E-003    5.268934007411584E-006
  5.100000000000001E-003    5.749346832734188E-006
  5.200000000000001E-003    6.263731848822816E-006
  5.300000000000002E-003    6.813955427002894E-006
  5.400000000000001E-003    7.401926395546621E-006
  5.500000000000001E-003    8.029608741973950E-006
  5.600000000000002E-003    8.699039595775891E-006
  5.700000000000001E-003    9.412353184885993E-006
  5.800000000000001E-003    1.017180618586818E-005
  5.900000000000002E-003    1.097980542210815E-005
  6.000000000000001E-003    1.183893583972272E-005
  6.100000000000001E-003    1.275198342879189E-005
  6.200000000000002E-003    1.372195517478262E-005
  6.300000000000002E-003    1.475209441250644E-005
  6.400000000000001E-003    1.584588462270195E-005
  6.500000000000001E-003    1.700705241590074E-005
  6.600000000000002E-003    1.823956246073022E-005
  6.700000000000001E-003    1.954760542590923E-005
  6.800000000000001E-003    2.093558552907757E-005
  6.900000000000002E-003    2.240810801193836E-005
  7.000000000000001E-003    2.396996711771931E-005
  7.100000000000001E-003    2.562613393771684E-005
  7.200000000000002E-003    2.738176277942656E-005
  7.300000000000002E-003    2.924219129063525E-005
  7.400000000000001E-003    3.121295256574383E-005
  7.500000000000001E-003    3.329980226929170E-005
  7.600000000000002E-003    3.550875044287580E-005
  7.700000000000001E-003    3.784609484121169E-005
  7.800000000000001E-003    4.031846324062093E-005
  7.900000000000001E-003    4.293285535917631E-005
  8.000000000000002E-003    4.569668973879700E-005
  8.100000000000001E-003    4.861784033783933E-005
  8.200000000000001E-003    5.170466725168392E-005
  8.300000000000002E-003    5.496604755477444E-005
  8.400000000000001E-003    5.841138966158158E-005
  8.500000000000002E-003    6.205063838439834E-005
  8.600000000000002E-003    6.589428411076759E-005
  8.700000000000001E-003    6.995335029011945E-005
  8.800000000000002E-003    7.423939339307664E-005
  8.900000000000002E-003    7.876447934339310E-005
  9.000000000000001E-003    8.354119315307169E-005
  9.100000000000002E-003    8.858261371644057E-005
  9.200000000000002E-003    9.390233797384334E-005
  9.300000000000001E-003    9.951449479914984E-005
  9.400000000000002E-003    1.054337629614213E-004
  9.500000000000001E-003    1.116754128943640E-004
  9.600000000000001E-003    1.182553491658114E-004
  9.700000000000002E-003    1.251901785309154E-004
  9.800000000000001E-003    1.324972701282027E-004
  9.900000000000001E-003    1.401948311139697E-004
  1.000000000000000E-002    1.483019403474270E-004
  1.010000000000000E-002    1.568386687185947E-004
  1.020000000000000E-002    1.658261026562707E-004
  1.030000000000000E-002    1.752863953864829E-004
  1.040000000000000E-002    1.852428347571110E-004
  1.050000000000000E-002    1.957198529885800E-004
  1.060000000000000E-002    2.067430378498896E-004
  1.070000000000000E-002    2.183391747502557E-004
  1.080000000000000E-002    2.305362472166718E-004
  1.090000000000000E-002    2.433634269769879E-004
  1.100000000000000E-002    2.568510849409473E-004
  1.110000000000000E-002    2.710307848258458E-004
  1.120000000000000E-002    2.859353379274823E-004
  1.130000000000000E-002    3.015988217629500E-004
  1.140000000000000E-002    3.180566057894729E-004
  1.150000000000000E-002    3.353453777669396E-004
  1.160000000000000E-002    3.535032650381989E-004
  1.170000000000000E-002    3.725698379440921E-004
  1.180000000000000E-002    3.925862830699054E-004
  1.190000000000000E-002    4.135954567195664E-004
  1.200000000000000E-002    4.356419382568148E-004
  1.210000000000000E-002    4.587721438719972E-004
  1.220000000000000E-002    4.830344433848699E-004
  1.230000000000000E-002    5.084791787499538E-004
  1.240000000000000E-002    5.351588677159599E-004
  1.250000000000000E-002    5.631280426063198E-004
  1.260000000000000E-002    5.924434431072708E-004
  1.270000000000000E-002    6.231640961435712E-004
  1.280000000000000E-002    6.553511964942340E-004
  1.290000000000000E-002    6.890682257794878E-004
  1.300000000000000E-002    7.243810336946332E-004
  1.310000000000000E-002    7.613576972050176E-004
  1.320000000000000E-002    8.000687190253501E-004
  1.330000000000000E-002    8.405870741290127E-004
  1.340000000000000E-002    8.829881518317423E-004
  1.350000000000000E-002    9.273499119743095E-004
  1.360000000000000E-002    9.737530972550552E-004
  1.370000000000000E-002    1.022281066882624E-003
  1.380000000000000E-002    1.073020314286989E-003
  1.390000000000000E-002    1.126060076527873E-003
  1.400000000000000E-002    1.181492966503067E-003
  1.410000000000000E-002    1.239414840207747E-003
  1.420000000000000E-002    1.299924923582952E-003
  1.430000000000000E-002    1.363126041377666E-003
  1.440000000000000E-002    1.429124558274304E-003
  1.450000000000000E-002    1.498030540351543E-003
  1.460000000000000E-002    1.569957826135498E-003
  1.470000000000000E-002    1.645024028473838E-003
  1.480000000000000E-002    1.723350535130890E-003
  1.490000000000000E-002    1.805062543955023E-003
  1.500000000000000E-002    1.890289333263329E-003
  1.510000000000000E-002    1.979163851243118E-003
  1.520000000000000E-002    2.071822826218343E-003
  1.530000000000000E-002    2.168406983902669E-003
  1.540000000000000E-002    2.269061343861479E-003
  1.550000000000000E-002    2.373934391534209E-003
  1.560000000000000E-002    2.483179224672012E-003
  1.570000000000000E-002    2.596952953366043E-003
  1.580000000000000E-002    2.715417152705864E-003
  1.590000000000000E-002    2.838738013557611E-003
  1.600000000000000E-002    2.967085981154084E-003
  1.610000000000000E-002    3.100636545023996E-003
  1.620000000000000E-002    3.239569930378109E-003
  1.630000000000000E-002    3.384071876245981E-003
  1.640000000000000E-002    3.534332817856672E-003
  1.650000000000000E-002    3.690548546051395E-003
  1.660000000000000E-002    3.852920261793119E-003
  1.670000000000000E-002    4.021654462629143E-003
  1.680000000000000E-002    4.196963098684585E-003
  1.690000000000000E-002    4.379063297625413E-003
  1.700000000000000E-002    4.568177722458706E-003
  1.710000000000000E-002    4.764533999416207E-003
  1.720000000000000E-002    4.968365244260696E-003
  1.730000000000000E-002    5.179910009827684E-003
  1.740000000000000E-002    5.399411608946842E-003
  1.750000000000000E-002    5.627118617227907E-003
  1.760000000000000E-002    5.863285355610677E-003
  1.770000000000000E-002    6.108170903993792E-003
  1.780000000000000E-002    6.362039378587875E-003
  1.790000000000000E-002    6.625161015535282E-003
  1.800000000000000E-002    6.897810611591068E-003
  1.810000000000000E-002    7.180268718422281E-003
  1.820000000000000E-002    7.472821212476334E-003
  1.830000000000000E-002    7.775759782024834E-003
  1.840000000000000E-002    8.089381918797317E-003
  1.850000000000000E-002    8.413989129494155E-003
  1.860000000000000E-002    8.749889799731236E-003
  1.870000000000000E-002    9.097398511423672E-003