 -4.000000000000000E-002    0.000000000000000E+000
 -3.990000000000000E-002    0.000000000000000E+000
 -3.980000000000000E-002    0.000000000000000E+000
 -3.970000000000000E-002    0.000000000000000E+000
 -3.960000000000000E-002    0.000000000000000E+000
 -3.950000000000000E-002    0.000000000000000E+000
 -3.940000000000000E-002    0.000000000000000E+000
 -3.930000000000000E-002    0.000000000000000E+000
 -3.920000000000000E-002    0.000000000000000E+000
 -3.910000000000000E-002    0.000000000000000E+000
 -3.900000000000000E-002    0.000000000000000E+000
 -3.890000000000000E-002    0.000000000000000E+000
 -3.880000000000000E-002    0.000000000000000E+000
 -3.870000000000000E-002    0.000000000000000E+000
 -3.860000000000000E-002    0.000000000000000E+000
 -3.850000000000000E-002    0.000000000000000E+000
 -3.840000000000000E-002    0.000000000000000E+000
 -3.830000000000000E-002    0.000000000000000E+000
 -3.820000000000000E-002    0.000000000000000E+000
 -3.810000000000000E-002    0.000000000000000E+000
 -3.800000000000000E-002    0.000000000000000E+000
 -3.790000000000000E-002    0.000000000000000E+000
 -3.780000000000000E-002    0.000000000000000E+000
 -3.770000000000000E-002    0.000000000000000E+000
 -3.760000000000000E-002    0.000000000000000E+000
 -3.750000000000000E-002    0.000000000000000E+000
 -3.740000000000000E-002    0.000000000000000E+000
 -3.730000000000000E-002    0.000000000000000E+000
 -3.720000000000000E-002    0.000000000000000E+000
 -3.710000000000000E-002    0.000000000000000E+000
 -3.700000000000000E-002    0.000000000000000E+000
 -3.690000000000000E-002    0.000000000000000E+000
 -3.680000000000000E-002    0.000000000000000E+000
 -3.670000000000000E-002    0.000000000000000E+000
 -3.660000000000000E-002    0.000000000000000E+000
 -3.650000000000000E-002    0.000000000000000E+000
 -3.640000000000000E-002    0.000000000000000E+000
 -3.630000000000000E-002    0.000000000000000E+000
 -3.620000000000000E-002    0.000000000000000E+000
 -3.610000000000000E-002    0.000000000000000E+000
 -3.600000000000000E-002    0.000000000000000E+000
 -3.590000000000000E-002    0.000000000000000E+000
 -3.580000000000000E-002    0.000000000000000E+000
 -3.570000000000000E-002    0.000000000000000E+000
 -3.560000000000000E-002    0.000000000000000E+000
 -3.550000000000000E-002    0.000000000000000E+000
 -3.540000000000000E-002    0.000000000000000E+000
 -3.530000000000000E-002    0.000000000000000E+000
 -3.520000000000000E-002    0.000000000000000E+000
 -3.510000000000000E-002    0.000000000000000E+000
 -3.500000000000000E-002    0.000000000000000E+000
 -3.490000000000000E-002    1.690416674957506E-047
 -3.480000000000000E-002    3.380833349915012E-047
 -3.470000000000000E-002    1.456465773443193E-047
 -3.460000000000000E-002    1.222514871928880E-047
 -3.450000000000000E-002    6.119192834836964E-047
 -3.440000000000000E-002   -5.567504551603653E-048
 -3.430000000000000E-002   -3.851860395242682E-047
 -3.420000000000000E-002    1.951891792027014E-046
 -3.410000000000000E-002    3.192952938036470E-046
 -3.400000000000000E-002    5.573531682704632E-047
 -3.390000000000000E-002    1.195298026870904E-046
 -3.380000000000000E-002   -1.956059200506471E-045
 -3.370000000000000E-002   -6.634790497750908E-045
 -3.360000000000000E-002   -1.550651472518717E-044
 -3.350000000000000E-002   -3.081008656936706E-044
 -3.340000000000000E-002   -5.597199318644041E-044
 -3.330000000000000E-002   -9.443326031060294E-044
 -3.320000000000000E-002   -1.499867218717726E-043
 -3.310000000000000E-002   -2.215829590515452E-043
 -3.300000000000000E-002   -2.989820438404675E-043
 -3.290000000000000E-002   -3.504425655567609E-043
 -3.280000000000000E-002   -3.085087058827225E-043
 -3.270000000000000E-002   -4.788887871101692E-044
 -3.260000000000000E-002    6.466872322642109E-043
 -3.250000000000000E-002    2.112038000269674E-042
 -3.240000000000000E-002    4.834457496434544E-042
 -3.230000000000000E-002    9.448256449554431E-042
 -3.220000000000000E-002    1.667788707001021E-041
 -3.210000000000000E-002    2.716875467706778E-041
 -3.200000000000000E-002    4.112735351218156E-041
 -3.190000000000000E-002    5.768505651381838E-041
 -3.180000000000000E-002    7.388054831710920E-041
 -3.170000000000000E-002    8.317774843965463E-041
 -3.160000000000000E-002    7.350745829821661E-041
 -3.150000000000000E-002    2.496523498447965E-041
 -3.140000000000000E-002   -9.243584103781262E-041
 -3.130000000000000E-002   -3.201493897842558E-040
 -3.120000000000000E-002   -7.102426538250304E-040
 -3.110000000000000E-002   -1.320197019757561E-039
 -3.100000000000000E-002   -2.200463601724959E-039
 -3.090000000000000E-002   -3.371187008853190E-039
 -3.080000000000000E-002   -4.784200790283025E-039
 -3.070000000000000E-002   -6.266989526384820E-039
 -3.060000000000000E-002   -7.447371719786114E-039
 -3.050000000000000E-002   -7.662032198241965E-039
 -3.040000000000000E-002   -5.859522598086511E-039
 -3.030000000000000E-002   -5.196302110103441E-040
 -3.020000000000000E-002    1.037361850846678E-038
 -3.010000000000000E-002    2.924918376728126E-038
 -3.000000000000000E-002    5.868010089620638E-038
 -2.990000000000000E-002    1.008342032751138E-037
 -2.980000000000000E-002    1.565424736405250E-037
 -2.970000000000000E-002    2.238934297548523E-037
 -2.960000000000000E-002    2.963053145443999E-037
 -2.950000000000000E-002    3.601167973401961E-037
 -2.940000000000000E-002    3.918901840461472E-037
 -2.930000000000000E-002    3.558449817776107E-037
 -2.920000000000000E-002    2.021418817304931E-037
 -2.910000000000000E-002   -1.328943291755397E-037
 -2.900000000000000E-002   -7.231364602706444E-037
 -2.890000000000000E-002   -1.643777739022978E-036
 -2.880000000000000E-002   -2.955193887247770E-036
 -2.870000000000000E-002   -4.677650059460286E-036
 -2.860000000000000E-002   -6.755645525488588E-036
 -2.850000000000000E-002   -9.011984982759842E-036
 -2.840000000000000E-002   -1.109414198514131E-035
 -2.830000000000000E-002   -1.241890219915889E-035
 -2.820000000000000E-002   -1.212597782683094E-035
 -2.810000000000000E-002   -9.057029632911920E-036
 -2.800000000000000E-002   -1.782455608995270E-036
 -2.790000000000000E-002    1.129591721142081E-035
 -2.780000000000000E-002    3.173468416834814E-035
 -2.770000000000000E-002    6.070057968401171E-035
 -2.760000000000000E-002    9.846094000640424E-035
 -2.750000000000000E-002    1.437074949260429E-034
 -2.740000000000000E-002    1.927380231732467E-034
 -2.730000000000000E-002    2.385668356166886E-034
 -2.720000000000000E-002    2.700941286147711E-034
 -2.710000000000000E-002    2.715394101143088E-034
 -2.700000000000000E-002    2.224237329312735E-034
 -2.690000000000000E-002    9.845716525972160E-035
 -2.680000000000000E-002   -1.262527247894779E-034
 -2.670000000000000E-002   -4.752749176020899E-034
 -2.660000000000000E-002   -9.638687987145248E-034
 -2.650000000000000E-002   -1.590815027439613E-033
 -2.640000000000000E-002   -2.328272246828530E-033
 -2.630000000000000E-002   -3.110376593652966E-033
 -2.620000000000000E-002   -3.822004615794266E-033
 -2.610000000000000E-002   -4.289930699675424E-033
 -2.600000000000000E-002   -4.279527800042307E-033
 -2.590000000000000E-002   -3.501009789447493E-033
 -2.580000000000000E-002   -1.629696445685843E-033
 -2.570000000000000E-002    1.654972727271040E-033
 -2.560000000000000E-002    6.608095084709211E-033
 -2.550000000000000E-002    1.333368891603266E-032
 -2.540000000000000E-002    2.167666603569744E-032
 -2.530000000000000E-002    3.109945731918603E-032
 -2.520000000000000E-002    4.055716313792828E-032
 -2.510000000000000E-002    4.839374543440156E-032
 -2.500000000000000E-002    5.229023034516687E-032
 -2.490000000000000E-002    4.930461526185691E-032
 -2.480000000000000E-002    3.604814199769342E-032
 -2.470000000000000E-002    9.042808288065117E-033
 -2.460000000000000E-002   -3.470267969705518E-032
 -2.450000000000000E-002   -9.688159766472305E-032
 -2.440000000000000E-002   -1.768583869965657E-031
 -2.430000000000000E-002   -2.704830398590309E-031
 -2.420000000000000E-002   -3.688801925406521E-031
 -2.410000000000000E-002   -4.574166637218582E-031
 -2.400000000000000E-002   -5.151306202956602E-031
 -2.390000000000000E-002   -5.149759594147082E-031
 -2.380000000000000E-002   -4.252805231257253E-031
 -2.370000000000000E-002   -2.128116377799112E-031
 -2.360000000000000E-002    1.522302507998680E-031
 -2.350000000000000E-002    6.891438437174566E-031
 -2.340000000000000E-002    1.397728644846349E-030
 -2.330000000000000E-002    2.247908456749974E-030
 -2.320000000000000E-002    3.169063603758496E-030
 -2.310000000000000E-002    4.040775639033083E-030
 -2.300000000000000E-002    4.687313000540499E-030
 -2.290000000000000E-002    4.878731968483363E-030
 -2.280000000000000E-002    4.341811976847237E-030
 -2.270000000000000E-002    2.783961347317779E-030
 -2.260000000000000E-002   -6.740063314114587E-032
 -2.250000000000000E-002   -4.408829622301748E-030
 -2.240000000000000E-002   -1.028930439136110E-029
 -2.230000000000000E-002   -1.752740547292209E-029
 -2.220000000000000E-002   -2.562545433861835E-029
 -2.210000000000000E-002   -3.369331192196509E-029
 -2.200000000000000E-002   -4.039918630284483E-029
 -2.190000000000000E-002   -4.396849771778581E-029
 -2.180000000000000E-002   -4.225422005255499E-029
 -2.170000000000000E-002   -3.290130599232606E-029
 -2.160000000000000E-002   -1.362328568938945E-029
 -2.150000000000000E-002    1.740081096808750E-029
 -2.140000000000000E-002    6.101618421242936E-029
 -2.130000000000000E-002    1.164977425579283E-028
 -2.120000000000000E-002    1.809266402485195E-028
 -2.110000000000000E-002    2.486230726400389E-028
 -2.100000000000000E-002    3.107499930858024E-028
 -2.090000000000000E-002    3.552267833790695E-028
 -2.080000000000000E-002    3.671049657843509E-028
 -2.070000000000000E-002    3.295530542444414E-028
 -2.060000000000000E-002    2.255662651721339E-028
 -2.050000000000000E-002    4.045701469915329E-029
 -2.040000000000000E-002   -2.349186133842649E-028
 -2.030000000000000E-002   -6.003687023215632E-028
 -2.020000000000000E-002   -1.042344536916287E-027
 -2.010000000000000E-002   -1.530199778924245E-027
 -2.000000000000000E-002   -2.013406790018511E-027
 -1.990000000000000E-002   -2.420553255721007E-027
 -1.980000000000000E-002   -2.660999559524976E-027
 -1.970000000000000E-002   -2.630047830308029E-027
 -1.960000000000000E-002   -2.218291147322349E-027
 -1.950000000000000E-002   -1.325444807165480E-027
 -1.940000000000000E-002    1.215508679622870E-028
 -1.930000000000000E-002    2.147134935182816E-027
 -1.920000000000000E-002    4.704232677981905E-027
 -1.910000000000000E-002    7.652624937970480E-027
 -1.900000000000000E-002    1.074220181716946E-026
 -1.890000000000000E-002    1.360541637940198E-026
 -1.880000000000000E-002    1.576354791206863E-026
 -1.870000000000000E-002    1.665113456944365E-026
 -1.860000000000000E-002    1.566193567943200E-026
 -1.850000000000000E-002    1.221794533105507E-026
 -1.840000000000000E-002    5.860147178570952E-027
 -1.830000000000000E-002   -3.643829557939620E-027
 -1.820000000000000E-002   -1.618425891808601E-026
 -1.810000000000000E-002   -3.119961502213466E-026
 -1.800000000000000E-002   -4.759014229017834E-026
 -1.790000000000000E-002   -6.367535694378809E-026
 -1.780000000000000E-002   -7.721715719413491E-026
 -1.770000000000000E-002   -8.552831953549515E-026
 -1.760000000000000E-002   -8.568167678938227E-026
 -1.750000000000000E-002   -7.482536891515904E-026
 -1.740000000000000E-002   -5.059721019210484E-026
 -1.730000000000000E-002   -1.161441198234377E-026
 -1.720000000000000E-002    4.200390612830082E-026
 -1.710000000000000E-002    1.081430182354494E-025
 -1.700000000000000E-002    1.823065970160487E-025
 -1.690000000000000E-002    2.574282443347750E-025
 -1.680000000000000E-002    3.239728251769021E-025
 -1.670000000000000E-002    3.704111873465896E-025
 -1.660000000000000E-002    3.841248811747736E-025
 -1.650000000000000E-002    3.527588076990278E-025
 -1.640000000000000E-002    2.659802840945643E-025
 -1.630000000000000E-002    1.175346671369505E-025
 -1.620000000000000E-002   -9.259198739179528E-026
 -1.610000000000000E-002   -3.561659820402160E-025
 -1.600000000000000E-002   -6.551847571076801E-025
 -1.590000000000000E-002   -9.612059910237862E-025
 -1.580000000000000E-002   -1.235892140471780E-024
 -1.570000000000000E-002   -1.433082986611835E-024
 -1.560000000000000E-002   -1.502594416663777E-024
 -1.550000000000000E-002   -1.395764413664395E-024
 -1.540000000000000E-002   -1.072534094779812E-024
 -1.530000000000000E-002   -5.095687111869415E-025
 -1.520000000000000E-002    2.913732073763689E-025
 -1.510000000000000E-002    1.295895418925060E-024
 -1.500000000000000E-002    2.431536665474227E-024
 -1.490000000000000E-002    3.585855455927834E-024
 -1.480000000000000E-002    4.609380533203400E-024
 -1.470000000000000E-002    5.324505967982552E-024
 -1.460000000000000E-002    5.540935573600602E-024
 -1.450000000000000E-002    5.077578111491232E-024
 -1.440000000000000E-002    3.789846493994516E-024
 -1.430000000000000E-002    1.600295008362141E-024
 -1.420000000000000E-002   -1.470565325706129E-024
 -1.410000000000000E-002   -5.277398927125763E-024
 -1.400000000000000E-002   -9.531961127915557E-024
 -1.390000000000000E-002   -1.379882042549303E-023
 -1.380000000000000E-002   -1.750964074872423E-023
 -1.370000000000000E-002   -1.999950055613884E-023
 -1.360000000000000E-002   -2.056694217928926E-023
 -1.350000000000000E-002   -1.855661275190301E-023
 -1.340000000000000E-002   -1.346008763098560E-023
 -1.330000000000000E-002   -5.026653902625137E-024
 -1.320000000000000E-002    6.627784511456128E-024
 -1.310000000000000E-002    2.092870128623118E-023
 -1.300000000000000E-002    3.678487833169238E-023
 -1.290000000000000E-002    5.258173124466530E-023
 -1.280000000000000E-002    6.624143943194075E-023
 -1.270000000000000E-002    7.536088257497459E-023
 -1.260000000000000E-002    7.743126820235965E-023
 -1.250000000000000E-002    7.013357251199928E-023
 -1.240000000000000E-002    5.169222404734448E-023
 -1.230000000000000E-002    2.125715349794017E-023
 -1.220000000000000E-002   -2.072754185064540E-023
 -1.210000000000000E-002   -7.221993168577633E-023
 -1.200000000000000E-002   -1.293986044532354E-022
 -1.190000000000000E-002   -1.866594428586351E-022
 -1.180000000000000E-002   -2.368396457371642E-022
 -1.170000000000000E-002   -2.717008479665475E-022
 -1.160000000000000E-002   -2.826789068079105E-022
 -1.150000000000000E-002   -2.618750620688963E-022
 -1.140000000000000E-002   -2.032255282804061E-022
 -1.130000000000000E-002   -1.037477236095484E-022
 -1.120000000000000E-002    3.527525550461347E-023
 -1.110000000000000E-002    2.073382280222638E-022
 -1.100000000000000E-002    4.001648201079219E-022
 -1.090000000000000E-002    5.957395189281965E-022
 -1.080000000000000E-002    7.710647509871321E-022
 -1.070000000000000E-002    8.997305266939736E-022
 -1.060000000000000E-002    9.543043569256528E-022
 -1.050000000000000E-002    9.094464135369148E-022
 -1.040000000000000E-002    7.455407953334106E-022
 -1.030000000000000E-002    4.525167783367813E-022
 -1.020000000000000E-002    3.342944737840609E-023
 -1.010000000000000E-002   -4.927046060045833E-022
 -1.000000000000000E-002   -1.089347754534256E-021
 -9.899999999999999E-003   -1.702663479014274E-021
 -9.800000000000000E-003   -2.263914718848748E-021
 -9.699999999999999E-003   -2.694261245289960E-021
 -9.599999999999999E-003   -2.911934516779285E-021
 -9.500000000000000E-003   -2.841456780053693E-021
 -9.399999999999999E-003   -2.424248444433197E-021
 -9.299999999999999E-003   -1.629638537046222E-021
 -9.200000000000000E-003   -4.650112092093188E-022
 -9.099999999999999E-003    1.016358503712981E-021
 -8.999999999999999E-003    2.711274355346738E-021
 -8.900000000000000E-003    4.467762600711584E-021
 -8.799999999999999E-003    6.092422402798063E-021
 -8.699999999999999E-003    7.364472842161147E-021
 -8.600000000000000E-003    8.056303120627559E-021
 -8.499999999999999E-003    7.959435028120955E-021
 -8.399999999999999E-003    6.913928887189948E-021
 -8.300000000000000E-003    4.838389677173550E-021
 -8.199999999999999E-003    1.757025779806974E-021
 -8.100000000000000E-003   -2.180206118329426E-021
 -8.000000000000000E-003   -6.688363765802549E-021
 -7.899999999999999E-003   -1.135269513714548E-020
 -7.800000000000000E-003   -1.565075532976855E-020
 -7.699999999999999E-003   -1.899241370984751E-020
 -7.599999999999999E-003   -2.077676496179015E-020
 -7.499999999999999E-003   -2.046258749603501E-020
 -7.399999999999999E-003   -1.764668156559000E-020
 -7.299999999999999E-003   -1.214219701037753E-020
 -7.199999999999999E-003   -4.047370115505244E-021
 -7.100000000000000E-003    6.205767469265428E-021
 -6.999999999999999E-003    1.783289699263121E-020
 -6.899999999999999E-003    2.971782872737321E-020
 -6.800000000000000E-003    4.047757435041257E-020
 -6.699999999999999E-003    4.857357324547257E-020
 -6.599999999999999E-003    5.246526518999561E-020
 -6.499999999999999E-003    5.079623082792315E-020
 -6.399999999999999E-003    4.259718572053914E-020
 -6.299999999999999E-003    2.748461979058568E-020
 -6.199999999999999E-003    5.830225386209882E-021
 -6.100000000000000E-003   -2.112545057234634E-020
 -5.999999999999999E-003   -5.124052470132942E-020
 -5.899999999999999E-003   -8.154104407473903E-020
 -5.800000000000000E-003   -1.084047072340090E-019
 -5.699999999999999E-003   -1.278604314993202E-019
 -5.599999999999999E-003   -1.359915564681511E-019
 -5.499999999999999E-003   -1.294154549791583E-019
 -5.399999999999999E-003   -1.057979745838066E-019
 -5.299999999999999E-003   -6.434811092449189E-020
 -5.199999999999999E-003   -6.230075989118355E-021
 -5.099999999999999E-003    6.517267792022990E-020
 -4.999999999999999E-003    1.442026881069586E-019
 -4.899999999999999E-003    2.231312974322653E-019
 -4.799999999999999E-003    2.926459507199310E-019
 -4.699999999999999E-003    3.426211525377566E-019
 -4.599999999999999E-003    3.631384468365948E-019
 -4.499999999999999E-003    3.456843662317532E-019
 -4.399999999999999E-003    2.844209716337135E-019
 -4.299999999999999E-003    1.773947543380389E-019
 -4.199999999999999E-003    2.753129084839561E-020
 -4.099999999999999E-003   -1.567413461496338E-019
 -3.999999999999999E-003   -3.613834037621621E-019
 -3.899999999999999E-003   -5.672592854431353E-019
 -3.799999999999999E-003   -7.513367314049739E-019
 -3.699999999999999E-003   -8.885595585286876E-019
 -3.599999999999999E-003   -9.543052173475196E-019
 -3.499999999999999E-003   -9.272530621808765E-019
 -3.399999999999999E-003   -7.924126516103661E-019
 -3.299999999999999E-003   -5.439937615914123E-019
 -3.199999999999999E-003   -1.877638293257861E-019
 -3.099999999999999E-003    2.574679680186900E-019
 -2.999999999999999E-003    7.595662487183958E-019
 -2.899999999999999E-003    1.274230697472983E-018
 -2.799999999999999E-003    1.747728540349125E-018
 -2.699999999999999E-003    2.121165847550666E-018
 -2.599999999999999E-003    2.336088156522493E-018
 -2.499999999999999E-003    2.341010062911928E-018
 -2.399999999999999E-003    2.098301769760350E-018
 -2.299999999999999E-003    1.590721715697210E-018
 -2.199999999999999E-003    8.268042147736068E-019
 -2.099999999999999E-003   -1.556957281175340E-019
 -1.999999999999999E-003   -1.289008213783608E-018
 -1.899999999999999E-003   -2.477740026906458E-018
 -1.799999999999999E-003   -3.604709826135960E-018
 -1.699999999999999E-003   -4.540150490009500E-018
 -1.599999999999999E-003   -5.153796323348083E-018
 -1.499999999999999E-003   -5.328989287690509E-018
 -1.399999999999999E-003   -4.977562835523628E-018
 -1.299999999999999E-003   -4.053969235976173E-018
 -1.199999999999999E-003   -2.566969552392349E-018
 -1.099999999999999E-003   -5.871991113188786E-019
 -9.999999999999989E-004    1.750880842824521E-018
 -8.999999999999990E-004    4.253739787279041E-018
 -7.999999999999990E-004    6.680768079345178E-018
 -6.999999999999989E-004    8.763284313723109E-018
 -5.999999999999990E-004    1.022955703556242E-017
 -4.999999999999989E-004    1.083396104755696E-017
 -3.999999999999989E-004    1.038770011324274E-017
 -2.999999999999989E-004    8.787916062314783E-018
 -1.999999999999989E-004    6.041700788332452E-018
 -9.999999999999892E-005    2.281594350958602E-018
  1.084202172485504E-018   -2.230443853737204E-018
  1.000000000000011E-004   -7.112769524857857E-018
  2.000000000000011E-004   -1.188845899562581E-017
  3.000000000000011E-004   -1.602386382006403E-017
  4.000000000000011E-004   -1.897917221012620E-017
  5.000000000000011E-004   -2.026710387395033E-017
  6.000000000000011E-004   -1.951445621493482E-017
  7.000000000000011E-004   -1.652007568100538E-017
  8.000000000000011E-004   -1.130226586782204E-017
  9.000000000000012E-004   -4.128804480940721E-018
  1.000000000000001E-003    4.476346966131192E-018
  1.100000000000001E-003    1.375383679090475E-017
  1.200000000000001E-003    2.275897077454691E-017
  1.300000000000001E-003    3.043978479986158E-017
  1.400000000000001E-003    3.573859794694952E-017
  1.500000000000001E-003    3.770923954254777E-017
  1.600000000000001E-003    3.563924872994020E-017
  1.700000000000001E-003    2.916420092197335E-017
  1.800000000000001E-003    1.836036392053652E-017
  1.900000000000001E-003    3.802160523761502E-018
  2.000000000000001E-003   -1.342708860736560E-017
  2.100000000000001E-003   -3.177926616308825E-017
  2.200000000000001E-003   -4.934361966695375E-017
  2.300000000000001E-003   -6.400426739455070E-017
  2.400000000000001E-003   -7.364395995136660E-017
  2.500000000000001E-003   -7.637846108682176E-017
  2.600000000000001E-003   -7.080032978977668E-017
  2.700000000000001E-003   -5.620682581888492E-017
  2.800000000000001E-003   -3.278469069041058E-017
  2.900000000000001E-003   -1.725248779079161E-018
  3.000000000000001E-003    3.475287324021043E-017
  3.100000000000001E-003    7.348945430726501E-017
  3.200000000000001E-003    1.105832672998616E-016
  3.300000000000001E-003    1.417027644183382E-016
  3.400000000000001E-003    1.624892339924979E-016
  3.500000000000001E-003    1.690224098394369E-016
  3.600000000000001E-003    1.583076414482945E-016
  3.700000000000001E-003    1.287355971692032E-016
  3.800000000000001E-003    8.046125969830389E-017
  3.900000000000001E-003    1.565047257427226E-017
  4.000000000000001E-003   -6.145111765205059E-017
  4.100000000000001E-003   -1.446592857522966E-016
  4.200000000000001E-003   -2.262171801917566E-016
  4.300000000000001E-003   -2.973790408823966E-016
  4.400000000000001E-003   -3.491808387640368E-016
  4.500000000000001E-003   -3.733423628023896E-016
  4.600000000000002E-003   -3.632250351099726E-016
  4.700000000000001E-003   -3.147526618082309E-016
  4.800000000000001E-003   -2.271937214840391E-016
  4.900000000000002E-003   -1.037053863798177E-016
  5.000000000000001E-003    4.844980902925875E-017
  5.100000000000001E-003    2.180810298622917E-016
  5.200000000000001E-003    3.906742593427270E-016
  5.300000000000002E-003    5.494195817426037E-016
  5.400000000000001E-003    6.766109373010627E-016
  5.500000000000001E-003    7.553219418054071E-016
  5.600000000000002E-003    7.712222047399227E-016
  5.700000000000001E-003    7.143658333714546E-016
  5.800000000000001E-003    5.807640830888359E-016
  5.900000000000002E-003    3.735542090670084E-016
  6.000000000000001E-003    1.035932906758974E-016
  6.100000000000001E-003   -2.106560693155473E-016
  6.200000000000002E-003   -5.440263839869895E-016
  6.300000000000002E-003   -8.663364134122105E-016
  6.400000000000001E-003   -1.144800032246167E-015
  6.500000000000001E-003   -1.346993699138051E-015
  6.600000000000002E-003   -1.444149050944147E-015
  6.700000000000001E-003   -1.414473815414736E-015
  6.800000000000001E-003   -1.246165851049007E-015
  6.900000000000002E-003   -9.397753308596836E-016
  7.000000000000001E-003   -5.095964456099981E-016
  7.100000000000001E-003    1.616933566799177E-017
  7.200000000000002E-003    5.966417492796048E-016
  7.300000000000002E-003    1.180918906415728E-015
  7.400000000000001E-003    1.712061676173271E-015
  7.500000000000001E-003    2.132150810661755E-015
  7.600000000000002E-003    2.388026982403827E-015
  7.700000000000001E-003    2.437198702217604E-015
  7.800000000000001E-003    2.253338552237501E-015
  7.900000000000001E-003    1.830750460753476E-015
  8.000000000000002E-003    1.187230408450739E-015
  8.100000000000001E-003    3.648416883446073E-016
  8.200000000000001E-003   -5.717158741126488E-016
  8.300000000000002E-003   -1.539249924967770E-015
  8.400000000000001E-003   -2.442594148659519E-015
  8.500000000000002E-003   -3.183097161020765E-015
  8.600000000000002E-003   -3.668428181158661E-015
  8.700000000000001E-003   -3.822832140169988E-015
  8.800000000000002E-003   -3.596817740529171E-015
  8.900000000000002E-003   -2.975207646339142E-015
  9.000000000000001E-003   -1.982519769954107E-015
  9.100000000000002E-003   -6.848122557017477E-016
  9.200000000000002E-003    8.126091175398102E-016
  9.300000000000001E-003    2.371859303811144E-015
  9.400000000000002E-003    3.833325306084172E-015
  9.500000000000001E-003    5.030046213385578E-015
  9.600000000000001E-003    5.804529547899570E-015
  9.700000000000002E-003    6.026507644609985E-015
  9.800000000000001E-003    5.609887801739255E-015
  9.900000000000001E-003    4.527018394166706E-015
  1.000000000000000E-002    2.818444667020111E-015
  1.010000000000000E-002    5.966058643451203E-016
  1.020000000000000E-002   -1.957635115095158E-015
  1.030000000000000E-002   -4.606108601469163E-015
  1.040000000000000E-002   -7.071839372376464E-015
  1.050000000000000E-002   -9.063853276451074E-015
  1.060000000000000E-002   -1.030642471107821E-014
  1.070000000000000E-002   -1.057022795839804E-014
  1.080000000000000E-002   -9.702320171304829E-015
  1.090000000000000E-002   -7.651674002965684E-015
  1.100000000000000E-002   -4.487040666654245E-015
  1.110000000000000E-002   -4.043568148999876E-016
  1.120000000000000E-002    4.278339144670875E-015
  1.130000000000000E-002    9.139426019090455E-015
  1.140000000000000E-002    1.368533548742750E-014
  1.150000000000000E-002    1.739351749796500E-014
  1.160000000000000E-002    1.976364444900434E-014
  1.170000000000000E-002    2.037263767773888E-014
  1.180000000000000E-002    1.892824547460484E-014
  1.190000000000000E-002    1.531541940294655E-014
  1.200000000000000E-002    9.629811956517518E-015
  1.210000000000000E-002    2.193393341515548E-015
  1.220000000000000E-002   -6.451512011903849E-015
  1.230000000000000E-002   -1.557170345722392E-014
  1.240000000000000E-002   -2.429576356172366E-014
  1.250000000000000E-002   -3.168711800404973E-014
  1.260000000000000E-002   -3.683233896599483E-014
  1.270000000000000E-002   -3.893730215277935E-014
  1.280000000000000E-002   -3.742218162121353E-014
  1.290000000000000E-002   -3.200540086654807E-014
  1.300000000000000E-002   -2.276660197463724E-014
  1.310000000000000E-002   -1.017983800320228E-014
  1.320000000000000E-002    4.889771779614163E-015
  1.330000000000000E-002    2.122964970235356E-014
  1.340000000000000E-002    3.736357399471123E-014
  1.350000000000000E-002    5.167163535175103E-014
  1.360000000000000E-002    6.253785915478277E-014
  1.370000000000000E-002    6.851356305565073E-014
  1.380000000000000E-002    6.848133019002989E-014
  1.390000000000000E-002    6.180294354798659E-014
  1.400000000000000E-002    4.843446113781525E-014
  1.410000000000000E-002    2.899323228371435E-014
  1.420000000000000E-002    4.764913579640610E-015
  1.430000000000000E-002   -2.235651246578987E-014
  1.440000000000000E-002   -4.999651787513749E-014
  1.450000000000000E-002   -7.548962459490551E-014
  1.460000000000000E-002   -9.611776701857909E-014
  1.470000000000000E-002   -1.093781838229974E-013
  1.480000000000000E-002   -1.132563348920363E-013
  1.490000000000000E-002   -1.064767036135652E-013
  1.500000000000000E-002   -8.870349362924565E-014
  1.510000000000000E-002   -6.066592472890569E-014
  1.520000000000000E-002   -2.418769815610876E-014
  1.530000000000000E-002    1.789173191560185E-014
  1.540000000000000E-002    6.190661009772864E-014
  1.550000000000000E-002    1.036565640767919E-013
  1.560000000000000E-002    1.387805950854203E-013
  1.570000000000000E-002    1.631830247531234E-013
  1.580000000000000E-002    1.734729051179960E-013
  1.590000000000000E-002    1.673729751777572E-013
  1.600000000000000E-002    1.440538183279413E-013
  1.610000000000000E-002    1.043513485561444E-013
  1.620000000000000E-002    5.083475222840831E-014
  1.630000000000000E-002   -1.229636847025004E-014
  1.640000000000000E-002   -7.949101417509702E-014
  1.650000000000000E-002   -1.442898138926048E-013
  1.660000000000000E-002   -1.999017020296749E-013
  1.670000000000000E-002   -2.398676385313352E-013
  1.680000000000000E-002   -2.587507792063545E-013
  1.690000000000000E-002   -2.527850405513442E-013
  1.700000000000000E-002   -2.204110611193225E-013
  1.710000000000000E-002   -1.626345354363942E-013
  1.720000000000000E-002   -8.315339161660627E-014
  1.730000000000000E-002    1.178005575123871E-014
  1.740000000000000E-002    1.137719511697468E-013
  1.750000000000000E-002    2.129572556483207E-013
  1.760000000000000E-002    2.988817046039449E-013
  1.770000000000000E-002    3.615233564948800E-013
  1.780000000000000E-002    3.923616823207840E-013
  1.790000000000000E-002    3.853875278467425E-013
  1.800000000000000E-002    3.379450136659858E-013
  1.810000000000000E-002    2.513034741272351E-013
  1.820000000000000E-002    1.308763716903011E-013
  1.830000000000000E-002   -1.396677675785841E-014
  1.840000000000000E-002   -1.705119199844171E-013
  1.850000000000000E-002   -3.237105693610099E-013
  1.860000000000000E-002   -4.575187749679991E-013
  1.870000000000000E-002   -5.564569102632703E-013