 -4.000000000000000E-002    0.000000000000000E+000
 -3.990000000000000E-002    0.000000000000000E+000
 -3.980000000000000E-002    5.481509536279608E-011
 -3.970000000000000E-002    2.454045019870138E-010
 -3.960000000000000E-002    6.662764799371504E-010
 -3.950000000000000E-002    1.435384613189858E-009
 -3.940000000000000E-002    2.728321336916716E-009
 -3.930000000000000E-002    4.834490852437780E-009
 -3.920000000000000E-002    8.229777403961914E-009
 -3.910000000000000E-002    1.365822453597082E-008
 -3.900000000000000E-002    2.221422546915879E-008
 -3.890000000000000E-002    3.541711533246123E-008
 -3.880000000000000E-002    5.527040956627168E-008
 -3.870000000000000E-002    8.429971147451673E-008
 -3.860000000000000E-002    1.255646157368663E-007
 -3.850000000000000E-002    1.826426080754692E-007
 -3.840000000000000E-002    2.595825947062756E-007
 -3.830000000000000E-002    3.608304339956340E-007
 -3.820000000000000E-002    4.911274477386022E-007
 -3.810000000000000E-002    6.553870380121297E-007
 -3.800000000000000E-002    8.585533645163709E-007
 -3.790000000000000E-002    1.105450637578382E-006
 -3.780000000000000E-002    1.400628619673861E-006
 -3.770000000000000E-002    1.748215651669401E-006
 -3.760000000000000E-002    2.151785871729063E-006
 -3.750000000000000E-002    2.614251371722046E-006
 -3.740000000000000E-002    3.137786101103620E-006
 -3.730000000000000E-002    3.723788932422168E-006
 -3.720000000000000E-002    4.372888884804528E-006
 -3.710000000000000E-002    5.084995157514427E-006
 -3.700000000000000E-002    5.859387295775880E-006
 -3.690000000000000E-002    6.694842912923599E-006
 -3.680000000000000E-002    7.589791353340260E-006
 -3.670000000000000E-002    8.542484713615010E-006
 -3.660000000000000E-002    9.551171812674152E-006
 -3.650000000000000E-002    1.061426338335785E-005
 -3.640000000000000E-002    1.173047775440546E-005
 -3.630000000000000E-002    1.289895460739300E-005
 -3.620000000000000E-002    1.411933313122536E-005
 -3.610000000000000E-002    1.539179410051168E-005
 -3.600000000000000E-002    1.671706481738097E-005
 -3.590000000000000E-002    1.809638987287281E-005
 -3.580000000000000E-002    1.953148589476859E-005
 -3.570000000000000E-002    2.102448199590486E-005
 -3.560000000000000E-002    2.257785582438451E-005
 -3.550000000000000E-002    2.419438852265996E-005
 -3.540000000000000E-002    2.587712502061051E-005
 -3.530000000000000E-002    2.762936622721061E-005
 -3.520000000000000E-002    2.945466899647010E-005
 -3.510000000000000E-002    3.135687899013656E-005
 -3.500000000000000E-002    3.334016694764163E-005
 -3.490000000000000E-002    3.540906744324805E-005
 -3.480000000000000E-002    3.756851430251635E-005
 -3.470000000000000E-002    3.982386546865654E-005
 -3.460000000000000E-002    4.218090127340554E-005
 -3.450000000000000E-002    4.464580674676257E-005
 -3.440000000000000E-002    4.722513144393036E-005
 -3.430000000000000E-002    4.992574207282665E-005
 -3.420000000000000E-002    5.275475110275418E-005
 -3.410000000000000E-002    5.571946358322206E-005
 -3.400000000000000E-002    5.882733822707043E-005
 -3.390000000000000E-002    6.208596343037790E-005
 -3.380000000000000E-002    6.550307767723560E-005
 -3.370000000000000E-002    6.908660306168044E-005
 -3.360000000000000E-002    7.284474259771880E-005
 -3.350000000000000E-002    7.678607163741656E-005
 -3.340000000000000E-002    8.091965868817786E-005
 -3.330000000000000E-002    8.525519127102999E-005
 -3.320000000000000E-002    8.980308140701670E-005
 -3.310000000000000E-002    9.457456844229601E-005
 -3.300000000000000E-002    9.958175278447845E-005
 -3.290000000000000E-002    1.048376030892255E-004
 -3.280000000000000E-002    1.103559507854841E-004
 -3.270000000000000E-002    1.161514292447479E-004
 -3.260000000000000E-002    1.222393757741449E-004
 -3.250000000000000E-002    1.286357864364995E-004
 -3.240000000000000E-002    1.353571903610766E-004
 -3.230000000000000E-002    1.424206631387431E-004
 -3.220000000000000E-002    1.498437700716007E-004
 -3.210000000000000E-002    1.576446304957454E-004
 -3.200000000000000E-002    1.658419841338589E-004
 -3.190000000000000E-002    1.744553035363233E-004
 -3.180000000000000E-002    1.835049327342937E-004
 -3.170000000000000E-002    1.930122523111731E-004
 -3.160000000000000E-002    2.029998240690676E-004
 -3.150000000000000E-002    2.134914213552630E-004
 -3.140000000000000E-002    2.245121253729548E-004
 -3.130000000000000E-002    2.360882856567505E-004
 -3.120000000000000E-002    2.482474180393955E-004
 -3.110000000000000E-002    2.610181176352931E-004
 -3.100000000000000E-002    2.744297914779081E-004
 -3.090000000000000E-002    2.885125177758793E-004
 -3.080000000000000E-002    3.032967723983229E-004
 -3.070000000000000E-002    3.188133590832441E-004
 -3.060000000000000E-002    3.350931803857839E-004
 -3.050000000000000E-002    3.521673313326813E-004
 -3.040000000000000E-002    3.700671135745386E-004
 -3.030000000000000E-002    3.888240836433576E-004
 -3.020000000000000E-002    4.084704899071024E-004
 -3.010000000000000E-002    4.290394202110292E-004
 -3.000000000000000E-002    4.505651936764430E-004
 -2.990000000000000E-002    4.730835112265568E-004
 -2.980000000000000E-002    4.966319714767472E-004
 -2.970000000000000E-002    5.212500411461424E-004
 -2.960000000000000E-002    5.469792510502288E-004
 -2.950000000000000E-002    5.738632083093540E-004
 -2.940000000000000E-002    6.019473145733126E-004
 -2.930000000000000E-002    6.312787997160940E-004
 -2.920000000000000E-002    6.619063133735321E-004
 -2.910000000000000E-002    6.938796578079575E-004
 -2.900000000000000E-002    7.272494990367063E-004
 -2.890000000000000E-002    7.620672224103849E-004
 -2.880000000000000E-002    7.983848071375256E-004
 -2.870000000000000E-002    8.362545401616942E-004
 -2.860000000000000E-002    8.757294237133130E-004
 -2.850000000000000E-002    9.168632971347764E-004
 -2.840000000000000E-002    9.597110620632121E-004
 -2.830000000000000E-002    1.004328929516244E-003
 -2.820000000000000E-002    1.050774759988447E-003
 -2.810000000000000E-002    1.099108553000089E-003
 -2.800000000000000E-002    1.149392367553215E-003
 -2.790000000000000E-002    1.201690794553756E-003
 -2.780000000000000E-002    1.256070674547488E-003
 -2.770000000000000E-002    1.312600818415062E-003
 -2.760000000000000E-002    1.371352282699533E-003
 -2.750000000000000E-002    1.432397354879382E-003
 -2.740000000000000E-002    1.495809530313921E-003
 -2.730000000000000E-002    1.561663307024354E-003
 -2.720000000000000E-002    1.630033026782664E-003
 -2.710000000000000E-002    1.700993425003327E-003
 -2.700000000000000E-002    1.774618893205443E-003
 -2.690000000000000E-002    1.850983874011535E-003
 -2.680000000000000E-002    1.930162360562992E-003
 -2.670000000000000E-002    2.012228797177498E-003
 -2.660000000000000E-002    2.097257939277276E-003
 -2.650000000000000E-002    2.185324885635401E-003
 -2.640000000000000E-002    2.276506157564832E-003
 -2.630000000000000E-002    2.370878873291658E-003
 -2.620000000000000E-002    2.468521633417535E-003
 -2.610000000000000E-002    2.569514399576940E-003
 -2.600000000000000E-002    2.673938056023601E-003
 -2.590000000000000E-002    2.781873946333569E-003
 -2.580000000000000E-002    2.893403999749479E-003
 -2.570000000000000E-002    3.008609372009647E-003
 -2.560000000000000E-002    3.127570082644217E-003
 -2.550000000000000E-002    3.250364470492924E-003
 -2.540000000000000E-002    3.377070003151071E-003
 -2.530000000000000E-002    3.507760076350928E-003
 -2.520000000000000E-002    3.642506016110163E-003
 -2.510000000000000E-002    3.781376116055631E-003
 -2.500000000000000E-002    3.924435734835766E-003
 -2.490000000000000E-002    4.071747672308158E-003
 -2.480000000000000E-002    4.223372561164688E-003
 -2.470000000000000E-002    4.379367722394637E-003
 -2.460000000000000E-002    4.539789699547369E-003
 -2.450000000000000E-002    4.704692747856619E-003
 -2.440000000000000E-002    4.874127875711825E-003
 -2.430000000000000E-002    5.048146097998289E-003
 -2.420000000000000E-002    5.226794944402885E-003
 -2.410000000000000E-002    5.410118390592208E-003
 -2.400000000000000E-002    5.598157595084654E-003
 -2.390000000000000E-002    5.790947884498285E-003
 -2.380000000000000E-002    5.988519297116638E-003
 -2.370000000000000E-002    6.190895642351745E-003
 -2.360000000000000E-002    6.398093384485356E-003
 -2.350000000000000E-002    6.610120683852761E-003
 -2.340000000000000E-002    6.826977441829183E-003
 -2.330000000000000E-002    7.048653847297964E-003
 -2.320000000000000E-002    7.275131445549373E-003
 -2.310000000000000E-002    7.506380212385896E-003
 -2.300000000000000E-002    7.742364567428761E-003
 -2.290000000000000E-002    7.983035764507740E-003
 -2.280000000000000E-002    8.228335881774304E-003
 -2.270000000000000E-002    8.478197698837259E-003
 -2.260000000000000E-002    8.732543320293934E-003
 -2.250000000000000E-002    8.991284177513248E-003
 -2.240000000000000E-002    9.254319357242628E-003
 -2.230000000000000E-002    9.521535690652078E-003
 -2.220000000000000E-002    9.792808042472631E-003
 -2.210000000000000E-002    1.006799681794964E-002
 -2.200000000000000E-002    1.034694348988195E-002
 -2.190000000000000E-002    1.062947487746691E-002
 -2.180000000000000E-002    1.091540171407513E-002
 -2.170000000000000E-002    1.120451239132681E-002
 -2.160000000000000E-002    1.149657888124034E-002
 -2.150000000000000E-002    1.179135188569169E-002
 -2.140000000000000E-002    1.208855649433991E-002
 -2.130000000000000E-002    1.238790388611208E-002
 -2.120000000000000E-002    1.268908002670576E-002
 -2.110000000000000E-002    1.299175019574952E-002
 -2.100000000000000E-002    1.329555691719135E-002
 -2.090000000000000E-002    1.360011963593667E-002
 -2.080000000000000E-002    1.390503484702100E-002
 -2.070000000000000E-002    1.420987299349537E-002
 -2.060000000000000E-002    1.451418269895460E-002
 -2.050000000000000E-002    1.481748773498073E-002
 -2.040000000000000E-002    1.511927773710954E-002
 -2.030000000000000E-002    1.541902166303426E-002
 -2.020000000000000E-002    1.571615364327764E-002
 -2.010000000000000E-002    1.601007443949966E-002
 -2.000000000000000E-002    1.630016252111081E-002
 -1.990000000000000E-002    1.658575496159227E-002
 -1.980000000000000E-002    1.686614977216065E-002
 -1.970000000000000E-002    1.714062134197246E-002
 -1.960000000000000E-002    1.740840143932533E-002
 -1.950000000000000E-002    1.766868481468619E-002
 -1.940000000000000E-002    1.792063295892515E-002
 -1.930000000000000E-002    1.816336157775941E-002
 -1.920000000000000E-002    1.839596076950462E-002
 -1.910000000000000E-002    1.861747181397502E-002
 -1.900000000000000E-002    1.882689706097858E-002
 -1.890000000000000E-002    1.902320180293061E-002
 -1.880000000000000E-002    1.920531582474880E-002
 -1.870000000000000E-002    1.937211776782003E-002
 -1.860000000000000E-002    1.952243996524247E-002
 -1.850000000000000E-002    1.965508532500967E-002
 -1.840000000000000E-002    1.976879441411046E-002
 -1.830000000000000E-002    1.986227841764502E-002
 -1.820000000000000E-002    1.993418198609466E-002
 -1.810000000000000E-002    1.998311747362474E-002
 -1.800000000000000E-002    2.000764060144570E-002
 -1.790000000000000E-002    2.000625538763067E-002
 -1.780000000000000E-002    1.997743169682573E-002
 -1.770000000000000E-002    1.991956965138955E-002
 -1.760000000000000E-002    1.983103380362685E-002
 -1.750000000000000E-002    1.971013325647943E-002
 -1.740000000000000E-002    1.955513279200845E-002
 -1.730000000000000E-002    1.936423064954157E-002
 -1.720000000000000E-002    1.913560076019592E-002
 -1.710000000000000E-002    1.886735061736012E-002
 -1.700000000000000E-002    1.855753670327345E-002
 -1.690000000000000E-002    1.820417013550001E-002
 -1.680000000000000E-002    1.780520646916553E-002
 -1.670000000000000E-002    1.735856081385111E-002
 -1.660000000000000E-002    1.686208806031671E-002
 -1.650000000000000E-002    1.631359256239400E-002
 -1.640000000000000E-002    1.571083902348165E-002
 -1.630000000000000E-002    1.505153101641720E-002
 -1.620000000000000E-002    1.433331452990374E-002
 -1.610000000000000E-002    1.355380369238982E-002
 -1.600000000000000E-002    1.271055256191249E-002
 -1.590000000000000E-002    1.180107433836165E-002
 -1.580000000000000E-002    1.082284050567619E-002
 -1.570000000000000E-002    9.773277973563817E-003
 -1.560000000000000E-002    8.649740682503234E-003
 -1.550000000000000E-002    7.449575061546621E-003
 -1.540000000000000E-002    6.170069415434840E-003
 -1.530000000000000E-002    4.808487438040459E-003
 -1.520000000000000E-002    3.362026654363153E-003
 -1.510000000000000E-002    1.827869388006404E-003
 -1.500000000000000E-002    2.031537184910604E-004
 -1.490000000000000E-002   -1.515020085833924E-003
 -1.480000000000000E-002   -3.329581809006637E-003
 -1.470000000000000E-002   -5.243485817213345E-003
 -1.460000000000000E-002   -7.259719205305870E-003
 -1.450000000000000E-002   -9.381301774055561E-003
 -1.440000000000000E-002   -1.161127357393343E-002
 -1.430000000000000E-002   -1.395270624479906E-002
 -1.420000000000000E-002   -1.640867065217788E-002
 -1.410000000000000E-002   -1.898226008077256E-002
 -1.400000000000000E-002   -2.167657180504163E-002
 -1.390000000000000E-002   -2.449473369544381E-002
 -1.380000000000000E-002   -2.743988774408994E-002
 -1.370000000000000E-002   -3.051513229982297E-002
 -1.360000000000000E-002   -3.372361221343605E-002
 -1.350000000000000E-002   -3.706843374306382E-002
 -1.340000000000000E-002   -4.055271662296411E-002
 -1.330000000000000E-002   -4.417957682066200E-002
 -1.320000000000000E-002   -4.795209920818009E-002
 -1.310000000000000E-002   -5.187334627382109E-002
 -1.300000000000000E-002   -5.594636303261275E-002
 -1.290000000000000E-002   -6.017414055968925E-002
 -1.280000000000000E-002   -6.455971064399897E-002
 -1.270000000000000E-002   -6.910600796109802E-002
 -1.260000000000000E-002   -7.381593329030582E-002
 -1.250000000000000E-002   -7.869237803343776E-002
 -1.240000000000000E-002   -8.373811604344933E-002
 -1.230000000000000E-002   -8.895593520826722E-002
 -1.220000000000000E-002   -9.434852024477619E-002
 -1.210000000000000E-002   -9.991850267282808E-002
 -1.200000000000000E-002   -0.105668450906395     
 -1.190000000000000E-002   -0.111600838030948     
 -1.180000000000000E-002   -0.117718064535428     
 -1.170000000000000E-002   -0.124022459700333     
 -1.160000000000000E-002   -0.130516262215580     
 -1.150000000000000E-002   -0.137201583441391     
 -1.140000000000000E-002   -0.144080433186891     
 -1.130000000000000E-002   -0.151154772818947     
 -1.120000000000000E-002   -0.158426353321811     
 -1.110000000000000E-002   -0.165896900651647     
 -1.100000000000000E-002   -0.173567976417322     
 -1.090000000000000E-002   -0.181440968344460     
 -1.080000000000000E-002   -0.189517219761636     
 -1.070000000000000E-002   -0.197797818621479     
 -1.060000000000000E-002   -0.206283803764594     
 -1.050000000000000E-002   -0.214975993393970     
 -1.040000000000000E-002   -0.223875066338489     
 -1.030000000000000E-002   -0.232981508392209     
 -1.020000000000000E-002   -0.242295684755465     
 -1.010000000000000E-002   -0.251817771868964     
 -1.000000000000000E-002   -0.261547721186799     
 -9.899999999999999E-003   -0.271485377657333     
 -9.800000000000000E-003   -0.281630283735287     
 -9.699999999999999E-003   -0.291981864431040     
 -9.599999999999999E-003   -0.302539278662203     
 -9.500000000000000E-003   -0.313301551357983     
 -9.399999999999999E-003   -0.324267475781721     
 -9.299999999999999E-003   -0.335435574904383     
 -9.200000000000000E-003   -0.346804171786956     
 -9.099999999999999E-003   -0.358371360678701     
 -8.999999999999999E-003   -0.370134982112520     
 -8.900000000000000E-003   -0.382092705396648     
 -8.799999999999999E-003   -0.394241926061069     
 -8.699999999999999E-003   -0.406579701906501     
 -8.600000000000000E-003   -0.419102900680439     
 -8.499999999999999E-003   -0.431808225479950     
 -8.399999999999999E-003   -0.444691991109137     
 -8.300000000000000E-003   -0.457750291141600     
 -8.199999999999999E-003   -0.470978969836357     
 -8.100000000000000E-003   -0.484373636136776     
 -8.000000000000000E-003   -0.497929590818411     
 -7.899999999999999E-003   -0.511641907580596     
 -7.800000000000000E-003   -0.525505315445882     
 -7.699999999999999E-003   -0.539514290949429     
 -7.599999999999999E-003   -0.553663109915218     
 -7.499999999999999E-003   -0.567945690382687     
 -7.399999999999999E-003   -0.582355768379310     
 -7.299999999999999E-003   -0.596886678418676     
 -7.199999999999999E-003   -0.611531580732801     
 -7.100000000000000E-003   -0.626283328222226     
 -6.999999999999999E-003   -0.641134464894851     
 -6.899999999999999E-003   -0.656077310496854     
 -6.800000000000000E-003   -0.671103872019692     
 -6.699999999999999E-003   -0.686205944224403     
 -6.599999999999999E-003   -0.701374953151661     
 -6.499999999999999E-003   -0.716602178416910     
 -6.399999999999999E-003   -0.731878574771055     
 -6.299999999999999E-003   -0.747194851208071     
 -6.199999999999999E-003   -0.762541412138959     
 -6.100000000000000E-003   -0.777908539123974     
 -5.999999999999999E-003   -0.793286158768403     
 -5.899999999999999E-003   -0.808664035299351     
 -5.800000000000000E-003   -0.824031649554003     
 -5.699999999999999E-003   -0.839378292956015     
 -5.599999999999999E-003   -0.854692884418048     
 -5.499999999999999E-003   -0.869964356258038     
 -5.399999999999999E-003   -0.885181399782544     
 -5.299999999999999E-003   -0.900332325431077     
 -5.199999999999999E-003   -0.915405412079208     
 -5.099999999999999E-003   -0.930388697239944     
 -4.999999999999999E-003   -0.945269998885063     
 -4.899999999999999E-003   -0.960037049698873     
 -4.799999999999999E-003   -0.974677434296476     
 -4.699999999999999E-003   -0.989178486213608     
 -4.599999999999999E-003    -1.00352750717701     
 -4.499999999999999E-003    -1.01771153429080     
 -4.399999999999999E-003    -1.03171770830849     
 -4.299999999999999E-003    -1.04553293137884     
 -4.199999999999999E-003    -1.05914397031929     
 -4.099999999999999E-003    -1.07253760434135     
 -3.999999999999999E-003    -1.08570065717855     
 -3.899999999999999E-003    -1.09861963589005     
 -3.799999999999999E-003    -1.11128109253926     
 -3.699999999999999E-003    -1.12367166704351     
 -3.599999999999999E-003    -1.13577791521711     
 -3.499999999999999E-003    -1.14758636127504     
 -3.399999999999999E-003    -1.15908362974690     
 -3.299999999999999E-003    -1.17025618242922     
 -3.199999999999999E-003    -1.18109074139043     
 -3.099999999999999E-003    -1.19157404322588     
 -2.999999999999999E-003    -1.20169279278848     
 -2.899999999999999E-003    -1.21143375761973     
 -2.799999999999999E-003    -1.22078404549049     
 -2.699999999999999E-003    -1.22973067083284     
 -2.599999999999999E-003    -1.23826081111343     
 -2.499999999999999E-003    -1.24636177330652     
 -2.399999999999999E-003    -1.25402111354733     
 -2.299999999999999E-003    -1.26122661991716     
 -2.199999999999999E-003    -1.26796604293779     
 -2.099999999999999E-003    -1.27422759552064     
 -1.999999999999999E-003    -1.27999953831722     
 -1.899999999999999E-003    -1.28527047945103     
 -1.799999999999999E-003    -1.29002920614886     
 -1.699999999999999E-003    -1.29426483906257     
 -1.599999999999999E-003    -1.29796672575706     
 -1.499999999999999E-003    -1.30112461894059     
 -1.399999999999999E-003    -1.30372847513828     
 -1.299999999999999E-003    -1.30576859507368     
 -1.199999999999999E-003    -1.30723568176977     
 -1.099999999999999E-003    -1.30812072494530     
 -9.999999999999989E-004    -1.30841510430192     
 -8.999999999999990E-004    -1.30811070086999     
 -7.999999999999990E-004    -1.30719959252201     
 -6.999999999999989E-004    -1.30567444859469     
 -5.999999999999990E-004    -1.30352829978391     
 -4.999999999999989E-004    -1.30075459406297     
 -3.999999999999989E-004    -1.29734721769724     
 -2.999999999999989E-004    -1.29330063227432     
 -1.999999999999989E-004    -1.28860962710171     
 -9.999999999999892E-005    -1.28326957049113     
  1.084202172485504E-018    -1.27727629541441     
  1.000000000000011E-004    -1.27062609120585     
  2.000000000000011E-004    -1.26331581779892     
  3.000000000000011E-004    -1.25534284227975     
  4.000000000000011E-004    -1.24670508641084     
  5.000000000000011E-004    -1.23740089922132     
  6.000000000000011E-004    -1.22742928367937     
  7.000000000000011E-004    -1.21678973065805     
  8.000000000000011E-004    -1.20548236184291     
  9.000000000000012E-004    -1.19350780843021     
  1.000000000000001E-003    -1.18086720654626     
  1.100000000000001E-003    -1.16756229372170     
  1.200000000000001E-003    -1.15359551528467     
  1.300000000000001E-003    -1.13896966598321     
  1.400000000000001E-003    -1.12368830101758     
  1.500000000000001E-003    -1.10775546937883     
  1.600000000000001E-003    -1.09117580165365     
  1.700000000000001E-003    -1.07395450022892     
  1.800000000000001E-003    -1.05609739536516     
  1.900000000000001E-003    -1.03761082053914     
  2.000000000000001E-003    -1.01850173766539     
  2.100000000000001E-003   -0.998777617201351     
  2.200000000000001E-003   -0.978446572022142     
  2.300000000000001E-003   -0.957517264547308     
  2.400000000000001E-003   -0.935998844548012     
  2.500000000000001E-003   -0.913901127661124     
  2.600000000000001E-003   -0.891234307598030     
  2.700000000000001E-003   -0.868009189534209     
  2.800000000000001E-003   -0.844237183602713     
  2.900000000000001E-003   -0.819930051511434     
  3.000000000000001E-003   -0.795100219891578     
  3.100000000000001E-003   -0.769760598436171     
  3.200000000000001E-003   -0.743924423514059     
  3.300000000000001E-003   -0.717605654740161     
  3.400000000000001E-003   -0.690818544168160     
  3.500000000000001E-003   -0.663577811687654     
  3.600000000000001E-003   -0.635898678916079     
  3.700000000000001E-003   -0.607796805256718     
  3.800000000000001E-003   -0.579288207191061     
  3.900000000000001E-003   -0.550389261948821     
  4.000000000000001E-003   -0.521116870120939     
  4.100000000000001E-003   -0.491488183778980     
  4.200000000000001E-003   -0.461520754016090     
  4.300000000000001E-003   -0.431232429171805     
  4.400000000000001E-003   -0.400641369365166     
  4.500000000000001E-003   -0.369766070413451     
  4.600000000000002E-003   -0.338625207611184     
  4.700000000000001E-003   -0.307237916171906     
  4.800000000000001E-003   -0.275623387524784     
  4.900000000000002E-003   -0.243801103986418     
  5.000000000000001E-003   -0.211790781175531     
  5.100000000000001E-003   -0.179612255633261     
  5.200000000000001E-003   -0.147285579607628     
  5.300000000000002E-003   -0.114830908791863     
  5.400000000000001E-003   -8.226857656231347E-002
  5.500000000000001E-003   -4.961903806007195E-002
  5.600000000000002E-003   -1.690271618322303E-002
  5.700000000000001E-003    1.585983155256278E-002
  5.800000000000001E-003    4.864792649462422E-002
  5.900000000000002E-003    8.144102991303663E-002
  6.000000000000001E-003    0.114218526965120     
  6.100000000000001E-003    0.146959815560914     
  6.200000000000002E-003    0.179644279602248     
  6.300000000000002E-003    0.212251561050048     
  6.400000000000001E-003    0.244761161679193     
  6.500000000000001E-003    0.277152874753025     
  6.600000000000002E-003    0.309406482882644     
  6.700000000000001E-003    0.341501967807262     
  6.800000000000001E-003    0.373419454124645     
  6.900000000000002E-003    0.405139307986065     
  7.000000000000001E-003    0.436642026134505     
  7.100000000000001E-003    0.467908360971526     
  7.200000000000002E-003    0.498919327583163     
  7.300000000000002E-003    0.529656151731519     
  7.400000000000001E-003    0.560100397483948     
  7.500000000000001E-003    0.590233862384924     
  7.600000000000002E-003    0.620038805388483     
  7.700000000000001E-003    0.649497606518932     
  7.800000000000001E-003    0.678593196789074     
  7.900000000000001E-003    0.707308661653587     
  8.000000000000002E-003    0.735627727323945     
  8.100000000000001E-003    0.763534282266229     
  8.200000000000001E-003    0.791012696203230     
  8.300000000000002E-003    0.818047822429268     
  8.400000000000001E-003    0.844624865437566     
  8.500000000000002E-003    0.870729447980417     
  8.600000000000002E-003    0.896347785045759     
  8.700000000000001E-003    0.921466493759470     
  8.800000000000002E-003    0.946072649801329     
  8.900000000000002E-003    0.970153977398513     
  9.000000000000001E-003    0.993698465428060     
  9.100000000000002E-003     1.01669478586697     
  9.200000000000002E-003     1.03913211889427     
  9.300000000000001E-003     1.06100012466700     
  9.400000000000002E-003     1.08228898555990     
  9.500000000000001E-003     1.10298952165679     
  9.600000000000001E-003     1.12309313528589     
  9.700000000000002E-003     1.14259156862999     
  9.800000000000001E-003     1.16147720930576     
  9.900000000000001E-003     1.17974310094188     
  1.000000000000000E-002     1.19738273994776     
  1.010000000000000E-002     1.21439023244827     
  1.020000000000000E-002     1.23076019420044     
  1.030000000000000E-002     1.24648791237522     
  1.040000000000000E-002     1.26156921382209     
  1.050000000000000E-002     1.27600037061287     
  1.060000000000000E-002     1.28977833733869     
  1.070000000000000E-002     1.30290072122960     
  1.080000000000000E-002     1.31536548609629     
  1.090000000000000E-002     1.32717119804480     
  1.100000000000000E-002     1.33831710241381     
  1.110000000000000E-002     1.34880296495199     
  1.120000000000000E-002     1.35862899710742     
  1.130000000000000E-002     1.36779602391199     
  1.140000000000000E-002     1.37630529251536     
  1.150000000000000E-002     1.38415873761534     
  1.160000000000000E-002     1.39135877652846     
  1.170000000000000E-002     1.39790818803040     
  1.180000000000000E-002     1.40381042108417     
  1.190000000000000E-002     1.40906922901088     
  1.200000000000000E-002     1.41368907072219     
  1.210000000000000E-002     1.41767474660703     
  1.220000000000000E-002     1.42103152496974     
  1.230000000000000E-002     1.42376512429980     
  1.240000000000000E-002     1.42588174654141     
  1.250000000000000E-002     1.42738792272095     
  1.260000000000000E-002     1.42829084351046     
  1.270000000000000E-002     1.42859772003217     
  1.280000000000000E-002     1.42831649732317     
  1.290000000000000E-002     1.42745530270080     
  1.300000000000000E-002     1.42602263472366     
  1.310000000000000E-002     1.42402739292541     
  1.320000000000000E-002     1.42147891364495     
  1.330000000000000E-002     1.41838665769425     
  1.340000000000000E-002     1.41476045721927     
  1.350000000000000E-002     1.41061047344046     
  1.360000000000000E-002     1.40594721018345     
  1.370000000000000E-002     1.40078122941054     
  1.380000000000000E-002     1.39512350982050     
  1.390000000000000E-002     1.38898529157988     
  1.400000000000000E-002     1.38237787463936     
  1.410000000000000E-002     1.37531297086599     
  1.420000000000000E-002     1.36780223502042     
  1.430000000000000E-002     1.35985763048565     
  1.440000000000000E-002     1.35149133156158     
  1.450000000000000E-002     1.34271564020226     
  1.460000000000000E-002     1.33354286467881     
  1.470000000000000E-002     1.32398565948416     
  1.480000000000000E-002     1.31405653746761     
  1.490000000000000E-002     1.30376811948392     
  1.500000000000000E-002     1.29313324196331     
  1.510000000000000E-002     1.28216471638135     
  1.520000000000000E-002     1.27087533671796     
  1.530000000000000E-002     1.25927804519920     
  1.540000000000000E-002     1.24738578025311     
  1.550000000000000E-002     1.23521138293135     
  1.560000000000000E-002     1.22276780932842     
  1.570000000000000E-002     1.21006786091421     
  1.580000000000000E-002     1.19712433187570     
  1.590000000000000E-002     1.18395005666370     
  1.600000000000000E-002     1.17055772569857     
  1.610000000000000E-002     1.15695995090968     
  1.620000000000000E-002     1.14316937437299     
  1.630000000000000E-002     1.12919840525161     
  1.640000000000000E-002     1.11505944261613     
  1.650000000000000E-002     1.10076465998042     
  1.660000000000000E-002     1.08632624729117     
  1.670000000000000E-002     1.07175614279693     
  1.680000000000000E-002     1.05706614815742     
  1.690000000000000E-002     1.04226799234001     
  1.700000000000000E-002     1.02737315328101     
  1.710000000000000E-002     1.01239295012412     
  1.720000000000000E-002    0.997338589180162     
  1.730000000000000E-002    0.982221011336158     
  1.740000000000000E-002    0.967050956466360     
  1.750000000000000E-002    0.951839030711195     
  1.760000000000000E-002    0.936595553281608     
  1.770000000000000E-002    0.921330707414691     
  1.780000000000000E-002    0.906054391622966     
  1.790000000000000E-002    0.890776327538880     
  1.800000000000000E-002    0.875505938567845     
  1.810000000000000E-002    0.860252426281604     
  1.820000000000000E-002    0.845024884352558     
  1.830000000000000E-002    0.829832015895039     
  1.840000000000000E-002    0.814682298669253     
  1.850000000000000E-002    0.799584053652969     
  1.860000000000000E-002    0.784545304518769     
  1.870000000000000E-002    0.769573807457804     