 -4.000000000000000E-002    0.000000000000000E+000
 -3.990000000000000E-002    0.000000000000000E+000
 -3.980000000000000E-002    0.000000000000000E+000
 -3.970000000000000E-002    0.000000000000000E+000
 -3.960000000000000E-002    0.000000000000000E+000
 -3.950000000000000E-002    0.000000000000000E+000
 -3.940000000000000E-002    0.000000000000000E+000
 -3.930000000000000E-002    0.000000000000000E+000
 -3.920000000000000E-002    0.000000000000000E+000
 -3.910000000000000E-002   -1.326099118489262E-031
 -3.900000000000000E-002   -2.391605373928835E-030
 -3.890000000000000E-002   -2.254449832226677E-029
 -3.880000000000000E-002   -1.476764143253615E-028
 -3.870000000000000E-002   -7.541893730845140E-028
 -3.860000000000000E-002   -3.195006176221046E-027
 -3.850000000000000E-002   -1.166706734803937E-026
 -3.840000000000000E-002   -3.768533186622404E-026
 -3.830000000000000E-002   -1.096658762142381E-025
 -3.820000000000000E-002   -2.914218124999534E-025
 -3.810000000000000E-002   -7.143903455665130E-025
 -3.800000000000000E-002   -1.628041498924664E-024
 -3.790000000000000E-002   -3.469357246953401E-024
 -3.780000000000000E-002   -6.943097059310484E-024
 -3.770000000000000E-002   -1.308727495495623E-023
 -3.760000000000000E-002   -2.327143020627842E-023
 -3.750000000000000E-002   -3.904010538133979E-023
 -3.740000000000000E-002   -6.167675473704087E-023
 -3.730000000000000E-002   -9.133675182674322E-023
 -3.720000000000000E-002   -1.256026486903366E-022
 -3.710000000000000E-002   -1.573766209273603E-022
 -3.700000000000000E-002   -1.721701493456200E-022
 -3.690000000000000E-002   -1.450981468333427E-022
 -3.680000000000000E-002   -3.823059925068412E-023
 -3.670000000000000E-002    2.006392642114405E-022
 -3.660000000000000E-002    6.363681900279313E-022
 -3.650000000000000E-002    1.340308212344538E-021
 -3.640000000000000E-002    2.378048564886421E-021
 -3.630000000000000E-002    3.790065582344062E-021
 -3.620000000000000E-002    5.565489660116763E-021
 -3.610000000000000E-002    7.611015191509291E-021
 -3.600000000000000E-002    9.719217224584171E-021
 -3.590000000000000E-002    1.154280637953769E-020
 -3.580000000000000E-002    1.258296128760568E-020
 -3.570000000000000E-002    1.220000623615386E-020
 -3.560000000000000E-002    9.652558003311993E-021
 -3.550000000000000E-002    4.166180968776027E-021
 -3.540000000000000E-002   -4.975350769597022E-021
 -3.530000000000000E-002   -1.833308309433786E-020
 -3.520000000000000E-002   -3.623713473716621E-020
 -3.510000000000000E-002   -5.876585692807064E-020
 -3.500000000000000E-002   -8.581329413730661E-020
 -3.490000000000000E-002   -1.172661312758133E-019
 -3.480000000000000E-002   -1.532844758980285E-019
 -3.470000000000000E-002   -1.946370069845379E-019
 -3.460000000000000E-002   -2.429846445249948E-019
 -3.450000000000000E-002   -3.009426064180154E-019
 -3.440000000000000E-002   -3.716966930891851E-019
 -3.430000000000000E-002   -4.579178337157335E-019
 -3.420000000000000E-002   -5.597413432564213E-019
 -3.410000000000000E-002   -6.716656905281202E-019
 -3.400000000000000E-002   -7.784052103716748E-019
 -3.390000000000000E-002   -8.500082276895572E-019
 -3.380000000000000E-002   -8.369019734487164E-019
 -3.370000000000000E-002   -6.659364068778400E-019
 -3.360000000000000E-002   -2.388870274819319E-019
 -3.350000000000000E-002    5.648297928221464E-019
 -3.340000000000000E-002    1.879386783046687E-018
 -3.330000000000000E-002    3.836079136622038E-018
 -3.320000000000000E-002    6.538142032471477E-018
 -3.310000000000000E-002    1.002688210236773E-017
 -3.300000000000000E-002    1.424063612460851E-017
 -3.290000000000000E-002    1.896997529376495E-017
 -3.280000000000000E-002    2.381452750433170E-017
 -3.270000000000000E-002    2.814877237138123E-017
 -3.260000000000000E-002    3.110562557854969E-017
 -3.250000000000000E-002    3.158730539954169E-017
 -3.240000000000000E-002    2.831238803754992E-017
 -3.230000000000000E-002    1.990597948226860E-017
 -3.220000000000000E-002    5.036245561980875E-018
 -3.210000000000000E-002   -1.740468859939192E-017
 -3.200000000000000E-002   -4.808392795192085E-017
 -3.190000000000000E-002   -8.699052618088181E-017
 -3.180000000000000E-002   -1.332003130179952E-016
 -3.170000000000000E-002   -1.846707279318295E-016
 -3.160000000000000E-002   -2.380973407207340E-016
 -3.150000000000000E-002   -2.888633218792415E-016
 -3.140000000000000E-002   -3.311097089224297E-016
 -3.130000000000000E-002   -3.579463607847170E-016
 -3.120000000000000E-002   -3.618109739006780E-016
 -3.110000000000000E-002   -3.349690370858373E-016
 -3.100000000000000E-002   -2.701317127257182E-016
 -3.090000000000000E-002   -1.611522522396077E-016
 -3.080000000000000E-002   -3.750890382110630E-018
 -3.070000000000000E-002    2.037913730747387E-016
 -3.060000000000000E-002    4.600267238790732E-016
 -3.050000000000000E-002    7.598717512409276E-016
 -3.040000000000000E-002    1.094309657073735E-015
 -3.030000000000000E-002    1.450273305199901E-015
 -3.020000000000000E-002    1.810695839308219E-015
 -3.010000000000000E-002    2.154688616593699E-015
 -3.000000000000000E-002    2.457794397716504E-015
 -2.990000000000000E-002    2.692256678978229E-015
 -2.980000000000000E-002    2.827261654250320E-015
 -2.970000000000000E-002    2.829144552424773E-015
 -2.960000000000000E-002    2.661609418420546E-015
 -2.950000000000000E-002    2.286078939781787E-015
 -2.940000000000000E-002    1.662382870792506E-015
 -2.930000000000000E-002    7.500553267496691E-016
 -2.920000000000000E-002   -4.894154907501378E-016
 -2.910000000000000E-002   -2.089029845818457E-015
 -2.900000000000000E-002   -4.071112868612551E-015
 -2.890000000000000E-002   -6.440334884282208E-015
 -2.880000000000000E-002   -9.174940395016698E-015
 -2.870000000000000E-002   -1.221648279762718E-014
 -2.860000000000000E-002   -1.545874714156721E-014
 -2.850000000000000E-002   -1.873694578706942E-014
 -2.840000000000000E-002   -2.181873017207123E-014
 -2.830000000000000E-002   -2.439888908094421E-014
 -2.820000000000000E-002   -2.609994370585524E-014
 -2.810000000000000E-002   -2.648081777728453E-014
 -2.800000000000000E-002   -2.505565744854045E-014
 -2.790000000000000E-002   -2.132430492625525E-014
 -2.780000000000000E-002   -1.481501419607659E-014
 -2.770000000000000E-002   -5.138869536004464E-015
 -2.760000000000000E-002    7.946317009894494E-015
 -2.750000000000000E-002    2.446642174568455E-014
 -2.740000000000000E-002    4.416151470722001E-014
 -2.730000000000000E-002    6.642374156478220E-014
 -2.720000000000000E-002    9.025104151975208E-014
 -2.710000000000000E-002    1.142259836754264E-013
 -2.700000000000000E-002    1.365284048834680E-013
 -2.690000000000000E-002    1.549894206283646E-013
 -2.680000000000000E-002    1.671916933220390E-013
 -2.670000000000000E-002    1.706171485737368E-013
 -2.660000000000000E-002    1.628387172556712E-013
 -2.650000000000000E-002    1.417474395789490E-013
 -2.640000000000000E-002    1.058003654277217E-013
 -2.630000000000000E-002    5.427016304746951E-014
 -2.620000000000000E-002   -1.252739637086676E-014
 -2.610000000000000E-002   -9.305367284200248E-014
 -2.600000000000000E-002   -1.844407866700683E-013
 -2.590000000000000E-002   -2.824815221316553E-013
 -2.580000000000000E-002   -3.817326477182993E-013
 -2.570000000000000E-002   -4.757396057823475E-013
 -2.560000000000000E-002   -5.573802670037767E-013
 -2.550000000000000E-002   -6.193123489899712E-013
 -2.540000000000000E-002   -6.544970197103433E-013
 -2.530000000000000E-002   -6.567593116221301E-013
 -2.520000000000000E-002   -6.213380180051373E-013
 -2.510000000000000E-002   -5.453726702756612E-013
 -2.500000000000000E-002   -4.282765716670303E-013
 -2.490000000000000E-002   -2.719514873874949E-013
 -2.480000000000000E-002   -8.081291619479508E-014
 -2.470000000000000E-002    1.383877746278348E-013
 -2.460000000000000E-002    3.769365142968769E-013
 -2.450000000000000E-002    6.246940782654398E-013
 -2.440000000000000E-002    8.707457439096229E-013
 -2.430000000000000E-002    1.104094516846625E-012
 -2.420000000000000E-002    1.314318860956723E-012
 -2.410000000000000E-002    1.492116887493758E-012
 -2.400000000000000E-002    1.629669331883348E-012
 -2.390000000000000E-002    1.720773900095871E-012
 -2.380000000000000E-002    1.760736271940183E-012
 -2.370000000000000E-002    1.746038155378328E-012
 -2.360000000000000E-002    1.673842300718378E-012
 -2.350000000000000E-002    1.541429815620708E-012
 -2.340000000000000E-002    1.345691882955864E-012
 -2.330000000000000E-002    1.082809536692840E-012
 -2.320000000000000E-002    7.482486910813966E-013
 -2.310000000000000E-002    3.371727071677956E-013
 -2.300000000000000E-002   -1.546736997116894E-013
 -2.290000000000000E-002   -7.296161882681284E-013
 -2.280000000000000E-002   -1.386323988307290E-012
 -2.270000000000000E-002   -2.117864217130256E-012
 -2.260000000000000E-002   -2.909766785613501E-012
 -2.250000000000000E-002   -3.738381427986852E-012
 -2.240000000000000E-002   -4.569830635112997E-012
 -2.230000000000000E-002   -5.359851234078562E-012
 -2.220000000000000E-002   -6.054758883498858E-012
 -2.210000000000000E-002   -6.593681648171970E-012
 -2.200000000000000E-002   -6.912079426964536E-012
 -2.190000000000000E-002   -6.946416913551429E-012
 -2.180000000000000E-002   -6.639696724455391E-012
 -2.170000000000000E-002   -5.947420896448934E-012
 -2.160000000000000E-002   -4.843419009464149E-012
 -2.150000000000000E-002   -3.324927344714779E-012
 -2.140000000000000E-002   -1.416297005433648E-012
 -2.130000000000000E-002    8.292272457587670E-013
 -2.120000000000000E-002    3.330067178798657E-012
 -2.110000000000000E-002    5.979413485648428E-012
 -2.100000000000000E-002    8.650824118185934E-012
 -2.090000000000000E-002    1.120598789867108E-011
 -2.080000000000000E-002    1.350406455417675E-011
 -2.070000000000000E-002    1.541178060476879E-011
 -2.060000000000000E-002    1.681331598149272E-011
 -2.050000000000000E-002    1.761894930184819E-011
 -2.040000000000000E-002    1.777152379042650E-011
 -2.030000000000000E-002    1.724994266380799E-011
 -2.020000000000000E-002    1.606922202695920E-011
 -2.010000000000000E-002    1.427700379214822E-011
 -2.000000000000000E-002    1.194680969174079E-011
 -1.990000000000000E-002    9.168797993519413E-012
 -1.980000000000000E-002    6.039108930008316E-012
 -1.970000000000000E-002    2.649117319381815E-012
 -1.960000000000000E-002   -9.239157456161483E-013
 -1.950000000000000E-002   -4.623421000971525E-012
 -1.940000000000000E-002   -8.416171543833060E-012
 -1.930000000000000E-002   -1.229028817013766E-011
 -1.920000000000000E-002   -1.624842100468925E-011
 -1.910000000000000E-002   -2.029656580268708E-011
 -1.900000000000000E-002   -2.442960682769572E-011
 -1.890000000000000E-002   -2.861526820182683E-011
 -1.880000000000000E-002   -3.277857216386283E-011
 -1.870000000000000E-002   -3.678911269696378E-011
 -1.860000000000000E-002   -4.045341508544029E-011
 -1.850000000000000E-002   -4.351433209578933E-011
 -1.840000000000000E-002   -4.565882875306268E-011
 -1.830000000000000E-002   -4.653467592273695E-011
 -1.820000000000000E-002   -4.577563103214345E-011
 -1.810000000000000E-002   -4.303360255928064E-011
 -1.800000000000000E-002   -3.801538673322342E-011
 -1.790000000000000E-002   -3.052073341534886E-011
 -1.780000000000000E-002   -2.047797381863496E-011
 -1.770000000000000E-002   -7.973280588369000E-012
 -1.760000000000000E-002    6.730082233920981E-012
 -1.750000000000000E-002    2.318560652433680E-011
 -1.740000000000000E-002    4.077241456518932E-011
 -1.730000000000000E-002    5.871986194828554E-011
 -1.720000000000000E-002    7.614709854091934E-011
 -1.710000000000000E-002    9.211519445650638E-011
 -1.700000000000000E-002    1.056881452650682E-010
 -1.690000000000000E-002    1.159979818809360E-010
 -1.680000000000000E-002    1.223084136109703E-010
 -1.670000000000000E-002    1.240714639906386E-010
 -1.660000000000000E-002    1.209716365731826E-010
 -1.650000000000000E-002    1.129534232996353E-010
 -1.640000000000000E-002    1.002290250063622E-010
 -1.630000000000000E-002    8.326523081417812E-011
 -1.620000000000000E-002    6.275002079578801E-011
 -1.610000000000000E-002    3.954169263168417E-011
 -1.600000000000000E-002    1.460485914521135E-011
 -1.590000000000000E-002   -1.106086391508231E-011
 -1.580000000000000E-002   -3.649278083653541E-011
 -1.570000000000000E-002   -6.083090885066752E-011
 -1.560000000000000E-002   -8.337117761338200E-011
 -1.550000000000000E-002   -1.036009668503185E-010
 -1.540000000000000E-002   -1.212132844245697E-010
 -1.530000000000000E-002   -1.360982968160515E-010
 -1.520000000000000E-002   -1.483131701523486E-010
 -1.510000000000000E-002   -1.580333972801593E-010
 -1.500000000000000E-002   -1.654909474821049E-010
 -1.490000000000000E-002   -1.709062932196508E-010
 -1.480000000000000E-002   -1.744219254072679E-010
 -1.470000000000000E-002   -1.760456151334982E-010
 -1.460000000000000E-002   -1.756106580477936E-010
 -1.450000000000000E-002   -1.727590665954233E-010
 -1.440000000000000E-002   -1.669513834152307E-010
 -1.430000000000000E-002   -1.575043287303796E-010
 -1.420000000000000E-002   -1.436542345410884E-010
 -1.410000000000000E-002   -1.246419279198567E-010
 -1.400000000000000E-002   -9.981131492759377E-011
 -1.390000000000000E-002   -6.871269954727523E-011
 -1.380000000000000E-002   -3.120011165751497E-011
 -1.370000000000000E-002    1.248774425424417E-011
 -1.360000000000000E-002    6.167283887949486E-011
 -1.350000000000000E-002    1.152171456960165E-010
 -1.340000000000000E-002    1.715409354308996E-010
 -1.330000000000000E-002    2.286813182095248E-010
 -1.320000000000000E-002    2.843885427493633E-010
 -1.310000000000000E-002    3.362535189875879E-010
 -1.300000000000000E-002    3.818567924039069E-010
 -1.290000000000000E-002    4.189260713648928E-010
 -1.280000000000000E-002    4.454883421646351E-010
 -1.270000000000000E-002    4.600020863485931E-010
 -1.260000000000000E-002    4.614565252104090E-010
 -1.250000000000000E-002    4.494276118215076E-010
 -1.240000000000000E-002    4.240845014150996E-010
 -1.230000000000000E-002    3.861451779013167E-010
 -1.220000000000000E-002    3.367852314406446E-010
 -1.210000000000000E-002    2.775089994833752E-010
 -1.200000000000000E-002    2.099975339615768E-010
 -1.190000000000000E-002    1.359503671226965E-010
 -1.180000000000000E-002    5.693988350714621E-011
 -1.170000000000000E-002   -2.570280570132424E-011
 -1.160000000000000E-002   -1.109547233102754E-010
 -1.150000000000000E-002   -1.981094657492727E-010
 -1.140000000000000E-002   -2.867222877302432E-010
 -1.130000000000000E-002   -3.764946253237871E-010
 -1.120000000000000E-002   -4.671086827511962E-010
 -1.110000000000000E-002   -5.580301677727019E-010
 -1.100000000000000E-002   -6.483032423905820E-010
 -1.090000000000000E-002   -7.363657848900508E-010
 -1.080000000000000E-002   -8.199135653998061E-010
 -1.070000000000000E-002   -8.958399543155082E-010
 -1.060000000000000E-002   -9.602718319044309E-010
 -1.050000000000000E-002   -1.008713902154137E-009
 -1.040000000000000E-002   -1.036301905725163E-009
 -1.030000000000000E-002   -1.038153930650341E-009
 -1.020000000000000E-002   -1.009795296584045E-009
 -1.010000000000000E-002   -9.476223775726665E-010
 -1.000000000000000E-002   -8.493612193600809E-010
 -9.899999999999999E-003   -7.144738335360830E-010
 -9.800000000000000E-003   -5.444642858561997E-010
 -9.699999999999999E-003   -3.430412298644451E-010
 -9.599999999999999E-003   -1.161069867170020E-010
 -9.500000000000000E-003    1.284446339048823E-010
 -9.399999999999999E-003    3.811198333422037E-010
 -9.299999999999999E-003    6.313839897178586E-010
 -9.200000000000000E-003    8.683486889379598E-010
 -9.099999999999999E-003    1.081528874768029E-009
 -8.999999999999999E-003    1.261601580574434E-009
 -8.900000000000000E-003    1.401091286601610E-009
 -8.799999999999999E-003    1.494909300100387E-009
 -8.699999999999999E-003    1.540683607509071E-009
 -8.600000000000000E-003    1.538833815844701E-009
 -8.499999999999999E-003    1.492367276831114E-009
 -8.399999999999999E-003    1.406403164020025E-009
 -8.300000000000000E-003    1.287456875775656E-009
 -8.199999999999999E-003    1.142548936206559E-009
 -8.100000000000000E-003    9.782244184997161E-010
 -8.000000000000000E-003    7.995866141066759E-010
 -7.899999999999999E-003    6.094582002818406E-010
 -7.800000000000000E-003    4.077773283595245E-010
 -7.699999999999999E-003    1.913267259523086E-010
 -7.599999999999999E-003   -4.613224787157987E-011
 -7.499999999999999E-003   -3.132801991601917E-010
 -7.399999999999999E-003   -6.202105372282283E-010
 -7.299999999999999E-003   -9.769866984464985E-010
 -7.199999999999999E-003   -1.391860717594669E-009
 -7.100000000000000E-003   -1.869259105648909E-009
 -6.999999999999999E-003   -2.407662833397531E-009
 -6.899999999999999E-003   -2.997525666104167E-009
 -6.800000000000000E-003   -3.619367910618595E-009
 -6.699999999999999E-003   -4.242167728867252E-009
 -6.599999999999999E-003   -4.822149459208566E-009
 -6.499999999999999E-003   -5.302021946643394E-009
 -6.399999999999999E-003   -5.610686003129657E-009
 -6.299999999999999E-003   -5.663373237712014E-009
 -6.199999999999999E-003   -5.362150390790450E-009
 -6.100000000000000E-003   -4.596661300575343E-009
 -5.999999999999999E-003   -3.244995364645772E-009
 -5.899999999999999E-003   -1.174510210409783E-009
 -5.800000000000000E-003    1.757514250893755E-009
 -5.699999999999999E-003    5.703510246332770E-009
 -5.599999999999999E-003    1.082564074698785E-008
 -5.499999999999999E-003    1.729622331683261E-008
 -5.399999999999999E-003    2.529855743299017E-008
 -5.299999999999999E-003    3.502808650002842E-008
 -5.199999999999999E-003    4.669375941978740E-008
 -5.099999999999999E-003    6.051947511823410E-008
 -4.999999999999999E-003    7.674538166975677E-008
 -4.899999999999999E-003    9.562889922062165E-008
 -4.799999999999999E-003    1.174452705867063E-007
 -4.699999999999999E-003    1.424874932807074E-007
 -4.599999999999999E-003    1.710655879534766E-007
 -4.499999999999999E-003    2.035051262239722E-007
 -4.399999999999999E-003    2.401451407917095E-007
 -4.299999999999999E-003    2.813353936485393E-007
 -4.199999999999999E-003    3.274334013328131E-007
 -4.099999999999999E-003    3.788012108507854E-007
 -3.999999999999999E-003    4.358024084995417E-007
 -3.899999999999999E-003    4.987994376004571E-007
 -3.799999999999999E-003    5.681515931806110E-007
 -3.699999999999999E-003    6.442139739090783E-007
 -3.599999999999999E-003    7.273373318732972E-007
 -3.499999999999999E-003    8.178691968713206E-007
 -3.399999999999999E-003    9.161561183627213E-007
 -3.299999999999999E-003    1.022546753342749E-006
 -3.199999999999999E-003    1.137396117604152E-006
 -3.099999999999999E-003    1.261070096635875E-006
 -2.999999999999999E-003    1.393950881159795E-006
 -2.899999999999999E-003    1.536441534876761E-006
 -2.799999999999999E-003    1.688971232025649E-006
 -2.699999999999999E-003    1.851999103429966E-006
 -2.599999999999999E-003    2.026017807977968E-006
 -2.499999999999999E-003    2.211555626418286E-006
 -2.399999999999999E-003    2.409177809339544E-006
 -2.299999999999999E-003    2.619486941248140E-006
 -2.199999999999999E-003    2.843122342707913E-006
 -2.099999999999999E-003    3.080758506857979E-006
 -1.999999999999999E-003    3.333104039570772E-006
 -1.899999999999999E-003    3.600899202830587E-006
 -1.799999999999999E-003    3.884915436265129E-006
 -1.699999999999999E-003    4.185954366698419E-006
 -1.599999999999999E-003    4.504847719019949E-006
 -1.499999999999999E-003    4.842460393063751E-006
 -1.399999999999999E-003    5.199692172014607E-006
 -1.299999999999999E-003    5.577483005243447E-006
 -1.199999999999999E-003    5.976819372276176E-006
 -1.099999999999999E-003    6.398741238187709E-006
 -9.999999999999989E-004    6.844350504458716E-006
 -8.999999999999990E-004    7.314820514114578E-006
 -7.999999999999990E-004    7.811404426334981E-006
 -6.999999999999989E-004    8.335446083317692E-006
 -5.999999999999990E-004    8.888389402086289E-006
 -4.999999999999989E-004    9.471783487238223E-006
 -3.999999999999989E-004    1.008729408431908E-005
 -2.999999999999989E-004    1.073670734348166E-005
 -1.999999999999989E-004    1.142193443390817E-005
 -9.999999999999892E-005    1.214501605420145E-005
  1.084202172485504E-018    1.290812360885920E-005
  1.000000000000011E-004    1.371356058780382E-005
  2.000000000000011E-004    1.456376299869876E-005
  3.000000000000011E-004    1.546129911532329E-005
  4.000000000000011E-004    1.640886847463172E-005
  5.000000000000011E-004    1.740930558009360E-005
  6.000000000000011E-004    1.846557436127315E-005
  7.000000000000011E-004    1.958077263683497E-005
  8.000000000000011E-004    2.075813426553607E-005
  9.000000000000012E-004    2.200103277137388E-005
  1.000000000000001E-003    2.331298324647275E-005
  1.100000000000001E-003    2.469765094917886E-005
  1.200000000000001E-003    2.615885633280549E-005
  1.300000000000001E-003    2.770058399759837E-005
  1.400000000000001E-003    2.932699213338071E-005
  1.500000000000001E-003    3.104242023105022E-005
  1.600000000000001E-003    3.285140160976372E-005
  1.700000000000001E-003    3.475866455467574E-005
  1.800000000000001E-003    3.676916212612589E-005
  1.900000000000001E-003    3.888806161923852E-005
  2.000000000000001E-003    4.112076328104320E-005
  2.100000000000001E-003    4.347291758158985E-005
  2.200000000000001E-003    4.595041755913769E-005
  2.300000000000001E-003    4.855942552675072E-005
  2.400000000000001E-003    5.130637184189247E-005
  2.500000000000001E-003    5.419797007162093E-005
  2.600000000000001E-003    5.724121953776163E-005
  2.700000000000001E-003    6.044341664104603E-005
  2.800000000000001E-003    6.381216728802655E-005
  2.900000000000001E-003    6.735539446705968E-005
  3.000000000000001E-003    7.108135468995778E-005
  3.100000000000001E-003    7.499864189870730E-005
  3.200000000000001E-003    7.911620477556539E-005
  3.300000000000001E-003    8.344336690797920E-005
  3.400000000000001E-003    8.798982456317744E-005
  3.500000000000001E-003    9.276569362517760E-005
  3.600000000000001E-003    9.778150242129924E-005
  3.700000000000001E-003    1.030482164698432E-004
  3.800000000000001E-003    1.085772729645206E-004
  3.900000000000001E-003    1.143805962949487E-004
  4.000000000000001E-003    1.204706000806048E-004
  4.100000000000001E-003    1.268602331718356E-004
  4.200000000000001E-003    1.335629944941497E-004
  4.300000000000001E-003    1.405929279069737E-004
  4.400000000000001E-003    1.479646824532334E-004
  4.500000000000001E-003    1.556934756361711E-004
  4.600000000000002E-003    1.637951569599916E-004
  4.700000000000001E-003    1.722861858969363E-004
  4.800000000000001E-003    1.811836275713188E-004
  4.900000000000002E-003    1.905052140274385E-004
  5.000000000000001E-003    2.002692865324658E-004
  5.100000000000001E-003    2.104948617335806E-004
  5.200000000000001E-003    2.212015892165617E-004
  5.300000000000002E-003    2.324098095925170E-004
  5.400000000000001E-003    2.441404966975731E-004
  5.500000000000001E-003    2.564153408456947E-004
  5.600000000000002E-003    2.692567229751243E-004
  5.700000000000001E-003    2.826877422246200E-004
  5.800000000000001E-003    2.967322564830774E-004
  5.900000000000002E-003    3.114149120820561E-004
  6.000000000000001E-003    3.267611103943663E-004
  6.100000000000001E-003    3.427971315777526E-004
  6.200000000000002E-003    3.595501285125592E-004
  6.300000000000002E-003    3.770481878461505E-004
  6.400000000000001E-003    3.953202862834600E-004
  6.500000000000001E-003    4.143964193376727E-004
  6.600000000000002E-003    4.343075862325586E-004
  6.700000000000001E-003    4.550858311493483E-004
  6.800000000000001E-003    4.767642326044993E-004
  6.900000000000002E-003    4.993769416068773E-004
  7.000000000000001E-003    5.229592073022483E-004
  7.100000000000001E-003    5.475473860610772E-004
  7.200000000000002E-003    5.731788924753170E-004
  7.300000000000002E-003    5.998921992896809E-004
  7.400000000000001E-003    6.277269163676501E-004
  7.500000000000001E-003    6.567237450792346E-004
  7.600000000000002E-003    6.869244719501298E-004
  7.700000000000001E-003    7.183719231188073E-004
  7.800000000000001E-003    7.511101106727602E-004
  7.900000000000001E-003    7.851841073803231E-004
  8.000000000000002E-003    8.206401477866322E-004
  8.100000000000001E-003    8.575255864843620E-004
  8.200000000000001E-003    8.958890414443009E-004
  8.300000000000002E-003    9.357803922023921E-004
  8.400000000000001E-003    9.772507749760339E-004
  8.500000000000002E-003    1.020352663762362E-003
  8.600000000000002E-003    1.065139943909381E-003
  8.700000000000001E-003    1.111667881318910E-003
  8.800000000000002E-003    1.159993240386121E-003
  8.900000000000002E-003    1.210174384326128E-003
  9.000000000000001E-003    1.262271080895695E-003
  9.100000000000002E-003    1.316344698469303E-003
  9.200000000000002E-003    1.372458056524217E-003
  9.300000000000001E-003    1.430675578566147E-003
  9.400000000000002E-003    1.491063193702927E-003
  9.500000000000001E-003    1.553688254684077E-003
  9.600000000000001E-003    1.618619614642328E-003
  9.700000000000002E-003    1.685927618674089E-003
  9.800000000000001E-003    1.755683884294440E-003
  9.900000000000001E-003    1.827961613568273E-003
  1.000000000000000E-002    1.902835127903279E-003
  1.010000000000000E-002    1.980380219913444E-003
  1.020000000000000E-002    2.060674024259546E-003
  1.030000000000000E-002    2.143795009097703E-003
  1.040000000000000E-002    2.229822869691005E-003
  1.050000000000000E-002    2.318838896359758E-003
  1.060000000000000E-002    2.410925387655986E-003
  1.070000000000000E-002    2.506166486748117E-003
  1.080000000000000E-002    2.604647544554443E-003
  1.090000000000000E-002    2.706455329387628E-003
  1.100000000000000E-002    2.811677893124729E-003
  1.110000000000000E-002    2.920404904231944E-003
  1.120000000000000E-002    3.032727146590138E-003
  1.130000000000000E-002    3.148736750712579E-003
  1.140000000000000E-002    3.268527316306854E-003
  1.150000000000000E-002    3.392193177541754E-003
  1.160000000000000E-002    3.519829969633452E-003
  1.170000000000000E-002    3.651534401119990E-003
  1.180000000000000E-002    3.787403674254505E-003
  1.190000000000000E-002    3.927536063878176E-003
  1.200000000000000E-002    4.072030303444651E-003
  1.210000000000000E-002    4.220985772086133E-003
  1.220000000000000E-002    4.374502442600570E-003
  1.230000000000000E-002    4.532680380512288E-003
  1.240000000000000E-002    4.695619988841233E-003
  1.250000000000000E-002    4.863422044441708E-003
  1.260000000000000E-002    5.036187980470166E-003
  1.270000000000000E-002    5.214018839437776E-003
  1.280000000000000E-002    5.397015600486609E-003
  1.290000000000000E-002    5.585280364990217E-003
  1.300000000000000E-002    5.778914284062369E-003
  1.310000000000000E-002    5.978018939572761E-003
  1.320000000000000E-002    6.182695855777457E-003
  1.330000000000000E-002    6.393046370131562E-003
  1.340000000000000E-002    6.609171873567346E-003
  1.350000000000000E-002    6.831172683634310E-003
  1.360000000000000E-002    7.059149747650510E-003
  1.370000000000000E-002    7.293202207974788E-003
  1.380000000000000E-002    7.533429487161564E-003
  1.390000000000000E-002    7.779929681941483E-003
  1.400000000000000E-002    8.032799589869808E-003
  1.410000000000000E-002    8.292135128554857E-003
  1.420000000000000E-002    8.558031015991513E-003
  1.430000000000000E-002    8.830579726630053E-003
  1.440000000000000E-002    9.109873639717846E-003
  1.450000000000000E-002    9.396001189498855E-003
  1.460000000000000E-002    9.689050452214212E-003
  1.470000000000000E-002    9.989107532905189E-003
  1.480000000000000E-002    1.029625589069427E-002
  1.490000000000000E-002    1.061057637406099E-002
  1.500000000000000E-002    1.093214864634976E-002
  1.510000000000000E-002    1.126104917386818E-002
  1.520000000000000E-002    1.159735218640542E-002
  1.530000000000000E-002    1.194112865436369E-002
  1.540000000000000E-002    1.229244860159618E-002
  1.550000000000000E-002    1.265137587769446E-002
  1.560000000000000E-002    1.301797365287509E-002
  1.570000000000000E-002    1.339230053459711E-002
  1.580000000000000E-002    1.377441220520861E-002
  1.590000000000000E-002    1.416436081687501E-002
  1.600000000000000E-002    1.456219380545452E-002
  1.610000000000000E-002    1.496795400499558E-002
  1.620000000000000E-002    1.538168152625115E-002
  1.630000000000000E-002    1.580341033929619E-002
  1.640000000000000E-002    1.623317104356268E-002
  1.650000000000000E-002    1.667098741088906E-002
  1.660000000000000E-002    1.711687976377219E-002
  1.670000000000000E-002    1.757086148664587E-002
  1.680000000000000E-002    1.803294253320822E-002
  1.690000000000000E-002    1.850312392004096E-002
  1.700000000000000E-002    1.898140505649898E-002
  1.710000000000000E-002    1.946777560356749E-002
  1.720000000000000E-002    1.996222200953813E-002
  1.730000000000000E-002    2.046471991780633E-002
  1.740000000000000E-002    2.097524209475610E-002
  1.750000000000000E-002    2.149375306519704E-002
  1.760000000000000E-002    2.202021005449718E-002
  1.770000000000000E-002    2.255456215924996E-002
  1.780000000000000E-002    2.309675454192806E-002
  1.790000000000000E-002    2.364671940442473E-002
  1.800000000000000E-002    2.420438506397725E-002
  1.810000000000000E-002    2.476966913981492E-002
  1.820000000000000E-002    2.534248270071869E-002
  1.830000000000000E-002    2.592272857214953E-002
  1.840000000000000E-002    2.651030058923473E-002
  1.850000000000000E-002    2.710508222697968E-002
  1.860000000000000E-002    2.770695011475791E-002
  1.870000000000000E-002    2.831577146574770E-002