 -4.000000000000000E-002    0.000000000000000E+000
 -3.990000000000000E-002    0.000000000000000E+000
 -3.980000000000000E-002    0.000000000000000E+000
 -3.970000000000000E-002    0.000000000000000E+000
 -3.960000000000000E-002    0.000000000000000E+000
 -3.950000000000000E-002    0.000000000000000E+000
 -3.940000000000000E-002    0.000000000000000E+000
 -3.930000000000000E-002    0.000000000000000E+000
 -3.920000000000000E-002    0.000000000000000E+000
 -3.910000000000000E-002    0.000000000000000E+000
 -3.900000000000000E-002    2.715371365577685E-036
 -3.890000000000000E-002    5.790255123782364E-035
 -3.880000000000000E-002    6.501065789732622E-034
 -3.870000000000000E-002    5.106740568193228E-033
 -3.860000000000000E-002    3.145769792184589E-032
 -3.850000000000000E-002    1.614751236605603E-031
 -3.840000000000000E-002    7.167471745390615E-031
 -3.830000000000000E-002    2.819421569312728E-030
 -3.820000000000000E-002    9.998942768292705E-030
 -3.810000000000000E-002    3.237427919636610E-029
 -3.800000000000000E-002    9.660524628527286E-029
 -3.790000000000000E-002    2.676111324774596E-028
 -3.780000000000000E-002    6.920605407683225E-028
 -3.770000000000000E-002    1.677971499128401E-027
 -3.760000000000000E-002    3.826487310109015E-027
 -3.750000000000000E-002    8.224413792915434E-027
 -3.740000000000000E-002    1.667745355129436E-026
 -3.730000000000000E-002    3.189597944463133E-026
 -3.720000000000000E-002    5.741465734566923E-026
 -3.710000000000000E-002    9.681280090587514E-026
 -3.700000000000000E-002    1.514981474382102E-025
 -3.690000000000000E-002    2.159557327192499E-025
 -3.680000000000000E-002    2.690500628519492E-025
 -3.670000000000000E-002    2.599153858910266E-025
 -3.660000000000000E-002    8.752342310409553E-026
 -3.650000000000000E-002   -4.253309160638066E-025
 -3.640000000000000E-002   -1.559576864128091E-024
 -3.630000000000000E-002   -3.719418881378304E-024
 -3.620000000000000E-002   -7.426531196740178E-024
 -3.610000000000000E-002   -1.326184993538729E-023
 -3.600000000000000E-002   -2.171800475772455E-023
 -3.590000000000000E-002   -3.291856989206840E-023
 -3.580000000000000E-002   -4.616154724947062E-023
 -3.570000000000000E-002   -5.926084627286214E-023
 -3.560000000000000E-002   -6.769890303121695E-023
 -3.550000000000000E-002   -6.367345938343767E-023
 -3.540000000000000E-002   -3.522643497247668E-023
 -3.530000000000000E-002    3.421991600125341E-023
 -3.520000000000000E-002    1.654378813952122E-022
 -3.510000000000000E-002    3.814509143125891E-022
 -3.500000000000000E-002    7.033501070678170E-022
 -3.490000000000000E-002    1.143174173288489E-021
 -3.480000000000000E-002    1.693375984838656E-021
 -3.470000000000000E-002    2.312889690205583E-021
 -3.460000000000000E-002    2.910635618883781E-021
 -3.450000000000000E-002    3.328477771324346E-021
 -3.440000000000000E-002    3.327130867781357E-021
 -3.430000000000000E-002    2.580157943699362E-021
 -3.420000000000000E-002    6.827313451187111E-022
 -3.410000000000000E-002   -2.817126398491570E-021
 -3.400000000000000E-002   -8.357073215863496E-021
 -3.390000000000000E-002   -1.626253633326120E-020
 -3.380000000000000E-002   -2.660979346917579E-020
 -3.370000000000000E-002   -3.905364018777863E-020
 -3.360000000000000E-002   -5.263207532324213E-020
 -3.350000000000000E-002   -6.557148657537172E-020
 -3.340000000000000E-002   -7.512835064921742E-020
 -3.330000000000000E-002   -7.751566196614211E-020
 -3.320000000000000E-002   -6.797195525145004E-020
 -3.310000000000000E-002   -4.103500200245252E-020
 -3.300000000000000E-002    8.922311939447369E-021
 -3.290000000000000E-002    8.685270880266963E-020
 -3.280000000000000E-002    1.958812551381798E-019
 -3.270000000000000E-002    3.358735529073798E-019
 -3.260000000000000E-002    5.018210056453621E-019
 -3.250000000000000E-002    6.822099743170047E-019
 -3.240000000000000E-002    8.576163380111499E-019
 -3.230000000000000E-002    9.998361159082480E-019
 -3.220000000000000E-002    1.071912321690913E-018
 -3.210000000000000E-002    1.029435736784705E-018
 -3.200000000000000E-002    8.234645761331765E-019
 -3.190000000000000E-002    4.053162026376028E-019
 -3.180000000000000E-002   -2.666801716113871E-019
 -3.170000000000000E-002   -1.218614933222527E-018
 -3.160000000000000E-002   -2.451060207557234E-018
 -3.150000000000000E-002   -3.928554854701430E-018
 -3.140000000000000E-002   -5.569666404377741E-018
 -3.130000000000000E-002   -7.239121391314367E-018
 -3.120000000000000E-002   -8.743749280796310E-018
 -3.110000000000000E-002   -9.834107748440368E-018
 -3.100000000000000E-002   -1.021358365677679E-017
 -3.090000000000000E-002   -9.556442014606415E-018
 -3.080000000000000E-002   -7.535694981139835E-018
 -3.070000000000000E-002   -3.860770096397915E-018
 -3.060000000000000E-002    1.676209620557985E-018
 -3.050000000000000E-002    9.148104160031008E-018
 -3.040000000000000E-002    1.843846561580196E-017
 -3.030000000000000E-002    2.919080400561297E-017
 -3.020000000000000E-002    4.076823177988939E-017
 -3.010000000000000E-002    5.223113608065858E-017
 -3.000000000000000E-002    6.234080386061841E-017
 -2.990000000000000E-002    6.959632058251101E-017
 -2.980000000000000E-002    7.231054600551566E-017
 -2.970000000000000E-002    6.872830740343615E-017
 -2.960000000000000E-002    5.718634359972730E-017
 -2.950000000000000E-002    3.630980138844575E-017
 -2.940000000000000E-002    5.234915164604982E-018
 -2.930000000000000E-002   -3.615816504735452E-017
 -2.920000000000000E-002   -8.702364772736893E-017
 -2.910000000000000E-002   -1.453650909993293E-016
 -2.900000000000000E-002   -2.079154233493660E-016
 -2.890000000000000E-002   -2.701106760270554E-016
 -2.880000000000000E-002   -3.261834199950905E-016
 -2.870000000000000E-002   -3.693958969955942E-016
 -2.860000000000000E-002   -3.924233289349372E-016
 -2.850000000000000E-002   -3.878849324112924E-016
 -2.840000000000000E-002   -3.490045993425960E-016
 -2.830000000000000E-002   -2.703662714465975E-016
 -2.820000000000000E-002   -1.487118761993231E-016
 -2.810000000000000E-002    1.628554691017554E-017
 -2.800000000000000E-002    2.213518087659061E-016
 -2.790000000000000E-002    4.591285418755752E-016
 -2.780000000000000E-002    7.179581105762089E-016
 -2.770000000000000E-002    9.820060352296117E-016
 -2.760000000000000E-002    1.231769880428825E-015
 -2.750000000000000E-002    1.444993407829647E-015
 -2.740000000000000E-002    1.597969414650643E-015
 -2.730000000000000E-002    1.667173363881372E-015
 -2.720000000000000E-002    1.631130516738612E-015
 -2.710000000000000E-002    1.472383873422883E-015
 -2.700000000000000E-002    1.179403578672110E-015
 -2.690000000000000E-002    7.482673818674681E-016
 -2.680000000000000E-002    1.839452984889288E-016
 -2.670000000000000E-002   -4.989538696134972E-016
 -2.660000000000000E-002   -1.276075978830071E-015
 -2.650000000000000E-002   -2.113899191244240E-015
 -2.640000000000000E-002   -2.970977322147626E-015
 -2.630000000000000E-002   -3.799761344279296E-015
 -2.620000000000000E-002   -4.548852262338835E-015
 -2.610000000000000E-002   -5.165497002308422E-015
 -2.600000000000000E-002   -5.598118952617358E-015
 -2.590000000000000E-002   -5.798685673235991E-015
 -2.580000000000000E-002   -5.724759987964555E-015
 -2.570000000000000E-002   -5.341150018615206E-015
 -2.560000000000000E-002   -4.621162135257461E-015
 -2.550000000000000E-002   -3.547562370105490E-015
 -2.540000000000000E-002   -2.113433412188728E-015
 -2.530000000000000E-002   -3.231762110546622E-016
 -2.520000000000000E-002    1.806082054503589E-015
 -2.510000000000000E-002    4.242456732987606E-015
 -2.500000000000000E-002    6.936547385828645E-015
 -2.490000000000000E-002    9.818015073303915E-015
 -2.480000000000000E-002    1.279178819049195E-014
 -2.470000000000000E-002    1.573442763477202E-014
 -2.460000000000000E-002    1.849141605595813E-014
 -2.450000000000000E-002    2.087632134847281E-014
 -2.440000000000000E-002    2.267286683468615E-014
 -2.430000000000000E-002    2.364089177980248E-014
 -2.420000000000000E-002    2.352698423379687E-014
 -2.410000000000000E-002    2.208017670902926E-014
 -2.400000000000000E-002    1.907257393121929E-014
 -2.390000000000000E-002    1.432409883350418E-014
 -2.380000000000000E-002    7.729843960466192E-015
 -2.370000000000000E-002   -7.121905501144628E-016
 -2.360000000000000E-002   -1.087577762796198E-014
 -2.350000000000000E-002   -2.248670119755639E-014
 -2.340000000000000E-002   -3.511177601905050E-014
 -2.330000000000000E-002   -4.815952515010071E-014
 -2.320000000000000E-002   -6.089469116482254E-014
 -2.310000000000000E-002   -7.246766393097508E-014
 -2.300000000000000E-002   -8.195849477155087E-014
 -2.290000000000000E-002   -8.843360131155862E-014
 -2.280000000000000E-002   -9.101166457110577E-014
 -2.270000000000000E-002   -8.893382899347716E-014
 -2.260000000000000E-002   -8.163222791552880E-014
 -2.250000000000000E-002   -6.879044247855660E-014
 -2.240000000000000E-002   -5.038967404917894E-014
 -2.230000000000000E-002   -2.673539407895660E-014
 -2.220000000000000E-002    1.539112799729923E-015
 -2.210000000000000E-002    3.349358938335209E-014
 -2.200000000000000E-002    6.792471129888731E-014
 -2.190000000000000E-002    1.034290267325821E-013
 -2.180000000000000E-002    1.384785477165890E-013
 -2.170000000000000E-002    1.715008072858863E-013
 -2.160000000000000E-002    2.009545739409786E-013
 -2.150000000000000E-002    2.253926343669384E-013
 -2.140000000000000E-002    2.435050830101144E-013
 -2.130000000000000E-002    2.541392249250631E-013
 -2.120000000000000E-002    2.562962689917605E-013
 -2.110000000000000E-002    2.491092667241553E-013
 -2.100000000000000E-002    2.318110734413160E-013
 -2.090000000000000E-002    2.037046846900080E-013
 -2.080000000000000E-002    1.641504078859454E-013
 -2.070000000000000E-002    1.125844376530106E-013
 -2.060000000000000E-002    4.858124205773151E-014
 -2.050000000000000E-002   -2.803270773836598E-014
 -2.040000000000000E-002   -1.170132806265377E-013
 -2.030000000000000E-002   -2.174893400235850E-013
 -2.020000000000000E-002   -3.277277183140980E-013
 -2.010000000000000E-002   -4.448995441559103E-013
 -2.000000000000000E-002   -5.648829931920997E-013
 -1.990000000000000E-002   -6.821416665540780E-013
 -1.980000000000000E-002   -7.897187276549287E-013
 -1.970000000000000E-002   -8.793819025705446E-013
 -1.960000000000000E-002   -9.419442573328394E-013
 -1.950000000000000E-002   -9.677709505954878E-013
 -1.940000000000000E-002   -9.474620902764306E-013
 -1.930000000000000E-002   -8.726801721781956E-013
 -1.920000000000000E-002   -7.370680573335613E-013
 -1.910000000000000E-002   -5.371833744344164E-013
 -1.900000000000000E-002   -2.733596530206968E-013
 -1.890000000000000E-002    4.960264109814524E-014
 -1.880000000000000E-002    4.220114676518318E-013
 -1.870000000000000E-002    8.292078921429083E-013
 -1.860000000000000E-002    1.251900484286686E-012
 -1.850000000000000E-002    1.666937689692923E-012
 -1.840000000000000E-002    2.048505871670509E-012
 -1.830000000000000E-002    2.369697559551851E-012
 -1.820000000000000E-002    2.604351186718128E-012
 -1.810000000000000E-002    2.729026891262017E-012
 -1.800000000000000E-002    2.724954648304984E-012
 -1.790000000000000E-002    2.579778648576950E-012
 -1.780000000000000E-002    2.288924969583356E-012
 -1.770000000000000E-002    1.856444022475074E-012
 -1.760000000000000E-002    1.295216828686613E-012
 -1.750000000000000E-002    6.264715019821652E-013
 -1.740000000000000E-002   -1.213799356455811E-013
 -1.730000000000000E-002   -9.145037880355263E-013
 -1.720000000000000E-002   -1.715862856868836E-012
 -1.710000000000000E-002   -2.487690923472772E-012
 -1.700000000000000E-002   -3.193992268820591E-012
 -1.690000000000000E-002   -3.802819921048978E-012
 -1.680000000000000E-002   -4.288108550348481E-012
 -1.670000000000000E-002   -4.630874486170463E-012
 -1.660000000000000E-002   -4.819670556485126E-012
 -1.650000000000000E-002   -4.850264585537740E-012
 -1.640000000000000E-002   -4.724606509646155E-012
 -1.630000000000000E-002   -4.449244347492205E-012
 -1.620000000000000E-002   -4.033424617667873E-012
 -1.610000000000000E-002   -3.487168590930168E-012
 -1.600000000000000E-002   -2.819637824647138E-012
 -1.590000000000000E-002   -2.038079263747872E-012
 -1.580000000000000E-002   -1.147580919325664E-012
 -1.570000000000000E-002   -1.517729726288631E-013
 -1.560000000000000E-002    9.455195578100971E-013
 -1.550000000000000E-002    2.137808698900590E-012
 -1.540000000000000E-002    3.412933872412727E-012
 -1.530000000000000E-002    4.749908585653309E-012
 -1.520000000000000E-002    6.116104681154081E-012
 -1.510000000000000E-002    7.465285253871795E-012
 -1.500000000000000E-002    8.736970385573407E-012
 -1.490000000000000E-002    9.857522150605113E-012
 -1.480000000000000E-002    1.074317524686032E-011
 -1.470000000000000E-002    1.130503497110485E-011
 -1.460000000000000E-002    1.145582543445004E-011
 -1.450000000000000E-002    1.111792490274761E-011
 -1.440000000000000E-002    1.023201482957523E-011
 -1.430000000000000E-002    8.765487532069015E-012
 -1.420000000000000E-002    6.719683378697481E-012
 -1.410000000000000E-002    4.135027458779736E-012
 -1.400000000000000E-002    1.093253303574840E-012
 -1.390000000000000E-002   -2.283878660641016E-012
 -1.380000000000000E-002   -5.839653174376132E-012
 -1.370000000000000E-002   -9.391169400185918E-012
 -1.360000000000000E-002   -1.274131832235394E-011
 -1.350000000000000E-002   -1.569308405302797E-011
 -1.340000000000000E-002   -1.806497430781823E-011
 -1.330000000000000E-002   -1.970613207331875E-011
 -1.320000000000000E-002   -2.050963370825908E-011
 -1.310000000000000E-002   -2.042250569953741E-011
 -1.300000000000000E-002   -1.945126226199977E-011
 -1.290000000000000E-002   -1.766213046147588E-011
 -1.280000000000000E-002   -1.517564855501975E-011
 -1.270000000000000E-002   -1.215589068454517E-011
 -1.260000000000000E-002   -8.795180154703038E-012
 -1.250000000000000E-002   -5.295677827381427E-012
 -1.240000000000000E-002   -1.849675567896765E-012
 -1.230000000000000E-002    1.379329127080361E-012
 -1.220000000000000E-002    4.272662025869703E-012
 -1.210000000000000E-002    6.767666197168772E-012
 -1.200000000000000E-002    8.862553724141240E-012
 -1.190000000000000E-002    1.061402564755483E-011
 -1.180000000000000E-002    1.212750868326193E-011
 -1.170000000000000E-002    1.354070554800834E-011
 -1.160000000000000E-002    1.500194098784606E-011
 -1.150000000000000E-002    1.664548742948449E-011
 -1.140000000000000E-002    1.856654530915462E-011
 -1.130000000000000E-002    2.079879367267860E-011
 -1.120000000000000E-002    2.329734606634764E-011
 -1.110000000000000E-002    2.592956542492936E-011
 -1.100000000000000E-002    2.847550495234638E-011
 -1.090000000000000E-002    3.063881764867513E-011
 -1.080000000000000E-002    3.206792709401516E-011
 -1.070000000000000E-002    3.238610435808169E-011
 -1.060000000000000E-002    3.122809527682382E-011
 -1.050000000000000E-002    2.828006962166981E-011
 -1.040000000000000E-002    2.331911458766808E-011
 -1.030000000000000E-002    1.624828614203310E-011
 -1.020000000000000E-002    7.123460429749527E-012
 -1.010000000000000E-002   -3.831198481093100E-012
 -1.000000000000000E-002   -1.622138257574013E-011
 -9.899999999999999E-003   -2.949540248497458E-011
 -9.800000000000000E-003   -4.297126689059879E-011
 -9.699999999999999E-003   -5.587636276693442E-011
 -9.599999999999999E-003   -6.739685971456665E-011
 -9.500000000000000E-003   -7.673293486313679E-011
 -9.399999999999999E-003   -8.315539396427557E-011
 -9.299999999999999E-003   -8.605903117403944E-011
 -9.200000000000000E-003   -8.500839500925332E-011
 -9.099999999999999E-003   -7.977234889207685E-011
 -8.999999999999999E-003   -7.034481257244128E-011
 -8.900000000000000E-003   -5.695041398203532E-011
 -8.799999999999999E-003   -4.003512233078653E-011
 -8.699999999999999E-003   -2.024323522532998E-011
 -8.600000000000000E-003    1.616757815060292E-012
 -8.499999999999999E-003    2.461414515940224E-011
 -8.399999999999999E-003    4.774214155180624E-011
 -8.300000000000000E-003    6.996456175894855E-011
 -8.199999999999999E-003    9.025983434188630E-011
 -8.100000000000000E-003    1.076600323879850E-010
 -8.000000000000000E-003    1.212835441805785E-010
 -7.899999999999999E-003    1.303611449681403E-010
 -7.800000000000000E-003    1.342563672062019E-010
 -7.699999999999999E-003    1.324817114867221E-010
 -7.599999999999999E-003    1.247129083578365E-010
 -7.499999999999999E-003    1.108033409487582E-010
 -7.399999999999999E-003    9.080039207119492E-011
 -7.299999999999999E-003    6.496465403866555E-011
 -7.199999999999999E-003    3.379170522291416E-011
 -7.100000000000000E-003   -1.965172670249395E-012
 -6.999999999999999E-003   -4.127440387001111E-011
 -6.899999999999999E-003   -8.281187665731651E-011
 -6.800000000000000E-003   -1.249581961332058E-010
 -6.699999999999999E-003   -1.658129119897896E-010
 -6.599999999999999E-003   -2.032307094983963E-010
 -6.499999999999999E-003   -2.348837225231159E-010
 -6.399999999999999E-003   -2.583522337368590E-010
 -6.299999999999999E-003   -2.712437159704703E-010
 -6.199999999999999E-003   -2.713372243029163E-010
 -6.100000000000000E-003   -2.567474856774192E-010
 -5.999999999999999E-003   -2.260997345759361E-010
 -5.899999999999999E-003   -1.787036842855736E-010
 -5.800000000000000E-003   -1.147135219153937E-010
 -5.699999999999999E-003   -3.525899335888634E-011
 -5.599999999999999E-003    5.746686586113804E-011
 -5.499999999999999E-003    1.601766588363076E-010
 -5.399999999999999E-003    2.685255862601641E-010
 -5.299999999999999E-003    3.772235272552665E-010
 -5.199999999999999E-003    4.802255276163265E-010
 -5.099999999999999E-003    5.709977360191011E-010
 -4.999999999999999E-003    6.428514493286756E-010
 -4.899999999999999E-003    6.893306123897295E-010
 -4.799999999999999E-003    7.046341046694093E-010
 -4.699999999999999E-003    6.840492695567462E-010
 -4.599999999999999E-003    6.243691487387950E-010
 -4.499999999999999E-003    5.242659425472428E-010
 -4.399999999999999E-003    3.845915824035596E-010
 -4.299999999999999E-003    2.085794960170505E-010
 -4.199999999999999E-003    1.925327936368003E-012
 -4.099999999999999E-003   -2.272694468621426E-010
 -3.999999999999999E-003   -4.687002922169836E-010
 -3.899999999999999E-003   -7.102086703911795E-010
 -3.799999999999999E-003   -9.382689563373721E-010
 -3.699999999999999E-003   -1.138595305783304E-009
 -3.599999999999999E-003   -1.296842363619082E-009
 -3.499999999999999E-003   -1.399365992261170E-009
 -3.399999999999999E-003   -1.434005984369900E-009
 -3.299999999999999E-003   -1.390848282556905E-009
 -3.199999999999999E-003   -1.262924870847990E-009
 -3.099999999999999E-003   -1.046811837120949E-009
 -2.999999999999999E-003   -7.430898503971546E-010
 -2.899999999999999E-003   -3.566394190696157E-010
 -2.799999999999999E-003    1.032474958179873E-010
 -2.699999999999999E-003    6.229495478899688E-010
 -2.599999999999999E-003    1.184789122535473E-009
 -2.499999999999999E-003    1.767486718496158E-009
 -2.399999999999999E-003    2.346775716792488E-009
 -2.299999999999999E-003    2.896152025324545E-009
 -2.199999999999999E-003    3.387726933223474E-009
 -2.099999999999999E-003    3.793151687036249E-009
 -1.999999999999999E-003    4.084581719863035E-009
 -1.899999999999999E-003    4.235651890038571E-009
 -1.799999999999999E-003    4.222439284327643E-009
 -1.699999999999999E-003    4.024393372011233E-009
 -1.599999999999999E-003    3.625221054530820E-009
 -1.499999999999999E-003    3.013719046376220E-009
 -1.399999999999999E-003    2.184542376283728E-009
 -1.299999999999999E-003    1.138909297727947E-009
 -1.199999999999999E-003   -1.147726388872540E-010
 -1.099999999999999E-003   -1.560365607815747E-009
 -9.999999999999989E-004   -3.173573482698781E-009
 -8.999999999999990E-004   -4.921645423422138E-009
 -7.999999999999990E-004   -6.763255931454529E-009
 -6.999999999999989E-004   -8.648596242160872E-009
 -5.999999999999990E-004   -1.051972863640940E-008
 -4.999999999999989E-004   -1.231125651394081E-008
 -3.999999999999989E-004   -1.395134437955365E-008
 -2.999999999999989E-004   -1.536313443242470E-008
 -1.999999999999989E-004   -1.646658966696652E-008
 -9.999999999999892E-005   -1.718075691867218E-008
  1.084202172485504E-018   -1.742645974150299E-008
  1.000000000000011E-004   -1.712937790783130E-008
  2.000000000000011E-004   -1.622347036577223E-008
  3.000000000000011E-004   -1.465467099245237E-008
  4.000000000000011E-004   -1.238478328936131E-008
  5.000000000000011E-004   -9.395478984367638E-009
  6.000000000000011E-004   -5.692319484642093E-009
  7.000000000000011E-004   -1.308692642757799E-009
  8.000000000000011E-004    3.690355651104918E-009
  9.000000000000012E-004    9.204547323751813E-009
  1.000000000000001E-003    1.509497040806175E-008
  1.100000000000001E-003    2.118101714500732E-008
  1.200000000000001E-003    2.723751168060822E-008
  1.300000000000001E-003    3.299219674555141E-008
  1.400000000000001E-003    3.812336828663844E-008
  1.500000000000001E-003    4.225783556311930E-008
  1.600000000000001E-003    4.496909885710878E-008
  1.700000000000001E-003    4.577569519288630E-008
  1.800000000000001E-003    4.413992172988482E-008
  1.900000000000001E-003    3.946686973339735E-008
  2.000000000000001E-003    3.110368002667973E-008
  2.100000000000001E-003    1.833957504046794E-008
  2.200000000000001E-003    4.062932329597830E-010
  2.300000000000001E-003   -2.352089914139545E-008
  2.400000000000001E-003   -5.432112625808164E-008
  2.500000000000001E-003   -9.292523414715736E-008
  2.600000000000001E-003   -1.403121736860261E-007
  2.700000000000001E-003   -1.975045664173587E-007
  2.800000000000001E-003   -2.655633947265679E-007
  2.900000000000001E-003   -3.455822549819328E-007
  3.000000000000001E-003   -4.386807617715736E-007
  3.100000000000001E-003   -5.459982996750936E-007
  3.200000000000001E-003   -6.686868572162186E-007
  3.300000000000001E-003   -8.079050960836774E-007
  3.400000000000001E-003   -9.648126325581237E-007
  3.500000000000001E-003   -1.140564627088226E-006
  3.600000000000001E-003   -1.336308642126251E-006
  3.700000000000001E-003   -1.553181237530326E-006
  3.800000000000001E-003   -1.792307392499546E-006
  3.900000000000001E-003   -2.054800575066233E-006
  4.000000000000001E-003   -2.341764584797980E-006
  4.100000000000001E-003   -2.654297073601581E-006
  4.200000000000001E-003   -2.993492792449368E-006
  4.300000000000001E-003   -3.360451189132575E-006
  4.400000000000001E-003   -3.756282333790583E-006
  4.500000000000001E-003   -4.182114851355665E-006
  4.600000000000002E-003   -4.639104745789886E-006
  4.700000000000001E-003   -5.128444265298875E-006
  4.800000000000001E-003   -5.651372794908971E-006
  4.900000000000002E-003   -6.209186320482057E-006
  5.000000000000001E-003   -6.803249716242511E-006
  5.100000000000001E-003   -7.435005117793006E-006
  5.200000000000001E-003   -8.105987576575757E-006
  5.300000000000002E-003   -8.817834163278554E-006
  5.400000000000001E-003   -9.572299050092294E-006
  5.500000000000001E-003   -1.037126707513111E-005
  5.600000000000002E-003   -1.121676359511852E-005
  5.700000000000001E-003   -1.211097101306229E-005
  5.800000000000001E-003   -1.305624323390974E-005
  5.900000000000002E-003   -1.405511843805175E-005
  6.000000000000001E-003   -1.511032953608640E-005
  6.100000000000001E-003   -1.622482263979444E-005
  6.200000000000002E-003   -1.740176294199550E-005
  6.300000000000002E-003   -1.864454942445139E-005
  6.400000000000001E-003   -1.995682392385502E-005
  6.500000000000001E-003   -2.134247860124019E-005
  6.600000000000002E-003   -2.280566656107507E-005
  6.700000000000001E-003   -2.435080680986584E-005
  6.800000000000001E-003   -2.598259200340519E-005
  6.900000000000002E-003   -2.770599166874433E-005
  7.000000000000001E-003   -2.952626020376475E-005
  7.100000000000001E-003   -3.144894015574427E-005
  7.200000000000002E-003   -3.347987839995554E-005
  7.300000000000002E-003   -3.562521941248080E-005
  7.400000000000001E-003   -3.789142691228312E-005
  7.500000000000001E-003   -4.028528733453016E-005
  7.600000000000002E-003   -4.281393087199012E-005
  7.700000000000001E-003   -4.548483368496720E-005
  7.800000000000001E-003   -4.830584506056746E-005
  7.900000000000001E-003   -5.128520405046111E-005
  8.000000000000002E-003   -5.443155049040359E-005
  8.100000000000001E-003   -5.775395771748399E-005
  8.200000000000001E-003   -6.126194271398517E-005
  8.300000000000002E-003   -6.496549668020009E-005
  8.400000000000001E-003   -6.887509348085926E-005
  8.500000000000002E-003   -7.300172150399507E-005
  8.600000000000002E-003   -7.735691561702314E-005
  8.700000000000001E-003   -8.195274546581025E-005
  8.800000000000002E-003   -8.680186711046139E-005
  8.900000000000002E-003   -9.191752335776398E-005
  9.000000000000001E-003   -9.731357783518393E-005
  9.100000000000002E-003   -1.030045119412880E-004
  9.200000000000002E-003   -1.090054667377150E-004
  9.300000000000001E-003   -1.153322728643572E-004
  9.400000000000002E-003   -1.220014337539612E-004
  9.500000000000001E-003   -1.290301900494412E-004
  9.600000000000001E-003   -1.364365219805338E-004
  9.700000000000002E-003   -1.442392129709312E-004
  9.800000000000001E-003   -1.524578458041457E-004
  9.900000000000001E-003   -1.611128656309243E-004
  1.000000000000000E-002   -1.702255941337447E-004
  1.010000000000000E-002   -1.798182997027312E-004
  1.020000000000000E-002   -1.899141876348186E-004
  1.030000000000000E-002   -2.005375191166706E-004
  1.040000000000000E-002   -2.117136041447646E-004
  1.050000000000000E-002   -2.234688235117246E-004
  1.060000000000000E-002   -2.358307338310356E-004
  1.070000000000000E-002   -2.488280533377196E-004
  1.080000000000000E-002   -2.624907167063969E-004
  1.090000000000000E-002   -2.768499263576477E-004
  1.100000000000000E-002   -2.919381612191343E-004
  1.110000000000000E-002   -3.077892432388535E-004
  1.120000000000000E-002   -3.244383494883104E-004
  1.130000000000000E-002   -3.419220609191288E-004
  1.140000000000000E-002   -3.602783853573028E-004
  1.150000000000000E-002   -3.795467740486088E-004
  1.160000000000000E-002   -3.997682603067562E-004
  1.170000000000000E-002   -4.209854068279375E-004
  1.180000000000000E-002   -4.432423662173992E-004
  1.190000000000000E-002   -4.665849825162547E-004
  1.200000000000000E-002   -4.910608477228440E-004
  1.210000000000000E-002   -5.167193627842605E-004
  1.220000000000000E-002   -5.436117311771323E-004
  1.230000000000000E-002   -5.717910755488886E-004
  1.240000000000000E-002   -6.013125770295950E-004
  1.250000000000000E-002   -6.322334624989799E-004
  1.260000000000000E-002   -6.646130279195217E-004
  1.270000000000000E-002   -6.985128111600623E-004
  1.280000000000000E-002   -7.339965742978923E-004
  1.290000000000000E-002   -7.711304081943455E-004
  1.300000000000000E-002   -8.099827767550111E-004
  1.310000000000000E-002   -8.506244790969813E-004
  1.320000000000000E-002   -8.931288935191270E-004
  1.330000000000000E-002   -9.375718182474993E-004
  1.340000000000000E-002   -9.840317705948406E-004
  1.350000000000000E-002   -1.032589679107504E-003
  1.360000000000000E-002   -1.083329293741571E-003
  1.370000000000000E-002   -1.136337006454862E-003
  1.380000000000000E-002   -1.191702050760243E-003
  1.390000000000000E-002   -1.249516576987441E-003
  1.400000000000000E-002   -1.309875654561921E-003
  1.410000000000000E-002   -1.372877352048037E-003
  1.420000000000000E-002   -1.438622777534375E-003
  1.430000000000000E-002   -1.507216471972362E-003
  1.440000000000000E-002   -1.578765828508951E-003
  1.450000000000000E-002   -1.653381988440562E-003
  1.460000000000000E-002   -1.731179330208849E-003
  1.470000000000000E-002   -1.812275755826098E-003
  1.480000000000000E-002   -1.896792870117192E-003
  1.490000000000000E-002   -1.984855874795734E-003
  1.500000000000000E-002   -2.076593626656463E-003
  1.510000000000000E-002   -2.172138704704444E-003
  1.520000000000000E-002   -2.271627541245137E-003
  1.530000000000000E-002   -2.375200248048553E-003
  1.540000000000000E-002   -2.483000940179371E-003
  1.550000000000000E-002   -2.595177589700928E-003
  1.560000000000000E-002   -2.711881906852874E-003
  1.570000000000000E-002   -2.833269579850618E-003
  1.580000000000000E-002   -2.959500398587934E-003
  1.590000000000000E-002   -3.090737923286094E-003
  1.600000000000000E-002   -3.227149572900458E-003
  1.610000000000000E-002   -3.368907396047486E-003
  1.620000000000000E-002   -3.516186650562368E-003
  1.630000000000000E-002   -3.669167030564230E-003
  1.640000000000000E-002   -3.828032832431661E-003
  1.650000000000000E-002   -3.992971859914918E-003
  1.660000000000000E-002   -4.164176642156303E-003
  1.670000000000000E-002   -4.341843567256700E-003
  1.680000000000000E-002   -4.526173240291454E-003
  1.690000000000000E-002   -4.717371050803549E-003
  1.700000000000000E-002   -4.915646252221227E-003
  1.710000000000000E-002   -5.121212540491021E-003
  1.720000000000000E-002   -5.334288323554878E-003
  1.730000000000000E-002   -5.555095774175778E-003
  1.740000000000000E-002   -5.783861481094396E-003
  1.750000000000000E-002   -6.020816512257106E-003
  1.760000000000000E-002   -6.266195777528413E-003
  1.770000000000000E-002   -6.520238806476832E-003
  1.780000000000000E-002   -6.783188242600061E-003
  1.790000000000000E-002   -7.055291344500807E-003
  1.800000000000000E-002   -7.336798986285691E-003
  1.810000000000000E-002   -7.627965349650565E-003
  1.820000000000000E-002   -7.929049159992225E-003
  1.830000000000000E-002   -8.240312228753177E-003
  1.840000000000000E-002   -8.562019393075607E-003
  1.850000000000000E-002   -8.894439317817417E-003
  1.860000000000000E-002   -9.237844392145369E-003
  1.870000000000000E-002   -9.592508580904812E-003