 -4.000000000000000E-002    0.000000000000000E+000
 -3.990000000000000E-002    0.000000000000000E+000
 -3.980000000000000E-002    0.000000000000000E+000
 -3.970000000000000E-002    0.000000000000000E+000
 -3.960000000000000E-002    0.000000000000000E+000
 -3.950000000000000E-002    0.000000000000000E+000
 -3.940000000000000E-002    0.000000000000000E+000
 -3.930000000000000E-002    0.000000000000000E+000
 -3.920000000000000E-002    0.000000000000000E+000
 -3.910000000000000E-002    0.000000000000000E+000
 -3.900000000000000E-002    0.000000000000000E+000
 -3.890000000000000E-002    0.000000000000000E+000
 -3.880000000000000E-002    0.000000000000000E+000
 -3.870000000000000E-002    0.000000000000000E+000
 -3.860000000000000E-002    0.000000000000000E+000
 -3.850000000000000E-002    0.000000000000000E+000
 -3.840000000000000E-002    0.000000000000000E+000
 -3.830000000000000E-002    0.000000000000000E+000
 -3.820000000000000E-002    0.000000000000000E+000
 -3.810000000000000E-002    0.000000000000000E+000
 -3.800000000000000E-002    0.000000000000000E+000
 -3.790000000000000E-002    0.000000000000000E+000
 -3.780000000000000E-002    0.000000000000000E+000
 -3.770000000000000E-002    0.000000000000000E+000
 -3.760000000000000E-002    0.000000000000000E+000
 -3.750000000000000E-002    0.000000000000000E+000
 -3.740000000000000E-002    0.000000000000000E+000
 -3.730000000000000E-002    0.000000000000000E+000
 -3.720000000000000E-002    0.000000000000000E+000
 -3.710000000000000E-002    0.000000000000000E+000
 -3.700000000000000E-002    0.000000000000000E+000
 -3.690000000000000E-002    0.000000000000000E+000
 -3.680000000000000E-002    0.000000000000000E+000
 -3.670000000000000E-002    0.000000000000000E+000
 -3.660000000000000E-002    0.000000000000000E+000
 -3.650000000000000E-002    0.000000000000000E+000
 -3.640000000000000E-002    0.000000000000000E+000
 -3.630000000000000E-002    0.000000000000000E+000
 -3.620000000000000E-002    0.000000000000000E+000
 -3.610000000000000E-002    0.000000000000000E+000
 -3.600000000000000E-002    0.000000000000000E+000
 -3.590000000000000E-002    0.000000000000000E+000
 -3.580000000000000E-002    0.000000000000000E+000
 -3.570000000000000E-002    0.000000000000000E+000
 -3.560000000000000E-002    0.000000000000000E+000
 -3.550000000000000E-002    0.000000000000000E+000
 -3.540000000000000E-002    0.000000000000000E+000
 -3.530000000000000E-002    0.000000000000000E+000
 -3.520000000000000E-002    0.000000000000000E+000
 -3.510000000000000E-002    0.000000000000000E+000
 -3.500000000000000E-002    0.000000000000000E+000
 -3.490000000000000E-002    0.000000000000000E+000
 -3.480000000000000E-002    0.000000000000000E+000
 -3.470000000000000E-002    0.000000000000000E+000
 -3.460000000000000E-002    0.000000000000000E+000
 -3.450000000000000E-002    0.000000000000000E+000
 -3.440000000000000E-002    0.000000000000000E+000
 -3.430000000000000E-002    0.000000000000000E+000
 -3.420000000000000E-002    0.000000000000000E+000
 -3.410000000000000E-002    0.000000000000000E+000
 -3.400000000000000E-002    0.000000000000000E+000
 -3.390000000000000E-002    0.000000000000000E+000
 -3.380000000000000E-002    0.000000000000000E+000
 -3.370000000000000E-002    0.000000000000000E+000
 -3.360000000000000E-002    0.000000000000000E+000
 -3.350000000000000E-002    0.000000000000000E+000
 -3.340000000000000E-002    0.000000000000000E+000
 -3.330000000000000E-002    0.000000000000000E+000
 -3.320000000000000E-002    0.000000000000000E+000
 -3.310000000000000E-002    0.000000000000000E+000
 -3.300000000000000E-002    0.000000000000000E+000
 -3.290000000000000E-002    0.000000000000000E+000
 -3.280000000000000E-002    0.000000000000000E+000
 -3.270000000000000E-002    0.000000000000000E+000
 -3.260000000000000E-002    0.000000000000000E+000
 -3.250000000000000E-002    0.000000000000000E+000
 -3.240000000000000E-002    0.000000000000000E+000
 -3.230000000000000E-002    0.000000000000000E+000
 -3.220000000000000E-002    0.000000000000000E+000
 -3.210000000000000E-002    0.000000000000000E+000
 -3.200000000000000E-002    0.000000000000000E+000
 -3.190000000000000E-002    0.000000000000000E+000
 -3.180000000000000E-002    0.000000000000000E+000
 -3.170000000000000E-002    0.000000000000000E+000
 -3.160000000000000E-002    0.000000000000000E+000
 -3.150000000000000E-002    0.000000000000000E+000
 -3.140000000000000E-002    0.000000000000000E+000
 -3.130000000000000E-002    0.000000000000000E+000
 -3.120000000000000E-002    0.000000000000000E+000
 -3.110000000000000E-002    0.000000000000000E+000
 -3.100000000000000E-002    0.000000000000000E+000
 -3.090000000000000E-002    0.000000000000000E+000
 -3.080000000000000E-002    0.000000000000000E+000
 -3.070000000000000E-002    0.000000000000000E+000
 -3.060000000000000E-002    0.000000000000000E+000
 -3.050000000000000E-002    0.000000000000000E+000
 -3.040000000000000E-002    0.000000000000000E+000
 -3.030000000000000E-002    0.000000000000000E+000
 -3.020000000000000E-002    0.000000000000000E+000
 -3.010000000000000E-002    0.000000000000000E+000
 -3.000000000000000E-002    0.000000000000000E+000
 -2.990000000000000E-002    0.000000000000000E+000
 -2.980000000000000E-002    0.000000000000000E+000
 -2.970000000000000E-002    0.000000000000000E+000
 -2.960000000000000E-002    0.000000000000000E+000
 -2.950000000000000E-002    0.000000000000000E+000
 -2.940000000000000E-002    0.000000000000000E+000
 -2.930000000000000E-002    0.000000000000000E+000
 -2.920000000000000E-002    0.000000000000000E+000
 -2.910000000000000E-002    0.000000000000000E+000
 -2.900000000000000E-002    0.000000000000000E+000
 -2.890000000000000E-002    0.000000000000000E+000
 -2.880000000000000E-002    0.000000000000000E+000
 -2.870000000000000E-002    0.000000000000000E+000
 -2.860000000000000E-002    0.000000000000000E+000
 -2.850000000000000E-002    0.000000000000000E+000
 -2.840000000000000E-002    0.000000000000000E+000
 -2.830000000000000E-002    0.000000000000000E+000
 -2.820000000000000E-002    0.000000000000000E+000
 -2.810000000000000E-002    0.000000000000000E+000
 -2.800000000000000E-002    0.000000000000000E+000
 -2.790000000000000E-002    0.000000000000000E+000
 -2.780000000000000E-002    0.000000000000000E+000
 -2.770000000000000E-002    0.000000000000000E+000
 -2.760000000000000E-002    0.000000000000000E+000
 -2.750000000000000E-002    0.000000000000000E+000
 -2.740000000000000E-002    0.000000000000000E+000
 -2.730000000000000E-002    0.000000000000000E+000
 -2.720000000000000E-002    0.000000000000000E+000
 -2.710000000000000E-002    0.000000000000000E+000
 -2.700000000000000E-002    0.000000000000000E+000
 -2.690000000000000E-002    0.000000000000000E+000
 -2.680000000000000E-002    0.000000000000000E+000
 -2.670000000000000E-002    0.000000000000000E+000
 -2.660000000000000E-002    0.000000000000000E+000
 -2.650000000000000E-002    0.000000000000000E+000
 -2.640000000000000E-002    0.000000000000000E+000
 -2.630000000000000E-002    0.000000000000000E+000
 -2.620000000000000E-002    0.000000000000000E+000
 -2.610000000000000E-002    0.000000000000000E+000
 -2.600000000000000E-002    0.000000000000000E+000
 -2.590000000000000E-002    0.000000000000000E+000
 -2.580000000000000E-002    0.000000000000000E+000
 -2.570000000000000E-002    0.000000000000000E+000
 -2.560000000000000E-002    0.000000000000000E+000
 -2.550000000000000E-002    0.000000000000000E+000
 -2.540000000000000E-002    0.000000000000000E+000
 -2.530000000000000E-002    0.000000000000000E+000
 -2.520000000000000E-002    0.000000000000000E+000
 -2.510000000000000E-002    0.000000000000000E+000
 -2.500000000000000E-002    0.000000000000000E+000
 -2.490000000000000E-002    0.000000000000000E+000
 -2.480000000000000E-002    0.000000000000000E+000
 -2.470000000000000E-002    0.000000000000000E+000
 -2.460000000000000E-002    0.000000000000000E+000
 -2.450000000000000E-002    0.000000000000000E+000
 -2.440000000000000E-002    0.000000000000000E+000
 -2.430000000000000E-002    0.000000000000000E+000
 -2.420000000000000E-002    0.000000000000000E+000
 -2.410000000000000E-002    0.000000000000000E+000
 -2.400000000000000E-002    0.000000000000000E+000
 -2.390000000000000E-002    0.000000000000000E+000
 -2.380000000000000E-002    0.000000000000000E+000
 -2.370000000000000E-002    0.000000000000000E+000
 -2.360000000000000E-002    0.000000000000000E+000
 -2.350000000000000E-002    0.000000000000000E+000
 -2.340000000000000E-002    0.000000000000000E+000
 -2.330000000000000E-002    0.000000000000000E+000
 -2.320000000000000E-002    0.000000000000000E+000
 -2.310000000000000E-002    0.000000000000000E+000
 -2.300000000000000E-002    0.000000000000000E+000
 -2.290000000000000E-002    0.000000000000000E+000
 -2.280000000000000E-002    0.000000000000000E+000
 -2.270000000000000E-002    0.000000000000000E+000
 -2.260000000000000E-002    0.000000000000000E+000
 -2.250000000000000E-002    0.000000000000000E+000
 -2.240000000000000E-002    0.000000000000000E+000
 -2.230000000000000E-002    0.000000000000000E+000
 -2.220000000000000E-002    0.000000000000000E+000
 -2.210000000000000E-002    0.000000000000000E+000
 -2.200000000000000E-002    0.000000000000000E+000
 -2.190000000000000E-002    0.000000000000000E+000
 -2.180000000000000E-002    0.000000000000000E+000
 -2.170000000000000E-002    0.000000000000000E+000
 -2.160000000000000E-002    0.000000000000000E+000
 -2.150000000000000E-002    0.000000000000000E+000
 -2.140000000000000E-002    0.000000000000000E+000
 -2.130000000000000E-002    0.000000000000000E+000
 -2.120000000000000E-002    0.000000000000000E+000
 -2.110000000000000E-002    0.000000000000000E+000
 -2.100000000000000E-002    0.000000000000000E+000
 -2.090000000000000E-002    0.000000000000000E+000
 -2.080000000000000E-002    0.000000000000000E+000
 -2.070000000000000E-002    0.000000000000000E+000
 -2.060000000000000E-002    0.000000000000000E+000
 -2.050000000000000E-002    0.000000000000000E+000
 -2.040000000000000E-002    0.000000000000000E+000
 -2.030000000000000E-002    0.000000000000000E+000
 -2.020000000000000E-002    0.000000000000000E+000
 -2.010000000000000E-002    0.000000000000000E+000
 -2.000000000000000E-002    0.000000000000000E+000
 -1.990000000000000E-002    1.389195164613927E-048
 -1.980000000000000E-002    2.778390329227854E-048
 -1.970000000000000E-002    4.167585493841781E-048
 -1.960000000000000E-002    4.167585493841781E-048
 -1.950000000000000E-002   -1.439722752599556E-048
 -1.940000000000000E-002   -8.436226163654819E-048
 -1.930000000000000E-002   -1.682192473932401E-047
 -1.920000000000000E-002   -2.889644718471134E-047
 -1.910000000000000E-002   -3.723161817239490E-047
 -1.900000000000000E-002   -4.681284379323459E-047
 -1.890000000000000E-002   -3.940231736318247E-047
 -1.880000000000000E-002   -3.661784243059519E-047
 -1.870000000000000E-002   -5.150910195868456E-047
 -1.860000000000000E-002   -3.908677758611996E-047
 -1.850000000000000E-002   -5.329375047671607E-047
 -1.840000000000000E-002   -5.729160443684662E-047
 -1.830000000000000E-002   -4.678523926549359E-047
 -1.820000000000000E-002    1.410030738346869E-046
 -1.810000000000000E-002    5.755432278948871E-046
 -1.800000000000000E-002    1.062234617141062E-045
 -1.790000000000000E-002    1.661272484419492E-045
 -1.780000000000000E-002    2.243128883422725E-045
 -1.770000000000000E-002    2.695298347948000E-045
 -1.760000000000000E-002    2.856397840620610E-045
 -1.750000000000000E-002    2.007774237865277E-045
 -1.740000000000000E-002    1.598907705617591E-045
 -1.730000000000000E-002    1.032140668447481E-045
 -1.720000000000000E-002    2.640050924220469E-046
 -1.710000000000000E-002   -1.800171709811220E-045
 -1.700000000000000E-002   -4.516703329997213E-045
 -1.690000000000000E-002   -8.349589988106822E-045
 -1.680000000000000E-002   -1.238051623291832E-044
 -1.670000000000000E-002   -1.586830439466073E-044
 -1.660000000000000E-002   -1.885195392327388E-044
 -1.650000000000000E-002   -1.900842144684940E-044
 -1.640000000000000E-002   -1.672440246602197E-044
 -1.630000000000000E-002   -1.017209163862183E-044
 -1.620000000000000E-002    1.428867155514213E-045
 -1.610000000000000E-002    1.949999245699933E-044
 -1.600000000000000E-002    4.375235597844944E-044
 -1.590000000000000E-002    7.222785620677290E-044
 -1.580000000000000E-002    1.007126495508086E-043
 -1.570000000000000E-002    1.242728096300904E-043
 -1.560000000000000E-002    1.361271042720954E-043
 -1.550000000000000E-002    1.262695321615968E-043
 -1.540000000000000E-002    8.398568826118260E-044
 -1.530000000000000E-002    1.486923450356391E-045
 -1.520000000000000E-002   -1.273314199686907E-043
 -1.510000000000000E-002   -3.030779959093051E-043
 -1.500000000000000E-002   -5.149588304011076E-043
 -1.490000000000000E-002   -7.418168495889995E-043
 -1.480000000000000E-002   -9.443066703545423E-043
 -1.470000000000000E-002   -1.070755508662905E-042
 -1.460000000000000E-002   -1.054815874204270E-042
 -1.450000000000000E-002   -8.228492280990824E-043
 -1.440000000000000E-002   -3.029666052142674E-043
 -1.430000000000000E-002    5.556205145517057E-043
 -1.420000000000000E-002    1.767732587661356E-042
 -1.410000000000000E-002    3.283565392286908E-042
 -1.400000000000000E-002    4.970608559487407E-042
 -1.390000000000000E-002    6.592675291402081E-042
 -1.380000000000000E-002    7.803678415782297E-042
 -1.370000000000000E-002    8.155498083533024E-042
 -1.360000000000000E-002    7.133758879943597E-042
 -1.350000000000000E-002    4.218505922841539E-042
 -1.340000000000000E-002   -1.012290398387007E-042
 -1.330000000000000E-002   -8.759345633018649E-042
 -1.320000000000000E-002   -1.884663291896653E-041
 -1.310000000000000E-002   -3.056316835954158E-041
 -1.300000000000000E-002   -4.253274393000441E-041
 -1.290000000000000E-002   -5.263285970385686E-041
 -1.280000000000000E-002   -5.802819457846245E-041
 -1.270000000000000E-002   -5.534537971069296E-041
 -1.260000000000000E-002   -4.104089012003354E-041
 -1.250000000000000E-002   -1.198318631217370E-041
 -1.240000000000000E-002    3.376129634774818E-041
 -1.230000000000000E-002    9.597594954389953E-041
 -1.220000000000000E-002    1.712834566358146E-040
 -1.210000000000000E-002    2.522404012085831E-040
 -1.200000000000000E-002    3.267490698963966E-040
 -1.190000000000000E-002    3.780534150178980E-040
 -1.180000000000000E-002    3.856013120016313E-040
 -1.170000000000000E-002    3.270208609495650E-040
 -1.160000000000000E-002    1.813629678582026E-040
 -1.150000000000000E-002   -6.638972910581279E-041
 -1.140000000000000E-002   -4.197916260867398E-040
 -1.130000000000000E-002   -8.649444300774510E-040
 -1.120000000000000E-002   -1.364918164432359E-039
 -1.110000000000000E-002   -1.855823879053794E-039
 -1.100000000000000E-002   -2.245982685569369E-039
 -1.090000000000000E-002   -2.419774566975290E-039
 -1.080000000000000E-002   -2.247546603462636E-039
 -1.070000000000000E-002   -1.602505060307469E-039
 -1.060000000000000E-002   -3.846198430378591E-040
 -1.050000000000000E-002    1.449676909075236E-039
 -1.040000000000000E-002    3.854824818974970E-039
 -1.030000000000000E-002    6.665056758175351E-039
 -1.020000000000000E-002    9.571172763443018E-039
 -1.010000000000000E-002    1.211268146248846E-038
 -1.000000000000000E-002    1.369322399511418E-038
 -9.899999999999999E-003    1.362642483482527E-038
 -9.800000000000000E-003    1.121682372747852E-038
 -9.699999999999999E-003    5.876261905928300E-039
 -9.599999999999999E-003   -2.729994340707429E-039
 -9.500000000000000E-003   -1.452075391176401E-038
 -9.399999999999999E-003   -2.884148240303632E-038
 -9.299999999999999E-003   -4.434140260781970E-038
 -9.200000000000000E-003   -5.891992515261511E-038
 -9.099999999999999E-003   -6.977924825774585E-038
 -8.999999999999999E-003   -7.361568445877410E-038
 -8.900000000000000E-003   -6.697147959966387E-038
 -8.799999999999999E-003   -4.674930127789772E-038
 -8.699999999999999E-003   -1.086512937892216E-038
 -8.600000000000000E-003    4.101724500277234E-038
 -8.499999999999999E-003    1.067622786486833E-037
 -8.399999999999999E-003    1.811729997146776E-037
 -8.300000000000000E-003    2.556826105402013E-037
 -8.199999999999999E-003    3.184803041350514E-037
 -8.100000000000000E-003    3.552078859915552E-037
 -8.000000000000000E-003    3.503179058533187E-037
 -7.899999999999999E-003    2.891081880450465E-037
 -7.800000000000000E-003    1.603425299235045E-037
 -7.699999999999999E-003   -4.075553400559338E-038
 -7.599999999999999E-003   -3.094850217398306E-037
 -7.499999999999999E-003   -6.290902600542907E-037
 -7.399999999999999E-003   -9.691753299042403E-037
 -7.299999999999999E-003   -1.285682534868255E-036
 -7.199999999999999E-003   -1.522948988783266E-036
 -7.100000000000000E-003   -1.618197258804430E-036
 -6.999999999999999E-003   -1.508551480651788E-036
 -6.899999999999999E-003   -1.140316040402014E-036
 -6.800000000000000E-003   -4.798390872455786E-037
 -6.699999999999999E-003    4.751697904677454E-037
 -6.599999999999999E-003    1.685380292276923E-036
 -6.499999999999999E-003    3.062439075979354E-036
 -6.399999999999999E-003    4.466326146150882E-036
 -6.299999999999999E-003    5.709210289810743E-036
 -6.199999999999999E-003    6.567093748523108E-036
 -6.100000000000000E-003    6.799809232919834E-036
 -5.999999999999999E-003    6.178921104955487E-036
 -5.899999999999999E-003    4.521876128521559E-036
 -5.800000000000000E-003    1.729538908276165E-036
 -5.699999999999999E-003   -2.176942847184101E-036
 -5.599999999999999E-003   -7.024818574064907E-036
 -5.499999999999999E-003   -1.246938908983937E-035
 -5.399999999999999E-003   -1.798974857805900E-035
 -5.299999999999999E-003   -2.290512579275484E-035
 -5.199999999999999E-003   -2.641474467720763E-035
 -5.099999999999999E-003   -2.766207976114915E-035
 -4.999999999999999E-003   -2.582189926588749E-035
 -4.899999999999999E-003   -2.020568596898693E-035
 -4.799999999999999E-003   -1.037826393609052E-035
 -4.699999999999999E-003    3.724045006442941E-036
 -4.599999999999999E-003    2.168542714979011E-035
 -4.499999999999999E-003    4.252590371999190E-035
 -4.399999999999999E-003    6.465361296953867E-035
 -4.299999999999999E-003    8.586772941726649E-035
 -4.199999999999999E-003    1.034244456059017E-034
 -4.099999999999999E-003    1.141764348396857E-034
 -3.999999999999999E-003    1.147932777579792E-034
 -3.899999999999999E-003    1.020654771601086E-034
 -3.799999999999999E-003    7.328897952009042E-035
 -3.699999999999999E-003    2.671791240311948E-035
 -3.599999999999999E-003   -3.793658176323858E-035
 -3.499999999999999E-003   -1.189984846954949E-034
 -3.399999999999999E-003   -2.123609099420403E-034
 -3.299999999999999E-003   -3.111316835333909E-034
 -3.199999999999999E-003   -4.054730047830121E-034
 -3.099999999999999E-003   -4.827308580948850E-034
 -2.999999999999999E-003   -5.279509910348628E-034
 -2.899999999999999E-003   -5.248687165038791E-034
 -2.799999999999999E-003   -4.574284024204937E-034
 -2.699999999999999E-003   -3.118442714438519E-034
 -2.599999999999999E-003   -7.913558134671673E-035
 -2.499999999999999E-003    2.420191225728583E-034
 -2.399999999999999E-003    6.423726441767913E-034
 -2.299999999999999E-003    1.099521408715449E-033
 -2.199999999999999E-003    1.576110935315096E-033
 -2.099999999999999E-003    2.019370167373005E-033
 -1.999999999999999E-003    2.362524541969023E-033
 -1.899999999999999E-003    2.528562483011240E-033
 -1.799999999999999E-003    2.436677354820216E-033
 -1.699999999999999E-003    2.011434464199982E-033
 -1.599999999999999E-003    1.194361836025411E-033
 -1.499999999999999E-003   -4.278665844308673E-035
 -1.399999999999999E-003   -1.684300129419782E-033
 -1.299999999999999E-003   -3.658015823924744E-033
 -1.199999999999999E-003   -5.826078481459491E-033
 -1.099999999999999E-003   -7.981242125842307E-033
 -9.999999999999989E-004   -9.850915649797704E-033
 -8.999999999999990E-004   -1.111085565526480E-032
 -7.999999999999990E-004   -1.140968727759548E-032
 -6.999999999999989E-004   -1.040443956843883E-032
 -5.999999999999990E-004   -7.805913503179062E-033
 -4.999999999999989E-004   -3.431065076059039E-033
 -3.999999999999989E-004    2.741921604953726E-033
 -2.999999999999989E-004    1.052196583751751E-032
 -1.999999999999989E-004    1.946402103235310E-032
 -9.999999999999892E-005    2.884664709518071E-032
  1.084202172485504E-018    3.767618442631328E-032
  1.000000000000011E-004    4.472462169764361E-032
  2.000000000000011E-004    4.860624024507693E-032
  3.000000000000011E-004    4.789501342553069E-032
  4.000000000000011E-004    4.128084367950452E-032
  5.000000000000011E-004    2.775733609763183E-032
  6.000000000000011E-004    6.829087618891200E-033
  7.000000000000011E-004   -2.128001251494652E-032
  8.000000000000011E-004   -5.544038009786546E-032
  9.000000000000012E-004   -9.347980282814532E-032
  1.000000000000001E-003   -1.321256099274562E-031
  1.100000000000001E-003   -1.670555478469187E-031
  1.200000000000001E-003   -1.930835798704822E-031
  1.300000000000001E-003   -2.044997694863316E-031
  1.400000000000001E-003   -1.955715262963424E-031
  1.500000000000001E-003   -1.611983551610752E-031
  1.600000000000001E-003   -9.769151419973379E-032
  1.700000000000001E-003   -3.628058591134749E-033
  1.800000000000001E-003    1.192976919961909E-031
  1.900000000000001E-003    2.655234209763886E-031
  2.000000000000001E-003    4.250889366257069E-031
  2.100000000000001E-003    5.834586310694474E-031
  2.200000000000001E-003    7.218271187939291E-031
  2.300000000000001E-003    8.180238268537333E-031
  2.400000000000001E-003    8.480965769749566E-031
  2.500000000000001E-003    7.885955805541996E-031
  2.600000000000001E-003    6.195039220084731E-031
  2.700000000000001E-003    3.276567478642543E-031
  2.800000000000001E-003   -8.961111135413549E-032
  2.900000000000001E-003   -6.209672102260534E-031
  3.000000000000001E-003   -1.238204459142196E-030
  3.100000000000001E-003   -1.894533401151520E-030
  3.200000000000001E-003   -2.524605244707359E-030
  3.300000000000001E-003   -3.046791128731750E-030
  3.400000000000001E-003   -3.368111334223594E-030
  3.500000000000001E-003   -3.392002562031525E-030
  3.600000000000001E-003   -3.028803734127972E-030
  3.700000000000001E-003   -2.208475476164901E-030
  3.800000000000001E-003   -8.946388492195944E-031
  3.900000000000001E-003    9.013975135851595E-031
  4.000000000000001E-003    3.108344832005375E-030
  4.100000000000001E-003    5.586352683962481E-030
  4.200000000000001E-003    8.124227683624303E-030
  4.300000000000001E-003    1.044439125752558E-029
  4.400000000000001E-003    1.221711791000233E-029
  4.500000000000001E-003    1.308487177424137E-029
  4.600000000000002E-003    1.269655931780435E-029
  4.700000000000001E-003    1.075027455765747E-029
  4.800000000000001E-003    7.041749411616861E-030
  4.900000000000002E-003    1.514300891505478E-030
  5.000000000000001E-003   -5.695232898539601E-030
  5.100000000000001E-003   -1.422088766702282E-029
  5.200000000000001E-003   -2.344914122294726E-029
  5.300000000000002E-003   -3.252412946750217E-029
  5.400000000000001E-003   -4.038190615656004E-029
  5.500000000000001E-003   -4.581712503948332E-029
  5.600000000000002E-003   -4.758269114146805E-029
  5.700000000000001E-003   -4.451927029577867E-029
  5.800000000000001E-003   -3.570755928034794E-029
  5.900000000000002E-003   -2.063176113909807E-029
  6.000000000000001E-003    6.609989597188353E-031
  6.100000000000001E-003    2.742404489103728E-029
  6.200000000000002E-003    5.811797817595843E-029
  6.300000000000002E-003    9.038157267941368E-029
  6.400000000000001E-003    1.210854501989114E-028
  6.500000000000001E-003    1.464828098003199E-028
  6.600000000000002E-003    1.624642011105333E-028
  6.700000000000001E-003    1.649138407159690E-028
  6.800000000000001E-003    1.501538986187484E-028
  6.900000000000002E-003    1.154496223892497E-028
  7.000000000000001E-003    5.953660066435436E-029
  7.100000000000001E-003   -1.688126528170670E-029
  7.200000000000002E-003   -1.107238875186243E-028
  7.300000000000002E-003   -2.162814010292593E-028
  7.400000000000001E-003   -3.251802551621667E-028
  7.500000000000001E-003   -4.266251444476939E-028
  7.600000000000002E-003   -5.079584491480888E-028
  7.700000000000001E-003   -5.555537849823420E-028
  7.800000000000001E-003   -5.560311965175210E-028
  7.900000000000001E-003   -4.977402874620695E-028
  8.000000000000002E-003   -3.724206829907048E-028
  8.100000000000001E-003   -1.769048046035734E-028
  8.200000000000001E-003    8.530975893491770E-029
  8.300000000000002E-003    4.028146407996016E-028
  8.400000000000001E-003    7.555873463164342E-028
  8.500000000000002E-003    1.115033792356443E-027
  8.600000000000002E-003    1.444953543126187E-027
  8.700000000000001E-003    1.703544912448835E-027
  8.800000000000002E-003    1.846487145176904E-027
  8.900000000000002E-003    1.831024117772907E-027
  9.000000000000001E-003    1.620855145325007E-027
  9.100000000000002E-003    1.191496954300301E-027
  9.200000000000002E-003    5.356602639656429E-028
  9.300000000000001E-003   -3.319344377759012E-028
  9.400000000000002E-003   -1.370942715857376E-027
  9.500000000000001E-003   -2.513649515483497E-027
  9.600000000000001E-003   -3.665710087361798E-027
  9.700000000000002E-003   -4.709867979552900E-027
  9.800000000000001E-003   -5.512938619440147E-027
  9.900000000000001E-003   -5.936062143731011E-027
  1.000000000000000E-002   -5.847877661489391E-027
  1.010000000000000E-002   -5.139898363117169E-027
  1.020000000000000E-002   -3.742941653381895E-027
  1.030000000000000E-002   -1.643146891813852E-027
  1.040000000000000E-002    1.104198668261471E-027
  1.050000000000000E-002    4.364941760421798E-027
  1.060000000000000E-002    7.922365877495723E-027
  1.070000000000000E-002    1.148119713054140E-026
  1.080000000000000E-002    1.468056037837030E-026
  1.090000000000000E-002    1.711647476869006E-026
  1.100000000000000E-002    1.837361071187306E-026
  1.110000000000000E-002    1.806501057559108E-026
  1.120000000000000E-002    1.587742946540585E-026
  1.130000000000000E-002    1.161881960429209E-026
  1.140000000000000E-002    5.263650612292657E-027
  1.150000000000000E-002   -3.009024905455560E-027
  1.160000000000000E-002   -1.279006467117986E-026
  1.170000000000000E-002   -2.343244277059624E-026
  1.180000000000000E-002   -3.406563743873892E-026
  1.190000000000000E-002   -4.363527029022725E-026
  1.200000000000000E-002   -5.096924668918181E-026
  1.210000000000000E-002   -5.486922855579948E-026
  1.220000000000000E-002   -5.422354040578080E-026
  1.230000000000000E-002   -4.813466163046026E-026
  1.240000000000000E-002   -3.605175628243771E-026
  1.250000000000000E-002   -1.789618642784174E-026
  1.260000000000000E-002    5.833764739678333E-027
  1.270000000000000E-002    3.399330095879634E-026
  1.280000000000000E-002    6.477062365527292E-026
  1.290000000000000E-002    9.572728169289147E-026
  1.300000000000000E-002    1.239076023116634E-025
  1.310000000000000E-002    1.460203839515565E-025
  1.320000000000000E-002    1.586895078806536E-025
  1.330000000000000E-002    1.587628315558082E-025
  1.340000000000000E-002    1.436611024600065E-025
  1.350000000000000E-002    1.117408435627620E-025
  1.360000000000000E-002    6.263909660104503E-026
  1.370000000000000E-002   -2.436820508178052E-027
  1.380000000000000E-002   -8.051331981863681E-026
  1.390000000000000E-002   -1.667854739857613E-025
  1.400000000000000E-002   -2.547142367023214E-025
  1.410000000000000E-002   -3.363083788643354E-025
  1.420000000000000E-002   -4.025999247019085E-025
  1.430000000000000E-002   -4.443041802968801E-025
  1.440000000000000E-002   -4.526377151015440E-025
  1.450000000000000E-002   -4.202451626512528E-025
  1.460000000000000E-002   -3.421685110682977E-025
  1.470000000000000E-002   -2.167745424399219E-025
  1.480000000000000E-002   -4.654408003165740E-026
  1.490000000000000E-002    1.613761813615584E-025
  1.500000000000000E-002    3.949569295896850E-025
  1.510000000000000E-002    6.374853806611983E-025
  1.520000000000000E-002    8.682402937889151E-025
  1.530000000000000E-002    1.063664703125374E-024
  1.540000000000000E-002    1.199019728554577E-024
  1.550000000000000E-002    1.250451415754909E-024
  1.560000000000000E-002    1.197353364466277E-024
  1.570000000000000E-002    1.024861478525771E-024
  1.580000000000000E-002    7.262714006189726E-025
  1.590000000000000E-002    3.051447096433397E-025
  1.600000000000000E-002   -2.231470145635756E-025
  1.610000000000000E-002   -8.306761129549830E-025
  1.620000000000000E-002   -1.477223549353303E-024
  1.630000000000000E-002   -2.111704821479437E-024
  1.640000000000000E-002   -2.674829686267883E-024
  1.650000000000000E-002   -3.102970235529591E-024
  1.660000000000000E-002   -3.333099635195194E-024
  1.670000000000000E-002   -3.308537803897906E-024
  1.680000000000000E-002   -2.985135561530181E-024
  1.690000000000000E-002   -2.337415118088989E-024
  1.700000000000000E-002   -1.364121012844665E-024
  1.710000000000000E-002   -9.258072151748196E-026
  1.720000000000000E-002    1.418703824362506E-024
  1.730000000000000E-002    3.079763478208458E-024
  1.740000000000000E-002    4.771584057956771E-024
  1.750000000000000E-002    6.351483708712428E-024
  1.760000000000000E-002    7.661481115609622E-024
  1.770000000000000E-002    8.539414127914407E-024
  1.780000000000000E-002    8.832320645119716E-024
  1.790000000000000E-002    8.411292895454278E-024
  1.800000000000000E-002    7.186770312935948E-024
  1.810000000000000E-002    5.123018877360868E-024
  1.820000000000000E-002    2.250438044130373E-024
  1.830000000000000E-002   -1.325745331945220E-024
  1.840000000000000E-002   -5.421720540302764E-024
  1.850000000000000E-002   -9.777424085688641E-024
  1.860000000000000E-002   -1.406577061842403E-023
  1.870000000000000E-002   -1.790912785408182E-023