 -4.000000000000000E-002    0.000000000000000E+000
 -3.990000000000000E-002    1.624730925084372E-008
 -3.980000000000000E-002    4.784848564980964E-008
 -3.970000000000000E-002    9.210044929651010E-008
 -3.960000000000000E-002    1.448354919037435E-007
 -3.950000000000000E-002    2.009360401698050E-007
 -3.940000000000000E-002    2.549404438398040E-007
 -3.930000000000000E-002    3.016485753168734E-007
 -3.920000000000000E-002    3.366381012272823E-007
 -3.910000000000000E-002    3.566183122449952E-007
 -3.900000000000000E-002    3.595754171411557E-007
 -3.890000000000000E-002    3.446982322686661E-007
 -3.880000000000000E-002    3.121088899421103E-007
 -3.870000000000000E-002    2.624556195381374E-007
 -3.860000000000000E-002    1.964474465018253E-007
 -3.850000000000000E-002    1.144208676193869E-007
 -3.840000000000000E-002    1.602338679679838E-008
 -3.830000000000000E-002   -9.991980146039832E-008
 -3.820000000000000E-002   -2.353195850046615E-007
 -3.810000000000000E-002   -3.925175062412626E-007
 -3.800000000000000E-002   -5.737998900791497E-007
 -3.790000000000000E-002   -7.808009796437454E-007
 -3.780000000000000E-002   -1.013889133439950E-006
 -3.770000000000000E-002   -1.271635316493311E-006
 -3.760000000000000E-002   -1.550457748929584E-006
 -3.750000000000000E-002   -1.844510812553190E-006
 -3.740000000000000E-002   -2.145855049045317E-006
 -3.730000000000000E-002   -2.444900499217321E-006
 -3.720000000000000E-002   -2.731075914926172E-006
 -3.710000000000000E-002   -2.993639003871272E-006
 -3.700000000000000E-002   -3.222520935048985E-006
 -3.690000000000000E-002   -3.409086929354769E-006
 -3.680000000000000E-002   -3.546706977196489E-006
 -3.670000000000000E-002   -3.631054671838229E-006
 -3.660000000000000E-002   -3.660091502960071E-006
 -3.650000000000000E-002   -3.633742586585301E-006
 -3.640000000000000E-002   -3.553310802370714E-006
 -3.630000000000000E-002   -3.420725140960081E-006
 -3.620000000000000E-002   -3.237740396308467E-006
 -3.610000000000000E-002   -3.005219698586828E-006
 -3.600000000000000E-002   -2.722618164671918E-006
 -3.590000000000000E-002   -2.387764082387999E-006
 -3.580000000000000E-002   -1.996984413532763E-006
 -3.570000000000000E-002   -1.545574740591065E-006
 -3.560000000000000E-002   -1.028558371951353E-006
 -3.550000000000000E-002   -4.416310360977148E-007
 -3.540000000000000E-002    2.178433164921215E-007
 -3.530000000000000E-002    9.499344407955383E-007
 -3.520000000000000E-002    1.751491049372652E-006
 -3.510000000000000E-002    2.615838889972061E-006
 -3.500000000000000E-002    3.532902189894109E-006
 -3.490000000000000E-002    4.489755454718004E-006
 -3.480000000000000E-002    5.471553844998360E-006
 -3.470000000000000E-002    6.462734724119022E-006
 -3.460000000000000E-002    7.448341129830177E-006
 -3.450000000000000E-002    8.415292808498053E-006
 -3.440000000000000E-002    9.353438875305936E-006
 -3.430000000000000E-002    1.025624761331771E-005
 -3.420000000000000E-002    1.112103893529432E-005
 -3.410000000000000E-002    1.194872518015560E-005
 -3.400000000000000E-002    1.274309571612542E-005
 -3.390000000000000E-002    1.350974325390812E-005
 -3.380000000000000E-002    1.425478690966998E-005
 -3.370000000000000E-002    1.498356719634325E-005
 -3.360000000000000E-002    1.569950568335461E-005
 -3.350000000000000E-002    1.640329385501873E-005
 -3.340000000000000E-002    1.709252444726192E-005
 -3.330000000000000E-002    1.776183275207933E-005
 -3.320000000000000E-002    1.840352013800248E-005
 -3.310000000000000E-002    1.900857365740753E-005
 -3.300000000000000E-002    1.956793241918112E-005
 -3.290000000000000E-002    2.007380950321300E-005
 -3.280000000000000E-002    2.052086166198760E-005
 -3.270000000000000E-002    2.090702317679603E-005
 -3.260000000000000E-002    2.123385770435569E-005
 -3.250000000000000E-002    2.150634890024696E-005
 -3.240000000000000E-002    2.173213000937862E-005
 -3.230000000000000E-002    2.192024070556887E-005
 -3.220000000000000E-002    2.207955363421149E-005
 -3.210000000000000E-002    2.221709714662623E-005
 -3.200000000000000E-002    2.233648666244475E-005
 -3.190000000000000E-002    2.243670933262295E-005
 -3.180000000000000E-002    2.251143127615653E-005
 -3.170000000000000E-002    2.254896313050351E-005
 -3.160000000000000E-002    2.253291056659028E-005
 -3.150000000000000E-002    2.244345667101861E-005
 -3.140000000000000E-002    2.225912991272097E-005
 -3.130000000000000E-002    2.195885097020924E-005
 -3.120000000000000E-002    2.152399062425288E-005
 -3.110000000000000E-002    2.094018691942332E-005
 -3.100000000000000E-002    2.019867480611769E-005
 -3.090000000000000E-002    1.929695315132517E-005
 -3.080000000000000E-002    1.823870305290203E-005
 -3.070000000000000E-002    1.703294009479084E-005
 -3.060000000000000E-002    1.569252056334675E-005
 -3.050000000000000E-002    1.423219808657880E-005
 -3.040000000000000E-002    1.266644255937607E-005
 -3.030000000000000E-002    1.100735656473063E-005
 -3.020000000000000E-002    9.262911257059759E-006
 -3.010000000000000E-002    7.435768003022110E-006
 -3.000000000000000E-002    5.522772406513799E-006
 -2.990000000000000E-002    3.515263591393628E-006
 -2.980000000000000E-002    1.400053737062511E-006
 -2.970000000000000E-002   -8.390233268063954E-007
 -2.960000000000000E-002   -3.219213703999054E-006
 -2.950000000000000E-002   -5.756937723338174E-006
 -2.940000000000000E-002   -8.466071889471122E-006
 -2.930000000000000E-002   -1.135675799520384E-005
 -2.920000000000000E-002   -1.443491955096027E-005
 -2.910000000000000E-002   -1.770250726785106E-005
 -2.900000000000000E-002   -2.115858672303147E-005
 -2.890000000000000E-002   -2.480108122424587E-005
 -2.880000000000000E-002   -2.862896098764395E-005
 -2.870000000000000E-002   -3.264464006689944E-005
 -2.860000000000000E-002   -3.685626847476228E-005
 -2.850000000000000E-002   -4.127959408266237E-005
 -2.840000000000000E-002   -4.593917031740691E-005
 -2.830000000000000E-002   -5.086876281928679E-005
 -2.820000000000000E-002   -5.611088562432774E-005
 -2.810000000000000E-002   -6.171542663831058E-005
 -2.800000000000000E-002   -6.773772481975990E-005
 -2.790000000000000E-002   -7.423619463610477E-005
 -2.780000000000000E-002   -8.126980266799659E-005
 -2.770000000000000E-002   -8.889583712353967E-005
 -2.760000000000000E-002   -9.716806710710645E-005
 -2.750000000000000E-002   -1.061357451802960E-004
 -2.740000000000000E-002   -1.158433715207803E-004
 -2.730000000000000E-002   -1.263314655844181E-004
 -2.720000000000000E-002   -1.376381091947833E-004
 -2.710000000000000E-002   -1.498009904861092E-004
 -2.700000000000000E-002   -1.628599793073681E-004
 -2.690000000000000E-002   -1.768596311459377E-004
 -2.680000000000000E-002   -1.918514373774269E-004
 -2.670000000000000E-002   -2.078955845631601E-004
 -2.660000000000000E-002   -2.250619630846042E-004
 -2.650000000000000E-002   -2.434303381654867E-004
 -2.640000000000000E-002   -2.630898315409990E-004
 -2.630000000000000E-002   -2.841374436093336E-004
 -2.620000000000000E-002   -3.066766008628400E-004
 -2.610000000000000E-002   -3.308149056324213E-004
 -2.600000000000000E-002   -3.566625871822356E-004
 -2.590000000000000E-002   -3.843306018337979E-004
 -2.580000000000000E-002   -4.139303687483800E-004
 -2.570000000000000E-002   -4.455731541420809E-004
 -2.560000000000000E-002   -4.793710322783516E-004
 -2.550000000000000E-002   -5.154383711401598E-004
 -2.540000000000000E-002   -5.538939757414869E-004
 -2.530000000000000E-002   -5.948634402863129E-004
 -2.520000000000000E-002   -6.384819003174227E-004
 -2.510000000000000E-002   -6.848964607446130E-004
 -2.500000000000000E-002   -7.342678328526557E-004
 -2.490000000000000E-002   -7.867723827598316E-004
 -2.480000000000000E-002   -8.426021610593959E-004
 -2.470000000000000E-002   -9.019649934990202E-004
 -2.460000000000000E-002   -9.650840686869418E-004
 -2.450000000000000E-002   -1.032195543997068E-003
 -2.440000000000000E-002   -1.103548006773430E-003
 -2.430000000000000E-002   -1.179400221218011E-003
 -2.420000000000000E-002   -1.260019502571981E-003
 -2.410000000000000E-002   -1.345680884559927E-003
 -2.400000000000000E-002   -1.436666318939079E-003
 -2.390000000000000E-002   -1.533265181691630E-003
 -2.380000000000000E-002   -1.635775211923821E-003
 -2.370000000000000E-002   -1.744502979399359E-003
 -2.360000000000000E-002   -1.859767211179479E-003
 -2.350000000000000E-002   -1.981900308555931E-003
 -2.340000000000000E-002   -2.111250648408126E-003
 -2.330000000000000E-002   -2.248185021287159E-003
 -2.320000000000000E-002   -2.393090522127344E-003
 -2.310000000000000E-002   -2.546376514015776E-003
 -2.300000000000000E-002   -2.708474729973638E-003
 -2.290000000000000E-002   -2.879840212897878E-003
 -2.280000000000000E-002   -3.060951923827283E-003
 -2.270000000000000E-002   -3.252311963784460E-003
 -2.260000000000000E-002   -3.454445289627444E-003
 -2.250000000000000E-002   -3.667898982086649E-003
 -2.240000000000000E-002   -3.893243059128990E-003
 -2.230000000000000E-002   -4.131069073344219E-003
 -2.220000000000000E-002   -4.381991958294751E-003
 -2.210000000000000E-002   -4.646648808993052E-003
 -2.200000000000000E-002   -4.925700490334079E-003
 -2.190000000000000E-002   -5.219834288385270E-003
 -2.180000000000000E-002   -5.529763459427172E-003
 -2.170000000000000E-002   -5.856231049347949E-003
 -2.160000000000000E-002   -6.200010282719145E-003
 -2.150000000000000E-002   -6.561905912748989E-003
 -2.140000000000000E-002   -6.942757235934819E-003
 -2.130000000000000E-002   -7.343439406175035E-003
 -2.120000000000000E-002   -7.764863871829208E-003
 -2.110000000000000E-002   -8.207979366889429E-003
 -2.100000000000000E-002   -8.673772893695062E-003
 -2.090000000000000E-002   -9.163272797813423E-003
 -2.080000000000000E-002   -9.677544858222024E-003
 -2.070000000000000E-002   -1.021769379462844E-002
 -2.060000000000000E-002   -1.078486783977540E-002
 -2.050000000000000E-002   -1.138025269047339E-002
 -2.040000000000000E-002   -1.200507461685892E-002
 -2.030000000000000E-002   -1.266060158445722E-002
 -2.020000000000000E-002   -1.334814291737286E-002
 -2.010000000000000E-002   -1.406904846651095E-002
 -2.000000000000000E-002   -1.482470874414009E-002
 -1.990000000000000E-002   -1.561655853560294E-002
 -1.980000000000000E-002   -1.644607974653245E-002
 -1.970000000000000E-002   -1.731479185326336E-002
 -1.960000000000000E-002   -1.822426860762418E-002
 -1.950000000000000E-002   -1.917613328785759E-002
 -1.940000000000000E-002   -2.017205385820747E-002
 -1.930000000000000E-002   -2.121375597334018E-002
 -1.920000000000000E-002   -2.230302160687270E-002
 -1.910000000000000E-002   -2.344168325991121E-002
 -1.900000000000000E-002   -2.463163783106039E-002
 -1.890000000000000E-002   -2.587484185098649E-002
 -1.880000000000000E-002   -2.717330504271897E-002
 -1.870000000000000E-002   -2.852910406049095E-002
 -1.860000000000000E-002   -2.994437189673992E-002
 -1.850000000000000E-002   -3.142130487501052E-002
 -1.840000000000000E-002   -3.296215665693753E-002
 -1.830000000000000E-002   -3.456923644801838E-002
 -1.820000000000000E-002   -3.624491597250289E-002
 -1.810000000000000E-002   -3.799161981043474E-002
 -1.800000000000000E-002   -3.981183579512450E-002
 -1.790000000000000E-002   -4.170810168446647E-002
 -1.780000000000000E-002   -4.368302179273006E-002
 -1.770000000000000E-002   -4.573925237936192E-002
 -1.760000000000000E-002   -4.787951512514872E-002
 -1.750000000000000E-002   -5.010660291142666E-002
 -1.740000000000000E-002   -5.242336706372873E-002
 -1.730000000000000E-002   -5.483272527835886E-002
 -1.720000000000000E-002   -5.733766269713598E-002
 -1.710000000000000E-002   -5.994124123153862E-002
 -1.700000000000000E-002   -6.264658216386078E-002
 -1.690000000000000E-002   -6.545687935720039E-002
 -1.680000000000000E-002   -6.837538919171636E-002
 -1.670000000000000E-002   -7.140543665783307E-002
 -1.660000000000000E-002   -7.455039471522733E-002
 -1.650000000000000E-002   -7.781370386657648E-002
 -1.640000000000000E-002   -8.119885262979067E-002
 -1.630000000000000E-002   -8.470938464851756E-002
 -1.620000000000000E-002   -8.834887934301817E-002
 -1.610000000000000E-002   -9.212099103288135E-002
 -1.600000000000000E-002   -9.602939851674445E-002
 -1.590000000000000E-002   -0.100077835547139     
 -1.580000000000000E-002   -0.104270080340186     
 -1.570000000000000E-002   -0.108609968251667     
 -1.560000000000000E-002   -0.113101378416618     
 -1.550000000000000E-002   -0.117748253717147     
 -1.540000000000000E-002   -0.122554569458813     
 -1.530000000000000E-002   -0.127524358691200     
 -1.520000000000000E-002   -0.132661687465398     
 -1.510000000000000E-002   -0.137970665083882     
 -1.500000000000000E-002   -0.143455451978490     
 -1.490000000000000E-002   -0.149120227918303     
 -1.480000000000000E-002   -0.154969194104374     
 -1.470000000000000E-002   -0.161006596514578     
 -1.460000000000000E-002   -0.167236662432856     
 -1.450000000000000E-002   -0.173663647296840     
 -1.440000000000000E-002   -0.180291786498741     
 -1.430000000000000E-002   -0.187125357163036     
 -1.420000000000000E-002   -0.194168614762762     
 -1.410000000000000E-002   -0.201425794147597     
 -1.400000000000000E-002   -0.208901116048041     
 -1.390000000000000E-002   -0.216598830054705     
 -1.380000000000000E-002   -0.224523131483484     
 -1.370000000000000E-002   -0.232678218370371     
 -1.360000000000000E-002   -0.241068265738561     
 -1.350000000000000E-002   -0.249697405610349     
 -1.340000000000000E-002   -0.258569762661512     
 -1.330000000000000E-002   -0.267689412169704     
 -1.320000000000000E-002   -0.277060379860139     
 -1.310000000000000E-002   -0.286686647327844     
 -1.300000000000000E-002   -0.296572110666029     
 -1.290000000000000E-002   -0.306720576865781     
 -1.280000000000000E-002   -0.317135825564111     
 -1.270000000000000E-002   -0.327821475557549     
 -1.260000000000000E-002   -0.338781099425841     
 -1.250000000000000E-002   -0.350018120139849     
 -1.240000000000000E-002   -0.361535895090936     
 -1.230000000000000E-002   -0.373337630825561     
 -1.220000000000000E-002   -0.385426361859025     
 -1.210000000000000E-002   -0.397805058130727     
 -1.200000000000000E-002   -0.410476507462043     
 -1.190000000000000E-002   -0.423443425860813     
 -1.180000000000000E-002   -0.436708258246358     
 -1.170000000000000E-002   -0.450273378839869     
 -1.160000000000000E-002   -0.464140911035969     
 -1.150000000000000E-002   -0.478312860303700     
 -1.140000000000000E-002   -0.492791016343360     
 -1.130000000000000E-002   -0.507576993940841     
 -1.120000000000000E-002   -0.522672161009189     
 -1.110000000000000E-002   -0.538077654114829     
 -1.100000000000000E-002   -0.553794409591551     
 -1.090000000000000E-002   -0.569823102435158     
 -1.080000000000000E-002   -0.586164149629087     
 -1.070000000000000E-002   -0.602817721928316     
 -1.060000000000000E-002   -0.619783690301137     
 -1.050000000000000E-002   -0.637061606553218     
 -1.040000000000000E-002   -0.654650854629939     
 -1.030000000000000E-002   -0.672550368322624     
 -1.020000000000000E-002   -0.690758860515576     
 -1.010000000000000E-002   -0.709274690898838     
 -1.000000000000000E-002   -0.728095921033010     
 -9.899999999999999E-003   -0.747220256802207     
 -9.800000000000000E-003   -0.766645007072879     
 -9.699999999999999E-003   -0.786367306747672     
 -9.599999999999999E-003   -0.806383675849476     
 -9.500000000000000E-003   -0.826690513054854     
 -9.399999999999999E-003   -0.847283588855045     
 -9.299999999999999E-003   -0.868158460807721     
 -9.200000000000000E-003   -0.889310258409623     
 -9.099999999999999E-003   -0.910733608505221     
 -8.999999999999999E-003   -0.932422820695297     
 -8.900000000000000E-003   -0.954371775362230     
 -8.799999999999999E-003   -0.976573826319806     
 -8.699999999999999E-003   -0.999022051034419     
 -8.600000000000000E-003    -1.02170888709331     
 -8.499999999999999E-003    -1.04462642475096     
 -8.399999999999999E-003    -1.06776626873963     
 -8.300000000000000E-003    -1.09111956864165     
 -8.199999999999999E-003    -1.11467706558466     
 -8.100000000000000E-003    -1.13842887154861     
 -8.000000000000000E-003    -1.16236475850898     
 -7.899999999999999E-003    -1.18647392134794     
 -7.800000000000000E-003    -1.21074511222607     
 -7.699999999999999E-003    -1.23516664558734     
 -7.599999999999999E-003    -1.25972629726163     
 -7.499999999999999E-003    -1.28441138565133     
 -7.399999999999999E-003    -1.30920876292364     
 -7.299999999999999E-003    -1.33410470581285     
 -7.199999999999999E-003    -1.35908513915046     
 -7.100000000000000E-003    -1.38413530119923     
 -6.999999999999999E-003    -1.40924020038452     
 -6.899999999999999E-003    -1.43438407720340     
 -6.800000000000000E-003    -1.45955081957079     
 -6.699999999999999E-003    -1.48472383110859     
 -6.599999999999999E-003    -1.50988596602932     
 -6.499999999999999E-003    -1.53501970009920     
 -6.399999999999999E-003    -1.56010686640793     
 -6.299999999999999E-003    -1.58512904705619     
 -6.199999999999999E-003    -1.61006725882595     
 -6.100000000000000E-003    -1.63490203655241     
 -5.999999999999999E-003    -1.65961345595421     
 -5.899999999999999E-003    -1.68418127613306     
 -5.800000000000000E-003    -1.70858467270705     
 -5.699999999999999E-003    -1.73280269500069     
 -5.599999999999999E-003    -1.75681359591533     
 -5.499999999999999E-003    -1.78059561825369     
 -5.399999999999999E-003    -1.80412651736115     
 -5.299999999999999E-003    -1.82738360886578     
 -5.199999999999999E-003    -1.85034384550716     
 -5.099999999999999E-003    -1.87298409105977     
 -4.999999999999999E-003    -1.89528042607506     
 -4.899999999999999E-003    -1.91720907611270     
 -4.799999999999999E-003    -1.93874571589584     
 -4.699999999999999E-003    -1.95986588534472     
 -4.599999999999999E-003    -1.98054477493501     
 -4.499999999999999E-003    -2.00075748549550     
 -4.399999999999999E-003    -2.02047876376734     
 -4.299999999999999E-003    -2.03968320022826     
 -4.199999999999999E-003    -2.05834512961350     
 -4.099999999999999E-003    -2.07643899053881     
 -3.999999999999999E-003    -2.09393905037355     
 -3.899999999999999E-003    -2.11081940557529     
 -3.799999999999999E-003    -2.12705402220887     
 -3.699999999999999E-003    -2.14261711942365     
 -3.599999999999999E-003    -2.15748254742643     
 -3.499999999999999E-003    -2.17162453483899     
 -3.399999999999999E-003    -2.18501717794033     
 -3.299999999999999E-003    -2.19763465773586     
 -3.199999999999999E-003    -2.20945137962444     
 -3.099999999999999E-003    -2.22044153141129     
 -2.999999999999999E-003    -2.23057984905310     
 -2.899999999999999E-003    -2.23984110392474     
 -2.799999999999999E-003    -2.24820018408056     
 -2.699999999999999E-003    -2.25563207382706     
 -2.599999999999999E-003    -2.26211251093933     
 -2.499999999999999E-003    -2.26761706705227     
 -2.399999999999999E-003    -2.27212183582334     
 -2.299999999999999E-003    -2.27560343744130     
 -2.199999999999999E-003    -2.27803875868319     
 -2.099999999999999E-003    -2.27940512722022     
 -1.999999999999999E-003    -2.27968038350149     
 -1.899999999999999E-003    -2.27884291887193     
 -1.799999999999999E-003    -2.27687166078797     
 -1.699999999999999E-003    -2.27374610745991     
 -1.599999999999999E-003    -2.26944640863340     
 -1.499999999999999E-003    -2.26395306975771     
 -1.399999999999999E-003    -2.25724759802170     
 -1.299999999999999E-003    -2.24931205534195     
 -1.199999999999999E-003    -2.24012925524803     
 -1.099999999999999E-003    -2.22968256662066     
 -9.999999999999989E-004    -2.21795645356988     
 -8.999999999999990E-004    -2.20493602635900     
 -7.999999999999990E-004    -2.19060697462186     
 -6.999999999999989E-004    -2.17495628336785     
 -5.999999999999990E-004    -2.15797179419598     
 -4.999999999999989E-004    -2.13964206853752     
 -3.999999999999989E-004    -2.11995683692954     
 -2.999999999999989E-004    -2.09890664915712     
 -1.999999999999989E-004    -2.07648321654656     
 -9.999999999999892E-005    -2.05267928828701     
  1.084202172485504E-018    -2.02748862335073     
  1.000000000000011E-004    -2.00090607375702     
  2.000000000000011E-004    -1.97292768673523     
  3.000000000000011E-004    -1.94355055444597     
  4.000000000000011E-004    -1.91277290176499     
  5.000000000000011E-004    -1.88059415325697     
  6.000000000000011E-004    -1.84701485177852     
  7.000000000000011E-004    -1.81203680531143     
  8.000000000000011E-004    -1.77566301485986     
  9.000000000000012E-004    -1.73789761834088     
  1.000000000000001E-003    -1.69874627293057     
  1.100000000000001E-003    -1.65821544855680     
  1.200000000000001E-003    -1.61631328970983     
  1.300000000000001E-003    -1.57304907834551     
  1.400000000000001E-003    -1.52843323723234     
  1.500000000000001E-003    -1.48247761491262     
  1.600000000000001E-003    -1.43519542614136     
  1.700000000000001E-003    -1.38660108791110     
  1.800000000000001E-003    -1.33671032666008     
  1.900000000000001E-003    -1.28554014651732     
  2.000000000000001E-003    -1.23310883917418     
  2.100000000000001E-003    -1.17943609091194     
  2.200000000000001E-003    -1.12454268756472     
  2.300000000000001E-003    -1.06845083263744     
  2.400000000000001E-003    -1.01118397582279     
  2.500000000000001E-003   -0.952766771943268     
  2.600000000000001E-003   -0.893225099383937     
  2.700000000000001E-003   -0.832586076391193     
  2.800000000000001E-003   -0.770878054329618     
  2.900000000000001E-003   -0.708130617681418     
  3.000000000000001E-003   -0.644374510572308     
  3.100000000000001E-003   -0.579641610470365     
  3.200000000000001E-003   -0.513964995026159     
  3.300000000000001E-003   -0.447378779861658     
  3.400000000000001E-003   -0.379918265462993     
  3.500000000000001E-003   -0.311619762317681     
  3.600000000000001E-003   -0.242520648770695     
  3.700000000000001E-003   -0.172659279347108     
  3.800000000000001E-003   -0.102075055443532     
  3.900000000000001E-003   -3.080831570349588E-002
  4.000000000000001E-003    4.109970883585987E-002
  4.100000000000001E-003    0.113606950270598     
  4.200000000000001E-003    0.186670405023750     
  4.300000000000001E-003    0.260246269159686     
  4.400000000000001E-003    0.334290103343823     
  4.500000000000001E-003    0.408756576869533     
  4.600000000000002E-003    0.483599875182442     
  4.700000000000001E-003    0.558773283608806     
  4.800000000000001E-003    0.634229689874665     
  4.900000000000002E-003    0.709921407744357     
  5.000000000000001E-003    0.785800173151043     
  5.100000000000001E-003    0.861817272699066     
  5.200000000000001E-003    0.937923670422672     
  5.300000000000002E-003     1.01406986568557     
  5.400000000000001E-003     1.09020607034849     
  5.500000000000001E-003     1.16628226283783     
  5.600000000000002E-003     1.24224811324981     
  5.700000000000001E-003     1.31805313214591     
  5.800000000000001E-003     1.39364671863240     
  5.900000000000002E-003     1.46897828519776     
  6.000000000000001E-003     1.54399711021416     
  6.100000000000001E-003     1.61865264342143     
  6.200000000000002E-003     1.69289423452329     
  6.300000000000002E-003     1.76667157510192     
  6.400000000000001E-003     1.83993434503427     
  6.500000000000001E-003     1.91263272809802     
  6.600000000000002E-003     1.98471684968395     
  6.700000000000001E-003     2.05613770833024     
  6.800000000000001E-003     2.12684599748850     
  6.900000000000002E-003     2.19679364598379     
  7.000000000000001E-003     2.26593250214180     
  7.100000000000001E-003     2.33421513627111     
  7.200000000000002E-003     2.40159486166010     
  7.300000000000002E-003     2.46802560009396     
  7.400000000000001E-003     2.53346191551835     
  7.500000000000001E-003     2.59785910187785     
  7.600000000000002E-003     2.66117312640011     
  7.700000000000001E-003     2.72336083661917     
  7.800000000000001E-003     2.78438021029451     
  7.900000000000001E-003     2.84418988825612     
  8.000000000000002E-003     2.90274964673964     
  8.100000000000001E-003     2.96002014970602     
  8.200000000000001E-003     3.01596295741998     
  8.300000000000002E-003     3.07054117275792     
  8.400000000000001E-003     3.12371874184817     
  8.500000000000002E-003     3.17546091104645     
  8.600000000000002E-003     3.22573387888556     
  8.700000000000001E-003     3.27450553090883     
  8.800000000000002E-003     3.32174469359433     
  8.900000000000002E-003     3.36742151331351     
  9.000000000000001E-003     3.41150762807579     
  9.100000000000002E-003     3.45397600961008     
  9.200000000000002E-003     3.49480064156168     
  9.300000000000001E-003     3.53395763493398     
  9.400000000000002E-003     3.57142389043539     
  9.500000000000001E-003     3.60717783566157     
  9.600000000000001E-003     3.64119968496731     
  9.700000000000002E-003     3.67347093735063     
  9.800000000000001E-003     3.70397466285405     
  9.900000000000001E-003     3.73269524884791     
  1.000000000000000E-002     3.75961862301122     
  1.010000000000000E-002     3.78473231626318     
  1.020000000000000E-002     3.80802578963617     
  1.030000000000000E-002     3.82948964100979     
  1.040000000000000E-002     3.84911591863389     
  1.050000000000000E-002     3.86689869077387     
  1.060000000000000E-002     3.88283338488326     
  1.070000000000000E-002     3.89691662092364     
  1.080000000000000E-002     3.90914719008241     
  1.090000000000000E-002     3.91952507489369     
  1.100000000000000E-002     3.92805192101062     
  1.110000000000000E-002     3.93473077026965     
  1.120000000000000E-002     3.93956645319643     
  1.130000000000000E-002     3.94256483865433     
  1.140000000000000E-002     3.94373353958419     
  1.150000000000000E-002     3.94308137665441     
  1.160000000000000E-002     3.94061939139415     
  1.170000000000000E-002     3.93635925910888     
  1.180000000000000E-002     3.93031426053333     
  1.190000000000000E-002     3.92249928042209     
  1.200000000000000E-002     3.91293049147304     
  1.210000000000000E-002     3.90162536422404     
  1.220000000000000E-002     3.88860290333195     
  1.230000000000000E-002     3.87388317179175     
  1.240000000000000E-002     3.85748765122462     
  1.250000000000000E-002     3.83943885639340     
  1.260000000000000E-002     3.81976068673637     
  1.270000000000000E-002     3.79847825001582     
  1.280000000000000E-002     3.77561773367942     
  1.290000000000000E-002     3.75120609946039     
  1.300000000000000E-002     3.72527188355539     
  1.310000000000000E-002     3.69784429447386     
  1.320000000000000E-002     3.66895344593548     
  1.330000000000000E-002     3.63863068240635     
  1.340000000000000E-002     3.60690790843802     
  1.350000000000000E-002     3.57381828347326     
  1.360000000000000E-002     3.53939537100459     
  1.370000000000000E-002     3.50367390027718     
  1.380000000000000E-002     3.46668936630892     
  1.390000000000000E-002     3.42847744352826     
  1.400000000000000E-002     3.38907479429627     
  1.410000000000000E-002     3.34851873047668     
  1.420000000000000E-002     3.30684714163923     
  1.430000000000000E-002     3.26409835523126     
  1.440000000000000E-002     3.22031127927001     
  1.450000000000000E-002     3.17552504457888     
  1.460000000000000E-002     3.12977940776298     
  1.470000000000000E-002     3.08311410502875     
  1.480000000000000E-002     3.03556958989154     
  1.490000000000000E-002     2.98718617509838     
  1.500000000000000E-002     2.93800482772581     
  1.510000000000000E-002     2.88806620486139     
  1.520000000000000E-002     2.83741114549129     
  1.530000000000000E-002     2.78608085141511     
  1.540000000000000E-002     2.73411639032299     
  1.550000000000000E-002     2.68155868864386     
  1.560000000000000E-002     2.62844879787670     
  1.570000000000000E-002     2.57482776023496     
  1.580000000000000E-002     2.52073646255134     
  1.590000000000000E-002     2.46621520718538     
  1.600000000000000E-002     2.41130472140514     
  1.610000000000000E-002     2.35604507956122     
  1.620000000000000E-002     2.30047626361426     
  1.630000000000000E-002     2.24463770369928     
  1.640000000000000E-002     2.18856874197960     
  1.650000000000000E-002     2.13230813990980     
  1.660000000000000E-002     2.07589442388443     
  1.670000000000000E-002     2.01936554239796     
  1.680000000000000E-002     1.96275891430169     
  1.690000000000000E-002     1.90611151720098     
  1.700000000000000E-002     1.84945974736365     
  1.710000000000000E-002     1.79283959660957     
  1.720000000000000E-002     1.73628608527211     
  1.730000000000000E-002     1.67983398741403     
  1.740000000000000E-002     1.62351715568098     
  1.750000000000000E-002     1.56736886356946     
  1.760000000000000E-002     1.51142171336455     
  1.770000000000000E-002     1.45570754209992     
  1.780000000000000E-002     1.40025756809482     
  1.790000000000000E-002     1.34510214958017     
  1.800000000000000E-002     1.29027089925765     
  1.810000000000000E-002     1.23579260243736     
  1.820000000000000E-002     1.18169536808888     
  1.830000000000000E-002     1.12800637983014     
  1.840000000000000E-002     1.07475204359865     
  1.850000000000000E-002     1.02195796937322     
  1.860000000000000E-002    0.969648931921700     
  1.870000000000000E-002    0.917848659126999     