 -4.000000000000000E-002    0.000000000000000E+000
 -3.990000000000000E-002    0.000000000000000E+000
 -3.980000000000000E-002    0.000000000000000E+000
 -3.970000000000000E-002    0.000000000000000E+000
 -3.960000000000000E-002    0.000000000000000E+000
 -3.950000000000000E-002    0.000000000000000E+000
 -3.940000000000000E-002    0.000000000000000E+000
 -3.930000000000000E-002    0.000000000000000E+000
 -3.920000000000000E-002    0.000000000000000E+000
 -3.910000000000000E-002    0.000000000000000E+000
 -3.900000000000000E-002    0.000000000000000E+000
 -3.890000000000000E-002    0.000000000000000E+000
 -3.880000000000000E-002    0.000000000000000E+000
 -3.870000000000000E-002    0.000000000000000E+000
 -3.860000000000000E-002    0.000000000000000E+000
 -3.850000000000000E-002    0.000000000000000E+000
 -3.840000000000000E-002    0.000000000000000E+000
 -3.830000000000000E-002    0.000000000000000E+000
 -3.820000000000000E-002    0.000000000000000E+000
 -3.810000000000000E-002    0.000000000000000E+000
 -3.800000000000000E-002    0.000000000000000E+000
 -3.790000000000000E-002    0.000000000000000E+000
 -3.780000000000000E-002    0.000000000000000E+000
 -3.770000000000000E-002    0.000000000000000E+000
 -3.760000000000000E-002    0.000000000000000E+000
 -3.750000000000000E-002    0.000000000000000E+000
 -3.740000000000000E-002    0.000000000000000E+000
 -3.730000000000000E-002    0.000000000000000E+000
 -3.720000000000000E-002    0.000000000000000E+000
 -3.710000000000000E-002    0.000000000000000E+000
 -3.700000000000000E-002    0.000000000000000E+000
 -3.690000000000000E-002    0.000000000000000E+000
 -3.680000000000000E-002    0.000000000000000E+000
 -3.670000000000000E-002    0.000000000000000E+000
 -3.660000000000000E-002    0.000000000000000E+000
 -3.650000000000000E-002    0.000000000000000E+000
 -3.640000000000000E-002    0.000000000000000E+000
 -3.630000000000000E-002    0.000000000000000E+000
 -3.620000000000000E-002    0.000000000000000E+000
 -3.610000000000000E-002    0.000000000000000E+000
 -3.600000000000000E-002    0.000000000000000E+000
 -3.590000000000000E-002    0.000000000000000E+000
 -3.580000000000000E-002    0.000000000000000E+000
 -3.570000000000000E-002    0.000000000000000E+000
 -3.560000000000000E-002    0.000000000000000E+000
 -3.550000000000000E-002    0.000000000000000E+000
 -3.540000000000000E-002    0.000000000000000E+000
 -3.530000000000000E-002    0.000000000000000E+000
 -3.520000000000000E-002    0.000000000000000E+000
 -3.510000000000000E-002    0.000000000000000E+000
 -3.500000000000000E-002    0.000000000000000E+000
 -3.490000000000000E-002    1.341908628140898E-047
 -3.480000000000000E-002    1.244359225708283E-046
 -3.470000000000000E-002    2.220336725788387E-046
 -3.460000000000000E-002    2.040398978681838E-046
 -3.450000000000000E-002    6.773708959116262E-047
 -3.440000000000000E-002   -3.949300888077977E-046
 -3.430000000000000E-002   -1.653166093465226E-045
 -3.420000000000000E-002   -4.125171619488182E-045
 -3.410000000000000E-002   -9.152145861766244E-045
 -3.400000000000000E-002   -1.778937247710547E-044
 -3.390000000000000E-002   -3.073986962288200E-044
 -3.380000000000000E-002   -5.020796681263577E-044
 -3.370000000000000E-002   -7.587639146555242E-044
 -3.360000000000000E-002   -1.058204538929028E-043
 -3.350000000000000E-002   -1.314078512304954E-043
 -3.340000000000000E-002   -1.304083743495291E-043
 -3.330000000000000E-002   -6.609541242190970E-044
 -3.320000000000000E-002    1.265422197951401E-043
 -3.310000000000000E-002    5.489681802639230E-043
 -3.300000000000000E-002    1.341825863065750E-042
 -3.290000000000000E-002    2.675371804160652E-042
 -3.280000000000000E-002    4.722748084114706E-042
 -3.270000000000000E-002    7.587802466378957E-042
 -3.260000000000000E-002    1.117738010720150E-041
 -3.250000000000000E-002    1.499253610785842E-041
 -3.240000000000000E-002    1.783003939753387E-041
 -3.230000000000000E-002    1.739524517323750E-041
 -3.220000000000000E-002    9.883297131289693E-042
 -3.210000000000000E-002   -1.036806988586582E-041
 -3.200000000000000E-002   -5.093673507032960E-041
 -3.190000000000000E-002   -1.207490826602298E-040
 -3.180000000000000E-002   -2.284331236060139E-040
 -3.170000000000000E-002   -3.789993230835093E-040
 -3.160000000000000E-002   -5.682594468997337E-040
 -3.150000000000000E-002   -7.745302884715327E-040
 -3.140000000000000E-002   -9.476482365793037E-040
 -3.130000000000000E-002   -9.961955385467935E-040
 -3.120000000000000E-002   -7.753450811606801E-040
 -3.110000000000000E-002   -7.980120912168821E-041
 -3.100000000000000E-002    1.350980926507009E-039
 -3.090000000000000E-002    3.805244277674960E-039
 -3.080000000000000E-002    7.536521105379691E-039
 -3.070000000000000E-002    1.265298925279512E-038
 -3.060000000000000E-002    1.894765096314126E-038
 -3.050000000000000E-002    2.566621861433575E-038
 -3.040000000000000E-002    3.122527764323107E-038
 -3.030000000000000E-002    3.291890514137387E-038
 -3.020000000000000E-002    2.668851896661967E-038
 -3.010000000000000E-002    7.077122953178924E-039
 -3.000000000000000E-002   -3.245976120249506E-038
 -2.990000000000000E-002   -9.866866775138712E-038
 -2.980000000000000E-002   -1.967977800393882E-037
 -2.970000000000000E-002   -3.278657809168131E-037
 -2.960000000000000E-002   -4.847874834402450E-037
 -2.950000000000000E-002   -6.474598739012366E-037
 -2.940000000000000E-002   -7.772716430036442E-037
 -2.930000000000000E-002   -8.120182349311965E-037
 -2.920000000000000E-002   -6.628709838903440E-037
 -2.910000000000000E-002   -2.157987977844457E-037
 -2.900000000000000E-002    6.594481563895972E-037
 -2.890000000000000E-002    2.089227834548284E-036
 -2.880000000000000E-002    4.161298540063648E-036
 -2.870000000000000E-002    6.873068285717576E-036
 -2.860000000000000E-002    1.006272486777225E-035
 -2.850000000000000E-002    1.332726205476206E-035
 -2.840000000000000E-002    1.593745643461134E-035
 -2.830000000000000E-002    1.676775623086008E-035
 -2.820000000000000E-002    1.426821671486924E-035
 -2.810000000000000E-002    6.514807169188449E-036
 -2.800000000000000E-002   -8.618536267704201E-036
 -2.790000000000000E-002   -3.312083045796056E-035
 -2.780000000000000E-002   -6.829969534722574E-035
 -2.770000000000000E-002   -1.140137956671251E-034
 -2.760000000000000E-002   -1.677014854771513E-034
 -2.750000000000000E-002   -2.232824045469172E-034
 -2.740000000000000E-002   -2.700857516783473E-034
 -2.730000000000000E-002   -2.920514926285602E-034
 -2.720000000000000E-002   -2.675482378066966E-034
 -2.710000000000000E-002   -1.702367718244726E-034
 -2.700000000000000E-002    2.854433138876773E-035
 -2.690000000000000E-002    3.554170145162064E-034
 -2.680000000000000E-002    8.283000357643714E-034
 -2.670000000000000E-002    1.447387261100056E-033
 -2.660000000000000E-002    2.184148229120003E-033
 -2.650000000000000E-002    2.969342885388084E-033
 -2.640000000000000E-002    3.681805196525978E-033
 -2.630000000000000E-002    4.140598443894440E-033
 -2.620000000000000E-002    4.103962129537604E-033
 -2.610000000000000E-002    3.279081326019546E-033
 -2.600000000000000E-002    1.346891551281516E-033
 -2.590000000000000E-002   -1.994374659862395E-033
 -2.580000000000000E-002   -6.964648156877628E-033
 -2.570000000000000E-002   -1.361687122775544E-032
 -2.560000000000000E-002   -2.173551433129121E-032
 -2.550000000000000E-002   -3.072817887967252E-032
 -2.540000000000000E-002   -3.952572905164598E-032
 -2.530000000000000E-002   -4.651271914421276E-032
 -2.520000000000000E-002   -4.951550826794837E-032
 -2.510000000000000E-002   -4.587910336201308E-032
 -2.500000000000000E-002   -3.266386945803300E-032
 -2.490000000000000E-002   -6.988154961715738E-033
 -2.480000000000000E-002    3.346902440013680E-032
 -2.470000000000000E-002    8.981081672554263E-032
 -2.460000000000000E-002    1.611442704410143E-031
 -2.450000000000000E-002    2.437497031075862E-031
 -2.440000000000000E-002    3.303060055212821E-031
 -2.430000000000000E-002    4.093208360846751E-031
 -2.420000000000000E-002    4.649487761356832E-031
 -2.410000000000000E-002    4.774016978814190E-031
 -2.400000000000000E-002    4.241530387876128E-031
 -2.390000000000000E-002    2.821034439548762E-031
 -2.380000000000000E-002    3.080021607660016E-032
 -2.370000000000000E-002   -3.433179635932614E-031
 -2.360000000000000E-002   -8.418463866972049E-031
 -2.350000000000000E-002   -1.448914233273358E-030
 -2.340000000000000E-002   -2.125893972275231E-030
 -2.330000000000000E-002   -2.807191871656050E-030
 -2.320000000000000E-002   -3.398187486824532E-030
 -2.310000000000000E-002   -3.776514678938362E-030
 -2.300000000000000E-002   -3.797867011099617E-030
 -2.290000000000000E-002   -3.307333129553218E-030
 -2.280000000000000E-002   -2.156860303046736E-030
 -2.270000000000000E-002   -2.287945396815819E-031
 -2.260000000000000E-002    2.535452087193030E-030
 -2.250000000000000E-002    6.103669985434995E-030
 -2.240000000000000E-002    1.032136773260648E-029
 -2.230000000000000E-002    1.488508588200909E-029
 -2.220000000000000E-002    1.932611792213462E-029
 -2.210000000000000E-002    2.301089307477876E-029
 -2.200000000000000E-002    2.516426718539160E-029
 -2.190000000000000E-002    2.492100446143279E-029
 -2.180000000000000E-002    2.140872047677733E-029
 -2.170000000000000E-002    1.386223617910127E-029
 -2.160000000000000E-002    1.764842177768387E-030
 -2.150000000000000E-002   -1.499348807637388E-029
 -2.140000000000000E-002   -3.595684761529911E-029
 -2.130000000000000E-002   -5.996477402406388E-029
 -2.120000000000000E-002   -8.506061969041431E-029
 -2.110000000000000E-002   -1.084756207274808E-028
 -2.100000000000000E-002   -1.267166601074839E-028
 -2.090000000000000E-002   -1.357802971829573E-028
 -2.080000000000000E-002   -1.315056442585790E-028
 -2.070000000000000E-002   -1.100630434927794E-028
 -2.060000000000000E-002   -6.855568085454269E-029
 -2.050000000000000E-002   -5.687971041572345E-030
 -2.040000000000000E-002    7.756912812141420E-029
 -2.030000000000000E-002    1.774070213012902E-028
 -2.020000000000000E-002    2.868084757934007E-028
 -2.010000000000000E-002    3.954865306490517E-028
 -2.000000000000000E-002    4.902326779411071E-028
 -1.990000000000000E-002    5.557462959611108E-028
 -1.980000000000000E-002    5.759713943594090E-028
 -1.970000000000000E-002    5.359047810093127E-028
 -1.960000000000000E-002    4.237656544560966E-028
 -1.950000000000000E-002    2.333376893153650E-028
 -1.940000000000000E-002   -3.377837677037493E-029
 -1.930000000000000E-002   -3.663196683950720E-028
 -1.920000000000000E-002   -7.422671626199030E-028
 -1.910000000000000E-002   -1.128832565073827E-027
 -1.900000000000000E-002   -1.483792614308283E-027
 -1.890000000000000E-002   -1.758324238524961E-027
 -1.880000000000000E-002   -1.901335540858951E-027
 -1.870000000000000E-002   -1.865093436503213E-027
 -1.860000000000000E-002   -1.611741464686321E-027
 -1.850000000000000E-002   -1.120103938330610E-027
 -1.840000000000000E-002   -3.920114298535255E-028
 -1.830000000000000E-002    5.427101908988849E-028
 -1.820000000000000E-002    1.623452066686067E-027
 -1.810000000000000E-002    2.759003741095547E-027
 -1.800000000000000E-002    3.831270800734380E-027
 -1.790000000000000E-002    4.702798298291476E-027
 -1.780000000000000E-002    5.228005317739975E-027
 -1.770000000000000E-002    5.267630220083892E-027
 -1.760000000000000E-002    4.705485965696331E-027
 -1.750000000000000E-002    3.466260383141515E-027
 -1.740000000000000E-002    1.532812610224193E-027
 -1.730000000000000E-002   -1.038773632101258E-027
 -1.720000000000000E-002   -4.108208362488402E-027
 -1.710000000000000E-002   -7.445882785058544E-027
 -1.700000000000000E-002   -1.073530637098500E-026
 -1.690000000000000E-002   -1.358454908849400E-026
 -1.680000000000000E-002   -1.554782129741418E-026
 -1.670000000000000E-002   -1.615785666253220E-026
 -1.660000000000000E-002   -1.496914220878974E-026
 -1.650000000000000E-002   -1.161113201893778E-026
 -1.640000000000000E-002   -5.849417885393474E-027
 -1.630000000000000E-002    2.348718707978821E-027
 -1.620000000000000E-002    1.274977746774259E-026
 -1.610000000000000E-002    2.479799983761921E-026
 -1.600000000000000E-002    3.757727557451010E-026
 -1.590000000000000E-002    4.980202705190117E-026
 -1.580000000000000E-002    5.984878383474068E-026
 -1.570000000000000E-002    6.583931337656949E-026
 -1.560000000000000E-002    6.578334013339928E-026
 -1.550000000000000E-002    5.778358104221859E-026
 -1.540000000000000E-002    4.029797012302169E-026
 -1.530000000000000E-002    1.244381628408997E-026
 -1.520000000000000E-002   -2.568297250010736E-026
 -1.510000000000000E-002   -7.271206333598390E-026
 -1.500000000000000E-002   -1.257745676193819E-025
 -1.490000000000000E-002   -1.804045690710409E-025
 -1.480000000000000E-002   -2.306195271327445E-025
 -1.470000000000000E-002   -2.692235198406139E-025
 -1.460000000000000E-002   -2.883585902725917E-025
 -1.450000000000000E-002   -2.803010115646334E-025
 -1.440000000000000E-002   -2.384630535090727E-025
 -1.430000000000000E-002   -1.585201866852226E-025
 -1.420000000000000E-002   -3.954375085086844E-026
 -1.410000000000000E-002    1.150136080782764E-025
 -1.400000000000000E-002    2.966508068215067E-025
 -1.390000000000000E-002    4.916383649192752E-025
 -1.380000000000000E-002    6.814662750579387E-025
 -1.370000000000000E-002    8.440053252910602E-025
 -1.360000000000000E-002    9.553866237545440E-025
 -1.350000000000000E-002    9.925044621869210E-025
 -1.340000000000000E-002    9.359409250705394E-025
 -1.330000000000000E-002    7.730094266914543E-025
 -1.320000000000000E-002    5.005395282426465E-025
 -1.310000000000000E-002    1.269873240920773E-025
 -1.300000000000000E-002   -3.265273217885708E-025
 -1.290000000000000E-002   -8.265764304812987E-025
 -1.280000000000000E-002   -1.329357762007404E-024
 -1.270000000000000E-002   -1.784204010675613E-024
 -1.260000000000000E-002   -2.138448085485992E-024
 -1.250000000000000E-002   -2.343210097529277E-024
 -1.240000000000000E-002   -2.359481136415236E-024
 -1.230000000000000E-002   -2.163761142978593E-024
 -1.220000000000000E-002   -1.752470665956901E-024
 -1.210000000000000E-002   -1.144437180258566E-024
 -1.200000000000000E-002   -3.809352778834734E-025
 -1.190000000000000E-002    4.769532709986700E-025
 -1.180000000000000E-002    1.353562850490494E-024
 -1.170000000000000E-002    2.165989929611122E-024
 -1.160000000000000E-002    2.832794945845739E-024
 -1.150000000000000E-002    3.283055664077161E-024
 -1.140000000000000E-002    3.464690724352202E-024
 -1.130000000000000E-002    3.351018200686120E-024
 -1.120000000000000E-002    2.944743734336758E-024
 -1.110000000000000E-002    2.278904831213638E-024
 -1.100000000000000E-002    1.414704018712810E-024
 -1.090000000000000E-002    4.365640227851716E-025
 -1.080000000000000E-002   -5.549306272302239E-025
 -1.070000000000000E-002   -1.451371548172952E-024
 -1.060000000000000E-002   -2.145298152130257E-024
 -1.050000000000000E-002   -2.538740585700846E-024
 -1.040000000000000E-002   -2.551178550997279E-024
 -1.030000000000000E-002   -2.126917988864668E-024
 -1.020000000000000E-002   -1.242192673282507E-024
 -1.010000000000000E-002    8.759254253046511E-026
 -1.000000000000000E-002    1.800210201087977E-024
 -9.899999999999999E-003    3.778748689994446E-024
 -9.800000000000000E-003    5.844517717081870E-024
 -9.699999999999999E-003    7.752580863191334E-024
 -9.599999999999999E-003    9.192725492938614E-024
 -9.500000000000000E-003    9.799231461088345E-024
 -9.399999999999999E-003    9.172869441625981E-024
 -9.299999999999999E-003    6.917783782861473E-024
 -9.200000000000000E-003    2.694203816643179E-024
 -9.099999999999999E-003   -3.714695192225377E-024
 -8.999999999999999E-003   -1.232681924625421E-023
 -8.900000000000000E-003   -2.288467138994779E-023
 -8.799999999999999E-003   -3.479029409635581E-023
 -8.699999999999999E-003   -4.706579194032498E-023
 -8.600000000000000E-003   -5.835412674351714E-023
 -8.499999999999999E-003   -6.697299493755899E-023
 -8.399999999999999E-003   -7.103021699902959E-023
 -8.300000000000000E-003   -6.860192826433646E-023
 -8.199999999999999E-003   -5.796581412737430E-023
 -8.100000000000000E-003   -3.787157775563615E-023
 -8.000000000000000E-003   -7.820874902015288E-024
 -7.899999999999999E-003    3.167873758513030E-023
 -7.800000000000000E-003    7.892558940538579E-023
 -7.699999999999999E-003    1.309404679360002E-022
 -7.599999999999999E-003    1.835204786909041E-022
 -7.499999999999999E-003    2.314503211464455E-022
 -7.399999999999999E-003    2.688738083492286E-022
 -7.299999999999999E-003    2.898078482523052E-022
 -7.199999999999999E-003    2.887596642609124E-022
 -7.100000000000000E-003    2.613893579997938E-022
 -6.999999999999999E-003    2.051458891067152E-022
 -6.899999999999999E-003    1.197994678457497E-022
 -6.800000000000000E-003    7.797420663483052E-024
 -6.699999999999999E-003   -1.256148398247256E-022
 -6.599999999999999E-003   -2.725423384107593E-022
 -6.499999999999999E-003   -4.228627779877836E-022
 -6.399999999999999E-003   -5.648940275095431E-022
 -6.299999999999999E-003   -6.862473270240466E-022
 -6.199999999999999E-003   -7.747829039763720E-022
 -6.100000000000000E-003   -8.195716434225937E-022
 -5.999999999999999E-003   -8.117675389676056E-022
 -5.899999999999999E-003   -7.453100337897217E-022
 -5.800000000000000E-003   -6.174035475711183E-022
 -5.699999999999999E-003   -4.287563956238870E-022
 -5.599999999999999E-003   -1.836006448462895E-022
 -5.499999999999999E-003    1.104534790312382E-022
 -5.399999999999999E-003    4.426515700259467E-022
 -5.299999999999999E-003    7.993363940854269E-022
 -5.199999999999999E-003    1.164130561133129E-021
 -5.099999999999999E-003    1.518029818345890E-021
 -4.999999999999999E-003    1.839426631008953E-021
 -4.899999999999999E-003    2.104143846891500E-021
 -4.799999999999999E-003    2.285614779749675E-021
 -4.699999999999999E-003    2.355388610522038E-021
 -4.599999999999999E-003    2.284156062818246E-021
 -4.499999999999999E-003    2.043473635820359E-021
 -4.399999999999999E-003    1.608305040108818E-021
 -4.299999999999999E-003    9.603956363788066E-022
 -4.199999999999999E-003    9.236614364996473E-023
 -4.099999999999999E-003   -9.877503645330793E-022
 -3.999999999999999E-003   -2.251961407151475E-021
 -3.899999999999999E-003   -3.648337699623002E-021
 -3.799999999999999E-003   -5.098292876672784E-021
 -3.699999999999999E-003   -6.495848017717484E-021
 -3.599999999999999E-003   -7.709577697989724E-021
 -3.499999999999999E-003   -8.587813532940167E-021
 -3.399999999999999E-003   -8.967451085499621E-021
 -3.299999999999999E-003   -8.686416951834852E-021
 -3.199999999999999E-003   -7.599454963272503E-021
 -3.099999999999999E-003   -5.596476141905820E-021
 -2.999999999999999E-003   -2.622259682553691E-021
 -2.899999999999999E-003    1.304118358272582E-021
 -2.799999999999999E-003    6.072118218406346E-021
 -2.699999999999999E-003    1.146705032995795E-020
 -2.599999999999999E-003    1.716417195798355E-020
 -2.499999999999999E-003    2.273176164992095E-020
 -2.399999999999999E-003    2.764497650435518E-020
 -2.299999999999999E-003    3.131174458624818E-020
 -2.199999999999999E-003    3.311102500946406E-020
 -2.099999999999999E-003    3.244273110860266E-020
 -1.999999999999999E-003    2.878730052658546E-020
 -1.899999999999999E-003    2.177156078743003E-020
 -1.799999999999999E-003    1.123614894854060E-020
 -1.699999999999999E-003   -2.701417051388426E-021
 -1.599999999999999E-003   -1.959490911483620E-020
 -1.499999999999999E-003   -3.863604193105460E-020
 -1.399999999999999E-003   -5.864680877743642E-020
 -1.299999999999999E-003   -7.810366645016546E-020
 -1.199999999999999E-003   -9.519822913782825E-020
 -1.099999999999999E-003   -1.079365374847335E-019
 -9.999999999999989E-004   -1.142757918419928E-019
 -8.999999999999990E-004   -1.122937928603072E-019
 -7.999999999999990E-004   -1.003823377461154E-019
 -6.999999999999989E-004   -7.745185527996202E-020
 -5.999999999999990E-004   -4.313121304654339E-020
 -4.999999999999989E-004    2.056043202034290E-021
 -3.999999999999989E-004    5.655887577261571E-020
 -2.999999999999989E-004    1.177291869206702E-019
 -1.999999999999989E-004    1.818328983473907E-019
 -9.999999999999892E-005    2.441552557830697E-019
  1.084202172485504E-018    2.992082690044679E-019
  1.000000000000011E-004    3.410404737217492E-019
  2.000000000000011E-004    3.636410419781453E-019
  3.000000000000011E-004    3.614210147449488E-019
  4.000000000000011E-004    3.297455700423219E-019
  5.000000000000011E-004    2.654829421072341E-019
  6.000000000000011E-004    1.675291116031703E-019
  7.000000000000011E-004    3.726277938234975E-020
  8.000000000000011E-004   -1.211163820972052E-019
  9.000000000000012E-004   -3.004119635416598E-019
  1.000000000000001E-003   -4.904577070989617E-019
  1.100000000000001E-003   -6.783791682711198E-019
  1.200000000000001E-003   -8.491095486024813E-019
  1.300000000000001E-003   -9.861639239477201E-019
  1.400000000000001E-003   -1.072657507758159E-018
  1.500000000000001E-003   -1.092533786077955E-018
  1.600000000000001E-003   -1.031947182876854E-018
  1.700000000000001E-003   -8.807236526685308E-019
  1.800000000000001E-003   -6.338034908901786E-019
  1.900000000000001E-003   -2.925543532292628E-019
  2.000000000000001E-003    1.341672463689262E-019
  2.100000000000001E-003    6.293331627280811E-019
  2.200000000000001E-003    1.167560137501500E-018
  2.300000000000001E-003    1.715532555379292E-018
  2.400000000000001E-003    2.233110569347583E-018
  2.500000000000001E-003    2.675167008708156E-018
  2.600000000000001E-003    2.994145523807828E-018
  2.700000000000001E-003    3.143276891243653E-018
  2.800000000000001E-003    3.080325284861939E-018
  2.900000000000001E-003    2.771670287894899E-018
  3.000000000000001E-003    2.196468214784022E-018
  3.100000000000001E-003    1.350580801186497E-018
  3.200000000000001E-003    2.499202754896023E-019
  3.300000000000001E-003   -1.067159402192171E-018
  3.400000000000001E-003   -2.538786570236860E-018
  3.500000000000001E-003   -4.080133286004257E-018
  3.600000000000001E-003   -5.585864824237130E-018
  3.700000000000001E-003   -6.934624868149573E-018
  3.800000000000001E-003   -7.995566364740964E-018
  3.900000000000001E-003   -8.636777181433285E-018
  4.000000000000001E-003   -8.735278794100225E-018
  4.100000000000001E-003   -8.188091135590889E-018
  4.200000000000001E-003   -6.923685188570563E-018
  4.300000000000001E-003   -4.913001112535295E-018
  4.400000000000001E-003   -2.179098917486889E-018
  4.500000000000001E-003    1.195553456446970E-018
  4.600000000000002E-003    5.065114143869290E-018
  4.700000000000001E-003    9.220621179835711E-018
  4.800000000000001E-003    1.339516054703982E-017
  4.900000000000002E-003    1.727440154863585E-017
  5.000000000000001E-003    2.051259725178097E-017
  5.100000000000001E-003    2.275375858278308E-017
  5.200000000000001E-003    2.365723504910576E-017
  5.300000000000002E-003    2.292648868588011E-017
  5.400000000000001E-003    2.033935454700610E-017
  5.500000000000001E-003    1.577772035839877E-017
  5.600000000000002E-003    9.254192532249285E-018
  5.700000000000001E-003    9.331900150517094E-019
  5.800000000000001E-003   -8.856133766801704E-018
  5.900000000000002E-003   -1.961753217856267E-017
  6.000000000000001E-003   -3.069782412419374E-017
  6.100000000000001E-003   -4.131087572671319E-017
  6.200000000000002E-003   -5.057587337716607E-017
  6.300000000000002E-003   -5.756925160433083E-017
  6.400000000000001E-003   -6.138850883645655E-017
  6.500000000000001E-003   -6.122488106011022E-017
  6.600000000000002E-003   -5.644064739803371E-017
  6.700000000000001E-003   -4.664578044455807E-017
  6.800000000000001E-003   -3.176789166537761E-017
  6.900000000000002E-003   -1.210887060460674E-017
  7.000000000000001E-003    1.161828036925854E-017
  7.100000000000001E-003    3.827846776327896E-017
  7.200000000000002E-003    6.633431556224145E-017
  7.300000000000002E-003    9.390006148859080E-017
  7.400000000000001E-003    1.188306759117525E-016
  7.500000000000001E-003    1.388447575429232E-016
  7.600000000000002E-003    1.516768823968004E-016
  7.700000000000001E-003    1.552521363440680E-016
  7.800000000000001E-003    1.478727490807843E-016
  7.900000000000001E-003    1.284042192722798E-016
  8.000000000000002E-003    9.644661154264817E-017
  8.100000000000001E-003    5.247563839916976E-017
  8.200000000000001E-003   -2.061855768907796E-018
  8.300000000000002E-003   -6.471185915483873E-017
  8.400000000000001E-003   -1.320482520126978E-016
  8.500000000000002E-003   -1.997865225784920E-016
  8.600000000000002E-003   -2.629789774805992E-016
  8.700000000000001E-003   -3.162882738562392E-016
  8.800000000000002E-003   -3.543298831538219E-016
  8.900000000000002E-003   -3.720673319994680E-016
  9.000000000000001E-003   -3.652378122580004E-016
  9.100000000000002E-003   -3.307804182509236E-016
  9.200000000000002E-003   -2.672350522603244E-016
  9.300000000000001E-003   -1.750780005166336E-016
  9.400000000000002E-003   -5.695996988244639E-017
  9.500000000000001E-003    8.218460531252873E-017
  9.600000000000001E-003    2.351829229751097E-016
  9.700000000000002E-003    3.928418017755777E-016
  9.800000000000001E-003    5.443453603576561E-016
  9.900000000000001E-003    6.778274265651869E-016
  1.000000000000000E-002    7.810993160995978E-016
  1.010000000000000E-002    8.425003693366418E-016
  1.020000000000000E-002    8.518238967993708E-016
  1.030000000000000E-002    8.012603506072974E-016
  1.040000000000000E-002    6.862906208875954E-016
  1.050000000000000E-002    5.064557469312804E-016
  1.060000000000000E-002    2.659317297090103E-016
  1.070000000000000E-002   -2.615912195975643E-017
  1.080000000000000E-002   -3.557577989109469E-016
  1.090000000000000E-002   -7.042389692065361E-016
  1.100000000000000E-002   -1.049161438000699E-015
  1.110000000000000E-002   -1.365393256946449E-015
  1.120000000000000E-002   -1.626576285784013E-015
  1.130000000000000E-002   -1.806867133677672E-015
  1.140000000000000E-002   -1.882862647011977E-015
  1.150000000000000E-002   -1.835593662638626E-015
  1.160000000000000E-002   -1.652451187623325E-015
  1.170000000000000E-002   -1.328897069723476E-015
  1.180000000000000E-002   -8.698101114889252E-016
  1.190000000000000E-002   -2.903241207419302E-016
  1.200000000000000E-002    3.839637249259985E-016
  1.210000000000000E-002    1.117506937143743E-015
  1.220000000000000E-002    1.866098636021883E-015
  1.230000000000000E-002    2.578935752870884E-015
  1.240000000000000E-002    3.201407197222133E-015
  1.250000000000000E-002    3.678493955603406E-015
  1.260000000000000E-002    3.958611974656525E-015
  1.270000000000000E-002    3.997679569657492E-015
  1.280000000000000E-002    3.763144308492898E-015
  1.290000000000000E-002    3.237680552808969E-015
  1.300000000000000E-002    2.422253723122154E-015
  1.310000000000000E-002    1.338260433543339E-015
  1.320000000000000E-002    2.848063296886236E-017
  1.330000000000000E-002   -1.443364261555405E-015
  1.340000000000000E-002   -2.994581527099435E-015
  1.350000000000000E-002   -4.527046593574308E-015
  1.360000000000000E-002   -5.932245408194268E-015
  1.370000000000000E-002   -7.097637233273992E-015
  1.380000000000000E-002   -7.914044863997509E-015
  1.390000000000000E-002   -8.283669823299374E-015
  1.400000000000000E-002   -8.128239084276646E-015
  1.410000000000000E-002   -7.396724316069745E-015
  1.420000000000000E-002   -6.072042291083150E-015
  1.430000000000000E-002   -4.176150231614894E-015
  1.440000000000000E-002   -1.772996782250107E-015
  1.450000000000000E-002    1.031123472505107E-015
  1.460000000000000E-002    4.090129298914606E-015
  1.470000000000000E-002    7.223761374144275E-015
  1.480000000000000E-002    1.022620523365071E-014
  1.490000000000000E-002    1.287744353186452E-014
  1.500000000000000E-002    1.495685357716505E-014
  1.510000000000000E-002    1.625834647268102E-014
  1.520000000000000E-002    1.660616180921171E-014
  1.530000000000000E-002    1.587028838251721E-014
  1.540000000000000E-002    1.398039899539088E-014
  1.550000000000000E-002    1.093717658360051E-014
  1.560000000000000E-002    6.819959669326600E-015
  1.570000000000000E-002    1.789794480680960E-015
  1.580000000000000E-002   -3.912813497259555E-015
  1.590000000000000E-002   -9.975839490960670E-015
  1.600000000000000E-002   -1.602943024220962E-014
  1.610000000000000E-002   -2.166499378537726E-014
  1.620000000000000E-002   -2.645893958194459E-014
  1.630000000000000E-002   -2.999990700923785E-014
  1.640000000000000E-002   -3.191797586293369E-014
  1.650000000000000E-002   -3.191405177869919E-014
  1.660000000000000E-002   -2.978742713935574E-014
  1.670000000000000E-002   -2.545945021574420E-014
  1.680000000000000E-002   -1.899126888840688E-014
  1.690000000000000E-002   -1.059387680010132E-014
  1.700000000000000E-002   -6.289709819580721E-016
  1.710000000000000E-002    1.040032647001053E-014
  1.720000000000000E-002    2.186924778750023E-014
  1.730000000000000E-002    3.306134031785788E-014
  1.740000000000000E-002    4.320756526156461E-014
  1.750000000000000E-002    5.153274798719273E-014
  1.760000000000000E-002    5.730692695812657E-014
  1.770000000000000E-002    5.989858194577075E-014
  1.780000000000000E-002    5.882630333940954E-014
  1.790000000000000E-002    5.380526824322019E-014
  1.800000000000000E-002    4.478484097255336E-014
  1.810000000000000E-002    3.197399354623995E-014
  1.820000000000000E-002    1.585165268227606E-014
  1.830000000000000E-002   -2.840076666259629E-015
  1.840000000000000E-002   -2.312092477440722E-014
  1.850000000000000E-002   -4.381566095765676E-014
  1.860000000000000E-002   -6.361418864274531E-014
  1.870000000000000E-002   -8.114602895812175E-014