 -4.000000000000000E-002    0.000000000000000E+000
 -3.990000000000000E-002    0.000000000000000E+000
 -3.980000000000000E-002    0.000000000000000E+000
 -3.970000000000000E-002    0.000000000000000E+000
 -3.960000000000000E-002    0.000000000000000E+000
 -3.950000000000000E-002    0.000000000000000E+000
 -3.940000000000000E-002    0.000000000000000E+000
 -3.930000000000000E-002    0.000000000000000E+000
 -3.920000000000000E-002    0.000000000000000E+000
 -3.910000000000000E-002    0.000000000000000E+000
 -3.900000000000000E-002    0.000000000000000E+000
 -3.890000000000000E-002    0.000000000000000E+000
 -3.880000000000000E-002    0.000000000000000E+000
 -3.870000000000000E-002    0.000000000000000E+000
 -3.860000000000000E-002    0.000000000000000E+000
 -3.850000000000000E-002    0.000000000000000E+000
 -3.840000000000000E-002    0.000000000000000E+000
 -3.830000000000000E-002    0.000000000000000E+000
 -3.820000000000000E-002    0.000000000000000E+000
 -3.810000000000000E-002    0.000000000000000E+000
 -3.800000000000000E-002    0.000000000000000E+000
 -3.790000000000000E-002    0.000000000000000E+000
 -3.780000000000000E-002    0.000000000000000E+000
 -3.770000000000000E-002    0.000000000000000E+000
 -3.760000000000000E-002    0.000000000000000E+000
 -3.750000000000000E-002    0.000000000000000E+000
 -3.740000000000000E-002    0.000000000000000E+000
 -3.730000000000000E-002    0.000000000000000E+000
 -3.720000000000000E-002    0.000000000000000E+000
 -3.710000000000000E-002    0.000000000000000E+000
 -3.700000000000000E-002    0.000000000000000E+000
 -3.690000000000000E-002    0.000000000000000E+000
 -3.680000000000000E-002    0.000000000000000E+000
 -3.670000000000000E-002    0.000000000000000E+000
 -3.660000000000000E-002    0.000000000000000E+000
 -3.650000000000000E-002    0.000000000000000E+000
 -3.640000000000000E-002    0.000000000000000E+000
 -3.630000000000000E-002    0.000000000000000E+000
 -3.620000000000000E-002    0.000000000000000E+000
 -3.610000000000000E-002    0.000000000000000E+000
 -3.600000000000000E-002    0.000000000000000E+000
 -3.590000000000000E-002    0.000000000000000E+000
 -3.580000000000000E-002    0.000000000000000E+000
 -3.570000000000000E-002    0.000000000000000E+000
 -3.560000000000000E-002    0.000000000000000E+000
 -3.550000000000000E-002    0.000000000000000E+000
 -3.540000000000000E-002    0.000000000000000E+000
 -3.530000000000000E-002    0.000000000000000E+000
 -3.520000000000000E-002    0.000000000000000E+000
 -3.510000000000000E-002    0.000000000000000E+000
 -3.500000000000000E-002    0.000000000000000E+000
 -3.490000000000000E-002    0.000000000000000E+000
 -3.480000000000000E-002    0.000000000000000E+000
 -3.470000000000000E-002   -5.464167714983530E-048
 -3.460000000000000E-002   -2.061061622677800E-047
 -3.450000000000000E-002   -4.261042761816993E-047
 -3.440000000000000E-002   -9.238718595896291E-047
 -3.430000000000000E-002   -1.502366750323995E-046
 -3.420000000000000E-002   -2.727481148586902E-046
 -3.410000000000000E-002   -4.414593783553791E-046
 -3.400000000000000E-002   -6.867845422371559E-046
 -3.390000000000000E-002   -1.110592706982061E-045
 -3.380000000000000E-002   -1.705511058755087E-045
 -3.370000000000000E-002   -2.540140790296694E-045
 -3.360000000000000E-002   -2.933749869062902E-045
 -3.350000000000000E-002   -2.541036720890298E-045
 -3.340000000000000E-002   -6.923276022964264E-046
 -3.330000000000000E-002    3.695399703908503E-045
 -3.320000000000000E-002    1.041099953423637E-044
 -3.310000000000000E-002    2.019284426542695E-044
 -3.300000000000000E-002    3.555472242146845E-044
 -3.290000000000000E-002    5.350614457241251E-044
 -3.280000000000000E-002    7.249349090104755E-044
 -3.270000000000000E-002    8.648232743146755E-044
 -3.260000000000000E-002    8.941513018658156E-044
 -3.250000000000000E-002    7.322837705944758E-044
 -3.240000000000000E-002    3.463067496698177E-044
 -3.230000000000000E-002   -1.310703146888052E-044
 -3.220000000000000E-002   -2.500147620116229E-044
 -3.210000000000000E-002    1.021891984353012E-043
 -3.200000000000000E-002    5.585845132103110E-043
 -3.190000000000000E-002    1.653018224312620E-042
 -3.180000000000000E-002    3.823679847116404E-042
 -3.170000000000000E-002    7.605651685719463E-042
 -3.160000000000000E-002    1.352195565483404E-041
 -3.150000000000000E-002    2.182449569782329E-041
 -3.140000000000000E-002    3.203003436144506E-041
 -3.130000000000000E-002    4.217701129724106E-041
 -3.120000000000000E-002    4.774221919475364E-041
 -3.110000000000000E-002    4.023795935132103E-041
 -3.100000000000000E-002    5.585836077764953E-042
 -3.090000000000000E-002   -7.742916055533617E-041
 -3.080000000000000E-002   -2.380466516219017E-040
 -3.070000000000000E-002   -5.128187392811990E-040
 -3.060000000000000E-002   -9.418835941447573E-040
 -3.050000000000000E-002   -1.560296682459119E-039
 -3.040000000000000E-002   -2.381999873166822E-039
 -3.030000000000000E-002   -3.373746729305672E-039
 -3.020000000000000E-002   -4.416451863717279E-039
 -3.010000000000000E-002   -5.252436590716349E-039
 -3.000000000000000E-002   -5.419332827534981E-039
 -2.990000000000000E-002   -4.175689266275213E-039
 -2.980000000000000E-002   -4.302704157099253E-040
 -2.970000000000000E-002    7.302709346244661E-039
 -2.960000000000000E-002    2.088611063643495E-038
 -2.950000000000000E-002    4.242639411032681E-038
 -2.940000000000000E-002    7.395059350927433E-038
 -2.930000000000000E-002    1.168022906827234E-037
 -2.920000000000000E-002    1.706541562078680E-037
 -2.910000000000000E-002    2.320421373972325E-037
 -2.900000000000000E-002    2.923654232144867E-037
 -2.890000000000000E-002    3.353849467820080E-037
 -2.880000000000000E-002    3.344167037382183E-037
 -2.870000000000000E-002    2.496655124080189E-037
 -2.860000000000000E-002    2.650433556522514E-038
 -2.850000000000000E-002   -4.040447239494080E-037
 -2.840000000000000E-002   -1.120855561501138E-036
 -2.830000000000000E-002   -2.202005000223826E-036
 -2.820000000000000E-002   -3.705263874329487E-036
 -2.810000000000000E-002   -5.637264492901156E-036
 -2.800000000000000E-002   -7.909605476987200E-036
 -2.790000000000000E-002   -1.028195764054714E-035
 -2.780000000000000E-002   -1.229542640057034E-035
 -2.770000000000000E-002   -1.320430253804197E-035
 -2.760000000000000E-002   -1.192085191667796E-035
 -2.750000000000000E-002   -6.995850846769321E-036
 -2.740000000000000E-002    3.334080713324322E-036
 -2.730000000000000E-002    2.099387528061731E-035
 -2.720000000000000E-002    4.777013502210066E-035
 -2.710000000000000E-002    8.482517284236665E-035
 -2.700000000000000E-002    1.320007195484315E-034
 -2.690000000000000E-002    1.869161534108976E-034
 -2.680000000000000E-002    2.439140579972941E-034
 -2.670000000000000E-002    2.929728669037276E-034
 -2.660000000000000E-002    3.187910279502707E-034
 -2.650000000000000E-002    3.003404219868004E-034
 -2.640000000000000E-002    2.112778255202803E-034
 -2.630000000000000E-002    2.166527852607158E-035
 -2.620000000000000E-002   -2.985383104117161E-034
 -2.610000000000000E-002   -7.738317191063590E-034
 -2.600000000000000E-002   -1.415184574463798E-033
 -2.590000000000000E-002   -2.209868806881059E-033
 -2.580000000000000E-002   -3.109767439559280E-033
 -2.570000000000000E-002   -4.019468257268841E-033
 -2.560000000000000E-002   -4.786182088417268E-033
 -2.550000000000000E-002   -5.194264810181736E-033
 -2.540000000000000E-002   -4.967702534279951E-033
 -2.530000000000000E-002   -3.784209080568038E-033
 -2.520000000000000E-002   -1.304321738927338E-033
 -2.510000000000000E-002    2.782062845909393E-033
 -2.500000000000000E-002    8.691090318373645E-033
 -2.490000000000000E-002    1.646431805466929E-032
 -2.480000000000000E-002    2.587759758854272E-032
 -2.470000000000000E-002    3.634896037029474E-032
 -2.460000000000000E-002    4.685891148954647E-032
 -2.450000000000000E-002    5.589997012913251E-032
 -2.440000000000000E-002    6.147396886654325E-032
 -2.430000000000000E-002    6.115556644441415E-032
 -2.420000000000000E-002    5.223698492581260E-032
 -2.410000000000000E-002    3.196338068011701E-032
 -2.400000000000000E-002   -2.141256964169854E-033
 -2.390000000000000E-002   -5.186794285549858E-032
 -2.380000000000000E-002   -1.178580352091287E-031
 -2.370000000000000E-002   -1.991115730973830E-031
 -2.360000000000000E-002   -2.925066528786771E-031
 -2.350000000000000E-002   -3.923697540959706E-031
 -2.340000000000000E-002   -4.901342275006439E-031
 -2.330000000000000E-002   -5.741174602494386E-031
 -2.320000000000000E-002   -6.294437866617178E-031
 -2.310000000000000E-002   -6.381383485355118E-031
 -2.300000000000000E-002   -5.794334771079084E-031
 -2.290000000000000E-002   -4.303617916286630E-031
 -2.280000000000000E-002   -1.667677649353796E-031
 -2.270000000000000E-002    2.350526998818002E-031
 -2.260000000000000E-002    7.957926767504915E-031
 -2.250000000000000E-002    1.529292494463197E-030
 -2.240000000000000E-002    2.437040524531501E-030
 -2.230000000000000E-002    3.500733888579235E-030
 -2.220000000000000E-002    4.672864398044804E-030
 -2.210000000000000E-002    5.865741929315600E-030
 -2.200000000000000E-002    6.940053322635272E-030
 -2.190000000000000E-002    7.694927912225140E-030
 -2.180000000000000E-002    7.862510501583006E-030
 -2.170000000000000E-002    7.111009261599050E-030
 -2.160000000000000E-002    5.060907433387042E-030
 -2.150000000000000E-002    1.319141141109218E-030
 -2.140000000000000E-002   -4.464759053676205E-030
 -2.130000000000000E-002   -1.251867972560353E-029
 -2.120000000000000E-002   -2.284579369003342E-029
 -2.110000000000000E-002   -3.510718284251022E-029
 -2.100000000000000E-002   -4.850252809421668E-029
 -2.090000000000000E-002   -6.166925052757799E-029
 -2.080000000000000E-002   -7.262706703242304E-029
 -2.070000000000000E-002   -7.879938777162109E-029
 -2.060000000000000E-002   -7.714373813280068E-029
 -2.050000000000000E-002   -6.441831165473552E-029
 -2.040000000000000E-002   -3.759934370781072E-029
 -2.030000000000000E-002    5.556423942853842E-030
 -2.020000000000000E-002    6.583811091209553E-029
 -2.010000000000000E-002    1.418638522006175E-028
 -2.000000000000000E-002    2.294236277086810E-028
 -1.990000000000000E-002    3.210163068353936E-028
 -1.980000000000000E-002    4.057335846473878E-028
 -1.970000000000000E-002    4.696426848170926E-028
 -1.960000000000000E-002    4.967899249976521E-028
 -1.950000000000000E-002    4.708848330751811E-028
 -1.940000000000000E-002    3.776276470310345E-028
 -1.930000000000000E-002    2.075169725807713E-028
 -1.920000000000000E-002   -4.116710770175280E-029
 -1.910000000000000E-002   -3.596470891086092E-028
 -1.900000000000000E-002   -7.267475921039618E-028
 -1.890000000000000E-002   -1.108401809005770E-027
 -1.880000000000000E-002   -1.459106696692852E-027
 -1.870000000000000E-002   -1.725700787266339E-027
 -1.860000000000000E-002   -1.853545704171709E-027
 -1.850000000000000E-002   -1.794784745982831E-027
 -1.840000000000000E-002   -1.517863344593682E-027
 -1.830000000000000E-002   -1.016997302077531E-027
 -1.820000000000000E-002   -3.198556551676074E-028
 -1.810000000000000E-002    5.085193090551787E-028
 -1.800000000000000E-002    1.367475523250240E-027
 -1.790000000000000E-002    2.129679427682963E-027
 -1.780000000000000E-002    2.657838739998913E-027
 -1.770000000000000E-002    2.828564950814628E-027
 -1.760000000000000E-002    2.561153869097953E-027
 -1.750000000000000E-002    1.847366532959669E-027
 -1.740000000000000E-002    7.767838684532289E-028
 -1.730000000000000E-002   -4.486854050403566E-028
 -1.720000000000000E-002   -1.517699209370084E-027
 -1.710000000000000E-002   -2.035254847943163E-027
 -1.700000000000000E-002   -1.574376774801215E-027
 -1.690000000000000E-002    2.470632930749393E-028
 -1.680000000000000E-002    3.670101598098536E-027
 -1.670000000000000E-002    8.690229468235713E-027
 -1.660000000000000E-002    1.496117394359835E-026
 -1.650000000000000E-002    2.172728008344389E-026
 -1.640000000000000E-002    2.780638967837104E-026
 -1.630000000000000E-002    3.164323014728592E-026
 -1.620000000000000E-002    3.144724917840402E-026
 -1.610000000000000E-002    2.541854748913734E-026
 -1.600000000000000E-002    1.205150237329963E-026
 -1.590000000000000E-002   -9.510758366535510E-027
 -1.580000000000000E-002   -3.911440884794351E-026
 -1.570000000000000E-002   -7.528278492053953E-026
 -1.560000000000000E-002   -1.150194322517770E-025
 -1.550000000000000E-002   -1.537909605640602E-025
 -1.540000000000000E-002   -1.857428419560028E-025
 -1.530000000000000E-002   -2.041773870132825E-025
 -1.520000000000000E-002   -2.022891226253511E-025
 -1.510000000000000E-002   -1.741100630535837E-025
 -1.500000000000000E-002   -1.155729688731947E-025
 -1.490000000000000E-002   -2.555994094551863E-026
 -1.480000000000000E-002    9.322446340538125E-026
 -1.470000000000000E-002    2.337248292055873E-025
 -1.460000000000000E-002    3.845038214856477E-025
 -1.450000000000000E-002    5.303151555781703E-025
 -1.440000000000000E-002    6.533156398545243E-025
 -1.430000000000000E-002    7.348596206564849E-025
 -1.420000000000000E-002    7.577181018229695E-025
 -1.410000000000000E-002    7.084719468137242E-025
 -1.400000000000000E-002    5.797594570875130E-025
 -1.390000000000000E-002    3.720296424650986E-025
 -1.380000000000000E-002    9.447866003574379E-026
 -1.370000000000000E-002   -2.350714791495345E-025
 -1.360000000000000E-002   -5.914552500433741E-025
 -1.350000000000000E-002   -9.445357957604457E-025
 -1.340000000000000E-002   -1.262407616781893E-024
 -1.330000000000000E-002   -1.515004532151373E-024
 -1.320000000000000E-002   -1.677573082356199E-024
 -1.310000000000000E-002   -1.733446643967122E-024
 -1.300000000000000E-002   -1.675632422054857E-024
 -1.290000000000000E-002   -1.506908964805710E-024
 -1.280000000000000E-002   -1.238403873591443E-024
 -1.270000000000000E-002   -8.869389167791910E-025
 -1.260000000000000E-002   -4.717283751443771E-025
 -1.250000000000000E-002   -1.123330127038186E-026
 -1.240000000000000E-002    4.789655821390535E-025
 -1.230000000000000E-002    9.865530287617036E-025
 -1.220000000000000E-002    1.500754354428696E-024
 -1.210000000000000E-002    2.008673885144220E-024
 -1.200000000000000E-002    2.490504941075160E-024
 -1.190000000000000E-002    2.915038784296254E-024
 -1.180000000000000E-002    3.237326155730865E-024
 -1.170000000000000E-002    3.400414293091411E-024
 -1.160000000000000E-002    3.342689109360479E-024
 -1.150000000000000E-002    3.011400794683407E-024
 -1.140000000000000E-002    2.381510473028994E-024
 -1.130000000000000E-002    1.477229733148194E-024
 -1.120000000000000E-002    3.918095436244131E-025
 -1.110000000000000E-002   -7.002711147954306E-025
 -1.100000000000000E-002   -1.545206884959847E-024
 -1.090000000000000E-002   -1.831708404501138E-024
 -1.080000000000000E-002   -1.236458144066165E-024
 -1.070000000000000E-002    5.068605527961641E-025
 -1.060000000000000E-002    3.520158760833702E-024
 -1.050000000000000E-002    7.686224278809546E-024
 -1.040000000000000E-002    1.256342449779544E-023
 -1.030000000000000E-002    1.733094734464784E-023
 -1.020000000000000E-002    2.078732842821151E-023
 -1.010000000000000E-002    2.142284163431743E-023
 -1.000000000000000E-002    1.757948890469840E-023
 -9.899999999999999E-003    7.700714019189250E-024
 -9.800000000000000E-003   -9.342869638996611E-024
 -9.699999999999999E-003   -3.388372660896464E-023
 -9.599999999999999E-003   -6.509378325902249E-023
 -9.500000000000000E-003   -1.006920841314564E-022
 -9.399999999999999E-003   -1.367967470761302E-022
 -9.299999999999999E-003   -1.679920343091957E-022
 -9.200000000000000E-003   -1.876662493255983E-022
 -9.099999999999999E-003   -1.886475918829012E-022
 -8.999999999999999E-003   -1.641242175293598E-022
 -8.900000000000000E-003   -1.087845442592187E-022
 -8.799999999999999E-003   -2.006181854943473E-023
 -8.699999999999999E-003    1.006810730463918E-022
 -8.600000000000000E-003    2.472232605080024E-022
 -8.499999999999999E-003    4.080215025156018E-022
 -8.399999999999999E-003    5.663971726520205E-022
 -8.300000000000000E-003    7.015085884916271E-022
 -8.199999999999999E-003    7.901557379052968E-022
 -8.100000000000000E-003    8.093513837174570E-022
 -8.000000000000000E-003    7.394633653478365E-022
 -7.899999999999999E-003    5.676070669706540E-022
 -7.800000000000000E-003    2.908615660529109E-022
 -7.699999999999999E-003   -8.118043280813834E-023
 -7.599999999999999E-003   -5.250210938639191E-022
 -7.499999999999999E-003   -1.003447980485948E-021
 -7.399999999999999E-003   -1.467587468889927E-021
 -7.299999999999999E-003   -1.860889339482258E-021
 -7.199999999999999E-003   -2.124853819426287E-021
 -7.100000000000000E-003   -2.206035419586514E-021
 -6.999999999999999E-003   -2.063602560682595E-021
 -6.899999999999999E-003   -1.676538320567477E-021
 -6.800000000000000E-003   -1.049469026570469E-021
 -6.699999999999999E-003   -2.161443533288616E-022
 -6.599999999999999E-003    7.602389301437962E-022
 -6.499999999999999E-003    1.790361147856046E-021
 -6.399999999999999E-003    2.765828351112884E-021
 -6.299999999999999E-003    3.569535075269969E-021
 -6.199999999999999E-003    4.088446359482273E-021
 -6.100000000000000E-003    4.227485920585483E-021
 -5.999999999999999E-003    3.922933223388144E-021
 -5.899999999999999E-003    3.153631547951347E-021
 -5.800000000000000E-003    1.948432142025075E-021
 -5.699999999999999E-003    3.886429633885121E-022
 -5.599999999999999E-003   -1.395232285811999E-021
 -5.499999999999999E-003   -3.232522117158664E-021
 -5.399999999999999E-003   -4.926550679978050E-021
 -5.299999999999999E-003   -6.272682424716273E-021
 -5.199999999999999E-003   -7.078512414307273E-021
 -5.099999999999999E-003   -7.184212894574079E-021
 -4.999999999999999E-003   -6.481053298141283E-021
 -4.899999999999999E-003   -4.926362692806628E-021
 -4.799999999999999E-003   -2.553669746778129E-021
 -4.699999999999999E-003    5.226824391818303E-022
 -4.599999999999999E-003    4.108594775717649E-021
 -4.499999999999999E-003    7.936622092709845E-021
 -4.399999999999999E-003    1.167720030360824E-020
 -4.299999999999999E-003    1.495414157294962E-020
 -4.199999999999999E-003    1.736408700375729E-020
 -4.099999999999999E-003    1.849998950327991E-020
 -3.999999999999999E-003    1.797901269808529E-020
 -3.899999999999999E-003    1.547540859786223E-020
 -3.799999999999999E-003    1.075864293774085E-020
 -3.699999999999999E-003    3.736274411780995E-021
 -3.599999999999999E-003   -5.500315066633249E-021
 -3.499999999999999E-003   -1.663108971693743E-020
 -3.399999999999999E-003   -2.906935266345533E-020
 -3.299999999999999E-003   -4.193843881453980E-020
 -3.199999999999999E-003   -5.407245547388268E-020
 -3.099999999999999E-003   -6.405059201645132E-020
 -2.999999999999999E-003   -7.027317327330632E-020
 -2.899999999999999E-003   -7.108433111247372E-020
 -2.799999999999999E-003   -6.494074809593075E-020
 -2.699999999999999E-003   -5.061903848209413E-020
 -2.599999999999999E-003   -2.744608265972679E-020
 -2.499999999999999E-003    4.471346334454663E-021
 -2.399999999999999E-003    4.404820341746275E-020
 -2.299999999999999E-003    8.908871264998290E-020
 -2.199999999999999E-003    1.362545665132501E-019
 -2.099999999999999E-003    1.811637234742646E-019
 -1.999999999999999E-003    2.186392177819985E-019
 -1.899999999999999E-003    2.431120419705828E-019
 -1.799999999999999E-003    2.491624500164358E-019
 -1.699999999999999E-003    2.321625749560818E-019
 -1.599999999999999E-003    1.889621428297027E-019
 -1.499999999999999E-003    1.185419481623676E-019
 -1.399999999999999E-003    2.254910017103473E-020
 -1.299999999999999E-003   -9.437269771812779E-020
 -1.199999999999999E-003   -2.245344927909917E-019
 -1.099999999999999E-003   -3.574896598523743E-019
 -9.999999999999989E-004   -4.806797307847236E-019
 -8.999999999999990E-004   -5.804200558414585E-019
 -7.999999999999990E-004   -6.431631512643938E-019
 -6.999999999999989E-004   -6.569351399299382E-019
 -5.999999999999990E-004   -6.128058849307486E-019
 -4.999999999999989E-004   -5.062322817360882E-019
 -3.999999999999989E-004   -3.381094554490025E-019
 -2.999999999999989E-004   -1.153802042466011E-019
 -1.999999999999989E-004    1.489116043685304E-019
 -9.999999999999892E-005    4.361852382909930E-019
  1.084202172485504E-018    7.235024129536088E-019
  1.000000000000011E-004    9.852900499636817E-019
  2.000000000000011E-004    1.195469652061023E-018
  3.000000000000011E-004    1.329804140444998E-018
  4.000000000000011E-004    1.368239995365229E-018
  5.000000000000011E-004    1.297014992270657E-018
  6.000000000000011E-004    1.110321439834848E-018
  7.000000000000011E-004    8.113568610016245E-019
  8.000000000000011E-004    4.126598749711606E-019
  9.000000000000012E-004   -6.429972673170199E-020
  1.000000000000001E-003   -5.902319887027300E-019
  1.100000000000001E-003   -1.129729864656564E-018
  1.200000000000001E-003   -1.643411678351919E-018
  1.300000000000001E-003   -2.090328619205453E-018
  1.400000000000001E-003   -2.430469174405460E-018
  1.500000000000001E-003   -2.627223999543920E-018
  1.600000000000001E-003   -2.649715346436116E-018
  1.700000000000001E-003   -2.474946797933294E-018
  1.800000000000001E-003   -2.089766302027545E-018
  1.900000000000001E-003   -1.492652857280216E-018
  2.000000000000001E-003   -6.953272905813136E-019
  2.100000000000001E-003    2.758589407002043E-019
  2.200000000000001E-003    1.378874908090063E-018
  2.300000000000001E-003    2.555506596095294E-018
  2.400000000000001E-003    3.731691269353374E-018
  2.500000000000001E-003    4.819044019555874E-018
  2.600000000000001E-003    5.717938646309004E-018
  2.700000000000001E-003    6.322448221493327E-018
  2.800000000000001E-003    6.527312477840648E-018
  2.900000000000001E-003    6.236871956688405E-018
  3.000000000000001E-003    5.375619838926886E-018
  3.100000000000001E-003    3.899693065180183E-018
  3.200000000000001E-003    1.808286802730865E-018
  3.300000000000001E-003   -8.462957705554696E-019
  3.400000000000001E-003   -3.951422641431405E-018
  3.500000000000001E-003   -7.331230459397745E-018
  3.600000000000001E-003   -1.074935846407874E-017
  3.700000000000001E-003   -1.391827605290863E-017
  3.800000000000001E-003   -1.651559356546267E-017
  3.900000000000001E-003   -1.820704816838767E-017
  4.000000000000001E-003   -1.867504761285673E-017
  4.100000000000001E-003   -1.765085760233392E-017
  4.200000000000001E-003   -1.494781518089526E-017
  4.300000000000001E-003   -1.049244087779242E-017
  4.400000000000001E-003   -4.350075153392322E-018
  4.500000000000001E-003    3.258219890831250E-018
  4.600000000000002E-003    1.195031943664052E-017
  4.700000000000001E-003    2.119126455540707E-017
  4.800000000000001E-003    3.031600122014999E-017
  4.900000000000002E-003    3.856630946465547E-017
  5.000000000000001E-003    4.514026823340010E-017
  5.100000000000001E-003    4.925136513014887E-017
  5.200000000000001E-003    5.019328862113047E-017
  5.300000000000002E-003    4.740571906572842E-017
  5.400000000000001E-003    4.053605027814649E-017
  5.500000000000001E-003    2.949205841513248E-017
  5.600000000000002E-003    1.448096082146596E-017
  5.700000000000001E-003   -3.968905331398917E-018
  5.800000000000001E-003   -2.500651122610981E-017
  5.900000000000002E-003   -4.747826504947805E-017
  6.000000000000001E-003   -6.997021097351727E-017
  6.100000000000001E-003   -9.087151257929980E-017
  6.200000000000002E-003   -1.084574353594846E-016
  6.300000000000002E-003   -1.209890514913599E-016
  6.400000000000001E-003   -1.268260283829213E-016
  6.500000000000001E-003   -1.245481010086001E-016
  6.600000000000002E-003   -1.130799098770994E-016
  6.700000000000001E-003   -9.181296456637274E-017
  6.800000000000001E-003   -6.071749364740236E-017
  6.900000000000002E-003   -2.043600038360548E-017
  7.000000000000001E-003    2.765074296506976E-017
  7.100000000000001E-003    8.139475625346192E-017
  7.200000000000002E-003    1.378987757147163E-016
  7.300000000000002E-003    1.935896883366823E-016
  7.400000000000001E-003    2.443541436489173E-016
  7.500000000000001E-003    2.857397780991807E-016
  7.600000000000002E-003    3.132205703698666E-016
  7.700000000000001E-003    3.225192956209295E-016
  7.800000000000001E-003    3.099729473616084E-016
  7.900000000000001E-003    2.729200513611543E-016
  8.000000000000002E-003    2.100822281990631E-016
  8.100000000000001E-003    1.219066351638818E-016
  8.200000000000001E-003    1.083283132101731E-017
  8.300000000000002E-003   -1.185531538086562E-016
  8.400000000000001E-003   -2.595112656706906E-016
  8.500000000000002E-003   -4.033136355717835E-016
  8.600000000000002E-003   -5.396006923802473E-016
  8.700000000000001E-003   -6.569293702299261E-016
  8.800000000000002E-003   -7.434986707936864E-016
  8.900000000000002E-003   -7.880203164932811E-016
  9.000000000000001E-003   -7.806844627606675E-016
  9.100000000000002E-003   -7.141549869631303E-016
  9.200000000000002E-003   -5.845164012662634E-016
  9.300000000000001E-003   -3.920891015900896E-016
  9.400000000000002E-003   -1.420279891505621E-016
  9.500000000000001E-003    1.553727625212189E-016
  9.600000000000001E-003    4.847322948081719E-016
  9.700000000000002E-003    8.260359861413614E-016
  9.800000000000001E-003    1.155505232217077E-015
  9.900000000000001E-003    1.446870453425800E-015
  1.000000000000000E-002    1.673002105577120E-015
  1.010000000000000E-002    1.807820839577131E-015
  1.020000000000000E-002    1.828381449760343E-015
  1.030000000000000E-002    1.716998012109399E-015
  1.040000000000000E-002    1.463261542485078E-015
  1.050000000000000E-002    1.065791161908221E-015
  1.060000000000000E-002    5.335612642366278E-016
  1.070000000000000E-002   -1.133438960737412E-016
  1.080000000000000E-002   -8.436741307081043E-016
  1.090000000000000E-002   -1.615749814644721E-015
  1.100000000000000E-002   -2.379044066743093E-015
  1.110000000000000E-002   -3.076613372474817E-015
  1.120000000000000E-002   -3.648320440990971E-015
  1.130000000000000E-002   -4.034733368657545E-015
  1.140000000000000E-002   -4.181522613865835E-015
  1.150000000000000E-002   -4.044112202855230E-015
  1.160000000000000E-002   -3.592293874708818E-015
  1.170000000000000E-002   -2.814464599715967E-015
  1.180000000000000E-002   -1.721128161053653E-015
  1.190000000000000E-002   -3.472919517480072E-016
  1.200000000000000E-002    1.246578675933959E-015
  1.210000000000000E-002    2.975342102418666E-015
  1.220000000000000E-002    4.731898657916536E-015
  1.230000000000000E-002    6.391938428339189E-015
  1.240000000000000E-002    7.820662934355890E-015
  1.250000000000000E-002    8.881271020911752E-015
  1.260000000000000E-002    9.444824508539176E-015
  1.270000000000000E-002    9.400940967980316E-015
  1.280000000000000E-002    8.668615868922415E-015
  1.290000000000000E-002    7.206357101512923E-015
  1.300000000000000E-002    5.020751115369681E-015
  1.310000000000000E-002    2.172578671461849E-015
  1.320000000000000E-002   -1.220339209678453E-015
  1.330000000000000E-002   -4.984230287059507E-015
  1.340000000000000E-002   -8.894845693629078E-015
  1.350000000000000E-002   -1.268747903035587E-014
  1.360000000000000E-002   -1.607135498419834E-014
  1.370000000000000E-002   -1.874783629385800E-014
  1.380000000000000E-002   -2.043154356455011E-014
  1.390000000000000E-002   -2.087313109368760E-014
  1.400000000000000E-002   -1.988218429643234E-014
  1.410000000000000E-002   -1.734852087929921E-014
  1.420000000000000E-002   -1.326009695388197E-014
  1.430000000000000E-002   -7.715778260911644E-015
  1.440000000000000E-002   -9.314323588836591E-016
  1.450000000000000E-002    6.761859065708765E-015
  1.460000000000000E-002    1.492821956852003E-014
  1.470000000000000E-002    2.304620121833474E-014
  1.480000000000000E-002    3.053637469290360E-014
  1.490000000000000E-002    3.679615734141025E-014
  1.500000000000000E-002    4.124016220950352E-014
  1.510000000000000E-002    4.334372408579420E-014
  1.520000000000000E-002    4.268684527174124E-014
  1.530000000000000E-002    3.899547528760455E-014
  1.540000000000000E-002    3.217693571318722E-014
  1.550000000000000E-002    2.234639937032370E-014
  1.560000000000000E-002    9.841641422873495E-015
  1.570000000000000E-002   -4.776169356706476E-015
  1.580000000000000E-002   -2.073712492284674E-014
  1.590000000000000E-002   -3.709327180876269E-014
  1.600000000000000E-002   -5.276487256452792E-014
  1.610000000000000E-002   -6.660067912934659E-014
  1.620000000000000E-002   -7.744952922608188E-014
  1.630000000000000E-002   -8.423954409638524E-014
  1.640000000000000E-002   -8.606029007422489E-014
  1.650000000000000E-002   -8.224261773342533E-014
  1.660000000000000E-002   -7.243043513706884E-014
  1.670000000000000E-002   -5.663865672109866E-014
  1.680000000000000E-002   -3.529191205795681E-014
  1.690000000000000E-002   -9.239287105350483E-015
  1.700000000000000E-002    2.025846690933263E-014
  1.710000000000000E-002    5.157130545430889E-014
  1.720000000000000E-002    8.277208657807089E-014
  1.730000000000000E-002    1.117367927445977E-013
  1.740000000000000E-002    1.362688448306049E-013
  1.750000000000000E-002    1.542415154966946E-013
  1.760000000000000E-002    1.637504708335038E-013
  1.770000000000000E-002    1.632669406219536E-013
  1.780000000000000E-002    1.517810812810138E-013
  1.790000000000000E-002    1.289244580665951E-013
  1.800000000000000E-002    9.506108988678733E-014
  1.810000000000000E-002    5.133752543245673E-014
  1.820000000000000E-002   -3.157194932642290E-016
  1.830000000000000E-002   -5.723633086114087E-014
  1.840000000000000E-002   -1.161377225351883E-013
  1.850000000000000E-002   -1.732699976414084E-013
  1.860000000000000E-002   -2.246284485174267E-013
  1.870000000000000E-002   -2.661998565737488E-013