 -4.000000000000000E-002    0.000000000000000E+000
 -3.990000000000000E-002    0.000000000000000E+000
 -3.980000000000000E-002    0.000000000000000E+000
 -3.970000000000000E-002    0.000000000000000E+000
 -3.960000000000000E-002    0.000000000000000E+000
 -3.950000000000000E-002    0.000000000000000E+000
 -3.940000000000000E-002    0.000000000000000E+000
 -3.930000000000000E-002    0.000000000000000E+000
 -3.920000000000000E-002    0.000000000000000E+000
 -3.910000000000000E-002    0.000000000000000E+000
 -3.900000000000000E-002    0.000000000000000E+000
 -3.890000000000000E-002    0.000000000000000E+000
 -3.880000000000000E-002    0.000000000000000E+000
 -3.870000000000000E-002    0.000000000000000E+000
 -3.860000000000000E-002    1.195376532460845E-046
 -3.850000000000000E-002    2.934464874587584E-045
 -3.840000000000000E-002    3.792300888381441E-044
 -3.830000000000000E-002    3.297321339046332E-043
 -3.820000000000000E-002    2.187914363916794E-042
 -3.810000000000000E-002    1.170258945792806E-041
 -3.800000000000000E-002    5.234745377020303E-041
 -3.790000000000000E-002    2.000125571364068E-040
 -3.780000000000000E-002    6.592434525787217E-040
 -3.770000000000000E-002    1.870296760630786E-039
 -3.760000000000000E-002    4.466529824040977E-039
 -3.750000000000000E-002    8.321442377044613E-039
 -3.740000000000000E-002    8.387734628974339E-039
 -3.730000000000000E-002   -1.832660122107652E-038
 -3.720000000000000E-002   -1.463199109903445E-037
 -3.710000000000000E-002   -5.755062785208111E-037
 -3.700000000000000E-002   -1.770049703845540E-036
 -3.690000000000000E-002   -4.670362263024202E-036
 -3.680000000000000E-002   -1.090642684961007E-035
 -3.670000000000000E-002   -2.271119636618472E-035
 -3.660000000000000E-002   -4.170605931431585E-035
 -3.650000000000000E-002   -6.468704345789784E-035
 -3.640000000000000E-002   -7.271880345503525E-035
 -3.630000000000000E-002   -7.045974989683032E-036
 -3.620000000000000E-002    2.783241965312269E-034
 -3.610000000000000E-002    1.101146005350679E-033
 -3.600000000000000E-002    3.087594255108814E-033
 -3.590000000000000E-002    7.370214315267714E-033
 -3.580000000000000E-002    1.583529220990788E-032
 -3.570000000000000E-002    3.135973238077100E-032
 -3.560000000000000E-002    5.788767031820200E-032
 -3.550000000000000E-002    1.000507643573459E-031
 -3.540000000000000E-002    1.618263049301825E-031
 -3.530000000000000E-002    2.434666685208070E-031
 -3.520000000000000E-002    3.356737141424753E-031
 -3.510000000000000E-002    4.098455557992701E-031
 -3.500000000000000E-002    4.033906008696776E-031
 -3.490000000000000E-002    1.998861215966945E-031
 -3.480000000000000E-002   -3.943445424017083E-031
 -3.470000000000000E-002   -1.672405645194147E-030
 -3.460000000000000E-002   -4.037825668617582E-030
 -3.450000000000000E-002   -7.987390988546441E-030
 -3.440000000000000E-002   -1.404026500196286E-029
 -3.430000000000000E-002   -2.257915814726170E-029
 -3.420000000000000E-002   -3.356328345215506E-029
 -3.410000000000000E-002   -4.607393592947037E-029
 -3.400000000000000E-002   -5.766811921168733E-029
 -3.390000000000000E-002   -6.355160579782976E-029
 -3.380000000000000E-002   -5.564837466693855E-029
 -3.370000000000000E-002   -2.174539387039869E-029
 -3.360000000000000E-002    5.496800415160761E-029
 -3.350000000000000E-002    1.954754695923321E-028
 -3.340000000000000E-002    4.229524039967263E-028
 -3.330000000000000E-002    7.584075050746672E-028
 -3.320000000000000E-002    1.213074058439688E-027
 -3.310000000000000E-002    1.776809720284357E-027
 -3.300000000000000E-002    2.402188396405756E-027
 -3.290000000000000E-002    2.984795120803210E-027
 -3.280000000000000E-002    3.341565351291470E-027
 -3.270000000000000E-002    3.190875186651161E-027
 -3.260000000000000E-002    2.140437182089816E-027
 -3.250000000000000E-002   -3.083268491983868E-028
 -3.240000000000000E-002   -4.728296240745836E-027
 -3.230000000000000E-002   -1.169423078446589E-026
 -3.220000000000000E-002   -2.165713256985353E-026
 -3.210000000000000E-002   -3.475543125953504E-026
 -3.200000000000000E-002   -5.055983308063270E-026
 -3.190000000000000E-002   -6.776058040383302E-026
 -3.180000000000000E-002   -8.382340938855944E-026
 -3.170000000000000E-002   -9.466381159517629E-026
 -3.160000000000000E-002   -9.441669461733985E-026
 -3.150000000000000E-002   -7.540749478594675E-026
 -3.140000000000000E-002   -2.845621657468254E-026
 -3.130000000000000E-002    5.633914419708675E-026
 -3.120000000000000E-002    1.881976695977202E-025
 -3.110000000000000E-002    3.735203029676375E-025
 -3.100000000000000E-002    6.129883279628323E-025
 -3.090000000000000E-002    8.979784803251679E-025
 -3.080000000000000E-002    1.206547532139065E-024
 -3.070000000000000E-002    1.499454117145780E-024
 -3.060000000000000E-002    1.716933277066292E-024
 -3.050000000000000E-002    1.777189997198369E-024
 -3.040000000000000E-002    1.577793193430408E-024
 -3.030000000000000E-002    1.001271567861318E-024
 -3.020000000000000E-002   -7.382175569842098E-026
 -3.010000000000000E-002   -1.755377849511630E-024
 -3.000000000000000E-002   -4.113295704624123E-024
 -2.990000000000000E-002   -7.148604335267653E-024
 -2.980000000000000E-002   -1.075786024545960E-023
 -2.970000000000000E-002   -1.469610030324581E-023
 -2.960000000000000E-002   -1.854339577151578E-023
 -2.950000000000000E-002   -2.168181998669132E-023
 -2.940000000000000E-002   -2.329116680599718E-023
 -2.930000000000000E-002   -2.237264096453628E-023
 -2.920000000000000E-002   -1.780964448004209E-023
 -2.910000000000000E-002   -8.473257576958028E-024
 -2.900000000000000E-002    6.623280974446579E-024
 -2.890000000000000E-002    2.812206446560735E-023
 -2.880000000000000E-002    5.607825018559996E-023
 -2.870000000000000E-002    8.969531488694963E-023
 -2.860000000000000E-002    1.270652446496903E-022
 -2.850000000000000E-002    1.649512780220567E-022
 -2.840000000000000E-002    1.986596022491179E-022
 -2.830000000000000E-002    2.220521238661279E-022
 -2.820000000000000E-002    2.277531809814829E-022
 -2.810000000000000E-002    2.075968601568965E-022
 -2.800000000000000E-002    1.533468953099807E-022
 -2.790000000000000E-002    5.769721291776200E-023
 -2.780000000000000E-002   -8.447214154509162E-023
 -2.770000000000000E-002   -2.746500858493132E-022
 -2.760000000000000E-002   -5.091734422552523E-022
 -2.750000000000000E-002   -7.777893592670732E-022
 -2.740000000000000E-002   -1.062502803792708E-021
 -2.730000000000000E-002   -1.336940753805661E-021
 -2.720000000000000E-002   -1.566475256381353E-021
 -2.710000000000000E-002   -1.709332180738383E-021
 -2.700000000000000E-002   -1.718865804005814E-021
 -2.690000000000000E-002   -1.547097851786010E-021
 -2.680000000000000E-002   -1.149504242495597E-021
 -2.670000000000000E-002   -4.908888072107990E-022
 -2.660000000000000E-002    4.479814167751494E-022
 -2.650000000000000E-002    1.663474293101404E-021
 -2.640000000000000E-002    3.122576980765355E-021
 -2.630000000000000E-002    4.757544657012976E-021
 -2.620000000000000E-002    6.462565333016885E-021
 -2.610000000000000E-002    8.093292284582782E-021
 -2.600000000000000E-002    9.470006670030375E-021
 -2.590000000000000E-002    1.038500026169738E-020
 -2.580000000000000E-002    1.061448256306209E-020
 -2.570000000000000E-002    9.934968447762463E-021
 -2.560000000000000E-002    8.143678295836235E-021
 -2.550000000000000E-002    5.082026196176983E-021
 -2.540000000000000E-002    6.608272087016383E-022
 -2.530000000000000E-002   -5.114559132827877E-021
 -2.520000000000000E-002   -1.212125478365019E-020
 -2.510000000000000E-002   -2.010037702201806E-020
 -2.500000000000000E-002   -2.864541392947640E-020
 -2.490000000000000E-002   -3.719975585662407E-020
 -2.480000000000000E-002   -4.506537718133979E-020
 -2.470000000000000E-002   -5.142425082623817E-020
 -2.460000000000000E-002   -5.537346881207673E-020
 -2.450000000000000E-002   -5.597431636062249E-020
 -2.440000000000000E-002   -5.231469958466692E-020
 -2.430000000000000E-002   -4.358336961716961E-020
 -2.420000000000000E-002   -2.915338364700926E-020
 -2.410000000000000E-002   -8.671162568928215E-021
 -2.400000000000000E-002    1.785361845546738E-020
 -2.390000000000000E-002    4.996309450224108E-020
 -2.380000000000000E-002    8.667810749728451E-020
 -2.370000000000000E-002    1.264446587482690E-019
 -2.360000000000000E-002    1.671082054977806E-019
 -2.350000000000000E-002    2.059243781242272E-019
 -2.340000000000000E-002    2.396142987954207E-019
 -2.330000000000000E-002    2.644715572521487E-019
 -2.320000000000000E-002    2.765260097664333E-019
 -2.310000000000000E-002    2.717663912593184E-019
 -2.300000000000000E-002    2.464198419878763E-019
 -2.290000000000000E-002    1.972812042626748E-019
 -2.280000000000000E-002    1.220791756180096E-019
 -2.270000000000000E-002    1.986006002604208E-020
 -2.260000000000000E-002   -1.086363081340985E-019
 -2.250000000000000E-002   -2.606394931211840E-019
 -2.240000000000000E-002   -4.310852898434034E-019
 -2.230000000000000E-002   -6.124631749880744E-019
 -2.220000000000000E-002   -7.948104883447920E-019
 -2.210000000000000E-002   -9.658844250817508E-019
 -2.200000000000000E-002   -1.111535453509033E-018
 -2.190000000000000E-002   -1.216293676278141E-018
 -2.180000000000000E-002   -1.264165262746644E-018
 -2.170000000000000E-002   -1.239618540023831E-018
 -2.160000000000000E-002   -1.128722097280269E-018
 -2.150000000000000E-002   -9.203791790756354E-019
 -2.140000000000000E-002   -6.075873668057521E-019
 -2.130000000000000E-002   -1.886413201902633E-019
 -2.120000000000000E-002    3.318100965253587E-019
 -2.110000000000000E-002    9.419414238408775E-019
 -2.100000000000000E-002    1.622244971502265E-018
 -2.090000000000000E-002    2.345410947870192E-018
 -2.080000000000000E-002    3.076643323809249E-018
 -2.070000000000000E-002    3.774438237483012E-018
 -2.060000000000000E-002    4.391827034318251E-018
 -2.050000000000000E-002    4.878060310662166E-018
 -2.040000000000000E-002    5.180686917774880E-018
 -2.030000000000000E-002    5.247963992339924E-018
 -2.020000000000000E-002    5.031523951456840E-018
 -2.010000000000000E-002    4.489216631988201E-018
 -2.000000000000000E-002    3.588049445613964E-018
 -1.990000000000000E-002    2.307153082194368E-018
 -1.980000000000000E-002    6.407069056634080E-019
 -1.970000000000000E-002   -1.399234498539071E-018
 -1.960000000000000E-002   -3.780073578655337E-018
 -1.950000000000000E-002   -6.446237532351141E-018
 -1.940000000000000E-002   -9.317080839823754E-018
 -1.930000000000000E-002   -1.228527169261322E-017
 -1.920000000000000E-002   -1.521587141490001E-017
 -1.910000000000000E-002   -1.794639245246553E-017
 -1.900000000000000E-002   -2.028819844678807E-017
 -1.890000000000000E-002   -2.202968444821500E-017
 -1.880000000000000E-002   -2.294172386270179E-017
 -1.870000000000000E-002   -2.278586706148934E-017
 -1.860000000000000E-002   -2.132573378310101E-017
 -1.850000000000000E-002   -1.834187423047653E-017
 -1.840000000000000E-002   -1.365015929328408E-017
 -1.830000000000000E-002   -7.123394663000829E-018
 -1.820000000000000E-002    1.284584038048708E-018
 -1.810000000000000E-002    1.151360637806973E-017
 -1.800000000000000E-002    2.337247676094683E-017
 -1.790000000000000E-002    3.651728521551871E-017
 -1.780000000000000E-002    5.043554321959892E-017
 -1.770000000000000E-002    6.443929809350686E-017
 -1.760000000000000E-002    7.767033504260613E-017
 -1.750000000000000E-002    8.912034829924377E-017
 -1.740000000000000E-002    9.766820327905617E-017
 -1.730000000000000E-002    1.021353332642133E-016
 -1.720000000000000E-002    1.013587830990989E-016
 -1.710000000000000E-002    9.427961969330482E-017
 -1.700000000000000E-002    8.004236355844141E-017
 -1.690000000000000E-002    5.809920466449754E-017
 -1.680000000000000E-002    2.831090317350476E-017
 -1.670000000000000E-002   -8.964921814118416E-018
 -1.660000000000000E-002   -5.280792320859610E-017
 -1.650000000000000E-002   -1.017010882270088E-016
 -1.640000000000000E-002   -1.535366014525189E-016
 -1.630000000000000E-002   -2.056670692903156E-016
 -1.620000000000000E-002   -2.550040047486170E-016
 -1.610000000000000E-002   -2.981614652814817E-016
 -1.600000000000000E-002   -3.316382117460837E-016
 -1.590000000000000E-002   -3.520275739586726E-016
 -1.580000000000000E-002   -3.562407074396661E-016
 -1.570000000000000E-002   -3.417267171018012E-016
 -1.560000000000000E-002   -3.066725549695022E-016
 -1.550000000000000E-002   -2.501671004823461E-016
 -1.540000000000000E-002   -1.723171117182624E-016
 -1.530000000000000E-002   -7.430763479328434E-017
 -1.520000000000000E-002    4.159427259413621E-017
 -1.510000000000000E-002    1.720874387104166E-016
 -1.500000000000000E-002    3.129255003505748E-016
 -1.490000000000000E-002    4.590320986297675E-016
 -1.480000000000000E-002    6.046267605191381E-016
 -1.470000000000000E-002    7.433473870875565E-016
 -1.460000000000000E-002    8.683611094116887E-016
 -1.450000000000000E-002    9.724631974099009E-016
 -1.440000000000000E-002    1.048174318696265E-015
 -1.430000000000000E-002    1.087856923410443E-015
 -1.420000000000000E-002    1.083880754969355E-015
 -1.410000000000000E-002    1.028872541210923E-015
 -1.400000000000000E-002    9.160844826656311E-016
 -1.390000000000000E-002    7.399075490366633E-016
 -1.380000000000000E-002    4.965399799414844E-016
 -1.370000000000000E-002    1.847964620412728E-016
 -1.360000000000000E-002   -1.929861940491160E-016
 -1.350000000000000E-002   -6.300241632029248E-016
 -1.340000000000000E-002   -1.114251303228554E-015
 -1.330000000000000E-002   -1.627707543084770E-015
 -1.320000000000000E-002   -2.146297080346847E-015
 -1.310000000000000E-002   -2.640060294300523E-015
 -1.300000000000000E-002   -3.074077435295345E-015
 -1.290000000000000E-002   -3.410078306885594E-015
 -1.280000000000000E-002   -3.608765137022549E-015
 -1.270000000000000E-002   -3.632774079172618E-015
 -1.260000000000000E-002   -3.450111408675767E-015
 -1.250000000000000E-002   -3.037809486318148E-015
 -1.240000000000000E-002   -2.385472496873752E-015
 -1.230000000000000E-002   -1.498330120219334E-015
 -1.220000000000000E-002   -3.994004687203784E-016
 -1.210000000000000E-002    8.696073979083658E-016
 -1.200000000000000E-002    2.248947366480913E-015
 -1.190000000000000E-002    3.663220230094210E-015
 -1.180000000000000E-002    5.025502098436681E-015
 -1.170000000000000E-002    6.243046199847201E-015
 -1.160000000000000E-002    7.224196457460829E-015
 -1.150000000000000E-002    7.885974292207248E-015
 -1.140000000000000E-002    8.161660753131739E-015
 -1.130000000000000E-002    8.007618637537366E-015
 -1.120000000000000E-002    7.408593379469408E-015
 -1.110000000000000E-002    6.380814488403208E-015
 -1.100000000000000E-002    4.972384886687950E-015
 -1.090000000000000E-002    3.260688209903209E-015
 -1.080000000000000E-002    1.346834628455471E-015
 -1.070000000000000E-002   -6.525016428824107E-016
 -1.060000000000000E-002   -2.615198396867084E-015
 -1.050000000000000E-002   -4.424825869307558E-015
 -1.040000000000000E-002   -5.981702455150477E-015
 -1.030000000000000E-002   -7.212671177261993E-015
 -1.020000000000000E-002   -8.078466438425656E-015
 -1.010000000000000E-002   -8.577705881789906E-015
 -1.000000000000000E-002   -8.746857812587637E-015
 -9.899999999999999E-003   -8.655923865887068E-015
 -9.800000000000000E-003   -8.400026939159214E-015
 -9.699999999999999E-003   -8.087553419600370E-015
 -9.599999999999999E-003   -7.825920267245696E-015
 -9.500000000000000E-003   -7.706361289508722E-015
 -9.399999999999999E-003   -7.789309504691312E-015
 -9.299999999999999E-003   -8.092009459637445E-015
 -9.200000000000000E-003   -8.579845117227049E-015
 -9.099999999999999E-003   -9.162584454707280E-015
 -8.999999999999999E-003   -9.696328041330142E-015
 -8.900000000000000E-003   -9.991427521337819E-015
 -8.799999999999999E-003   -9.826103555640395E-015
 -8.699999999999999E-003   -8.964954506342424E-015
 -8.600000000000000E-003   -7.181093481179198E-015
 -8.499999999999999E-003   -4.280289374966796E-015
 -8.399999999999999E-003   -1.252886181272493E-016
 -8.300000000000000E-003    5.341579790770149E-015
 -8.199999999999999E-003    1.207933306994451E-014
 -8.100000000000000E-003    1.993440905187881E-014
 -8.000000000000000E-003    2.863320840086126E-014
 -7.899999999999999E-003    3.778209564134680E-014
 -7.800000000000000E-003    4.687545215132641E-014
 -7.699999999999999E-003    5.531203115629312E-014
 -7.599999999999999E-003    6.241948347887098E-014
 -7.499999999999999E-003    6.748658621866403E-014
 -7.399999999999999E-003    6.980235995995360E-014
 -7.299999999999999E-003    6.870086033720772E-014
 -7.199999999999999E-003    6.361004893717420E-014
 -7.100000000000000E-003    5.410267465209344E-014
 -6.999999999999999E-003    3.994659205404817E-014
 -6.899999999999999E-003    2.115145971877737E-014
 -6.800000000000000E-003   -1.991702983146539E-015
 -6.699999999999999E-003   -2.888195910244779E-014
 -6.599999999999999E-003   -5.859483616501238E-014
 -6.499999999999999E-003   -8.988740197727442E-014
 -6.399999999999999E-003   -1.212251889396888E-013
 -6.299999999999999E-003   -1.508330700942350E-013
 -6.199999999999999E-003   -1.767706787552449E-013
 -6.100000000000000E-003   -1.970311825391546E-013
 -5.999999999999999E-003   -2.096598837724221E-013
 -5.899999999999999E-003   -2.128871198494366E-013
 -5.800000000000000E-003   -2.052675216996838E-013
 -5.699999999999999E-003   -1.858161884109153E-013
 -5.599999999999999E-003   -1.541310001713567E-013
 -5.499999999999999E-003   -1.104900946562396E-013
 -5.399999999999999E-003   -5.591415496943810E-014
 -5.299999999999999E-003    7.815224768082483E-015
 -5.199999999999999E-003    7.818702621399114E-014
 -5.099999999999999E-003    1.520447165941945E-013
 -4.999999999999999E-003    2.257211404328938E-013
 -4.899999999999999E-003    2.952186825118957E-013
 -4.799999999999999E-003    3.564251283975837E-013
 -4.699999999999999E-003    4.053522674592654E-013
 -4.599999999999999E-003    4.383817961578908E-013
 -4.499999999999999E-003    4.525021620316131E-013
 -4.399999999999999E-003    4.455199547496525E-013
 -4.299999999999999E-003    4.162312310277524E-013
 -4.199999999999999E-003    3.645407972855324E-013
 -4.099999999999999E-003    2.915213438536413E-013
 -3.999999999999999E-003    1.994082220252203E-013
 -3.899999999999999E-003    9.153036195722651E-014
 -3.799999999999999E-003   -2.781846873968547E-014
 -3.699999999999999E-003   -1.535604324995526E-013
 -3.599999999999999E-003   -2.800563967809766E-013
 -3.499999999999999E-003   -4.013592414207967E-013
 -3.399999999999999E-003   -5.114857562297857E-013
 -3.299999999999999E-003   -6.046954957782671E-013
 -3.199999999999999E-003   -6.757656581365842E-013
 -3.099999999999999E-003   -7.202521720870243E-013
 -2.999999999999999E-003   -7.347275910941829E-013
 -2.899999999999999E-003   -7.169870951090922E-013
 -2.799999999999999E-003   -6.662141219345599E-013
 -2.699999999999999E-003   -5.830965103624774E-013
 -2.599999999999999E-003   -4.698841071090383E-013
 -2.499999999999999E-003   -3.303789026334250E-013
 -2.399999999999999E-003   -1.698496683167115E-013
 -2.299999999999999E-003    5.134870089411241E-015
 -2.199999999999999E-003    1.869563073916096E-013
 -2.099999999999999E-003    3.672770684106661E-013
 -1.999999999999999E-003    5.374414581405442E-013
 -1.899999999999999E-003    6.889297930325721E-013
 -1.799999999999999E-003    8.138404260883725E-013
 -1.699999999999999E-003    9.053684279624506E-013
 -1.599999999999999E-003    9.582444473036377E-013
 -1.499999999999999E-003    9.690967504342546E-013
 -1.399999999999999E-003    9.367008805206847E-013
 -1.299999999999999E-003    8.620893602744390E-013
 -1.199999999999999E-003    7.485040293565853E-013
 -1.099999999999999E-003    6.011881524939653E-013
 -9.999999999999989E-004    4.270320510880631E-013
 -8.999999999999990E-004    2.341022236660563E-013
 -7.999999999999990E-004    3.109867964237949E-014
 -6.999999999999989E-004   -1.732047714519766E-013
 -5.999999999999990E-004   -3.704772489765255E-013
 -4.999999999999989E-004   -5.532490297138050E-013
 -3.999999999999989E-004   -7.151849966684552E-013
 -2.999999999999989E-004   -8.511864103825523E-013
 -1.999999999999989E-004   -9.573171609002472E-013
 -9.999999999999892E-005   -1.030577716092225E-012
  1.084202172485504E-018   -1.068576091922686E-012
  1.000000000000011E-004   -1.069166880994814E-012
  2.000000000000011E-004   -1.030144444740941E-012
  3.000000000000011E-004   -9.490774359058909E-013
  4.000000000000011E-004   -8.233633027803635E-013
  5.000000000000011E-004   -6.505565945186518E-013
  6.000000000000011E-004   -4.289892725976883E-013
  7.000000000000011E-004   -1.586557067042078E-013
  8.000000000000011E-004    1.577135588841933E-013
  9.000000000000012E-004    5.135131933287303E-013
  1.000000000000001E-003    8.972214136941048E-013
  1.100000000000001E-003    1.291641944686963E-012
  1.200000000000001E-003    1.673617315395827E-012
  1.300000000000001E-003    2.014382818406393E-012
  1.400000000000001E-003    2.280682478897195E-012
  1.500000000000001E-003    2.436700221735019E-012
  1.600000000000001E-003    2.446771932831521E-012
  1.700000000000001E-003    2.278747759459575E-012
  1.800000000000001E-003    1.907775050240603E-012
  1.900000000000001E-003    1.320186802493897E-012
  2.000000000000001E-003    5.171162052780565E-013
  2.100000000000001E-003   -4.825760807956735E-013
  2.200000000000001E-003   -1.640467281230571E-012
  2.300000000000001E-003   -2.898186753348690E-012
  2.400000000000001E-003   -4.178742313013153E-012
  2.500000000000001E-003   -5.389694159668541E-012
  2.600000000000001E-003   -6.428152009841024E-012
  2.700000000000001E-003   -7.187398970457437E-012
  2.800000000000001E-003   -7.564778389743314E-012
  2.900000000000001E-003   -7.470321866972537E-012
  3.000000000000001E-003   -6.835480225468382E-012
  3.100000000000001E-003   -5.621242689224026E-012
  3.200000000000001E-003   -3.824921513166788E-012
  3.300000000000001E-003   -1.484921175664925E-012
  3.400000000000001E-003    1.317080110976117E-012
  3.500000000000001E-003    4.456942062279459E-012
  3.600000000000001E-003    7.772068537911383E-012
  3.700000000000001E-003    1.106857969454204E-011
  3.800000000000001E-003    1.413136571210958E-011
  3.900000000000001E-003    1.673652086721067E-011
  4.000000000000001E-003    1.866544081129703E-011
  4.100000000000001E-003    1.971972378490979E-011
  4.200000000000001E-003    1.973589142364989E-011
  4.300000000000001E-003    1.859894650689829E-011
  4.400000000000001E-003    1.625378015515607E-011
  4.500000000000001E-003    1.271357630812052E-011
  4.600000000000002E-003    8.064496818223129E-012
  4.700000000000001E-003    2.466145022426793E-012
  4.800000000000001E-003   -3.852449285296334E-012
  4.900000000000002E-003   -1.060132373497628E-011
  5.000000000000001E-003   -1.744228936833715E-011
  5.100000000000001E-003   -2.400532984444081E-011
  5.200000000000001E-003   -2.990791807208837E-011
  5.300000000000002E-003   -3.477630751806193E-011
  5.400000000000001E-003   -3.826765347586148E-011
  5.500000000000001E-003   -4.009174794203537E-011
  5.600000000000002E-003   -4.003108128208029E-011
  5.700000000000001E-003   -3.795796445047005E-011
  5.800000000000001E-003   -3.384750731194529E-011
  5.900000000000002E-003   -2.778542053990925E-011
  6.000000000000001E-003   -1.996982271032183E-011
  6.100000000000001E-003   -1.070649428228513E-011
  6.200000000000002E-003   -3.973838464499033E-013
  6.300000000000002E-003    1.047744139709842E-011
  6.400000000000001E-003    2.138377330379272E-011
  6.500000000000001E-003    3.176218117177487E-011
  6.600000000000002E-003    4.106035742734359E-011
  6.700000000000001E-003    4.876712971224279E-011
  6.800000000000001E-003    5.444602311660360E-011
  6.900000000000002E-003    5.776614351325871E-011
  7.000000000000001E-003    5.852802168520644E-011
  7.100000000000001E-003    5.668234490839611E-011
  7.200000000000002E-003    5.233961270891152E-011
  7.300000000000002E-003    4.576934065396486E-011
  7.400000000000001E-003    3.738800581327870E-011
  7.500000000000001E-003    2.773559717960127E-011
  7.600000000000002E-003    1.744157458579091E-011
  7.700000000000001E-003    7.181716208874209E-012
  7.800000000000001E-003   -2.371748806259167E-012
  7.900000000000001E-003   -1.060367318390765E-011
  8.000000000000002E-003   -1.700959172172931E-011
  8.100000000000001E-003   -2.124539750561300E-011
  8.200000000000001E-003   -2.316906588445145E-011
  8.300000000000002E-003   -2.287059752470071E-011
  8.400000000000001E-003   -2.068670633075781E-011
  8.500000000000002E-003   -1.719766994135965E-011
  8.600000000000002E-003   -1.320463733809171E-011
  8.700000000000001E-003   -9.686912293332986E-012
  8.800000000000002E-003   -7.740082306215617E-012
  8.900000000000002E-003   -8.497099976845109E-012
  9.000000000000001E-003   -1.303603766093027E-011
  9.100000000000002E-003   -2.227917023275484E-011
  9.200000000000002E-003   -3.688938424471846E-011
  9.300000000000001E-003   -5.717052260257121E-011
  9.400000000000002E-003   -8.297888509710016E-011
  9.500000000000001E-003   -1.136530639963470E-010
  9.600000000000001E-003   -1.479691700359690E-010
  9.700000000000002E-003   -1.841273830555680E-010
  9.800000000000001E-003   -2.197751208576669E-010
  9.900000000000001E-003   -2.520699137276287E-010
  1.000000000000000E-002   -2.777835751386558E-010
  1.010000000000000E-002   -2.934466961219316E-010
  1.020000000000000E-002   -2.955302293130677E-010
  1.030000000000000E-002   -2.806581562380667E-010
  1.040000000000000E-002   -2.458429978461564E-010
  1.050000000000000E-002   -1.887331072200939E-010
  1.060000000000000E-002   -1.078593477872584E-010
  1.070000000000000E-002   -2.866831089866265E-012
  1.080000000000000E-002    1.252837288455056E-010
  1.090000000000000E-002    2.741596828824160E-010
  1.100000000000000E-002    4.397600401533531E-010
  1.110000000000000E-002    6.164913502011701E-010
  1.120000000000000E-002    7.972266910251727E-010
  1.130000000000000E-002    9.734533296644909E-010
  1.140000000000000E-002    1.135513477702512E-009
  1.150000000000000E-002    1.272933691921821E-009
  1.160000000000000E-002    1.374838341023882E-009
  1.170000000000000E-002    1.430432219560394E-009
  1.180000000000000E-002    1.429537100883975E-009
  1.190000000000000E-002    1.363160023952829E-009
  1.200000000000000E-002    1.224068339527760E-009
  1.210000000000000E-002    1.007343597518852E-009
  1.220000000000000E-002    7.108862791091104E-010
  1.230000000000000E-002    3.358432073639730E-010
  1.240000000000000E-002   -1.130709277269331E-010
  1.250000000000000E-002   -6.273790751084551E-010
  1.260000000000000E-002   -1.194795375449852E-009
  1.270000000000000E-002   -1.799339943796229E-009
  1.280000000000000E-002   -2.421622887079542E-009
  1.290000000000000E-002   -3.039296710532058E-009
  1.300000000000000E-002   -3.627673562013384E-009
  1.310000000000000E-002   -4.160489608416918E-009
  1.320000000000000E-002   -4.610801952434424E-009
  1.330000000000000E-002   -4.951986506594571E-009
  1.340000000000000E-002   -5.158810548600721E-009
  1.350000000000000E-002   -5.208543195950193E-009
  1.360000000000000E-002   -5.082067253812159E-009
  1.370000000000000E-002   -4.764951519257934E-009
  1.380000000000000E-002   -4.248449840659028E-009
  1.390000000000000E-002   -3.530381995490801E-009
  1.400000000000000E-002   -2.615864265070782E-009
  1.410000000000000E-002   -1.517857490897705E-009
  1.420000000000000E-002   -2.575017748703537E-010
  1.430000000000000E-002    1.135786858695422E-009
  1.440000000000000E-002    2.624474887499718E-009
  1.450000000000000E-002    4.163339843139683E-009
  1.460000000000000E-002    5.700174250616352E-009
  1.470000000000000E-002    7.176767444050659E-009
  1.480000000000000E-002    8.530159928619378E-009
  1.490000000000000E-002    9.694156320757197E-009
  1.500000000000000E-002    1.060108414077408E-008
  1.510000000000000E-002    1.118376728704200E-008
  1.520000000000000E-002    1.137770764332796E-008
  1.530000000000000E-002    1.112341793573006E-008
  1.540000000000000E-002    1.036890084556365E-008
  1.550000000000000E-002    9.072213686177558E-009
  1.560000000000000E-002    7.204117858760635E-009
  1.570000000000000E-002    4.750756108082575E-009
  1.580000000000000E-002    1.716364358109524E-009
  1.590000000000000E-002   -1.874095286550249E-009
  1.600000000000000E-002   -5.972236540659832E-009
  1.610000000000000E-002   -1.050372409375278E-008
  1.620000000000000E-002   -1.536568023860216E-008
  1.630000000000000E-002   -2.042430397913917E-008
  1.640000000000000E-002   -2.551248312348271E-008
  1.650000000000000E-002   -3.042751597547620E-008
  1.660000000000000E-002   -3.492893909162087E-008
  1.670000000000000E-002   -3.873636787702458E-008
  1.680000000000000E-002   -4.152761484932703E-008
  1.690000000000000E-002   -4.293675632379426E-008
  1.700000000000000E-002   -4.255228450602897E-008
  1.710000000000000E-002   -3.991565857610881E-008
  1.720000000000000E-002   -3.451965938038002E-008
  1.730000000000000E-002   -2.580714367483492E-008
  1.740000000000000E-002   -1.316995269531077E-008
  1.750000000000000E-002    4.052044886343756E-009
  1.760000000000000E-002    2.657149946720975E-008
  1.770000000000000E-002    5.515403725113804E-008
  1.780000000000000E-002    9.061824344945373E-008
  1.790000000000000E-002    1.338355887690257E-007
  1.800000000000000E-002    1.857299992017589E-007
  1.810000000000000E-002    2.472766276576259E-007
  1.820000000000000E-002    3.195011643769208E-007
  1.830000000000000E-002    4.034784951859705E-007
  1.840000000000000E-002    5.003307138192769E-007
  1.850000000000000E-002    6.112253880578045E-007
  1.860000000000000E-002    7.373738302925547E-007
  1.870000000000000E-002    8.800289806178842E-007