 -4.000000000000000E-002    0.000000000000000E+000
 -3.990000000000000E-002    0.000000000000000E+000
 -3.980000000000000E-002    0.000000000000000E+000
 -3.970000000000000E-002    0.000000000000000E+000
 -3.960000000000000E-002    0.000000000000000E+000
 -3.950000000000000E-002    0.000000000000000E+000
 -3.940000000000000E-002    0.000000000000000E+000
 -3.930000000000000E-002   -1.864851270640575E-027
 -3.920000000000000E-002   -2.504859094166671E-026
 -3.910000000000000E-002   -1.758069603244546E-025
 -3.900000000000000E-002   -8.535525176870691E-025
 -3.890000000000000E-002   -3.198888551174642E-024
 -3.880000000000000E-002   -9.772713916303767E-024
 -3.870000000000000E-002   -2.500213615269573E-023
 -3.860000000000000E-002   -5.388913205348516E-023
 -3.850000000000000E-002   -9.571181881490037E-023
 -3.840000000000000E-002   -1.272097737163560E-022
 -3.830000000000000E-002   -6.807707990755409E-023
 -3.820000000000000E-002    2.773236916965298E-022
 -3.810000000000000E-002    1.300751940435831E-021
 -3.800000000000000E-002    3.674226894716550E-021
 -3.790000000000000E-002    8.386028250129685E-021
 -3.780000000000000E-002    1.662965766456330E-020
 -3.770000000000000E-002    2.938972761007693E-020
 -3.760000000000000E-002    4.651787561303562E-020
 -3.750000000000000E-002    6.507623214736224E-020
 -3.740000000000000E-002    7.678791842472888E-020
 -3.730000000000000E-002    6.462503100414587E-020
 -3.720000000000000E-002   -1.067129679022808E-021
 -3.710000000000000E-002   -1.659377085526609E-019
 -3.700000000000000E-002   -4.927625192519709E-019
 -3.690000000000000E-002   -1.057768186678773E-018
 -3.680000000000000E-002   -1.938845872647460E-018
 -3.670000000000000E-002   -3.192033180715061E-018
 -3.660000000000000E-002   -4.813152697270402E-018
 -3.650000000000000E-002   -6.683264036929918E-018
 -3.640000000000000E-002   -8.500018812638738E-018
 -3.630000000000000E-002   -9.702311714724839E-018
 -3.620000000000000E-002   -9.402619823281225E-018
 -3.610000000000000E-002   -6.349492885638716E-018
 -3.600000000000000E-002    1.049558975920326E-018
 -3.590000000000000E-002    1.460903752816113E-017
 -3.580000000000000E-002    3.611385281014944E-017
 -3.570000000000000E-002    6.690584019574623E-017
 -3.560000000000000E-002    1.072965800943252E-016
 -3.550000000000000E-002    1.558243432074251E-016
 -3.540000000000000E-002    2.084150744784373E-016
 -3.530000000000000E-002    2.575593498893606E-016
 -3.520000000000000E-002    2.916733335247072E-016
 -3.510000000000000E-002    2.948639296538357E-016
 -3.500000000000000E-002    2.473534214680748E-016
 -3.490000000000000E-002    1.268232815713347E-016
 -3.480000000000000E-002   -8.910351701888521E-017
 -3.470000000000000E-002   -4.191203794342097E-016
 -3.460000000000000E-002   -8.732762850613633E-016
 -3.450000000000000E-002   -1.447060515778773E-015
 -3.440000000000000E-002   -2.115070551806796E-015
 -3.430000000000000E-002   -2.825092641777251E-015
 -3.420000000000000E-002   -3.493699698491174E-015
 -3.410000000000000E-002   -4.004673744201434E-015
 -3.400000000000000E-002   -4.211628566786451E-015
 -3.390000000000000E-002   -3.946096979380084E-015
 -3.380000000000000E-002   -3.031991310901446E-015
 -3.370000000000000E-002   -1.306737888512483E-015
 -3.360000000000000E-002    1.351476557356735E-015
 -3.350000000000000E-002    4.991981004271828E-015
 -3.340000000000000E-002    9.558218079948482E-015
 -3.330000000000000E-002    1.485662003531600E-014
 -3.320000000000000E-002    2.053264897084936E-014
 -3.310000000000000E-002    2.605943106656757E-014
 -3.300000000000000E-002    3.074436933045958E-014
 -3.290000000000000E-002    3.375830512048828E-014
 -3.280000000000000E-002    3.419019517855239E-014
 -3.270000000000000E-002    3.112776162804107E-014
 -3.260000000000000E-002    2.376145743371627E-014
 -3.250000000000000E-002    1.150539172057909E-014
 -3.240000000000000E-002   -5.874786784137582E-015
 -3.230000000000000E-002   -2.814042460716753E-014
 -3.220000000000000E-002   -5.448054290083759E-014
 -3.210000000000000E-002   -8.345138545487191E-014
 -3.200000000000000E-002   -1.129706165265334E-013
 -3.190000000000000E-002   -1.403788876219970E-013
 -3.180000000000000E-002   -1.625762648325822E-013
 -3.170000000000000E-002   -1.762337442843595E-013
 -3.160000000000000E-002   -1.780714641228695E-013
 -3.150000000000000E-002   -1.651861016846808E-013
 -3.140000000000000E-002   -1.354012160895756E-013
 -3.130000000000000E-002   -8.760721622725521E-014
 -3.120000000000000E-002   -2.205355780327437E-014
 -3.110000000000000E-002    5.944455279105050E-014
 -3.100000000000000E-002    1.534186566652694E-013
 -3.090000000000000E-002    2.548034998174680E-013
 -3.080000000000000E-002    3.571496353816287E-013
 -3.070000000000000E-002    4.529879141444559E-013
 -3.060000000000000E-002    5.343248543877163E-013
 -3.050000000000000E-002    5.932306790161177E-013
 -3.040000000000000E-002    6.224683477336984E-013
 -3.030000000000000E-002    6.161034602102692E-013
 -3.020000000000000E-002    5.700329814166883E-013
 -3.010000000000000E-002    4.823773162528582E-013
 -3.000000000000000E-002    3.536943536357390E-013
 -2.990000000000000E-002    1.869949222389892E-013
 -2.980000000000000E-002   -1.243569719691169E-014
 -2.970000000000000E-002   -2.373787929197240E-013
 -2.960000000000000E-002   -4.791317198320235E-013
 -2.950000000000000E-002   -7.279947540544105E-013
 -2.940000000000000E-002   -9.737194719658126E-013
 -2.930000000000000E-002   -1.205849053773048E-012
 -2.920000000000000E-002   -1.413902945318330E-012
 -2.910000000000000E-002   -1.587391773594580E-012
 -2.900000000000000E-002   -1.715689761364648E-012
 -2.890000000000000E-002   -1.787836984886415E-012
 -2.880000000000000E-002   -1.792383864000959E-012
 -2.870000000000000E-002   -1.717415364636056E-012
 -2.860000000000000E-002   -1.550900612360469E-012
 -2.850000000000000E-002   -1.281489365238580E-012
 -2.840000000000000E-002   -8.998300563356124E-013
 -2.830000000000000E-002   -4.004020624436645E-013
 -2.820000000000000E-002    2.162424660771227E-013
 -2.810000000000000E-002    9.410431474808000E-013
 -2.800000000000000E-002    1.754126154585852E-012
 -2.790000000000000E-002    2.623029881441240E-012
 -2.780000000000000E-002    3.501910573251210E-012
 -2.770000000000000E-002    4.332152803859235E-012
 -2.760000000000000E-002    5.044728978583168E-012
 -2.750000000000000E-002    5.564488998582678E-012
 -2.740000000000000E-002    5.816341914761093E-012
 -2.730000000000000E-002    5.733013948954730E-012
 -2.720000000000000E-002    5.263781283875790E-012
 -2.710000000000000E-002    4.383295137378237E-012
 -2.700000000000000E-002    3.099411593484520E-012
 -2.690000000000000E-002    1.458818494730017E-012
 -2.680000000000000E-002   -4.507135877365978E-013
 -2.670000000000000E-002   -2.502442471892090E-012
 -2.660000000000000E-002   -4.537745774240532E-012
 -2.650000000000000E-002   -6.378294833486683E-012
 -2.640000000000000E-002   -7.842784877424721E-012
 -2.630000000000000E-002   -8.766993286515326E-012
 -2.620000000000000E-002   -9.025295955127098E-012
 -2.610000000000000E-002   -8.551215125617540E-012
 -2.600000000000000E-002   -7.354263506720656E-012
 -2.590000000000000E-002   -5.530302000639225E-012
 -2.580000000000000E-002   -3.262974252359312E-012
 -2.570000000000000E-002   -8.144464536983913E-013
 -2.560000000000000E-002    1.495241158088123E-012
 -2.550000000000000E-002    3.319617877017489E-012
 -2.540000000000000E-002    4.325935520794345E-012
 -2.530000000000000E-002    4.240514970289627E-012
 -2.520000000000000E-002    2.894491019072579E-012
 -2.510000000000000E-002    2.643128088619228E-013
 -2.500000000000000E-002   -3.498932466516980E-012
 -2.490000000000000E-002   -8.056927794818065E-012
 -2.480000000000000E-002   -1.289264030663902E-011
 -2.470000000000000E-002   -1.734244834559946E-011
 -2.460000000000000E-002   -2.065188365578649E-011
 -2.450000000000000E-002   -2.205211705269443E-011
 -2.440000000000000E-002   -2.085132392090557E-011
 -2.430000000000000E-002   -1.653235833407822E-011
 -2.420000000000000E-002   -8.846081719618477E-012
 -2.410000000000000E-002    2.111420169645662E-012
 -2.400000000000000E-002    1.584934916501558E-011
 -2.390000000000000E-002    3.147047606230602E-011
 -2.380000000000000E-002    4.770422614082513E-011
 -2.370000000000000E-002    6.298741688032250E-011
 -2.360000000000000E-002    7.559018814138162E-011
 -2.350000000000000E-002    8.377925110743877E-011
 -2.340000000000000E-002    8.600500269767138E-011
 -2.330000000000000E-002    8.109459308313405E-011
 -2.320000000000000E-002    6.843000449346378E-011
 -2.310000000000000E-002    4.808911727356095E-011
 -2.300000000000000E-002    2.092929564668524E-011
 -2.290000000000000E-002   -1.140307587576547E-011
 -2.280000000000000E-002   -4.654724741780359E-011
 -2.270000000000000E-002   -8.158875113671045E-011
 -2.260000000000000E-002   -1.132984163752488E-010
 -2.250000000000000E-002   -1.384323080607250E-010
 -2.240000000000000E-002   -1.540665208106677E-010
 -2.230000000000000E-002   -1.579336618694607E-010
 -2.220000000000000E-002   -1.487243899788217E-010
 -2.210000000000000E-002   -1.263171362002408E-010
 -2.200000000000000E-002   -9.190339383579582E-011
 -2.190000000000000E-002   -4.798426778817810E-011
 -2.180000000000000E-002    1.774115578137237E-012
 -2.170000000000000E-002    5.282426032739408E-011
 -2.160000000000000E-002    1.001422932196418E-010
 -2.150000000000000E-002    1.387211474387680E-010
 -2.140000000000000E-002    1.641061145347404E-010
 -2.130000000000000E-002    1.729178116717487E-010
 -2.120000000000000E-002    1.633037547265494E-010
 -2.110000000000000E-002    1.352627783469101E-010
 -2.100000000000000E-002    9.079516934220748E-011
 -2.090000000000000E-002    3.384696677890631E-011
 -2.080000000000000E-002   -2.996335044271131E-011
 -2.070000000000000E-002   -9.382418801669294E-011
 -2.060000000000000E-002   -1.503808601895399E-010
 -2.050000000000000E-002   -1.924991949521420E-010
 -2.040000000000000E-002   -2.140680590326308E-010
 -2.030000000000000E-002   -2.107557423335186E-010
 -2.020000000000000E-002   -1.806333862825340E-010
 -2.010000000000000E-002   -1.245860760535948E-010
 -2.000000000000000E-002   -4.644935320297220E-011
 -1.990000000000000E-002    4.716578410143882E-011
 -1.980000000000000E-002    1.473651419186038E-010
 -1.970000000000000E-002    2.437521016071374E-010
 -1.960000000000000E-002    3.254342945748551E-010
 -1.950000000000000E-002    3.821642942312706E-010
 -1.940000000000000E-002    4.055006804303411E-010
 -1.930000000000000E-002    3.898650357296490E-010
 -1.920000000000000E-002    3.333727755013528E-010
 -1.910000000000000E-002    2.383310400193255E-010
 -1.900000000000000E-002    1.113251550546478E-010
 -1.890000000000000E-002   -3.714585796866251E-011
 -1.880000000000000E-002   -1.934788394177847E-010
 -1.870000000000000E-002   -3.421666469857061E-010
 -1.860000000000000E-002   -4.672894454075972E-010
 -1.850000000000000E-002   -5.541588364018444E-010
 -1.840000000000000E-002   -5.909519352603916E-010
 -1.830000000000000E-002   -5.701622529045293E-010
 -1.820000000000000E-002   -4.897018378683569E-010
 -1.810000000000000E-002   -3.535161930025289E-010
 -1.800000000000000E-002   -1.716149960979277E-010
 -1.790000000000000E-002    4.052284630785303E-011
 -1.780000000000000E-002    2.631479474321549E-010
 -1.770000000000000E-002    4.739581814283276E-010
 -1.760000000000000E-002    6.501898391496964E-010
 -1.750000000000000E-002    7.708909068523452E-010
 -1.740000000000000E-002    8.191548085056272E-010
 -1.730000000000000E-002    7.840845527919089E-010
 -1.720000000000000E-002    6.622723876556795E-010
 -1.710000000000000E-002    4.586178785590160E-010
 -1.700000000000000E-002    1.863659426448784E-010
 -1.690000000000000E-002   -1.336803849482113E-010
 -1.680000000000000E-002   -4.747363806112730E-010
 -1.670000000000000E-002   -8.062827551317561E-010
 -1.660000000000000E-002   -1.096791745909673E-009
 -1.650000000000000E-002   -1.316682677222566E-009
 -1.640000000000000E-002   -1.441223874662572E-009
 -1.630000000000000E-002   -1.453089477983679E-009
 -1.620000000000000E-002   -1.344301641967016E-009
 -1.610000000000000E-002   -1.117340733536345E-009
 -1.600000000000000E-002   -7.852788920923489E-010
 -1.590000000000000E-002   -3.708857638821755E-010
 -1.580000000000000E-002    9.524356737889358E-011
 -1.570000000000000E-002    5.773871940558662E-010
 -1.560000000000000E-002    1.037981210751464E-009
 -1.550000000000000E-002    1.441182220363080E-009
 -1.540000000000000E-002    1.756355870836858E-009
 -1.530000000000000E-002    1.961137076718833E-009
 -1.520000000000000E-002    2.043732282830562E-009
 -1.510000000000000E-002    2.004199971993939E-009
 -1.500000000000000E-002    1.854537821924497E-009
 -1.490000000000000E-002    1.617517135224440E-009
 -1.480000000000000E-002    1.324332011736896E-009
 -1.470000000000000E-002    1.011251522565952E-009
 -1.460000000000000E-002    7.155756332907020E-010
 -1.450000000000000E-002    4.712770948372042E-010
 -1.440000000000000E-002    3.047665070495200E-010
 -1.430000000000000E-002    2.312209733413027E-010
 -1.420000000000000E-002    2.518899496941658E-010
 -1.410000000000000E-002    3.527096804068144E-010
 -1.400000000000000E-002    5.044481372358478E-010
 -1.390000000000000E-002    6.644628560418378E-010
 -1.380000000000000E-002    7.799986784954408E-010
 -1.370000000000000E-002    7.927963023183683E-010
 -1.360000000000000E-002    6.446497461214259E-010
 -1.350000000000000E-002    2.834269679556258E-010
 -1.340000000000000E-002   -3.309899566288461E-010
 -1.330000000000000E-002   -1.221417303547952E-009
 -1.320000000000000E-002   -2.389271277452364E-009
 -1.310000000000000E-002   -3.812115578825247E-009
 -1.300000000000000E-002   -5.443168647119662E-009
 -1.290000000000000E-002   -7.212927916630554E-009
 -1.280000000000000E-002   -9.032868813300629E-009
 -1.270000000000000E-002   -1.080098523662490E-008
 -1.260000000000000E-002   -1.240875251204706E-008
 -1.250000000000000E-002   -1.374894756774890E-008
 -1.240000000000000E-002   -1.472365631684882E-008
 -1.230000000000000E-002   -1.525175572078558E-008
 -1.220000000000000E-002   -1.527518215481790E-008
 -1.210000000000000E-002   -1.476339039179884E-008
 -1.200000000000000E-002   -1.371556131586503E-008
 -1.190000000000000E-002   -1.216032273756221E-008
 -1.180000000000000E-002   -1.015298421229887E-008
 -1.170000000000000E-002   -7.770540715467794E-009
 -1.160000000000000E-002   -5.104944086865854E-009
 -1.150000000000000E-002   -2.255343898800996E-009
 -1.140000000000000E-002    6.798496113296974E-010
 -1.130000000000000E-002    3.610152463853244E-009
 -1.120000000000000E-002    6.458526955052134E-009
 -1.110000000000000E-002    9.164381358006038E-009
 -1.100000000000000E-002    1.168346666127848E-008
 -1.090000000000000E-002    1.398422381107469E-008
 -1.080000000000000E-002    1.604050817889745E-008
 -1.070000000000000E-002    1.782103581288661E-008
 -1.060000000000000E-002    1.927599047290174E-008
 -1.050000000000000E-002    2.032177856231890E-008
 -1.040000000000000E-002    2.082499801494601E-008
 -1.030000000000000E-002    2.058685529861331E-008
 -1.020000000000000E-002    1.932933993851240E-008
 -1.010000000000000E-002    1.668436051193723E-008
 -1.000000000000000E-002    1.218670267964758E-008
 -9.899999999999999E-003    5.271686343567868E-009
 -9.800000000000000E-003   -4.722326935170752E-009
 -9.699999999999999E-003   -1.854648629277335E-008
 -9.599999999999999E-003   -3.702996642030115E-008
 -9.500000000000000E-003   -6.106474753917850E-008
 -9.399999999999999E-003   -9.158869424376255E-008
 -9.299999999999999E-003   -1.295674771648276E-007
 -9.200000000000000E-003   -1.759779632018876E-007
 -9.099999999999999E-003   -2.317934431829173E-007
 -8.999999999999999E-003   -2.979728178398260E-007
 -8.900000000000000E-003   -3.754541476226906E-007
 -8.799999999999999E-003   -4.651531252701571E-007
 -8.699999999999999E-003   -5.679670698637998E-007
 -8.600000000000000E-003   -6.847828735657560E-007
 -8.499999999999999E-003   -8.164892375078395E-007
 -8.399999999999999E-003   -9.639906319463785E-007
 -8.300000000000000E-003   -1.128221962296633E-006
 -8.199999999999999E-003   -1.310162936720281E-006
 -8.100000000000000E-003   -1.510848734427401E-006
 -8.000000000000000E-003   -1.731378118327222E-006
 -7.899999999999999E-003   -1.972915439175232E-006
 -7.800000000000000E-003   -2.236689127558967E-006
 -7.699999999999999E-003   -2.523983364711473E-006
 -7.599999999999999E-003   -2.836126898266588E-006
 -7.499999999999999E-003   -3.174480414297853E-006
 -7.399999999999999E-003   -3.540419213054821E-006
 -7.299999999999999E-003   -3.935322131525769E-006
 -7.199999999999999E-003   -4.360559175262773E-006
 -7.100000000000000E-003   -4.817487258023733E-006
 -6.999999999999999E-003   -5.307452341526313E-006
 -6.899999999999999E-003   -5.831798783431135E-006
 -6.800000000000000E-003   -6.391885907693769E-006
 -6.699999999999999E-003   -6.989112956179389E-006
 -6.599999999999999E-003   -7.624952576737621E-006
 -6.499999999999999E-003   -8.300981706856586E-006
 -6.399999999999999E-003   -9.018922280574757E-006
 -6.299999999999999E-003   -9.780676572388769E-006
 -6.199999999999999E-003   -1.058835648698847E-005
 -6.100000000000000E-003   -1.144431016863830E-005
 -5.999999999999999E-003   -1.235113877140996E-005
 -5.899999999999999E-003   -1.331170424095136E-005
 -5.800000000000000E-003   -1.432912359204309E-005
 -5.699999999999999E-003   -1.540675928555054E-005
 -5.599999999999999E-003   -1.654819621970281E-005
 -5.499999999999999E-003   -1.775721925493380E-005
 -5.399999999999999E-003   -1.903778200383103E-005
 -5.299999999999999E-003   -2.039398160438873E-005
 -5.199999999999999E-003   -2.183004118484187E-005
 -5.099999999999999E-003   -2.335029228443569E-005
 -4.999999999999999E-003   -2.495917440119477E-005
 -4.899999999999999E-003   -2.666124540847908E-005
 -4.799999999999999E-003   -2.846120221424684E-005
 -4.699999999999999E-003   -3.036391719671630E-005
 -4.599999999999999E-003   -3.237447595898314E-005
 -4.499999999999999E-003   -3.449823261781374E-005
 -4.399999999999999E-003   -3.674086508378432E-005
 -4.299999999999999E-003   -3.910841452824024E-005
 -4.199999999999999E-003   -4.160734305584110E-005
 -4.099999999999999E-003   -4.424456895905122E-005
 -3.999999999999999E-003   -4.702748218054457E-005
 -3.899999999999999E-003   -4.996396946270245E-005
 -3.799999999999999E-003   -5.306239813432119E-005
 -3.699999999999999E-003   -5.633161360798352E-005
 -3.599999999999999E-003   -5.978091360734566E-005
 -3.499999999999999E-003   -6.342002686459552E-005
 -3.399999999999999E-003   -6.725907591174972E-005
 -3.299999999999999E-003   -7.130855524426150E-005
 -3.199999999999999E-003   -7.557931577736991E-005
 -3.099999999999999E-003   -8.008258806299267E-005
 -2.999999999999999E-003   -8.482996760001241E-005
 -2.899999999999999E-003   -8.983348219185935E-005
 -2.799999999999999E-003   -9.510563501340861E-005
 -2.699999999999999E-003   -1.006594885811547E-004
 -2.599999999999999E-003   -1.065087186315566E-004
 -2.499999999999999E-003   -1.126677559399282E-004
 -2.399999999999999E-003   -1.191518533663116E-004
 -2.299999999999999E-003   -1.259771846399733E-004
 -2.199999999999999E-003   -1.331609119133747E-004
 -2.099999999999999E-003   -1.407212646572549E-004
 -1.999999999999999E-003   -1.486775746339823E-004
 -1.899999999999999E-003   -1.570502942864733E-004
 -1.799999999999999E-003   -1.658609629861588E-004
 -1.699999999999999E-003   -1.751322407636282E-004
 -1.599999999999999E-003   -1.848877868217995E-004
 -1.499999999999999E-003   -1.951522580579330E-004
 -1.399999999999999E-003   -2.059512381376485E-004
 -1.299999999999999E-003   -2.173111622621755E-004
 -1.199999999999999E-003   -2.292593068031646E-004
 -1.099999999999999E-003   -2.418237246303736E-004
 -9.999999999999989E-004   -2.550333308458263E-004
 -8.999999999999990E-004   -2.689178268042974E-004
 -7.999999999999990E-004   -2.835078410629667E-004
 -6.999999999999989E-004   -2.988350362144316E-004
 -5.999999999999990E-004   -3.149321474170448E-004
 -4.999999999999989E-004   -3.318332221261191E-004
 -3.999999999999989E-004   -3.495736979868558E-004
 -2.999999999999989E-004   -3.681905314696993E-004
 -1.999999999999989E-004   -3.877224530552617E-004
 -9.999999999999892E-005   -4.082099681141621E-004
  1.084202172485504E-018   -4.296955133372857E-004
  1.000000000000011E-004   -4.522235820243512E-004
  2.000000000000011E-004   -4.758406300101216E-004
  3.000000000000011E-004   -5.005952055952558E-004
  4.000000000000011E-004   -5.265379366562751E-004
  5.000000000000011E-004   -5.537214209360975E-004
  6.000000000000011E-004   -5.822002286181704E-004
  7.000000000000011E-004   -6.120308457295341E-004
  8.000000000000011E-004   -6.432716195541370E-004
  9.000000000000012E-004   -6.759826898535842E-004
  1.000000000000001E-003   -7.102260812944512E-004
  1.100000000000001E-003   -7.460655906626910E-004
  1.200000000000001E-003   -7.835669524056602E-004
  1.300000000000001E-003   -8.227978792839609E-004
  1.400000000000001E-003   -8.638282418124898E-004
  1.500000000000001E-003   -9.067300110964854E-004
  1.600000000000001E-003   -9.515776358705289E-004
  1.700000000000001E-003   -9.984480469188619E-004
  1.800000000000001E-003   -1.047421007511128E-003
  1.900000000000001E-003   -1.098579022235565E-003
  2.000000000000001E-003   -1.152007611605261E-003
  2.100000000000001E-003   -1.207795417659440E-003
  2.200000000000001E-003   -1.266034146794174E-003
  2.300000000000001E-003   -1.326818749297994E-003
  2.400000000000001E-003   -1.390247416746757E-003
  2.500000000000001E-003   -1.456421518011959E-003
  2.600000000000001E-003   -1.525445551985747E-003
  2.700000000000001E-003   -1.597427150310233E-003
  2.800000000000001E-003   -1.672476914707223E-003
  2.900000000000001E-003   -1.750708653243814E-003
  3.000000000000001E-003   -1.832239088903251E-003
  3.100000000000001E-003   -1.917187883894076E-003
  3.200000000000001E-003   -2.005677882156845E-003
  3.300000000000001E-003   -2.097835006171349E-003
  3.400000000000001E-003   -2.193788452522245E-003
  3.500000000000001E-003   -2.293670576444500E-003
  3.600000000000001E-003   -2.397617270157883E-003
  3.700000000000001E-003   -2.505767969346598E-003
  3.800000000000001E-003   -2.618265866347373E-003
  3.900000000000001E-003   -2.735257942058467E-003
  4.000000000000001E-003   -2.856895409987101E-003
  4.100000000000001E-003   -2.983332813110785E-003
  4.200000000000001E-003   -3.114729555369105E-003
  4.300000000000001E-003   -3.251248605176664E-003
  4.400000000000001E-003   -3.393056966590677E-003
  4.500000000000001E-003   -3.540326408867078E-003
  4.600000000000002E-003   -3.693231677717884E-003
  4.700000000000001E-003   -3.851952457918963E-003
  4.800000000000001E-003   -4.016671439848726E-003
  4.900000000000002E-003   -4.187575256612721E-003
  5.000000000000001E-003   -4.364854829163272E-003
  5.100000000000001E-003   -4.548704321651595E-003
  5.200000000000001E-003   -4.739321375104857E-003
  5.300000000000002E-003   -4.936907414798489E-003
  5.400000000000001E-003   -5.141667483362546E-003
  5.500000000000001E-003   -5.353810564815302E-003
  5.600000000000002E-003   -5.573548791734272E-003
  5.700000000000001E-003   -5.801098821540100E-003
  5.800000000000001E-003   -6.036680287575850E-003
  5.900000000000002E-003   -6.280516811758423E-003
  6.000000000000001E-003   -6.532836644422481E-003
  6.100000000000001E-003   -6.793870097277684E-003
  6.200000000000002E-003   -7.063852014442826E-003
  6.300000000000002E-003   -7.343020189666541E-003
  6.400000000000001E-003   -7.631616150959895E-003
  6.500000000000001E-003   -7.929884058474564E-003
  6.600000000000002E-003   -8.238070752057418E-003
  6.700000000000001E-003   -8.556426180768103E-003
  6.800000000000001E-003   -8.885201703433196E-003
  6.900000000000002E-003   -9.224650998064901E-003
  7.000000000000001E-003   -9.575030143683666E-003
  7.100000000000001E-003   -9.936595557668602E-003
  7.200000000000002E-003   -1.030960727447549E-002
  7.300000000000002E-003   -1.069432396442294E-002
  7.400000000000001E-003   -1.109100742018061E-002
  7.500000000000001E-003   -1.149992009425294E-002
  7.600000000000002E-003   -1.192132469287294E-002
  7.700000000000001E-003   -1.235548725007455E-002
  7.800000000000001E-003   -1.280267106929076E-002
  7.900000000000001E-003   -1.326314359611334E-002
  8.000000000000002E-003   -1.373717147609034E-002
  8.100000000000001E-003   -1.422502065600610E-002
  8.200000000000001E-003   -1.472695910243827E-002
  8.300000000000002E-003   -1.524325213429388E-002
  8.400000000000001E-003   -1.577416653474486E-002
  8.500000000000002E-003   -1.631996648160433E-002
  8.600000000000002E-003   -1.688091397809705E-002
  8.700000000000001E-003   -1.745726991520196E-002
  8.800000000000002E-003   -1.804928937729466E-002
  8.900000000000002E-003   -1.865722683016108E-002
  9.000000000000001E-003   -1.928133153758944E-002
  9.100000000000002E-003   -1.992184817330442E-002
  9.200000000000002E-003   -2.057901426782420E-002
  9.300000000000001E-003   -2.125306313774505E-002
  9.400000000000002E-003   -2.194422151649677E-002
  9.500000000000001E-003   -2.265270983163824E-002
  9.600000000000001E-003   -2.337874107130418E-002
  9.700000000000002E-003   -2.412252227441085E-002
  9.800000000000001E-003   -2.488425260408051E-002
  9.900000000000001E-003   -2.566412084259121E-002
  1.000000000000000E-002   -2.646231094675543E-002
  1.010000000000000E-002   -2.727899665189593E-002
  1.020000000000000E-002   -2.811434049915604E-002
  1.030000000000000E-002   -2.896849690113654E-002
  1.040000000000000E-002   -2.984160918380504E-002
  1.050000000000000E-002   -3.073381082398666E-002
  1.060000000000000E-002   -3.164521884727346E-002
  1.070000000000000E-002   -3.257594086365923E-002
  1.080000000000000E-002   -3.352607052259905E-002
  1.090000000000000E-002   -3.449568403837514E-002
  1.100000000000000E-002   -3.548484482824684E-002
  1.110000000000000E-002   -3.649359602893541E-002
  1.120000000000000E-002   -3.752196650624843E-002
  1.130000000000000E-002   -3.856996285085274E-002
  1.140000000000000E-002   -3.963757917574644E-002
  1.150000000000000E-002   -4.072478573542260E-002
  1.160000000000000E-002   -4.183153341314063E-002
  1.170000000000000E-002   -4.295775027924724E-002
  1.180000000000000E-002   -4.410334963439640E-002
  1.190000000000000E-002   -4.526821407801439E-002
  1.200000000000000E-002   -4.645221000796787E-002
  1.210000000000000E-002   -4.765518232917143E-002
  1.220000000000000E-002   -4.887694679368640E-002
  1.230000000000000E-002   -5.011729699592647E-002
  1.240000000000000E-002   -5.137600438642178E-002
  1.250000000000000E-002   -5.265280412504034E-002
  1.260000000000000E-002   -5.394741664075259E-002
  1.270000000000000E-002   -5.525952349530238E-002
  1.280000000000000E-002   -5.658878649268417E-002
  1.290000000000000E-002   -5.793483059913626E-002
  1.300000000000000E-002   -5.929725274525623E-002
  1.310000000000000E-002   -6.067561840491578E-002
  1.320000000000000E-002   -6.206945670007681E-002
  1.330000000000000E-002   -6.347826402979292E-002
  1.340000000000000E-002   -6.490150613225230E-002
  1.350000000000000E-002   -6.633860981412197E-002
  1.360000000000000E-002   -6.778896962543275E-002
  1.370000000000000E-002   -6.925194361071932E-002
  1.380000000000000E-002   -7.072684935769040E-002
  1.390000000000000E-002   -7.221297445521367E-002
  1.400000000000000E-002   -7.370956919864334E-002
  1.410000000000000E-002   -7.521584112924756E-002
  1.420000000000000E-002   -7.673096272606501E-002
  1.430000000000000E-002   -7.825406948884893E-002
  1.440000000000000E-002   -7.978425279398912E-002
  1.450000000000000E-002   -8.132056853647071E-002
  1.460000000000000E-002   -8.286203229226936E-002
  1.470000000000000E-002   -8.440761668967713E-002
  1.480000000000000E-002   -8.595625359882100E-002
  1.490000000000000E-002   -8.750683155924348E-002
  1.500000000000000E-002   -8.905819807981821E-002
  1.510000000000000E-002   -9.060915799175280E-002
  1.520000000000000E-002   -9.215847072220688E-002
  1.530000000000000E-002   -9.370485163548871E-002
  1.540000000000000E-002   -9.524697505804373E-002
  1.550000000000000E-002   -9.678347477156060E-002
  1.560000000000000E-002   -9.831293138780176E-002
  1.570000000000000E-002   -9.983389755932809E-002
  1.580000000000000E-002   -0.101344868264110     
  1.590000000000000E-002   -0.102844310239885     
  1.600000000000000E-002   -0.104330638811583     
  1.610000000000000E-002   -0.105802224494081     
  1.620000000000000E-002   -0.107257410438891     
  1.630000000000000E-002   -0.108694491642838     
  1.640000000000000E-002   -0.110111721040007     
  1.650000000000000E-002   -0.111507308724324     
  1.660000000000000E-002   -0.112879442874398     
  1.670000000000000E-002   -0.114226247244601     
  1.680000000000000E-002   -0.115545827611962     
  1.690000000000000E-002   -0.116836229720793     
  1.700000000000000E-002   -0.118095490884364     
  1.710000000000000E-002   -0.119321580934651     
  1.720000000000000E-002   -0.120512449539769     
  1.730000000000000E-002   -0.121666008296770     
  1.740000000000000E-002   -0.122780142323708     
  1.750000000000000E-002   -0.123852688408110     
  1.760000000000000E-002   -0.124881470550527     
  1.770000000000000E-002   -0.125864264561503     
  1.780000000000000E-002   -0.126798831271650     
  1.790000000000000E-002   -0.127682897326931     
  1.800000000000000E-002   -0.128514173389793     
  1.810000000000000E-002   -0.129290343088753     
  1.820000000000000E-002   -0.130009068326582     
  1.830000000000000E-002   -0.130667994314948     
  1.840000000000000E-002   -0.131264750330343     
  1.850000000000000E-002   -0.131796951152631     
  1.860000000000000E-002   -0.132262180669632     
  1.870000000000000E-002   -0.132658052010665     