 -4.000000000000000E-002    0.000000000000000E+000
 -3.990000000000000E-002    0.000000000000000E+000
 -3.980000000000000E-002    0.000000000000000E+000
 -3.970000000000000E-002    0.000000000000000E+000
 -3.960000000000000E-002    0.000000000000000E+000
 -3.950000000000000E-002    0.000000000000000E+000
 -3.940000000000000E-002    0.000000000000000E+000
 -3.930000000000000E-002    0.000000000000000E+000
 -3.920000000000000E-002    0.000000000000000E+000
 -3.910000000000000E-002    0.000000000000000E+000
 -3.900000000000000E-002    0.000000000000000E+000
 -3.890000000000000E-002    0.000000000000000E+000
 -3.880000000000000E-002    0.000000000000000E+000
 -3.870000000000000E-002    0.000000000000000E+000
 -3.860000000000000E-002    0.000000000000000E+000
 -3.850000000000000E-002    0.000000000000000E+000
 -3.840000000000000E-002    0.000000000000000E+000
 -3.830000000000000E-002    0.000000000000000E+000
 -3.820000000000000E-002    0.000000000000000E+000
 -3.810000000000000E-002   -6.785217974064792E-048
 -3.800000000000000E-002   -1.178298416249549E-046
 -3.790000000000000E-002   -9.315564141108868E-046
 -3.780000000000000E-002   -5.577782134030203E-045
 -3.770000000000000E-002   -2.927239673001690E-044
 -3.760000000000000E-002   -1.364149040967257E-043
 -3.750000000000000E-002   -5.731819620578928E-043
 -3.740000000000000E-002   -2.202206034817694E-042
 -3.730000000000000E-002   -7.807210920149419E-042
 -3.720000000000000E-002   -2.573128245844969E-041
 -3.710000000000000E-002   -7.931740666799447E-041
 -3.700000000000000E-002   -2.297969607389910E-040
 -3.690000000000000E-002   -6.282310061041178E-040
 -3.680000000000000E-002   -1.625918924287736E-039
 -3.670000000000000E-002   -3.993873577110511E-039
 -3.660000000000000E-002   -9.329141778709821E-039
 -3.650000000000000E-002   -2.074922316766293E-038
 -3.640000000000000E-002   -4.396823678011349E-038
 -3.630000000000000E-002   -8.875020412459348E-038
 -3.620000000000000E-002   -1.704357127910096E-037
 -3.610000000000000E-002   -3.105611123692796E-037
 -3.600000000000000E-002   -5.342879784435844E-037
 -3.590000000000000E-002   -8.601571883932250E-037
 -3.580000000000000E-002   -1.274382798616810E-036
 -3.570000000000000E-002   -1.677631169619300E-036
 -3.560000000000000E-002   -1.787848674203220E-036
 -3.550000000000000E-002   -9.803862397134437E-037
 -3.540000000000000E-002    1.949354062965249E-036
 -3.530000000000000E-002    9.098291094494228E-036
 -3.520000000000000E-002    2.380022261356190E-035
 -3.510000000000000E-002    5.088421970728277E-035
 -3.500000000000000E-002    9.660656692222714E-035
 -3.490000000000000E-002    1.678430021871329E-034
 -3.480000000000000E-002    2.699153809473748E-034
 -3.470000000000000E-002    4.022163308096421E-034
 -3.460000000000000E-002    5.506746887447127E-034
 -3.450000000000000E-002    6.762235605272291E-034
 -3.440000000000000E-002    6.990107920443240E-034
 -3.430000000000000E-002    4.794083144188441E-034
 -3.420000000000000E-002   -2.007755850605914E-034
 -3.410000000000000E-002   -1.649875752935098E-033
 -3.400000000000000E-002   -4.258891429451549E-033
 -3.390000000000000E-002   -8.457450855373069E-033
 -3.380000000000000E-002   -1.461040861820718E-032
 -3.370000000000000E-002   -2.282938263367749E-032
 -3.360000000000000E-002   -3.267627386431217E-032
 -3.350000000000000E-002   -4.274846453550730E-032
 -3.340000000000000E-002   -5.016287454308733E-032
 -3.330000000000000E-002   -5.000291011233967E-032
 -3.320000000000000E-002   -3.486123501996274E-032
 -3.310000000000000E-002    5.299814945108294E-033
 -3.300000000000000E-002    8.264861677971059E-032
 -3.290000000000000E-002    2.099335580109617E-031
 -3.280000000000000E-002    3.974215707890802E-031
 -3.270000000000000E-002    6.479087080620022E-031
 -3.260000000000000E-002    9.495770959980984E-031
 -3.250000000000000E-002    1.266876739930205E-030
 -3.240000000000000E-002    1.530280940697449E-030
 -3.230000000000000E-002    1.626722099996691E-030
 -3.220000000000000E-002    1.393723924675586E-030
 -3.210000000000000E-002    6.215781904301367E-031
 -3.200000000000000E-002   -9.308841201179856E-031
 -3.190000000000000E-002   -3.500693493442131E-030
 -3.180000000000000E-002   -7.259460459554900E-030
 -3.170000000000000E-002   -1.222262947152490E-029
 -3.160000000000000E-002   -1.812991374156801E-029
 -3.150000000000000E-002   -2.430487735051453E-029
 -3.140000000000000E-002   -2.951202931211473E-029
 -3.130000000000000E-002   -3.184288804333571E-029
 -3.120000000000000E-002   -2.867701334504955E-029
 -3.110000000000000E-002   -1.677755250854834E-029
 -3.100000000000000E-002    7.410158195678443E-030
 -3.090000000000000E-002    4.718892006990455E-029
 -3.080000000000000E-002    1.047166190596066E-028
 -3.070000000000000E-002    1.797743114220775E-028
 -3.060000000000000E-002    2.682428399319889E-028
 -3.050000000000000E-002    3.604261451003766E-028
 -3.040000000000000E-002    4.394763114691156E-028
 -3.030000000000000E-002    4.803081973707455E-028
 -3.020000000000000E-002    4.495238117483244E-028
 -3.010000000000000E-002    3.069692183861483E-028
 -3.000000000000000E-002    9.585091799226189E-030
 -2.990000000000000E-002   -4.818604408201179E-028
 -2.980000000000000E-002   -1.192794490766184E-027
 -2.970000000000000E-002   -2.121678728419208E-027
 -2.960000000000000E-002   -3.224368799888912E-027
 -2.950000000000000E-002   -4.397554603933410E-027
 -2.940000000000000E-002   -5.463861259812421E-027
 -2.930000000000000E-002   -6.162275192391896E-027
 -2.920000000000000E-002   -6.148530623784349E-027
 -2.910000000000000E-002   -5.010723190190911E-027
 -2.900000000000000E-002   -2.305422648725244E-027
 -2.890000000000000E-002    2.381378750198938E-027
 -2.880000000000000E-002    9.346308948056256E-027
 -2.870000000000000E-002    1.865508713403397E-026
 -2.860000000000000E-002    3.000998321699345E-026
 -2.850000000000000E-002    4.261126719235813E-026
 -2.840000000000000E-002    5.503296933285476E-026
 -2.830000000000000E-002    6.514055232649153E-026
 -2.820000000000000E-002    7.008423121718866E-026
 -2.810000000000000E-002    6.640490009095283E-026
 -2.800000000000000E-002    5.028839777305926E-026
 -2.790000000000000E-002    1.799613195650375E-026
 -2.780000000000000E-002   -3.351544357773207E-026
 -2.770000000000000E-002   -1.057984474607840E-025
 -2.760000000000000E-002   -1.979850948552499E-025
 -2.750000000000000E-002   -3.058119164659823E-025
 -2.740000000000000E-002   -4.207249279289642E-025
 -2.730000000000000E-002   -5.292355160820055E-025
 -2.720000000000000E-002   -6.127296798828202E-025
 -2.710000000000000E-002   -6.479479246753917E-025
 -2.700000000000000E-002   -6.083412999524924E-025
 -2.690000000000000E-002   -4.664618787106997E-025
 -2.680000000000000E-002   -1.974562860283527E-025
 -2.670000000000000E-002    2.164021267384664E-025
 -2.660000000000000E-002    7.803819120323029E-025
 -2.650000000000000E-002    1.481606443600023E-024
 -2.640000000000000E-002    2.283670593089703E-024
 -2.630000000000000E-002    3.122419586277658E-024
 -2.620000000000000E-002    3.903896764300392E-024
 -2.610000000000000E-002    4.505523605268715E-024
 -2.600000000000000E-002    4.781505569223576E-024
 -2.590000000000000E-002    4.573223746030466E-024
 -2.580000000000000E-002    3.724952817734529E-024
 -2.570000000000000E-002    2.104646443887856E-024
 -2.560000000000000E-002   -3.712284882800464E-025
 -2.550000000000000E-002   -3.710701097748763E-024
 -2.540000000000000E-002   -7.819916841441110E-024
 -2.530000000000000E-002   -1.248093784864419E-023
 -2.520000000000000E-002   -1.733783671185798E-023
 -2.510000000000000E-002   -2.189538997454377E-023
 -2.500000000000000E-002   -2.553433897944207E-023
 -2.490000000000000E-002   -2.754625265537053E-023
 -2.480000000000000E-002   -2.718944180855932E-023
 -2.470000000000000E-002   -2.376512963372867E-023
 -2.460000000000000E-002   -1.671037443576584E-023
 -2.450000000000000E-002   -5.701220237782114E-024
 -2.440000000000000E-002    9.243430970515150E-024
 -2.430000000000000E-002    2.766931281826021E-023
 -2.420000000000000E-002    4.861943669706513E-023
 -2.410000000000000E-002    7.060618974855378E-023
 -2.400000000000000E-002    9.163591538982295E-023
 -2.390000000000000E-002    1.092961170268347E-022
 -2.380000000000000E-002    1.209103939843878E-022
 -2.370000000000000E-002    1.237596300907227E-022
 -2.360000000000000E-002    1.153599777151553E-022
 -2.350000000000000E-002    9.377961805973150E-023
 -2.340000000000000E-002    5.796807114561944E-023
 -2.330000000000000E-002    8.064646792117125E-024
 -2.320000000000000E-002   -5.435177995949023E-023
 -2.310000000000000E-002   -1.261110914336477E-022
 -2.300000000000000E-002   -2.024348061613299E-022
 -2.290000000000000E-002   -2.770827225657049E-022
 -2.280000000000000E-002   -3.426809586843489E-022
 -2.270000000000000E-002   -3.912330035623767E-022
 -2.260000000000000E-002   -4.147966200560052E-022
 -2.250000000000000E-002   -4.062892508201678E-022
 -2.240000000000000E-002   -3.603639698787160E-022
 -2.230000000000000E-002   -2.742803121838294E-022
 -2.220000000000000E-002   -1.486806698513390E-022
 -2.210000000000000E-002    1.182513140187893E-023
 -2.200000000000000E-002    1.983632842508159E-022
 -2.190000000000000E-002    3.978749534593827E-022
 -2.180000000000000E-002    5.936377871203886E-022
 -2.170000000000000E-002    7.662686099547447E-022
 -2.160000000000000E-002    8.952059458182971E-022
 -2.150000000000000E-002    9.606241210017606E-022
 -2.140000000000000E-002    9.456774183153882E-022
 -2.130000000000000E-002    8.389166249388043E-022
 -2.120000000000000E-002    6.366652032151376E-022
 -2.110000000000000E-002    3.450943821841057E-022
 -2.100000000000000E-002   -1.829827925295711E-023
 -2.090000000000000E-002   -4.241162868763520E-022
 -2.080000000000000E-002   -8.316917963261367E-022
 -2.070000000000000E-002   -1.191156478910724E-021
 -2.060000000000000E-002   -1.447103705892935E-021
 -2.050000000000000E-002   -1.543851046738931E-021
 -2.040000000000000E-002   -1.432126485204670E-021
 -2.030000000000000E-002   -1.076784552924970E-021
 -2.020000000000000E-002   -4.649159531287136E-022
 -2.010000000000000E-002    3.865164409509872E-022
 -2.000000000000000E-002    1.424580981464739E-021
 -1.990000000000000E-002    2.557002714660603E-021
 -1.980000000000000E-002    3.652698078984908E-021
 -1.970000000000000E-002    4.547254008694649E-021
 -1.960000000000000E-002    5.054052305930073E-021
 -1.950000000000000E-002    4.981220276700067E-021
 -1.940000000000000E-002    4.153893276892762E-021
 -1.930000000000000E-002    2.440450138389385E-021
 -1.920000000000000E-002   -2.194942967581437E-022
 -1.910000000000000E-002   -3.788361173329909E-021
 -1.900000000000000E-002   -8.108807552927383E-021
 -1.890000000000000E-002   -1.289081925414270E-020
 -1.880000000000000E-002   -1.771151500324981E-020
 -1.870000000000000E-002   -2.203080693146311E-020
 -1.860000000000000E-002   -2.522477814128771E-020
 -1.850000000000000E-002   -2.663683928310825E-020
 -1.840000000000000E-002   -2.564446375314544E-020
 -1.830000000000000E-002   -2.173686817433611E-020
 -1.820000000000000E-002   -1.459660350963042E-020
 -1.810000000000000E-002   -4.176070010636383E-021
 -1.800000000000000E-002    9.241216166862324E-021
 -1.790000000000000E-002    2.500485819765901E-020
 -1.780000000000000E-002    4.209636424656481E-020
 -1.770000000000000E-002    5.916882269700807E-020
 -1.760000000000000E-002    7.462994661005446E-020
 -1.750000000000000E-002    8.676592356325640E-020
 -1.740000000000000E-002    9.389809038441587E-020
 -1.730000000000000E-002    9.455921273343189E-020
 -1.720000000000000E-002    8.767165465811187E-020
 -1.710000000000000E-002    7.270714795703830E-020
 -1.700000000000000E-002    4.980731785360894E-020
 -1.690000000000000E-002    1.984628861881655E-020
 -1.680000000000000E-002   -1.557834841316999E-020
 -1.670000000000000E-002   -5.423272528582632E-020
 -1.660000000000000E-002   -9.340967159091627E-020
 -1.650000000000000E-002   -1.301556689990498E-019
 -1.640000000000000E-002   -1.615409081734143E-019
 -1.630000000000000E-002   -1.849449440651256E-019
 -1.620000000000000E-002   -1.983262205135705E-019
 -1.610000000000000E-002   -2.004439627434700E-019
 -1.600000000000000E-002   -1.910046908686371E-019
 -1.590000000000000E-002   -1.707133625412675E-019
 -1.580000000000000E-002   -1.412197276926885E-019
 -1.570000000000000E-002   -1.049620102841019E-019
 -1.560000000000000E-002   -6.492182435753531E-020
 -1.550000000000000E-002   -2.431344328261274E-020
 -1.540000000000000E-002    1.376353369836635E-020
 -1.530000000000000E-002    4.667669947063483E-020
 -1.520000000000000E-002    7.258878570101014E-020
 -1.510000000000000E-002    9.073649818395100E-020
 -1.500000000000000E-002    1.016411827097635E-019
 -1.490000000000000E-002    1.072367670492281E-019
 -1.480000000000000E-002    1.109031222994029E-019
 -1.470000000000000E-002    1.173907338188656E-019
 -1.460000000000000E-002    1.326161002506125E-019
 -1.450000000000000E-002    1.632997940962623E-019
 -1.440000000000000E-002    2.164115816071778E-019
 -1.430000000000000E-002    2.983856261761515E-019
 -1.420000000000000E-002    4.140805140003928E-019
 -1.410000000000000E-002    5.654842261134882E-019
 -1.400000000000000E-002    7.502121774742672E-019
 -1.390000000000000E-002    9.599112548318290E-019
 -1.380000000000000E-002    1.178761610500013E-018
 -1.370000000000000E-002    1.382351943607837E-018
 -1.360000000000000E-002    1.537273044825114E-018
 -1.350000000000000E-002    1.601813250749409E-018
 -1.340000000000000E-002    1.528125420003694E-018
 -1.330000000000000E-002    1.266149532775344E-018
 -1.320000000000000E-002    7.694080574932607E-019
 -1.310000000000000E-002    2.538146792235813E-021
 -1.300000000000000E-002   -1.049895699877280E-018
 -1.290000000000000E-002   -2.374129706823430E-018
 -1.280000000000000E-002   -3.918644787108255E-018
 -1.270000000000000E-002   -5.587796237544974E-018
 -1.260000000000000E-002   -7.239252681809576E-018
 -1.250000000000000E-002   -8.686830834437419E-018
 -1.240000000000000E-002   -9.710022614868809E-018
 -1.230000000000000E-002   -1.007093864174757E-017
 -1.220000000000000E-002   -9.538559902971152E-018
 -1.210000000000000E-002   -7.919125489354165E-018
 -1.200000000000000E-002   -5.090310110306129E-018
 -1.190000000000000E-002   -1.035690613433959E-018
 -1.180000000000000E-002    4.124973131896396E-018
 -1.170000000000000E-002    1.011469045591330E-017
 -1.160000000000000E-002    1.649251202228320E-017
 -1.150000000000000E-002    2.266554490918980E-017
 -1.140000000000000E-002    2.792271242896848E-017
 -1.130000000000000E-002    3.149112187029300E-017
 -1.120000000000000E-002    3.261313297696068E-017
 -1.110000000000000E-002    3.063913478117181E-017
 -1.100000000000000E-002    2.512790089103697E-017
 -1.090000000000000E-002    1.594370394161043E-017
 -1.080000000000000E-002    3.337479278172650E-018
 -1.070000000000000E-002   -1.200125466408029E-017
 -1.060000000000000E-002   -2.893402974864771E-017
 -1.050000000000000E-002   -4.591419500717365E-017
 -1.040000000000000E-002   -6.108393122067114E-017
 -1.030000000000000E-002   -7.242669913246896E-017
 -1.020000000000000E-002   -7.796735314519209E-017
 -1.010000000000000E-002   -7.600508522780652E-017
 -1.000000000000000E-002   -6.535766528733317E-017
 -9.899999999999999E-003   -4.559047111939150E-017
 -9.800000000000000E-003   -1.720102891000277E-017
 -9.699999999999999E-003    1.826980149419263E-017
 -9.599999999999999E-003    5.822502105320125E-017
 -9.500000000000000E-003    9.911465282596103E-017
 -9.399999999999999E-003    1.366618856046122E-016
 -9.299999999999999E-003    1.662062265248984E-016
 -9.200000000000000E-003    1.831436572644185E-016
 -9.099999999999999E-003    1.834299099250886E-016
 -8.999999999999999E-003    1.641012477570424E-016
 -8.900000000000000E-003    1.237589116806754E-016
 -8.799999999999999E-003    6.295996676576224E-017
 -8.699999999999999E-003   -1.553991842440059E-017
 -8.600000000000000E-003   -1.067375995054481E-016
 -8.499999999999999E-003   -2.035583327173926E-016
 -8.399999999999999E-003   -2.972675300219608E-016
 -8.300000000000000E-003   -3.781061905984833E-016
 -8.199999999999999E-003   -4.361136116375712E-016
 -8.100000000000000E-003   -4.620774150869636E-016
 -8.000000000000000E-003   -4.485318602000852E-016
 -7.899999999999999E-003   -3.907116088045901E-016
 -7.800000000000000E-003   -2.873629676716185E-016
 -7.699999999999999E-003   -1.413180299246594E-016
 -7.599999999999999E-003    4.024945540634484E-017
 -7.499999999999999E-003    2.459456279797466E-016
 -7.399999999999999E-003    4.606849896190574E-016
 -7.299999999999999E-003    6.666200863709131E-016
 -7.199999999999999E-003    8.444292946646579E-016
 -7.100000000000000E-003    9.748827015673058E-016
 -6.999999999999999E-003    1.040573375587194E-015
 -6.899999999999999E-003    1.027675540924506E-015
 -6.800000000000000E-003    9.275755299399507E-016
 -6.699999999999999E-003    7.382176500875651E-016
 -6.599999999999999E-003    4.650167305949635E-016
 -6.499999999999999E-003    1.212115864773689E-016
 -6.399999999999999E-003   -2.724294313893805E-016
 -6.299999999999999E-003   -6.885936312315237E-016
 -6.199999999999999E-003   -1.095087088077680E-015
 -6.100000000000000E-003   -1.457101983090999E-015
 -5.999999999999999E-003   -1.739955672503816E-015
 -5.899999999999999E-003   -1.912111369821680E-015
 -5.800000000000000E-003   -1.948245224842113E-015
 -5.699999999999999E-003   -1.832093898783109E-015
 -5.599999999999999E-003   -1.558804696793147E-015
 -5.499999999999999E-003   -1.136522426757913E-015
 -5.399999999999999E-003   -5.869854504996077E-016
 -5.299999999999999E-003    5.503434471252501E-017
 -5.199999999999999E-003    7.435253876259296E-016
 -5.099999999999999E-003    1.424236607384402E-015
 -4.999999999999999E-003    2.038738934290696E-015
 -4.899999999999999E-003    2.529286642500598E-015
 -4.799999999999999E-003    2.844106766486528E-015
 -4.699999999999999E-003    2.942661957604108E-015
 -4.599999999999999E-003    2.800380951517741E-015
 -4.499999999999999E-003    2.412344327573539E-015
 -4.399999999999999E-003    1.795460350091476E-015
 -4.299999999999999E-003    9.887652401311597E-016
 -4.199999999999999E-003    5.162947274879514E-017
 -4.099999999999999E-003   -9.401557142793401E-016
 -3.999999999999999E-003   -1.900226869760248E-015
 -3.899999999999999E-003   -2.739026258083487E-015
 -3.799999999999999E-003   -3.372112735702699E-015
 -3.699999999999999E-003   -3.728642953364949E-015
 -3.599999999999999E-003   -3.759186403148787E-015
 -3.499999999999999E-003   -3.442022542536798E-015
 -3.399999999999999E-003   -2.787157711635829E-015
 -3.299999999999999E-003   -1.837477986085434E-015
 -3.199999999999999E-003   -6.667062600540493E-016
 -3.099999999999999E-003    6.258523678535011E-016
 -2.999999999999999E-003    1.923456059520311E-015
 -2.899999999999999E-003    3.102312803211622E-015
 -2.799999999999999E-003    4.043284903328929E-015
 -2.699999999999999E-003    4.643782602018318E-015
 -2.599999999999999E-003    4.828653870787756E-015
 -2.499999999999999E-003    4.558904298058431E-015
 -2.399999999999999E-003    3.837273818168652E-015
 -2.299999999999999E-003    2.709977975991702E-015
 -2.199999999999999E-003    1.264302089634981E-015
 -2.099999999999999E-003   -3.778407601270737E-016
 -1.999999999999999E-003   -2.069862175241832E-015
 -1.899999999999999E-003   -3.653069341893336E-015
 -1.799999999999999E-003   -4.970694268891000E-015
 -1.699999999999999E-003   -5.882088408000344E-015
 -1.599999999999999E-003   -6.275792578696068E-015
 -1.499999999999999E-003   -6.080345639141861E-015
 -1.399999999999999E-003   -5.271959876538984E-015
 -1.299999999999999E-003   -3.878540813564989E-015
 -1.199999999999999E-003   -1.979889511212919E-015
 -1.099999999999999E-003    2.957195346121744E-016
 -9.999999999999989E-004    2.778129638612659E-015
 -8.999999999999990E-004    5.264469647891784E-015
 -7.999999999999990E-004    7.530260608071247E-015
 -6.999999999999989E-004    9.341927651376947E-015
 -5.999999999999990E-004    1.047038451035905E-014
 -4.999999999999989E-004    1.070550404648005E-014
 -3.999999999999989E-004    9.871519571628326E-015
 -2.999999999999989E-004    7.843382833833556E-015
 -1.999999999999989E-004    4.564039500547111E-015
 -9.999999999999892E-005    6.219097997986613E-017
  1.084202172485504E-018   -5.530343688981821E-015
  1.000000000000011E-004   -1.196327813689173E-014
  2.000000000000011E-004   -1.885684530330765E-014
  3.000000000000011E-004   -2.569807534017189E-014
  4.000000000000011E-004   -3.184773965837624E-014
  5.000000000000011E-004   -3.656134542724821E-014
  6.000000000000011E-004   -3.902702105121965E-014
  7.000000000000011E-004   -3.842199276375338E-014
  8.000000000000011E-004   -3.398749074392691E-014
  9.000000000000012E-004   -2.511961233950072E-014
  1.000000000000001E-003   -1.147079109287480E-014
  1.100000000000001E-003    6.946258318479059E-015
  1.200000000000001E-003    2.966309594425804E-014
  1.300000000000001E-003    5.568140646578008E-014
  1.400000000000001E-003    8.343408382773965E-014
  1.500000000000001E-003    1.107948533755517E-013
  1.600000000000001E-003    1.351476951630331E-013
  1.700000000000001E-003    1.535232518514964E-013
  1.800000000000001E-003    1.628037087783520E-013
  1.900000000000001E-003    1.599904957829677E-013
  2.000000000000001E-003    1.425210793915764E-013
  2.100000000000001E-003    1.086129632498832E-013
  2.200000000000001E-003    5.760544936992155E-014
  2.300000000000001E-003   -9.735915508032406E-015
  2.400000000000001E-003   -9.099058275057809E-014
  2.500000000000001E-003   -1.819678466966478E-013
  2.600000000000001E-003   -2.767389162885150E-013
  2.700000000000001E-003   -3.678412626275326E-013
  2.800000000000001E-003   -4.466673866606011E-013
  2.900000000000001E-003   -5.040343383296322E-013
  3.000000000000001E-003   -5.309114984645878E-013
  3.100000000000001E-003   -5.192649917734565E-013
  3.200000000000001E-003   -4.629589136893679E-013
  3.300000000000001E-003   -3.586379464333405E-013
  3.400000000000001E-003   -2.065059768782044E-013
  3.500000000000001E-003   -1.091135332749522E-014
  3.600000000000001E-003    2.193458163774986E-013
  3.700000000000001E-003    4.710559576585410E-013
  3.800000000000001E-003    7.270415898722745E-013
  3.900000000000001E-003    9.670179883660693E-013
  4.000000000000001E-003    1.168857375703786E-012
  4.100000000000001E-003    1.310201906244777E-012
  4.200000000000001E-003    1.370331078378020E-012
  4.300000000000001E-003    1.332154340428856E-012
  4.400000000000001E-003    1.184170066806413E-012
  4.500000000000001E-003    9.222157881157442E-013
  4.600000000000002E-003    5.508292441606630E-013
  4.700000000000001E-003    8.405276134218888E-014
  4.800000000000001E-003   -4.544590992446031E-013
  4.900000000000002E-003   -1.032123855059432E-012
  5.000000000000001E-003   -1.608946012027827E-012
  5.100000000000001E-003   -2.139832970433702E-012
  5.200000000000001E-003   -2.577611081890695E-012
  5.300000000000002E-003   -2.876568814238059E-012
  5.400000000000001E-003   -2.996291067020667E-012
  5.500000000000001E-003   -2.905499080592585E-012
  5.600000000000002E-003   -2.585579461393378E-012
  5.700000000000001E-003   -2.033480657613959E-012
  5.800000000000001E-003   -1.263674406005235E-012
  5.900000000000002E-003   -3.089300293092961E-013
  6.000000000000001E-003    7.802789370494640E-013
  6.100000000000001E-003    1.937818571914373E-012
  6.200000000000002E-003    3.085363608690934E-012
  6.300000000000002E-003    4.137145971618218E-012
  6.400000000000001E-003    5.005723125569128E-012
  6.500000000000001E-003    5.608404211563806E-012
  6.600000000000002E-003    5.873888279934344E-012
  6.700000000000001E-003    5.748619286518686E-012
  6.800000000000001E-003    5.202348515522191E-012
  6.900000000000002E-003    4.232416002647173E-012
  7.000000000000001E-003    2.866333049663384E-012
  7.100000000000001E-003    1.162346317081549E-012
  7.200000000000002E-003   -7.922009229557185E-013
  7.300000000000002E-003   -2.884739359866023E-012
  7.400000000000001E-003   -4.983439727203798E-012
  7.500000000000001E-003   -6.944971126348583E-012
  7.600000000000002E-003   -8.623604698868099E-012
  7.700000000000001E-003   -9.881092091558652E-012
  7.800000000000001E-003   -1.059666148082321E-011
  7.900000000000001E-003   -1.067644198120651E-011
  8.000000000000002E-003   -1.006163237896470E-011
  8.100000000000001E-003   -8.734796095321272E-012
  8.200000000000001E-003   -6.723765664352864E-012
  8.300000000000002E-003   -4.102792296346617E-012
  8.400000000000001E-003   -9.907435199852606E-013
  8.500000000000002E-003    2.453659302229518E-012
  8.600000000000002E-003    6.039369577748084E-012
  8.700000000000001E-003    9.552951473863078E-012
  8.800000000000002E-003    1.277039149842677E-011
  8.900000000000002E-003    1.547014384509801E-011
  9.000000000000001E-003    1.744666922973197E-011
  9.100000000000002E-003    1.852370303638014E-011
  9.200000000000002E-003    1.856647800836254E-011
  9.300000000000001E-003    1.749218754508217E-011
  9.400000000000002E-003    1.527804765578361E-011
  9.500000000000001E-003    1.196644118656668E-011
  9.600000000000001E-003    7.666747679042941E-012
  9.700000000000002E-003    2.553634104924965E-012
  9.800000000000001E-003   -3.138281350128487E-012
  9.900000000000001E-003   -9.123307497149325E-012
  1.000000000000000E-002   -1.507685998717606E-011
  1.010000000000000E-002   -2.065055419099703E-011
  1.020000000000000E-002   -2.548967518360617E-011
  1.030000000000000E-002   -2.925234352455911E-011
  1.040000000000000E-002   -3.162958068324715E-011
  1.050000000000000E-002   -3.236535025347984E-011
  1.060000000000000E-002   -3.127557318629946E-011
  1.070000000000000E-002   -2.826502189158958E-011
  1.080000000000000E-002   -2.334098902239400E-011
  1.090000000000000E-002   -1.662262425854112E-011
  1.100000000000000E-002   -8.344930669590388E-012
  1.110000000000000E-002    1.143472730466711E-012
  1.120000000000000E-002    1.138945900690562E-011
  1.130000000000000E-002    2.185170291445068E-011
  1.140000000000000E-002    3.192414685983692E-011
  1.150000000000000E-002    4.096608428285278E-011
  1.160000000000000E-002    4.833786389337829E-011
  1.170000000000000E-002    5.344062586967690E-011
  1.180000000000000E-002    5.575803867643634E-011
  1.190000000000000E-002    5.489753631921738E-011
  1.200000000000000E-002    5.062823028226399E-011
  1.210000000000000E-002    4.291252783769794E-011
  1.220000000000000E-002    3.192849863827930E-011
  1.230000000000000E-002    1.808034006541595E-011
  1.240000000000000E-002    1.994749705392580E-012
  1.250000000000000E-002   -1.549819199169511E-011
  1.260000000000000E-002   -3.340006965251613E-011
  1.270000000000000E-002   -5.059449055897433E-011
  1.280000000000000E-002   -6.591082029851063E-011
  1.290000000000000E-002   -7.819825577480679E-011
  1.300000000000000E-002   -8.640598162900284E-011
  1.310000000000000E-002   -8.966431627228085E-011
  1.320000000000000E-002   -8.736106747993691E-011
  1.330000000000000E-002   -7.920711365094147E-011
  1.340000000000000E-002   -6.528539383394908E-011
  1.350000000000000E-002   -4.607817363781906E-011
  1.360000000000000E-002   -2.246855980274465E-011
  1.370000000000000E-002    4.286209191403482E-012
  1.380000000000000E-002    3.261026899447086E-011
  1.390000000000000E-002    6.069195891922418E-011
  1.400000000000000E-002    8.659031742183718E-011
  1.410000000000000E-002    1.083595547656120E-010
  1.420000000000000E-002    1.241840001540479E-010
  1.430000000000000E-002    1.325146801310839E-010
  1.440000000000000E-002    1.321979677706653E-010
  1.450000000000000E-002    1.225865208429314E-010
  1.460000000000000E-002    1.036234001282425E-010
  1.470000000000000E-002    7.589160342332705E-011
  1.480000000000000E-002    4.062319881668537E-011
  1.490000000000000E-002   -3.352323763337630E-013
  1.500000000000000E-002   -4.460113081647566E-011
  1.510000000000000E-002   -8.937585785975761E-011
  1.520000000000000E-002   -1.316001801248624E-010
  1.530000000000000E-002   -1.681367160665705E-010
  1.540000000000000E-002   -1.959688660091120E-010
  1.550000000000000E-002   -2.124037348406384E-010
  1.560000000000000E-002   -2.152661235151623E-010
  1.570000000000000E-002   -2.030707057315561E-010
  1.580000000000000E-002   -1.751606627497709E-010
  1.590000000000000E-002   -1.318028211914574E-010
  1.600000000000000E-002   -7.423214014566164E-011
  1.610000000000000E-002   -4.641294657409621E-012
  1.620000000000000E-002    7.388529310012595E-011
  1.630000000000000E-002    1.574902374132674E-010
  1.640000000000000E-002    2.417088789331271E-010
  1.650000000000000E-002    3.216729583262541E-010
  1.660000000000000E-002    3.923416197435815E-010
  1.670000000000000E-002    4.487473303407702E-010
  1.680000000000000E-002    4.862438466512910E-010
  1.690000000000000E-002    5.007439134697611E-010
  1.700000000000000E-002    4.889352119209493E-010
  1.710000000000000E-002    4.484649586770459E-010
  1.720000000000000E-002    3.780856499417811E-010
  1.730000000000000E-002    2.777570878092718E-010
  1.740000000000000E-002    1.487017753315322E-010
  1.750000000000000E-002   -6.586121274155815E-012
  1.760000000000000E-002   -1.843766467115105E-010
  1.770000000000000E-002   -3.797818017374015E-010
  1.780000000000000E-002   -5.868701994265031E-010
  1.790000000000000E-002   -7.988145221270265E-010
  1.800000000000000E-002   -1.008066676563028E-009
  1.810000000000000E-002   -1.206555553793518E-009
  1.820000000000000E-002   -1.385904210543917E-009
  1.830000000000000E-002   -1.537661929589617E-009
  1.840000000000000E-002   -1.653548382540573E-009
  1.850000000000000E-002   -1.725706115053767E-009
  1.860000000000000E-002   -1.746958800462418E-009
  1.870000000000000E-002   -1.711071107303715E-009