 -4.000000000000000E-002    0.000000000000000E+000
 -3.990000000000000E-002    0.000000000000000E+000
 -3.980000000000000E-002    0.000000000000000E+000
 -3.970000000000000E-002    0.000000000000000E+000
 -3.960000000000000E-002    0.000000000000000E+000
 -3.950000000000000E-002    0.000000000000000E+000
 -3.940000000000000E-002    0.000000000000000E+000
 -3.930000000000000E-002    0.000000000000000E+000
 -3.920000000000000E-002    0.000000000000000E+000
 -3.910000000000000E-002    0.000000000000000E+000
 -3.900000000000000E-002    0.000000000000000E+000
 -3.890000000000000E-002    0.000000000000000E+000
 -3.880000000000000E-002    0.000000000000000E+000
 -3.870000000000000E-002    0.000000000000000E+000
 -3.860000000000000E-002    0.000000000000000E+000
 -3.850000000000000E-002    0.000000000000000E+000
 -3.840000000000000E-002    0.000000000000000E+000
 -3.830000000000000E-002    0.000000000000000E+000
 -3.820000000000000E-002    0.000000000000000E+000
 -3.810000000000000E-002    0.000000000000000E+000
 -3.800000000000000E-002    0.000000000000000E+000
 -3.790000000000000E-002    0.000000000000000E+000
 -3.780000000000000E-002    0.000000000000000E+000
 -3.770000000000000E-002    0.000000000000000E+000
 -3.760000000000000E-002    0.000000000000000E+000
 -3.750000000000000E-002    0.000000000000000E+000
 -3.740000000000000E-002    0.000000000000000E+000
 -3.730000000000000E-002    0.000000000000000E+000
 -3.720000000000000E-002    0.000000000000000E+000
 -3.710000000000000E-002    0.000000000000000E+000
 -3.700000000000000E-002    0.000000000000000E+000
 -3.690000000000000E-002    0.000000000000000E+000
 -3.680000000000000E-002    0.000000000000000E+000
 -3.670000000000000E-002    0.000000000000000E+000
 -3.660000000000000E-002    4.064117519239238E-048
 -3.650000000000000E-002   -1.947961799776455E-048
 -3.640000000000000E-002   -3.540243486595063E-047
 -3.630000000000000E-002   -9.711210195694804E-047
 -3.620000000000000E-002   -2.452364772131959E-046
 -3.610000000000000E-002   -4.715873715611368E-046
 -3.600000000000000E-002   -9.112899033340860E-046
 -3.590000000000000E-002   -1.446030520985703E-045
 -3.580000000000000E-002   -2.389988085729612E-045
 -3.570000000000000E-002   -3.465988034962453E-045
 -3.560000000000000E-002   -3.102097308582808E-045
 -3.550000000000000E-002    3.500625299600383E-045
 -3.540000000000000E-002    2.454144120071092E-044
 -3.530000000000000E-002    7.764858852407040E-044
 -3.520000000000000E-002    1.998106477466569E-043
 -3.510000000000000E-002    4.501808636343410E-043
 -3.500000000000000E-002    9.274807276928414E-043
 -3.490000000000000E-002    1.765712861319978E-042
 -3.480000000000000E-002    3.116834446029443E-042
 -3.470000000000000E-002    5.070189460214667E-042
 -3.460000000000000E-002    7.466366007942338E-042
 -3.450000000000000E-002    9.503461467606721E-042
 -3.440000000000000E-002    9.021213561882501E-042
 -3.430000000000000E-002    1.310017959936557E-042
 -3.420000000000000E-002   -2.269461333640498E-041
 -3.410000000000000E-002   -7.884289831557317E-041
 -3.400000000000000E-002   -1.925641157162569E-040
 -3.390000000000000E-002   -4.011628880304883E-040
 -3.380000000000000E-002   -7.537186472692842E-040
 -3.370000000000000E-002   -1.305100497916538E-039
 -3.360000000000000E-002   -2.098357108824884E-039
 -3.350000000000000E-002   -3.127031144550038E-039
 -3.340000000000000E-002   -4.266260685628426E-039
 -3.330000000000000E-002   -5.160029081354675E-039
 -3.320000000000000E-002   -5.053653053018072E-039
 -3.310000000000000E-002   -2.568766490403743E-039
 -3.300000000000000E-002    4.562934455433468E-039
 -3.290000000000000E-002    1.975573626502149E-038
 -3.280000000000000E-002    4.770738563252878E-038
 -3.270000000000000E-002    9.422764890387452E-038
 -3.260000000000000E-002    1.654617647961479E-037
 -3.250000000000000E-002    2.660937503464758E-037
 -3.240000000000000E-002    3.960095185622501E-037
 -3.230000000000000E-002    5.448567385527232E-037
 -3.220000000000000E-002    6.840337192669231E-037
 -3.210000000000000E-002    7.559805837200986E-037
 -3.200000000000000E-002    6.613639323856964E-037
 -3.190000000000000E-002    2.459835649971537E-037
 -3.180000000000000E-002   -7.088981976272629E-037
 -3.170000000000000E-002   -2.486567296089258E-036
 -3.160000000000000E-002   -5.415893047808116E-036
 -3.150000000000000E-002   -9.820860984694060E-036
 -3.140000000000000E-002   -1.592349330250046E-035
 -3.130000000000000E-002   -2.368441205534248E-035
 -3.120000000000000E-002   -3.256831887299121E-035
 -3.110000000000000E-002   -4.123076495568646E-035
 -3.100000000000000E-002   -4.714027429396046E-035
 -3.090000000000000E-002   -4.617849334345078E-035
 -3.080000000000000E-002   -3.230219887892298E-035
 -3.070000000000000E-002    2.595961207368336E-036
 -3.060000000000000E-002    6.843042425333630E-035
 -3.050000000000000E-002    1.760114828469424E-034
 -3.040000000000000E-002    3.351786707067542E-034
 -3.030000000000000E-002    5.516726612339558E-034
 -3.020000000000000E-002    8.225029929187509E-034
 -3.010000000000000E-002    1.129735872833987E-033
 -3.000000000000000E-002    1.432930736041015E-033
 -2.990000000000000E-002    1.660926445740693E-033
 -2.980000000000000E-002    1.704322725277624E-033
 -2.970000000000000E-002    1.410802369318882E-033
 -2.960000000000000E-002    5.863181085053528E-034
 -2.950000000000000E-002   -9.940112702113722E-034
 -2.940000000000000E-002   -3.560899545463971E-033
 -2.930000000000000E-002   -7.307395276773587E-033
 -2.920000000000000E-002   -1.232343045552369E-032
 -2.910000000000000E-002   -1.850716847851921E-032
 -2.900000000000000E-002   -2.545579476010086E-032
 -2.890000000000000E-002   -3.234414176574464E-032
 -2.880000000000000E-002   -3.780714056138198E-032
 -2.870000000000000E-002   -3.985122612122048E-032
 -2.860000000000000E-002   -3.582942468562802E-032
 -2.850000000000000E-002   -2.252355467293762E-032
 -2.840000000000000E-002    3.617517615750407E-033
 -2.830000000000000E-002    4.603522962545436E-032
 -2.820000000000000E-002    1.073756002279062E-031
 -2.810000000000000E-002    1.885442081524595E-031
 -2.800000000000000E-002    2.875228548338633E-031
 -2.790000000000000E-002    3.980234768437776E-031
 -2.780000000000000E-002    5.081236651795404E-031
 -2.770000000000000E-002    5.991098407768947E-031
 -2.760000000000000E-002    6.448371401843775E-031
 -2.750000000000000E-002    6.119888910052091E-031
 -2.740000000000000E-002    4.616644157774390E-031
 -2.730000000000000E-002    1.527193341191607E-031
 -2.720000000000000E-002   -3.527939301225723E-031
 -2.710000000000000E-002   -1.081908779355162E-030
 -2.700000000000000E-002   -2.040858251297528E-030
 -2.690000000000000E-002   -3.203525956679483E-030
 -2.680000000000000E-002   -4.499251676783088E-030
 -2.670000000000000E-002   -5.801581567595000E-030
 -2.660000000000000E-002   -6.920154554661480E-030
 -2.650000000000000E-002   -7.598435162459756E-030
 -2.640000000000000E-002   -7.520331867874418E-030
 -2.630000000000000E-002   -6.328758135019645E-030
 -2.620000000000000E-002   -3.658746325655801E-030
 -2.610000000000000E-002    8.133164529367405E-031
 -2.600000000000000E-002    7.304467051789397E-030
 -2.590000000000000E-002    1.584651632264976E-029
 -2.580000000000000E-002    2.619958311861830E-029
 -2.570000000000000E-002    3.776691010561083E-029
 -2.560000000000000E-002    4.952365264784151E-029
 -2.550000000000000E-002    5.997558521286004E-029
 -2.540000000000000E-002    6.716589263021603E-029
 -2.530000000000000E-002    6.874869409738392E-029
 -2.520000000000000E-002    6.214612954025262E-029
 -2.510000000000000E-002    4.480066504854447E-029
 -2.500000000000000E-002    1.452562471098274E-029
 -2.490000000000000E-002   -3.005558254436340E-029
 -2.480000000000000E-002   -8.900709000203740E-029
 -2.470000000000000E-002   -1.605593609307867E-028
 -2.460000000000000E-002   -2.406328214807880E-028
 -2.450000000000000E-002   -3.224885975575892E-028
 -2.440000000000000E-002   -3.966020283409493E-028
 -2.430000000000000E-002   -4.508602241402829E-028
 -2.420000000000000E-002   -4.711782759012525E-028
 -2.410000000000000E-002   -4.426065940556504E-028
 -2.400000000000000E-002   -3.509604691212322E-028
 -2.390000000000000E-002   -1.849423827371993E-028
 -2.380000000000000E-002    6.135237472263037E-029
 -2.370000000000000E-002    3.857498321835951E-028
 -2.360000000000000E-002    7.754358437020765E-028
 -2.350000000000000E-002    1.204917182057857E-027
 -2.340000000000000E-002    1.634977526135661E-027
 -2.330000000000000E-002    2.013132423980407E-027
 -2.320000000000000E-002    2.276057860600785E-027
 -2.310000000000000E-002    2.354359094050699E-027
 -2.300000000000000E-002    2.179840254860723E-027
 -2.290000000000000E-002    1.695133536159467E-027
 -2.280000000000000E-002    8.651492195927585E-028
 -2.270000000000000E-002   -3.106551030007615E-028
 -2.260000000000000E-002   -1.786673857810944E-027
 -2.250000000000000E-002   -3.462149223708033E-027
 -2.240000000000000E-002   -5.177006224846487E-027
 -2.230000000000000E-002   -6.714857789281497E-027
 -2.220000000000000E-002   -7.815278970219103E-027
 -2.210000000000000E-002   -8.196800286904588E-027
 -2.200000000000000E-002   -7.590993011746354E-027
 -2.190000000000000E-002   -5.786446616150908E-027
 -2.180000000000000E-002   -2.679517471076753E-027
 -2.170000000000000E-002    1.673410136828266E-027
 -2.160000000000000E-002    7.009535827586194E-027
 -2.150000000000000E-002    1.282820978073416E-026
 -2.140000000000000E-002    1.838448433271428E-026
 -2.130000000000000E-002    2.271740443008910E-026
 -2.120000000000000E-002    2.472088234590152E-026
 -2.110000000000000E-002    2.326129899795262E-026
 -2.100000000000000E-002    1.734029926364342E-026
 -2.090000000000000E-002    6.293918306250834E-027
 -2.080000000000000E-002   -9.989308843027559E-027
 -2.070000000000000E-002   -3.085730438580915E-026
 -2.060000000000000E-002   -5.472415391910552E-026
 -2.050000000000000E-002   -7.897927122337258E-026
 -2.040000000000000E-002   -1.000156619515490E-025
 -2.030000000000000E-002   -1.134122056473851E-025
 -2.020000000000000E-002   -1.142936872728781E-025
 -2.010000000000000E-002   -9.787364223698432E-026
 -2.000000000000000E-002   -6.016065223437712E-026
 -1.990000000000000E-002    1.220605882818395E-027
 -1.980000000000000E-002    8.617328431047176E-026
 -1.970000000000000E-002    1.913453758787598E-025
 -1.960000000000000E-002    3.095491840853301E-025
 -1.950000000000000E-002    4.295211933359863E-025
 -1.940000000000000E-002    5.361526507184290E-025
 -1.930000000000000E-002    6.112919876347439E-025
 -1.920000000000000E-002    6.351709450946978E-025
 -1.910000000000000E-002    5.884358807478043E-025
 -1.900000000000000E-002    4.546810709587310E-025
 -1.890000000000000E-002    2.232900195600219E-025
 -1.880000000000000E-002   -1.076986675692411E-025
 -1.870000000000000E-002   -5.290517609412680E-025
 -1.860000000000000E-002   -1.018522355137509E-024
 -1.850000000000000E-002   -1.540138163516171E-024
 -1.840000000000000E-002   -2.044937519810154E-024
 -1.830000000000000E-002   -2.473380457110796E-024
 -1.820000000000000E-002   -2.759513567551562E-024
 -1.810000000000000E-002   -2.836765218980180E-024
 -1.800000000000000E-002   -2.645042600246812E-024
 -1.790000000000000E-002   -2.138582405392965E-024
 -1.780000000000000E-002   -1.293834286134241E-024
 -1.770000000000000E-002   -1.165240254702618E-025
 -1.760000000000000E-002    1.352998638290979E-024
 -1.750000000000000E-002    3.036978660288291E-024
 -1.740000000000000E-002    4.820751191793403E-024
 -1.730000000000000E-002    6.556992863470522E-024
 -1.720000000000000E-002    8.073908362490520E-024
 -1.710000000000000E-002    9.187171604083064E-024
 -1.700000000000000E-002    9.715090931979464E-024
 -1.690000000000000E-002    9.496114598187143E-024
 -1.680000000000000E-002    8.407474936510576E-024
 -1.670000000000000E-002    6.383533487317038E-024
 -1.660000000000000E-002    3.432202973369829E-024
 -1.650000000000000E-002   -3.522833782901275E-025
 -1.640000000000000E-002   -4.782014560677637E-024
 -1.630000000000000E-002   -9.575155451842165E-024
 -1.620000000000000E-002   -1.436436780022697E-023
 -1.610000000000000E-002   -1.871513002241805E-023
 -1.600000000000000E-002   -2.215471205148063E-023
 -1.590000000000000E-002   -2.421181094801792E-023
 -1.580000000000000E-002   -2.446573872232486E-023
 -1.570000000000000E-002   -2.260273240175581E-023
 -1.560000000000000E-002   -1.847513571035863E-023
 -1.550000000000000E-002   -1.215738540831274E-023
 -1.540000000000000E-002   -3.990780921005374E-024
 -1.530000000000000E-002    5.392399622576646E-024
 -1.520000000000000E-002    1.507553042479927E-023
 -1.510000000000000E-002    2.390451937050676E-023
 -1.500000000000000E-002    3.058187068399414E-023
 -1.490000000000000E-002    3.381044096386722E-023
 -1.480000000000000E-002    3.248241644482600E-023
 -1.470000000000000E-002    2.590063671339079E-023
 -1.460000000000000E-002    1.400937824303913E-023
 -1.450000000000000E-002   -2.397791355536052E-024
 -1.440000000000000E-002   -2.153327848057446E-023
 -1.430000000000000E-002   -4.057822282507802E-023
 -1.420000000000000E-002   -5.579469162252940E-023
 -1.410000000000000E-002   -6.282031728826378E-023
 -1.400000000000000E-002   -5.715967222989946E-023
 -1.390000000000000E-002   -3.486041535449404E-023
 -1.380000000000000E-002    6.671103166446490E-024
 -1.370000000000000E-002    6.779696266422404E-023
 -1.360000000000000E-002    1.458347918775898E-022
 -1.350000000000000E-002    2.344498695677083E-022
 -1.340000000000000E-002    3.234095785465565E-022
 -1.330000000000000E-002    3.988500183432386E-022
 -1.320000000000000E-002    4.441703020699954E-022
 -1.310000000000000E-002    4.416086106132606E-022
 -1.300000000000000E-002    3.744659113466273E-022
 -1.290000000000000E-002    2.298371647692763E-022
 -1.280000000000000E-002    1.593543366337038E-024
 -1.270000000000000E-002   -3.067459877555742E-022
 -1.260000000000000E-002   -6.796973204497734E-022
 -1.250000000000000E-002   -1.088527668770455E-021
 -1.240000000000000E-002   -1.491456416916159E-021
 -1.230000000000000E-002   -1.835694794817472E-021
 -1.220000000000000E-002   -2.061500409585870E-021
 -1.210000000000000E-002   -2.108183313496193E-021
 -1.200000000000000E-002   -1.921711869766542E-021
 -1.190000000000000E-002   -1.463261601546162E-021
 -1.180000000000000E-002   -7.177807298133393E-022
 -1.170000000000000E-002    2.985634433131908E-022
 -1.160000000000000E-002    1.533274256828591E-021
 -1.150000000000000E-002    2.895902605412149E-021
 -1.140000000000000E-002    4.260827005877003E-021
 -1.130000000000000E-002    5.474944945341806E-021
 -1.120000000000000E-002    6.370232675975932E-021
 -1.110000000000000E-002    6.780493289730407E-021
 -1.100000000000000E-002    6.560962829525741E-021
 -1.090000000000000E-002    5.608858298071927E-021
 -1.080000000000000E-002    3.882542056787768E-021
 -1.070000000000000E-002    1.416805405691141E-021
 -1.060000000000000E-002   -1.668092722959811E-021
 -1.050000000000000E-002   -5.165538787345376E-021
 -1.040000000000000E-002   -8.791011012166467E-021
 -1.030000000000000E-002   -1.220002667137730E-020
 -1.020000000000000E-002   -1.501471198274234E-020
 -1.010000000000000E-002   -1.685704944212223E-020
 -1.000000000000000E-002   -1.738593210189903E-020
 -9.899999999999999E-003   -1.633461524350340E-020
 -9.800000000000000E-003   -1.354493977814356E-020
 -9.699999999999999E-003   -8.994915802115119E-021
 -9.599999999999999E-003   -2.816946944183961E-021
 -9.500000000000000E-003    4.695159221896782E-021
 -9.399999999999999E-003    1.309114939450039E-020
 -9.299999999999999E-003    2.178096316600375E-020
 -9.200000000000000E-003    3.006201645404034E-020
 -9.099999999999999E-003    3.715560088622371E-020
 -8.999999999999999E-003    4.225088444610241E-020
 -8.900000000000000E-003    4.455524738645699E-020
 -8.799999999999999E-003    4.335025704162521E-020
 -8.699999999999999E-003    3.805301300811457E-020
 -8.600000000000000E-003    2.828255234278529E-020
 -8.499999999999999E-003    1.393047311443526E-020
 -8.399999999999999E-003   -4.766604935141089E-021
 -8.300000000000000E-003   -2.715765628465923E-020
 -8.199999999999999E-003   -5.211889028487988E-020
 -8.100000000000000E-003   -7.801784984487482E-020
 -8.000000000000000E-003   -1.027142421531554E-019
 -7.899999999999999E-003   -1.236134067771062E-019
 -7.800000000000000E-003   -1.377876037080128E-019
 -7.699999999999999E-003   -1.421761773146703E-019
 -7.599999999999999E-003   -1.338685816827221E-019
 -7.499999999999999E-003   -1.104626902969137E-019
 -7.399999999999999E-003   -7.047733392926471E-020
 -7.299999999999999E-003   -1.378206436637480E-020
 -7.199999999999999E-003    5.800717944430759E-020
 -7.100000000000000E-003    1.412295547775150E-019
 -6.999999999999999E-003    2.300461846764601E-019
 -6.899999999999999E-003    3.165377013308263E-019
 -6.800000000000000E-003    3.910831374558547E-019
 -6.699999999999999E-003    4.430462909175384E-019
 -6.599999999999999E-003    4.617599148741314E-019
 -6.499999999999999E-003    4.377547819963038E-019
 -6.399999999999999E-003    3.641347220218394E-019
 -6.299999999999999E-003    2.379557550716974E-019
 -6.199999999999999E-003    6.143357523396648E-020
 -6.100000000000000E-003   -1.572110823537191E-019
 -5.999999999999999E-003   -4.034543341003053E-019
 -5.899999999999999E-003   -6.568688270993895E-019
 -5.800000000000000E-003   -8.923110756823626E-019
 -5.699999999999999E-003   -1.081901934882641E-018
 -5.599999999999999E-003   -1.197702079035229E-018
 -5.499999999999999E-003   -1.214877785081196E-018
 -5.399999999999999E-003   -1.115052694258522E-018
 -5.299999999999999E-003   -8.894627064575062E-019
 -5.199999999999999E-003   -5.414943477079487E-019
 -5.099999999999999E-003   -8.819497757138316E-020
 -4.999999999999999E-003    4.395885817879902E-019
 -4.899999999999999E-003    9.986681159402725E-019
 -4.799999999999999E-003    1.536622139375762E-018
 -4.699999999999999E-003    1.996408778851050E-018
 -4.599999999999999E-003    2.322127549919751E-018
 -4.499999999999999E-003    2.465381445027276E-018
 -4.399999999999999E-003    2.391545265081196E-018
 -4.299999999999999E-003    2.085169919516632E-018
 -4.199999999999999E-003    1.553766439270698E-018
 -4.099999999999999E-003    8.293308058656813E-019
 -3.999999999999999E-003   -3.282421757690029E-020
 -3.899999999999999E-003   -9.580665583019944E-019
 -3.799999999999999E-003   -1.859078596313999E-018
 -3.699999999999999E-003   -2.644575714230992E-018
 -3.599999999999999E-003   -3.229250909984329E-018
 -3.499999999999999E-003   -3.543848252010706E-018
 -3.399999999999999E-003   -3.544154098446112E-018
 -3.299999999999999E-003   -3.217722874449722E-018
 -3.199999999999999E-003   -2.587338592608717E-018
 -3.099999999999999E-003   -1.710532194689335E-018
 -2.999999999999999E-003   -6.749196300573535E-019
 -2.899999999999999E-003    4.103818712895828E-019
 -2.799999999999999E-003    1.426500595962597E-018
 -2.699999999999999E-003    2.258511524663693E-018
 -2.599999999999999E-003    2.809575721343279E-018
 -2.499999999999999E-003    3.013847895574728E-018
 -2.399999999999999E-003    2.846533915359050E-018
 -2.299999999999999E-003    2.329715895685747E-018
 -2.199999999999999E-003    1.533006262897368E-018
 -2.099999999999999E-003    5.686185185166497E-019
 -1.999999999999999E-003   -4.189297069258986E-019
 -1.899999999999999E-003   -1.267664018325190E-018
 -1.799999999999999E-003   -1.816235079081884E-018
 -1.699999999999999E-003   -1.923518911971769E-018
 -1.599999999999999E-003   -1.487837904762238E-018
 -1.499999999999999E-003   -4.639094513118097E-019
 -1.399999999999999E-003    1.124206926516439E-018
 -1.299999999999999E-003    3.175568323434489E-018
 -1.199999999999999E-003    5.511229746291704E-018
 -1.099999999999999E-003    7.880108406041740E-018
 -9.999999999999989E-004    9.971999639383553E-018
 -8.999999999999990E-004    1.143754571340091E-017
 -7.999999999999990E-004    1.191461410699692E-017
 -6.999999999999989E-004    1.106025891034308E-017
 -5.999999999999990E-004    8.587137729766854E-018
 -4.999999999999989E-004    4.302801821815628E-018
 -3.999999999999989E-004   -1.850212016354110E-018
 -2.999999999999989E-004   -9.756234368219009E-018
 -1.999999999999989E-004   -1.909378662248579E-017
 -9.999999999999892E-005   -2.931277854873463E-017
  1.084202172485504E-018   -3.962652280430190E-017
  1.000000000000011E-004   -4.902398683193704E-017
  2.000000000000011E-004   -5.630734679401505E-017
  3.000000000000011E-004   -6.015903860821449E-017
  4.000000000000011E-004   -5.924030920195358E-017
  5.000000000000011E-004   -5.232046143471963E-017
  6.000000000000011E-004   -3.843187829033006E-017
  7.000000000000011E-004   -1.704127240022453E-017
  8.000000000000011E-004    1.177714730891544E-017
  9.000000000000012E-004    4.718558053912383E-017
  1.000000000000001E-003    8.746589551932625E-017
  1.100000000000001E-003    1.299661412933678E-016
  1.200000000000001E-003    1.711329106679011E-016
  1.300000000000001E-003    2.066482724990320E-016
  1.400000000000001E-003    2.316823798822452E-016
  1.500000000000001E-003    2.412619639279833E-016
  1.600000000000001E-003    2.307422041176397E-016
  1.700000000000001E-003    1.963543891165336E-016
  1.800000000000001E-003    1.357872361433762E-016
  1.900000000000001E-003    4.874688176672142E-017
  2.000000000000001E-003   -6.256808124840355E-017
  2.100000000000001E-003   -1.931454463108194E-016
  2.200000000000001E-003   -3.350556496051456E-016
  2.300000000000001E-003   -4.776199104809234E-016
  2.400000000000001E-003   -6.078854382974129E-016
  2.500000000000001E-003   -7.114167025864522E-016
  2.600000000000001E-003   -7.733810561387132E-016
  2.700000000000001E-003   -7.798733774192936E-016
  2.800000000000001E-003   -7.193909148244005E-016
  2.900000000000001E-003   -5.843397283432516E-016
  3.000000000000001E-003   -3.724339423672053E-016
  3.100000000000001E-003   -8.783671833243789E-017
  3.200000000000001E-003    2.581038986950712E-016
  3.300000000000001E-003    6.466538812973230E-016
  3.400000000000001E-003    1.052125010322909E-015
  3.500000000000001E-003    1.442992358735108E-015
  3.600000000000001E-003    1.783693740264985E-015
  3.700000000000001E-003    2.037047584984481E-015
  3.800000000000001E-003    2.167162774822559E-015
  3.900000000000001E-003    2.142655681193131E-015
  4.000000000000001E-003    1.939943464293846E-015
  4.100000000000001E-003    1.546350858949143E-015
  4.200000000000001E-003    9.627499226213638E-016
  4.300000000000001E-003    2.054647564838114E-016
  4.400000000000001E-003   -6.928011153723693E-016
  4.500000000000001E-003   -1.683205653154078E-015
  4.600000000000002E-003   -2.702299008987603E-015
  4.700000000000001E-003   -3.674884365419785E-015
  4.800000000000001E-003   -4.518153244267583E-015
  4.900000000000002E-003   -5.146945873394211E-015
  5.000000000000001E-003   -5.479888364609875E-015
  5.100000000000001E-003   -5.446069989609051E-015
  5.200000000000001E-003   -4.991856738869474E-015
  5.300000000000002E-003   -4.087363579646531E-015
  5.400000000000001E-003   -2.732093779508890E-015
  5.500000000000001E-003   -9.592289107448417E-016
  5.600000000000002E-003    1.161913352839810E-015
  5.700000000000001E-003    3.525681523083357E-015
  5.800000000000001E-003    5.992499134677392E-015
  5.900000000000002E-003    8.394080386707667E-015
  6.000000000000001E-003    1.054151366410002E-014
  6.100000000000001E-003    1.223606529089430E-014
  6.200000000000002E-003    1.328235104647013E-014
  6.300000000000002E-003    1.350329015988062E-014
  6.400000000000001E-003    1.275603002955745E-014
  6.500000000000001E-003    1.094782757020278E-014
  6.600000000000002E-003    8.050681262686426E-015
  6.700000000000001E-003    4.113432942474922E-015
  6.800000000000001E-003   -7.300076486987759E-016
  6.900000000000002E-003   -6.257569743409406E-015
  7.000000000000001E-003   -1.216212084897678E-014
  7.100000000000001E-003   -1.806153931465901E-014
  7.200000000000002E-003   -2.351608870530840E-014
  7.300000000000002E-003   -2.805291135630091E-014
  7.400000000000001E-003   -3.119685474495673E-014
  7.500000000000001E-003   -3.250619257386049E-014
  7.600000000000002E-003   -3.161122396955334E-014
  7.700000000000001E-003   -2.825310878938469E-014
  7.800000000000001E-003   -2.231995334670300E-014
  7.900000000000001E-003   -1.387688258608546E-014
  8.000000000000002E-003   -3.186832855963760E-015
  8.100000000000001E-003    9.280896971295364E-015
  8.200000000000001E-003    2.285679295865984E-014
  8.300000000000002E-003    3.669352880651192E-014
  8.400000000000001E-003    4.980517671092950E-014
  8.500000000000002E-003    6.112244920770445E-014
  8.600000000000002E-003    6.956186758925212E-014
  8.700000000000001E-003    7.410536467452119E-014
  8.800000000000002E-003    7.388553237694708E-014
  8.900000000000002E-003    6.827073630787411E-014
  9.000000000000001E-003    5.694348790252941E-014
  9.100000000000002E-003    3.996536545778161E-014
  9.200000000000002E-003    1.782171482453985E-014
  9.300000000000001E-003   -8.559659138142848E-015
  9.400000000000002E-003   -3.782048716625675E-014
  9.500000000000001E-003   -6.821750478734635E-014
  9.600000000000001E-003   -9.770212195262937E-014
  9.700000000000002E-003   -1.240324179523394E-013
  9.800000000000001E-003   -1.449130433979073E-013
  9.900000000000001E-003   -1.581559769942498E-013
  1.000000000000000E-002   -1.618527666072037E-013
  1.010000000000000E-002   -1.545469506071630E-013
  1.020000000000000E-002   -1.353940061811044E-013
  1.030000000000000E-002   -1.042957437865476E-013
  1.040000000000000E-002   -6.199637188486783E-014
  1.050000000000000E-002   -1.012880975212741E-014
  1.060000000000000E-002    4.879784310208208E-014
  1.070000000000000E-002    1.114754123142606E-013
  1.080000000000000E-002    1.739401765534782E-013
  1.090000000000000E-002    2.317799317005850E-013
  1.100000000000000E-002    2.803966556335398E-013
  1.110000000000000E-002    3.153122256384895E-013
  1.120000000000000E-002    3.324997481059163E-013
  1.130000000000000E-002    3.287194799089370E-013
  1.140000000000000E-002    3.018357496850952E-013
  1.150000000000000E-002    2.510896445807670E-013
  1.160000000000000E-002    1.773034958021953E-013
  1.170000000000000E-002    8.299492368947800E-014
  1.180000000000000E-002   -2.761717438215930E-014
  1.190000000000000E-002   -1.487266814813347E-013
  1.200000000000000E-002   -2.731780429160242E-013
  1.210000000000000E-002   -3.928239177448760E-013
  1.220000000000000E-002   -4.989888357653954E-013
  1.230000000000000E-002   -5.830164802130458E-013
  1.240000000000000E-002   -6.368699125933402E-013
  1.250000000000000E-002   -6.537471285398244E-013
  1.260000000000000E-002   -6.286704823516424E-013
  1.270000000000000E-002   -5.590053163380004E-013
  1.280000000000000E-002   -4.448662260731666E-013
  1.290000000000000E-002   -2.893716045291377E-013
  1.300000000000000E-002   -9.871641495667330E-014
  1.310000000000000E-002    1.179581287566309E-013
  1.320000000000000E-002    3.489050506832768E-013
  1.330000000000000E-002    5.803178898214950E-013
  1.340000000000000E-002    7.970609980218251E-013
  1.350000000000000E-002    9.835506566511062E-013
  1.360000000000000E-002    1.124739463932892E-012
  1.370000000000000E-002    1.207147076079324E-012
  1.380000000000000E-002    1.219873197188516E-012
  1.390000000000000E-002    1.155525875372902E-012
  1.400000000000000E-002    1.010998900730979E-012
  1.410000000000000E-002    7.880368035476272E-013
  1.420000000000000E-002    4.935378527488153E-013
  1.430000000000000E-002    1.395550328080471E-013
  1.440000000000000E-002   -2.570259064295937E-013
  1.450000000000000E-002   -6.751350305137943E-013
  1.460000000000000E-002   -1.090478373125418E-012
  1.470000000000000E-002   -1.476774186373982E-012
  1.480000000000000E-002   -1.807211080915685E-012
  1.490000000000000E-002   -2.056058034101911E-012
  1.500000000000000E-002   -2.200341736537041E-012
  1.510000000000000E-002   -2.221496982287288E-012
  1.520000000000000E-002   -2.106890352654250E-012
  1.530000000000000E-002   -1.851116227952658E-012
  1.540000000000000E-002   -1.456970696205281E-012
  1.550000000000000E-002   -9.360161957036462E-013
  1.560000000000000E-002   -3.086681663368497E-013
  1.570000000000000E-002    3.962441908236995E-013
  1.580000000000000E-002    1.142468368332882E-012
  1.590000000000000E-002    1.887859224483460E-012
  1.600000000000000E-002    2.586414931417299E-012
  1.610000000000000E-002    3.190741082424678E-012
  1.620000000000000E-002    3.654838412343514E-012
  1.630000000000000E-002    3.937076063243457E-012
  1.640000000000000E-002    4.003186494016193E-012
  1.650000000000000E-002    3.829098162394210E-012
  1.660000000000000E-002    3.403413295584951E-012
  1.670000000000000E-002    2.729338681678991E-012
  1.680000000000000E-002    1.825887164528286E-012
  1.690000000000000E-002    7.282017980374611E-013
  1.700000000000000E-002   -5.131161300991908E-013
  1.710000000000000E-002   -1.833730999238476E-012
  1.720000000000000E-002   -3.158350726664059E-012
  1.730000000000000E-002   -4.404482830721768E-012
  1.740000000000000E-002   -5.487030100058666E-012
  1.750000000000000E-002   -6.323504248694002E-012
  1.760000000000000E-002   -6.839580228294710E-012
  1.770000000000000E-002   -6.974653326751997E-012
  1.780000000000000E-002   -6.687035034893826E-012
  1.790000000000000E-002   -5.958399320447491E-012
  1.800000000000000E-002   -4.797109467083848E-012
  1.810000000000000E-002   -3.240093511264454E-012
  1.820000000000000E-002   -1.352999347543600E-012
  1.830000000000000E-002    7.715428702511888E-013
  1.840000000000000E-002    3.017614849959616E-012
  1.850000000000000E-002    5.251593075473773E-012
  1.860000000000000E-002    7.329416831733713E-012
  1.870000000000000E-002    9.105198494455525E-012