 -4.000000000000000E-002    0.000000000000000E+000
 -3.990000000000000E-002    0.000000000000000E+000
 -3.980000000000000E-002    0.000000000000000E+000
 -3.970000000000000E-002    0.000000000000000E+000
 -3.960000000000000E-002    0.000000000000000E+000
 -3.950000000000000E-002    0.000000000000000E+000
 -3.940000000000000E-002    0.000000000000000E+000
 -3.930000000000000E-002    0.000000000000000E+000
 -3.920000000000000E-002    0.000000000000000E+000
 -3.910000000000000E-002    0.000000000000000E+000
 -3.900000000000000E-002    0.000000000000000E+000
 -3.890000000000000E-002    0.000000000000000E+000
 -3.880000000000000E-002    1.575267897271428E-040
 -3.870000000000000E-002    3.435616601967648E-039
 -3.860000000000000E-002    3.832311208537074E-038
 -3.850000000000000E-002    2.904066174800533E-037
 -3.840000000000000E-002    1.674184636305678E-036
 -3.830000000000000E-002    7.786186375607500E-036
 -3.820000000000000E-002    3.018250516579521E-035
 -3.810000000000000E-002    9.906559733844188E-035
 -3.800000000000000E-002    2.750765468785166E-034
 -3.790000000000000E-002    6.280140800086876E-034
 -3.780000000000000E-002    1.054678956866570E-033
 -3.770000000000000E-002    5.709206982246974E-034
 -3.760000000000000E-002   -4.799876245869441E-033
 -3.750000000000000E-002   -2.738377326270143E-032
 -3.740000000000000E-002   -9.986863577399384E-032
 -3.730000000000000E-002   -2.995099230418007E-031
 -3.720000000000000E-002   -7.921834157072232E-031
 -3.710000000000000E-002   -1.904425755148598E-030
 -3.700000000000000E-002   -4.227179703105571E-030
 -3.690000000000000E-002   -8.740162980235479E-030
 -3.680000000000000E-002   -1.691303193815213E-029
 -3.670000000000000E-002   -3.068050753631428E-029
 -3.660000000000000E-002   -5.209790053534224E-029
 -3.650000000000000E-002   -8.236499947531964E-029
 -3.640000000000000E-002   -1.197832112439416E-028
 -3.630000000000000E-002   -1.561378304763306E-028
 -3.620000000000000E-002   -1.710704617522894E-028
 -3.610000000000000E-002   -1.243690376275121E-028
 -3.600000000000000E-002    5.307033636577900E-029
 -3.590000000000000E-002    4.673922146765378E-028
 -3.580000000000000E-002    1.264634089010450E-027
 -3.570000000000000E-002    2.621061843438732E-027
 -3.560000000000000E-002    4.710779566196377E-027
 -3.550000000000000E-002    7.638178282481542E-027
 -3.540000000000000E-002    1.132286583330841E-026
 -3.530000000000000E-002    1.532922974173313E-026
 -3.520000000000000E-002    1.864418416314137E-026
 -3.510000000000000E-002    1.942722804954651E-026
 -3.500000000000000E-002    1.478788580123507E-026
 -3.490000000000000E-002    6.856172214489384E-028
 -3.480000000000000E-002   -2.790852268563343E-026
 -3.470000000000000E-002   -7.641132311930177E-026
 -3.460000000000000E-002   -1.493953031207399E-025
 -3.450000000000000E-002   -2.485613714570629E-025
 -3.440000000000000E-002   -3.698507919705500E-025
 -3.430000000000000E-002   -4.998215597505884E-025
 -3.420000000000000E-002   -6.117108232878512E-025
 -3.410000000000000E-002   -6.620010474894012E-025
 -3.400000000000000E-002   -5.887644596448840E-025
 -3.390000000000000E-002   -3.134991296929768E-025
 -3.380000000000000E-002    2.515352099528154E-025
 -3.370000000000000E-002    1.188498060986425E-024
 -3.360000000000000E-002    2.550216167138234E-024
 -3.350000000000000E-002    4.327293669562893E-024
 -3.340000000000000E-002    6.407959843792330E-024
 -3.330000000000000E-002    8.535459708136606E-024
 -3.320000000000000E-002    1.027138110285197E-023
 -3.310000000000000E-002    1.097709698267834E-023
 -3.300000000000000E-002    9.828726398200832E-024
 -3.290000000000000E-002    5.882612540209225E-024
 -3.280000000000000E-002   -1.793011781385559E-024
 -3.270000000000000E-002   -1.391005577592055E-023
 -3.260000000000000E-002   -3.067708762419912E-023
 -3.250000000000000E-002   -5.145786721293537E-023
 -3.240000000000000E-002   -7.441151350876246E-023
 -3.230000000000000E-002   -9.617950893346707E-023
 -3.220000000000000E-002   -1.117101658652831E-022
 -3.210000000000000E-002   -1.143311339392092E-022
 -3.200000000000000E-002   -9.618825913639420E-023
 -3.190000000000000E-002   -4.915680335521589E-023
 -3.180000000000000E-002    3.370848578783725E-023
 -3.170000000000000E-002    1.561900719205976E-022
 -3.160000000000000E-002    3.165028018619614E-022
 -3.150000000000000E-002    5.047148160651548E-022
 -3.140000000000000E-002    7.003943598722569E-022
 -3.130000000000000E-002    8.710319733960213E-022
 -3.120000000000000E-002    9.719035854697543E-022
 -3.110000000000000E-002    9.480878318603074E-022
 -3.100000000000000E-002    7.392901928792552E-022
 -3.090000000000000E-002    2.879234718074978E-022
 -3.080000000000000E-002   -4.494775273466823E-022
 -3.070000000000000E-002   -1.487973609308468E-021
 -3.060000000000000E-002   -2.798232888299478E-021
 -3.050000000000000E-002   -4.290786414020643E-021
 -3.040000000000000E-002   -5.803262228552318E-021
 -3.030000000000000E-002   -7.093981349406415E-021
 -3.020000000000000E-002   -7.845653384543926E-021
 -3.010000000000000E-002   -7.682794148147543E-021
 -3.000000000000000E-002   -6.205749610767073E-021
 -2.990000000000000E-002   -3.042730077529831E-021
 -2.980000000000000E-002    2.081015068085983E-021
 -2.970000000000000E-002    9.260700176554602E-021
 -2.960000000000000E-002    1.832350635007379E-020
 -2.950000000000000E-002    2.874501190763492E-020
 -2.940000000000000E-002    3.958478002374312E-020
 -2.930000000000000E-002    4.945762416926303E-020
 -2.920000000000000E-002    5.655779138524006E-020
 -2.910000000000000E-002    5.875172995604361E-020
 -2.900000000000000E-002    5.375072163585603E-020
 -2.890000000000000E-002    3.936726045696716E-020
 -2.880000000000000E-002    1.384866502816950E-020
 -2.870000000000000E-002   -2.373141439925092E-020
 -2.860000000000000E-002   -7.305711244126016E-020
 -2.850000000000000E-002   -1.321777058444824E-019
 -2.840000000000000E-002   -1.971976661113252E-019
 -2.830000000000000E-002   -2.621161787102483E-019
 -2.820000000000000E-002   -3.188840234274870E-019
 -2.810000000000000E-002   -3.577371451830757E-019
 -2.800000000000000E-002   -3.678484823153062E-019
 -2.790000000000000E-002   -3.383107350155796E-019
 -2.780000000000000E-002   -2.594243168870386E-019
 -2.770000000000000E-002   -1.242190911996636E-019
 -2.760000000000000E-002    6.991029911591757E-020
 -2.750000000000000E-002    3.196223617331071E-019
 -2.740000000000000E-002    6.143045863066045E-019
 -2.730000000000000E-002    9.352334889945028E-019
 -2.720000000000000E-002    1.255444445139798E-018
 -2.710000000000000E-002    1.540508735243413E-018
 -2.700000000000000E-002    1.750353143249121E-018
 -2.690000000000000E-002    1.842169766319250E-018
 -2.680000000000000E-002    1.774343269535321E-018
 -2.670000000000000E-002    1.511189322885821E-018
 -2.660000000000000E-002    1.028155223209814E-018
 -2.650000000000000E-002    3.170065954143849E-019
 -2.640000000000000E-002   -6.095778313113196E-019
 -2.630000000000000E-002   -1.714633868804166E-018
 -2.620000000000000E-002   -2.935379103661531E-018
 -2.610000000000000E-002   -4.184051967240179E-018
 -2.600000000000000E-002   -5.351486512491184E-018
 -2.590000000000000E-002   -6.313553018903424E-018
 -2.580000000000000E-002   -6.940291668438638E-018
 -2.570000000000000E-002   -7.107245319810773E-018
 -2.560000000000000E-002   -6.708168731028411E-018
 -2.550000000000000E-002   -5.668019758927564E-018
 -2.540000000000000E-002   -3.954936074423235E-018
 -2.530000000000000E-002   -1.589832785057770E-018
 -2.520000000000000E-002    1.347662321453650E-018
 -2.510000000000000E-002    4.717992597893527E-018
 -2.500000000000000E-002    8.325831063551044E-018
 -2.490000000000000E-002    1.192977500621863E-017
 -2.480000000000000E-002    1.525714728091702E-017
 -2.470000000000000E-002    1.802290197876764E-017
 -2.460000000000000E-002    1.995111012367629E-017
 -2.450000000000000E-002    2.079715623092524E-017
 -2.440000000000000E-002    2.036860174706828E-017
 -2.430000000000000E-002    1.854276653263834E-017
 -2.420000000000000E-002    1.527943307573839E-017
 -2.410000000000000E-002    1.062761331160890E-017
 -2.400000000000000E-002    4.726030314715621E-018
 -2.390000000000000E-002   -2.202288677668364E-018
 -2.380000000000000E-002   -9.860281632166057E-018
 -2.370000000000000E-002   -1.789048472935227E-017
 -2.360000000000000E-002   -2.589038911316997E-017
 -2.350000000000000E-002   -3.342810756775997E-017
 -2.340000000000000E-002   -4.005748587031598E-017
 -2.330000000000000E-002   -4.533260947108448E-017
 -2.320000000000000E-002   -4.882258843984347E-017
 -2.310000000000000E-002   -5.012828490782764E-017
 -2.300000000000000E-002   -4.890309412334511E-017
 -2.290000000000000E-002   -4.487973574620913E-017
 -2.280000000000000E-002   -3.790412991637749E-017
 -2.270000000000000E-002   -2.797567544378318E-017
 -2.260000000000000E-002   -1.529092403091935E-017
 -2.250000000000000E-002   -2.847842344651059E-019
 -2.240000000000000E-002    1.633920102737032E-017
 -2.230000000000000E-002    3.360012768746729E-017
 -2.220000000000000E-002    5.026375796576866E-017
 -2.210000000000000E-002    6.490929722154906E-017
 -2.200000000000000E-002    7.604527211383703E-017
 -2.190000000000000E-002    8.227464914302532E-017
 -2.180000000000000E-002    8.250102955904407E-017
 -2.170000000000000E-002    7.615777496138513E-017
 -2.160000000000000E-002    6.343199216464231E-017
 -2.150000000000000E-002    4.544665829354656E-017
 -2.140000000000000E-002    2.435890767934292E-017
 -2.130000000000000E-002    3.332544089756478E-018
 -2.120000000000000E-002   -1.365025935396042E-017
 -2.110000000000000E-002   -2.215896316665831E-017
 -2.100000000000000E-002   -1.786507842776156E-017
 -2.090000000000000E-002    2.756195416933255E-018
 -2.080000000000000E-002    4.163360818818749E-017
 -2.070000000000000E-002    9.830831544010633E-017
 -2.060000000000000E-002    1.692597552882894E-016
 -2.050000000000000E-002    2.474806616587644E-016
 -2.040000000000000E-002    3.224315711099968E-016
 -2.030000000000000E-002    3.804850439974270E-016
 -2.020000000000000E-002    4.059282663929019E-016
 -2.010000000000000E-002    3.825306084174083E-016
 -2.000000000000000E-002    2.956053325477161E-016
 -1.990000000000000E-002    1.344075514134420E-016
 -1.980000000000000E-002   -1.053729648867005E-016
 -1.970000000000000E-002   -4.193369689525586E-016
 -1.960000000000000E-002   -7.926734355917525E-016
 -1.950000000000000E-002   -1.199387552914328E-015
 -1.940000000000000E-002   -1.602772267210971E-015
 -1.930000000000000E-002   -1.957337914631219E-015
 -1.920000000000000E-002   -2.212267288817232E-015
 -1.910000000000000E-002   -2.316277084843703E-015
 -1.900000000000000E-002   -2.223557251653069E-015
 -1.890000000000000E-002   -1.900253083892090E-015
 -1.880000000000000E-002   -1.330780074320726E-015
 -1.870000000000000E-002   -5.231459593664350E-016
 -1.860000000000000E-002    4.875712338544148E-016
 -1.850000000000000E-002    1.638363208276593E-015
 -1.840000000000000E-002    2.840622106541069E-015
 -1.830000000000000E-002    3.985932371012393E-015
 -1.820000000000000E-002    4.955194284571909E-015
 -1.810000000000000E-002    5.630502057370132E-015
 -1.800000000000000E-002    5.908751462588335E-015
 -1.790000000000000E-002    5.715560422287899E-015
 -1.780000000000000E-002    5.017816799312057E-015
 -1.770000000000000E-002    3.833070961674915E-015
 -1.760000000000000E-002    2.234117851684495E-015
 -1.750000000000000E-002    3.474672577598189E-016
 -1.740000000000000E-002   -1.655011160538541E-015
 -1.730000000000000E-002   -3.571218543600482E-015
 -1.720000000000000E-002   -5.189797691198461E-015
 -1.710000000000000E-002   -6.315122858577350E-015
 -1.700000000000000E-002   -6.793695691831854E-015
 -1.690000000000000E-002   -6.538767539008096E-015
 -1.680000000000000E-002   -5.549772908572394E-015
 -1.670000000000000E-002   -3.923324698705491E-015
 -1.660000000000000E-002   -1.853145954276497E-015
 -1.650000000000000E-002    3.826389523531678E-016
 -1.640000000000000E-002    2.447031793237283E-015
 -1.630000000000000E-002    3.981055703827264E-015
 -1.620000000000000E-002    4.648886485505373E-015
 -1.610000000000000E-002    4.186601902955271E-015
 -1.600000000000000E-002    2.448800162540769E-015
 -1.590000000000000E-002   -5.532013762810494E-016
 -1.580000000000000E-002   -4.627671295953061E-015
 -1.570000000000000E-002   -9.398361340555579E-015
 -1.560000000000000E-002   -1.432331071459298E-014
 -1.550000000000000E-002   -1.873741837936337E-014
 -1.540000000000000E-002   -2.191678615131528E-014
 -1.530000000000000E-002   -2.315981339469482E-014
 -1.520000000000000E-002   -2.187729675419227E-014
 -1.510000000000000E-002   -1.768162197227903E-014
 -1.500000000000000E-002   -1.046399113046638E-014
 -1.490000000000000E-002   -4.486812572287255E-016
 -1.480000000000000E-002    1.178522081729045E-014
 -1.470000000000000E-002    2.532134663350647E-014
 -1.460000000000000E-002    3.896559468460810E-014
 -1.450000000000000E-002    5.134566753421531E-014
 -1.440000000000000E-002    6.104346294827979E-014
 -1.430000000000000E-002    6.674834845860175E-014
 -1.420000000000000E-002    6.741542973555513E-014
 -1.410000000000000E-002    6.241063412552629E-014
 -1.400000000000000E-002    5.162390732242458E-014
 -1.390000000000000E-002    3.553370553983776E-014
 -1.380000000000000E-002    1.521007936074530E-014
 -1.370000000000000E-002   -7.750329509780265E-015
 -1.360000000000000E-002   -3.135642614499391E-014
 -1.350000000000000E-002   -5.341282183344521E-014
 -1.340000000000000E-002   -7.175090804276338E-014
 -1.330000000000000E-002   -8.447703119612370E-014
 -1.320000000000000E-002   -9.020951837226779E-014
 -1.310000000000000E-002   -8.827491659970970E-014
 -1.300000000000000E-002   -7.883568661438303E-014
 -1.290000000000000E-002   -6.292750457595376E-014
 -1.280000000000000E-002   -4.239313480218336E-014
 -1.270000000000000E-002   -1.971126516931580E-014
 -1.260000000000000E-002    2.268411707475126E-015
 -1.250000000000000E-002    2.065992388482702E-014
 -1.240000000000000E-002    3.291053096946353E-014
 -1.230000000000000E-002    3.716213009693923E-014
 -1.220000000000000E-002    3.255833218360984E-014
 -1.210000000000000E-002    1.945300437920712E-014
 -1.200000000000000E-002   -5.163595663308788E-016
 -1.190000000000000E-002   -2.451399810570818E-014
 -1.180000000000000E-002   -4.875635766946580E-014
 -1.170000000000000E-002   -6.891409716712621E-014
 -1.160000000000000E-002   -8.063182933476799E-014
 -1.150000000000000E-002   -8.011346963508940E-014
 -1.140000000000000E-002   -6.470696123225092E-014
 -1.130000000000000E-002   -3.341506408849805E-014
 -1.120000000000000E-002    1.274069786825688E-014
 -1.110000000000000E-002    7.056577689887267E-014
 -1.100000000000000E-002    1.347927946096447E-013
 -1.090000000000000E-002    1.984549052789192E-013
 -1.080000000000000E-002    2.535203354728442E-013
 -1.070000000000000E-002    2.917430015398820E-013
 -1.060000000000000E-002    3.056527586659736E-013
 -1.050000000000000E-002    2.895837364981130E-013
 -1.040000000000000E-002    2.406216529811566E-013
 -1.030000000000000E-002    1.593475843800475E-013
 -1.020000000000000E-002    5.026454144030015E-014
 -1.010000000000000E-002   -7.818277029014695E-014
 -1.000000000000000E-002   -2.140481465199617E-013
 -9.899999999999999E-003   -3.427902826573006E-013
 -9.800000000000000E-003   -4.485979026768355E-013
 -9.699999999999999E-003   -5.160344944051047E-013
 -9.599999999999999E-003   -5.318537201404472E-013
 -9.500000000000000E-003   -4.868024523680881E-013
 -9.399999999999999E-003   -3.772067701675102E-013
 -9.299999999999999E-003   -2.061393913905088E-013
 -9.200000000000000E-003    1.601058259938404E-014
 -9.099999999999999E-003    2.716982048830737E-013
 -8.999999999999999E-003    5.371798453860965E-013
 -8.900000000000000E-003    7.842550259543886E-013
 -8.799999999999999E-003    9.826937064230325E-013
 -8.699999999999999E-003    1.103165836255544E-012
 -8.600000000000000E-003    1.120417978296331E-012
 -8.499999999999999E-003    1.016388020019011E-012
 -8.399999999999999E-003    7.829265817702860E-013
 -8.300000000000000E-003    4.238015241875927E-013
 -8.199999999999999E-003   -4.429327244184618E-014
 -8.100000000000000E-003   -5.919258467119220E-013
 -8.000000000000000E-003   -1.178405607019279E-012
 -7.899999999999999E-003   -1.754523541239015E-012
 -7.800000000000000E-003   -2.266388764884761E-012
 -7.699999999999999E-003   -2.660072755669074E-012
 -7.599999999999999E-003   -2.886661387040220E-012
 -7.499999999999999E-003   -2.907245363770079E-012
 -7.399999999999999E-003   -2.697348101666032E-012
 -7.299999999999999E-003   -2.250309881306164E-012
 -7.199999999999999E-003   -1.579219239882583E-012
 -7.100000000000000E-003   -7.171045580724039E-013
 -6.999999999999999E-003    2.847450980590397E-013
 -6.899999999999999E-003    1.360274878096159E-012
 -6.800000000000000E-003    2.433730919897782E-012
 -6.699999999999999E-003    3.425879252035188E-012
 -6.599999999999999E-003    4.260812040983583E-012
 -6.499999999999999E-003    4.872688760879807E-012
 -6.399999999999999E-003    5.211727162707573E-012
 -6.299999999999999E-003    5.248807310384834E-012
 -6.199999999999999E-003    4.978174182140280E-012
 -6.100000000000000E-003    4.417888373788343E-012
 -5.999999999999999E-003    3.607922897593922E-012
 -5.899999999999999E-003    2.606043508192192E-012
 -5.800000000000000E-003    1.481865527142375E-012
 -5.699999999999999E-003    3.097033967780891E-013
 -5.599999999999999E-003   -8.390046548202563E-013
 -5.499999999999999E-003   -1.902833534516455E-012
 -5.399999999999999E-003   -2.836212612614052E-012
 -5.299999999999999E-003   -3.613230970820821E-012
 -5.199999999999999E-003   -4.228860996702226E-012
 -5.099999999999999E-003   -4.697353363646473E-012
 -4.999999999999999E-003   -5.047879451559665E-012
 -4.899999999999999E-003   -5.317854191363952E-012
 -4.799999999999999E-003   -5.544689654036772E-012
 -4.699999999999999E-003   -5.757007729419009E-012
 -4.599999999999999E-003   -5.966470067574649E-012
 -4.499999999999999E-003   -6.161448256365519E-012
 -4.399999999999999E-003   -6.303611816750422E-012
 -4.299999999999999E-003   -6.328275939882128E-012
 -4.199999999999999E-003   -6.148955246940545E-012
 -4.099999999999999E-003   -5.666100063946113E-012
 -3.999999999999999E-003   -4.779462477166951E-012
 -3.899999999999999E-003   -3.403028556507472E-012
 -3.799999999999999E-003   -1.481009642173876E-012
 -3.699999999999999E-003    9.969283714297456E-013
 -3.599999999999999E-003    3.983161775289214E-012
 -3.499999999999999E-003    7.364217086404278E-012
 -3.399999999999999E-003    1.095908341258520E-011
 -3.299999999999999E-003    1.452482541894591E-011
 -3.199999999999999E-003    1.776989458378777E-011
 -3.099999999999999E-003    2.037474916931040E-011
 -2.999999999999999E-003    2.201855809523527E-011
 -2.899999999999999E-003    2.240995719839370E-011
 -2.799999999999999E-003    2.131918253774998E-011
 -2.699999999999999E-003    1.860846705722908E-011
 -2.599999999999999E-003    1.425743380484736E-011
 -2.499999999999999E-003    8.380404001162253E-012
 -2.399999999999999E-003    1.233048358350708E-012
 -2.299999999999999E-003   -6.793366288287885E-012
 -2.199999999999999E-003   -1.519079771290111E-011
 -2.099999999999999E-003   -2.336577264941946E-011
 -1.999999999999999E-003   -3.068138969951500E-011
 -1.899999999999999E-003   -3.650699334283040E-011
 -1.799999999999999E-003   -4.027148424151042E-011
 -1.699999999999999E-003   -4.151566247235612E-011
 -1.599999999999999E-003   -3.993870146249885E-011
 -1.499999999999999E-003   -3.543415274085096E-011
 -1.399999999999999E-003   -2.811155213489539E-011
 -1.299999999999999E-003   -1.830085840259358E-011
 -1.199999999999999E-003   -6.538432845068974E-012
 -1.099999999999999E-003    6.465060434496700E-012
 -9.999999999999989E-004    1.987271088461321E-011
 -8.999999999999990E-004    3.278168572350708E-011
 -7.999999999999990E-004    4.429078959437814E-011
 -6.999999999999989E-004    5.356944655053901E-011
 -5.999999999999990E-004    5.992188968262763E-011
 -4.999999999999989E-004    6.284079365368235E-011
 -3.999999999999989E-004    6.204532769050498E-011
 -2.999999999999989E-004    5.750021308435358E-011
 -1.999999999999989E-004    4.941405949384034E-011
 -9.999999999999892E-005    3.821737714486509E-011
  1.084202172485504E-018    2.452270149038263E-011
  1.000000000000011E-004    9.071076669673027E-012
  2.000000000000011E-004   -7.329397783551391E-012
  3.000000000000011E-004   -2.386648419082769E-011
  4.000000000000011E-004   -3.978156404266017E-011
  5.000000000000011E-004   -5.441624666634339E-011
  6.000000000000011E-004   -6.724319984754953E-011
  7.000000000000011E-004   -7.787834814579862E-011
  8.000000000000011E-004   -8.607416605623305E-011
  9.000000000000012E-004   -9.169574702235395E-011
  1.000000000000001E-003   -9.468403319591988E-011
  1.100000000000001E-003   -9.501217537014184E-011
  1.200000000000001E-003   -9.264224335584857E-011
  1.300000000000001E-003   -8.748983934664122E-011
  1.400000000000001E-003   -7.940352595331213E-011
  1.500000000000001E-003   -6.816448566989803E-011
  1.600000000000001E-003   -5.350937643766240E-011
  1.700000000000001E-003   -3.517654891540159E-011
  1.800000000000001E-003   -1.297234883667929E-011
  1.900000000000001E-003    1.314872884727135E-011
  2.000000000000001E-003    4.299908044111870E-011
  2.100000000000001E-003    7.607917865725524E-011
  2.200000000000001E-003    1.115164883487141E-010
  2.300000000000001E-003    1.480333831050012E-010
  2.400000000000001E-003    1.839531934824110E-010
  2.500000000000001E-003    2.172505368151576E-010
  2.600000000000001E-003    2.456476454849820E-010
  2.700000000000001E-003    2.667538635805189E-010
  2.800000000000001E-003    2.782400261351806E-010
  2.900000000000001E-003    2.780348732259827E-010
  3.000000000000001E-003    2.645269328248141E-010
  3.100000000000001E-003    2.367527226674180E-010
  3.200000000000001E-003    1.945513349715077E-010
  3.300000000000001E-003    1.386672176512344E-010
  3.400000000000001E-003    7.078562723550415E-011
  3.500000000000001E-003   -6.508428245192590E-012
  3.600000000000001E-003   -8.985192982083487E-011
  3.700000000000001E-003   -1.753010048878233E-010
  3.800000000000001E-003   -2.585917760928890E-010
  3.900000000000001E-003   -3.354456611609774E-010
  4.000000000000001E-003   -4.018938228216937E-010
  4.100000000000001E-003   -4.545917957393496E-010
  4.200000000000001E-003   -4.910944935464340E-010
  4.300000000000001E-003   -5.100628632339947E-010
  4.400000000000001E-003   -5.113785226686131E-010
  4.500000000000001E-003   -4.961496958145770E-010
  4.600000000000002E-003   -4.666012639056247E-010
  4.700000000000001E-003   -4.258520399214030E-010
  4.800000000000001E-003   -3.775938650216888E-010
  4.900000000000002E-003   -3.256966533471799E-010
  5.000000000000001E-003   -2.737732336363644E-010
  5.100000000000001E-003   -2.247420198015510E-010
  5.200000000000001E-003   -1.804296771200913E-010
  5.300000000000002E-003   -1.412536369065230E-010
  5.400000000000001E-003   -1.060196218431023E-010
  5.500000000000001E-003   -7.186046300855322E-011
  5.600000000000002E-003   -3.433167860114653E-011
  5.700000000000001E-003    1.233505706240753E-011
  5.800000000000001E-003    7.483257008868678E-011
  5.900000000000002E-003    1.602577375459394E-010
  6.000000000000001E-003    2.755074713328629E-010
  6.100000000000001E-003    4.266348677293522E-010
  6.200000000000002E-003    6.182166032887996E-010
  6.300000000000002E-003    8.527783686843091E-010
  6.400000000000001E-003    1.130324352300289E-009
  6.500000000000001E-003    1.448005701144236E-009
  6.600000000000002E-003    1.799953077186013E-009
  6.700000000000001E-003    2.177282898533491E-009
  6.800000000000001E-003    2.568273448874527E-009
  6.900000000000002E-003    2.958692617705664E-009
  7.000000000000001E-003    3.332251548480570E-009
  7.100000000000001E-003    3.671142864667262E-009
  7.200000000000002E-003    3.956630258540970E-009
  7.300000000000002E-003    4.169646384007798E-009
  7.400000000000001E-003    4.291371730779785E-009
  7.500000000000001E-003    4.303771696584453E-009
  7.600000000000002E-003    4.190085072350224E-009
  7.700000000000001E-003    3.935266974284510E-009
  7.800000000000001E-003    3.526416086822519E-009
  7.900000000000001E-003    2.953207175797918E-009
  8.000000000000002E-003    2.208376675974288E-009
  8.100000000000001E-003    1.288306369642052E-009
  8.200000000000001E-003    1.937392413206885E-010
  8.300000000000002E-003   -1.069333022026615E-009
  8.400000000000001E-003   -2.488599597235930E-009
  8.500000000000002E-003   -4.044173764332698E-009
  8.600000000000002E-003   -5.707171452626109E-009
  8.700000000000001E-003   -7.438168599721276E-009
  8.800000000000002E-003   -9.185614415589006E-009
  8.900000000000002E-003   -1.088424203735297E-008
  9.000000000000001E-003   -1.245361451081808E-008
  9.100000000000002E-003   -1.379685733947725E-008
  9.200000000000002E-003   -1.479966672907642E-008
  9.300000000000001E-003   -1.532966620546318E-008
  9.400000000000002E-003   -1.523616784418735E-008
  9.500000000000001E-003   -1.435035461061073E-008
  9.600000000000001E-003   -1.248582055880795E-008
  9.700000000000002E-003   -9.439487044725031E-009
  9.800000000000001E-003   -4.992803799183439E-009
  9.900000000000001E-003    1.086903757462089E-009
  1.000000000000000E-002    9.045006839262437E-009
  1.010000000000000E-002    1.913818221183362E-008
  1.020000000000000E-002    3.163326035889632E-008
  1.030000000000000E-002    4.680621146829700E-008
  1.040000000000000E-002    6.494163853844317E-008
  1.050000000000000E-002    8.633250042592003E-008
  1.060000000000000E-002    1.112802948750127E-007
  1.070000000000000E-002    1.400955502437504E-007
  1.080000000000000E-002    1.730986031451208E-007
  1.090000000000000E-002    2.106204800809393E-007
  1.100000000000000E-002    2.530039271577743E-007
  1.110000000000000E-002    3.006044757445473E-007
  1.120000000000000E-002    3.537910125117397E-007
  1.130000000000000E-002    4.129462735867208E-007
  1.140000000000000E-002    4.784673533607107E-007
  1.150000000000000E-002    5.507651090439719E-007
  1.160000000000000E-002    6.302640128456490E-007
  1.170000000000000E-002    7.174012659581990E-007
  1.180000000000000E-002    8.126260230384534E-007
  1.190000000000000E-002    9.163987039340318E-007
  1.200000000000000E-002    1.029190137720683E-006
  1.210000000000000E-002    1.151481375791925E-006
  1.220000000000000E-002    1.283764073333974E-006
  1.230000000000000E-002    1.426541151129209E-006
  1.240000000000000E-002    1.580328281098603E-006
  1.250000000000000E-002    1.745656824235504E-006
  1.260000000000000E-002    1.923076142848231E-006
  1.270000000000000E-002    2.113158081966365E-006
  1.280000000000000E-002    2.316500484905639E-006
  1.290000000000000E-002    2.533732412566427E-006
  1.300000000000000E-002    2.765519361213926E-006
  1.310000000000000E-002    3.012566256016904E-006
  1.320000000000000E-002    3.275624501530605E-006
  1.330000000000000E-002    3.555494302205867E-006
  1.340000000000000E-002    3.853029325843605E-006
  1.350000000000000E-002    4.169139256214013E-006
  1.360000000000000E-002    4.504793332934198E-006
  1.370000000000000E-002    4.861021355154531E-006
  1.380000000000000E-002    5.238916055872991E-006
  1.390000000000000E-002    5.639635376867561E-006
  1.400000000000000E-002    6.064403101536383E-006
  1.410000000000000E-002    6.514510752903606E-006
  1.420000000000000E-002    6.991321258991042E-006
  1.430000000000000E-002    7.496270347674285E-006
  1.440000000000000E-002    8.030871578968069E-006
  1.450000000000000E-002    8.596719734537125E-006
  1.460000000000000E-002    9.195495480627099E-006
  1.470000000000000E-002    9.828974766627720E-006
  1.480000000000000E-002    1.049902913015514E-005
  1.490000000000000E-002    1.120763804654386E-005
  1.500000000000000E-002    1.195689134817913E-005
  1.510000000000000E-002    1.274900017618459E-005
  1.520000000000000E-002    1.358629729004767E-005
  1.530000000000000E-002    1.447125013727140E-005
  1.540000000000000E-002    1.540645938143609E-005
  1.550000000000000E-002    1.639467055277914E-005
  1.560000000000000E-002    1.743877171354814E-005
  1.570000000000000E-002    1.854179849523311E-005
  1.580000000000000E-002    1.970694303204548E-005
  1.590000000000000E-002    2.093755345983799E-005
  1.600000000000000E-002    2.223714120130126E-005
  1.610000000000000E-002    2.360938183665731E-005
  1.620000000000000E-002    2.505812447579694E-005
  1.630000000000000E-002    2.658740118343651E-005
  1.640000000000000E-002    2.820142917106467E-005
  1.650000000000000E-002    2.990462393642957E-005
  1.660000000000000E-002    3.170161150702011E-005
  1.670000000000000E-002    3.359723810301109E-005
  1.680000000000000E-002    3.559657906916361E-005
  1.690000000000000E-002    3.770496167631553E-005
  1.700000000000000E-002    3.992796522441521E-005
  1.710000000000000E-002    4.227143913173104E-005
  1.720000000000000E-002    4.474152311976328E-005
  1.730000000000000E-002    4.734464084658759E-005
  1.740000000000000E-002    5.008752877161466E-005
  1.750000000000000E-002    5.297722444869434E-005
  1.760000000000000E-002    5.602109612726068E-005
  1.770000000000000E-002    5.922684700641303E-005
  1.780000000000000E-002    6.260251454474188E-005
  1.790000000000000E-002    6.615648301908302E-005
  1.800000000000000E-002    6.989750176631656E-005
  1.810000000000000E-002    7.383469063001662E-005
  1.820000000000000E-002    7.797755437458803E-005
  1.830000000000000E-002    8.233600257936309E-005
  1.840000000000000E-002    8.692034950428381E-005
  1.850000000000000E-002    9.174135583090855E-005
  1.860000000000000E-002    9.681022715201920E-005
  1.870000000000000E-002    1.021386647847172E-004