 -4.000000000000000E-002    0.000000000000000E+000
 -3.990000000000000E-002    0.000000000000000E+000
 -3.980000000000000E-002    5.479480495477251E-012
 -3.970000000000000E-002    2.247715756933665E-011
 -3.960000000000000E-002    4.825329750578148E-011
 -3.950000000000000E-002    5.947310482645656E-011
 -3.940000000000000E-002    6.605481260051615E-013
 -3.930000000000000E-002   -2.239261192086934E-010
 -3.920000000000000E-002   -7.519456287119245E-010
 -3.910000000000000E-002   -1.755708744613609E-009
 -3.900000000000000E-002   -3.424666884171180E-009
 -3.890000000000000E-002   -5.937742790291541E-009
 -3.880000000000000E-002   -9.427295897957870E-009
 -3.870000000000000E-002   -1.393806854900666E-008
 -3.860000000000000E-002   -1.938590677433279E-008
 -3.850000000000000E-002   -2.552194320696811E-008
 -3.840000000000000E-002   -3.190823778365589E-008
 -3.830000000000000E-002   -3.791039556018568E-008
 -3.820000000000000E-002   -4.271146983407720E-008
 -3.810000000000000E-002   -4.534955530246068E-008
 -3.800000000000000E-002   -4.477896476723040E-008
 -3.790000000000000E-002   -3.995216781939099E-008
 -3.780000000000000E-002   -2.991690445723771E-008
 -3.770000000000000E-002   -1.392043014682712E-008
 -3.760000000000000E-002    8.488761937443891E-009
 -3.750000000000000E-002    3.737237830484794E-008
 -3.740000000000000E-002    7.233716986358955E-008
 -3.730000000000000E-002    1.125019816284442E-007
 -3.720000000000000E-002    1.565033043248850E-007
 -3.710000000000000E-002    2.025422012228023E-007
 -3.700000000000000E-002    2.484715508614137E-007
 -3.690000000000000E-002    2.919183035163141E-007
 -3.680000000000000E-002    3.304319163146906E-007
 -3.670000000000000E-002    3.616468152878670E-007
 -3.660000000000000E-002    3.834451940276300E-007
 -3.650000000000000E-002    3.941057172923665E-007
 -3.640000000000000E-002    3.924248322620450E-007
 -3.630000000000000E-002    3.777999453274899E-007
 -3.620000000000000E-002    3.502671818876551E-007
 -3.610000000000000E-002    3.104913618479621E-007
 -3.600000000000000E-002    2.597100049950406E-007
 -3.590000000000000E-002    1.996383726806862E-007
 -3.580000000000000E-002    1.323459915253340E-007
 -3.570000000000000E-002    6.011785859235776E-008
 -3.560000000000000E-002   -1.468549936365460E-008
 -3.550000000000000E-002   -8.975550265162435E-008
 -3.540000000000000E-002   -1.629387748591086E-007
 -3.530000000000000E-002   -2.323083535469088E-007
 -3.520000000000000E-002   -2.961990430934671E-007
 -3.510000000000000E-002   -3.532077072550964E-007
 -3.500000000000000E-002   -4.021641009790708E-007
 -3.490000000000000E-002   -4.420803340796826E-007
 -3.480000000000000E-002   -4.720912231725977E-007
 -3.470000000000000E-002   -4.913963646938604E-007
 -3.460000000000000E-002   -4.992159494432772E-007
 -3.450000000000000E-002   -4.947676927103463E-007
 -3.440000000000000E-002   -4.772713156644117E-007
 -3.430000000000000E-002   -4.459800594021851E-007
 -3.420000000000000E-002   -4.002365651412324E-007
 -3.410000000000000E-002   -3.395444686439424E-007
 -3.400000000000000E-002   -2.636462435700413E-007
 -3.390000000000000E-002   -1.725932893193396E-007
 -3.380000000000000E-002   -6.679928604169973E-008
 -3.370000000000000E-002    5.293766547743678E-008
 -3.360000000000000E-002    1.854480265571723E-007
 -3.350000000000000E-002    3.292437824411319E-007
 -3.340000000000000E-002    4.826098448632068E-007
 -3.330000000000000E-002    6.437287069160049E-007
 -3.320000000000000E-002    8.108268553733443E-007
 -3.310000000000000E-002    9.823326296387024E-007
 -3.300000000000000E-002    1.157030046022003E-006
 -3.290000000000000E-002    1.334196650540352E-006
 -3.280000000000000E-002    1.513712813016165E-006
 -3.270000000000000E-002    1.696132629529263E-006
 -3.260000000000000E-002    1.882714977075197E-006
 -3.250000000000000E-002    2.075410605268392E-006
 -3.240000000000000E-002    2.276809220230240E-006
 -3.230000000000000E-002    2.490052585050215E-006
 -3.220000000000000E-002    2.718725854715318E-006
 -3.210000000000000E-002    2.966728147565656E-006
 -3.200000000000000E-002    3.238143620660352E-006
 -3.190000000000000E-002    3.537112152436406E-006
 -3.180000000000000E-002    3.867713572359958E-006
 -3.170000000000000E-002    4.233866759707663E-006
 -3.160000000000000E-002    4.639244676708204E-006
 -3.150000000000000E-002    5.087220297613256E-006
 -3.140000000000000E-002    5.580820862369817E-006
 -3.130000000000000E-002    6.122716846280992E-006
 -3.120000000000000E-002    6.715225376068575E-006
 -3.110000000000000E-002    7.360345037723150E-006
 -3.100000000000000E-002    8.059806747548740E-006
 -3.090000000000000E-002    8.815160928863737E-006
 -3.080000000000000E-002    9.627879526604006E-006
 -3.070000000000000E-002    1.049949586787521E-005
 -3.060000000000000E-002    1.143175845275481E-005
 -3.050000000000000E-002    1.242680295407798E-005
 -3.040000000000000E-002    1.348733339521279E-005
 -3.030000000000000E-002    1.461680074870607E-005
 -3.020000000000000E-002    1.581953865260751E-005
 -3.010000000000000E-002    1.710089348193937E-005
 -3.000000000000000E-002    1.846727145517968E-005
 -2.990000000000000E-002    1.992614156719709E-005
 -2.980000000000000E-002    2.148595288026644E-005
 -2.970000000000000E-002    2.315597984704999E-005
 -2.960000000000000E-002    2.494610186675705E-005
 -2.950000000000000E-002    2.686653512466889E-005
 -2.940000000000000E-002    2.892752859325997E-005
 -2.930000000000000E-002    3.113907249883276E-005
 -2.920000000000000E-002    3.351062230224094E-005
 -2.910000000000000E-002    3.605090472128558E-005
 -2.900000000000000E-002    3.876782038031255E-005
 -2.890000000000000E-002    4.166843322472000E-005
 -2.880000000000000E-002    4.475911675727169E-005
 -2.870000000000000E-002    4.804580451964601E-005
 -2.860000000000000E-002    5.153436498197765E-005
 -2.850000000000000E-002    5.523100277124021E-005
 -2.840000000000000E-002    5.914277186815278E-005
 -2.830000000000000E-002    6.327805196092962E-005
 -2.820000000000000E-002    6.764690796212752E-005
 -2.810000000000000E-002    7.226145526771069E-005
 -2.800000000000000E-002    7.713601503026309E-005
 -2.790000000000000E-002    8.228715124539428E-005
 -2.780000000000000E-002    8.773349754070905E-005
 -2.770000000000000E-002    9.349546646003494E-005
 -2.760000000000000E-002    9.959487753923207E-005
 -2.750000000000000E-002    1.060543776441398E-004
 -2.740000000000000E-002    1.128969924086679E-004
 -2.730000000000000E-002    1.201455928471726E-004
 -2.720000000000000E-002    1.278225356470317E-004
 -2.710000000000000E-002    1.359493806822959E-004
 -2.700000000000000E-002    1.445468654888881E-004
 -2.690000000000000E-002    1.536350249956579E-004
 -2.680000000000000E-002    1.632335358765279E-004
 -2.670000000000000E-002    1.733622479993113E-004
 -2.660000000000000E-002    1.840417488254535E-004
 -2.650000000000000E-002    1.952941735046926E-004
 -2.640000000000000E-002    2.071438277096213E-004
 -2.630000000000000E-002    2.196178510430844E-004
 -2.620000000000000E-002    2.327467648855300E-004
 -2.610000000000000E-002    2.465647409193663E-004
 -2.600000000000000E-002    2.611097652641611E-004
 -2.590000000000000E-002    2.764235573653172E-004
 -2.580000000000000E-002    2.925512046655500E-004
 -2.570000000000000E-002    3.095407230830292E-004
 -2.560000000000000E-002    3.274425723470850E-004
 -2.550000000000000E-002    3.463088349108540E-004
 -2.540000000000000E-002    3.661929210470605E-004
 -2.530000000000000E-002    3.871488590054771E-004
 -2.520000000000000E-002    4.092311435351165E-004
 -2.510000000000000E-002    4.324944147371928E-004
 -2.500000000000000E-002    4.569937113172634E-004
 -2.490000000000000E-002    4.827848850430946E-004
 -2.480000000000000E-002    5.099248429910476E-004
 -2.470000000000000E-002    5.384723979342019E-004
 -2.460000000000000E-002    5.684888440379086E-004
 -2.450000000000000E-002    6.000388427504258E-004
 -2.440000000000000E-002    6.331909114533479E-004
 -2.430000000000000E-002    6.680178383483964E-004
 -2.420000000000000E-002    7.045974968484979E-004
 -2.410000000000000E-002    7.430128065074184E-004
 -2.400000000000000E-002    7.833515418191858E-004
 -2.390000000000000E-002    8.257063496039957E-004
 -2.380000000000000E-002    8.701745041029115E-004
 -2.370000000000000E-002    9.168575971421885E-004
 -2.360000000000000E-002    9.658611473835442E-004
 -2.350000000000000E-002    1.017293937265194E-003
 -2.340000000000000E-002    1.071268434988978E-003
 -2.330000000000000E-002    1.127899996744003E-003
 -2.320000000000000E-002    1.187307802316312E-003
 -2.310000000000000E-002    1.249614277604757E-003
 -2.300000000000000E-002    1.314945818578117E-003
 -2.290000000000000E-002    1.383433206395738E-003
 -2.280000000000000E-002    1.455212411110273E-003
 -2.270000000000000E-002    1.530424656901846E-003
 -2.260000000000000E-002    1.609217512227436E-003
 -2.250000000000000E-002    1.691744719524311E-003
 -2.240000000000000E-002    1.778167463981827E-003
 -2.230000000000000E-002    1.868653524480278E-003
 -2.220000000000000E-002    1.963377966290153E-003
 -2.210000000000000E-002    2.062523405809439E-003
 -2.200000000000000E-002    2.166279265562826E-003
 -2.190000000000000E-002    2.274842457032472E-003
 -2.180000000000000E-002    2.388415961589374E-003
 -2.170000000000000E-002    2.507210332306438E-003
 -2.160000000000000E-002    2.631442748189476E-003
 -2.150000000000000E-002    2.761336872429224E-003
 -2.140000000000000E-002    2.897124203285945E-003
 -2.130000000000000E-002    3.039042701207579E-003
 -2.120000000000000E-002    3.187337740131763E-003
 -2.110000000000000E-002    3.342263092388597E-003
 -2.100000000000000E-002    3.504080031846559E-003
 -2.090000000000000E-002    3.673058971246211E-003
 -2.080000000000000E-002    3.849478362035320E-003
 -2.070000000000000E-002    4.033626356688180E-003
 -2.060000000000000E-002    4.225800251495698E-003
 -2.050000000000000E-002    4.426306398123121E-003
 -2.040000000000000E-002    4.635461837509723E-003
 -2.030000000000000E-002    4.853593679318636E-003
 -2.020000000000000E-002    5.081038527667278E-003
 -2.010000000000000E-002    5.318143604470052E-003
 -2.000000000000000E-002    5.565267463659714E-003
 -1.990000000000000E-002    5.822779002362403E-003
 -1.980000000000000E-002    6.091059734748978E-003
 -1.970000000000000E-002    6.370502676843228E-003
 -1.960000000000000E-002    6.661513478306491E-003
 -1.950000000000000E-002    6.964509349073507E-003
 -1.940000000000000E-002    7.279921987501002E-003
 -1.930000000000000E-002    7.608193792725548E-003
 -1.920000000000000E-002    7.949780299543834E-003
 -1.910000000000000E-002    8.305151251739109E-003
 -1.900000000000000E-002    8.674786237122964E-003
 -1.890000000000000E-002    9.059178796168991E-003
 -1.880000000000000E-002    9.458834800679931E-003
 -1.870000000000000E-002    9.874269943954612E-003
 -1.860000000000000E-002    1.030601360773393E-002
 -1.850000000000000E-002    1.075460605846149E-002
 -1.840000000000000E-002    1.122060008361090E-002
 -1.830000000000000E-002    1.170456095323379E-002
 -1.820000000000000E-002    1.220706633539317E-002
 -1.810000000000000E-002    1.272871059246575E-002
 -1.800000000000000E-002    1.327010066199712E-002
 -1.790000000000000E-002    1.383185952302559E-002
 -1.780000000000000E-002    1.441462414656807E-002
 -1.770000000000000E-002    1.501904940918149E-002
 -1.760000000000000E-002    1.564580682139117E-002
 -1.750000000000000E-002    1.629558094645698E-002
 -1.740000000000000E-002    1.696907663837300E-002
 -1.730000000000000E-002    1.766701042097889E-002
 -1.720000000000000E-002    1.839011796723140E-002
 -1.710000000000000E-002    1.913914209204604E-002
 -1.700000000000000E-002    1.991484199718640E-002
 -1.690000000000000E-002    2.071799223794441E-002
 -1.680000000000000E-002    2.154937751117627E-002
 -1.670000000000000E-002    2.240979287169878E-002
 -1.660000000000000E-002    2.330004591553066E-002
 -1.650000000000000E-002    2.422095690403875E-002
 -1.640000000000000E-002    2.517335985733752E-002
 -1.630000000000000E-002    2.615810411932572E-002
 -1.620000000000000E-002    2.717604881281326E-002
 -1.610000000000000E-002    2.822807311369031E-002
 -1.600000000000000E-002    2.931506387510066E-002
 -1.590000000000000E-002    3.043792588826354E-002
 -1.580000000000000E-002    3.159758453448745E-002
 -1.570000000000000E-002    3.279496866244107E-002
 -1.560000000000000E-002    3.403102900043364E-002
 -1.550000000000000E-002    3.530672174603983E-002
 -1.540000000000000E-002    3.662301757635840E-002
 -1.530000000000000E-002    3.798089455243132E-002
 -1.520000000000000E-002    3.938133735473542E-002
 -1.510000000000000E-002    4.082533799441389E-002
 -1.500000000000000E-002    4.231389921323989E-002
 -1.490000000000000E-002    4.384802465961931E-002
 -1.480000000000000E-002    4.542872226301400E-002
 -1.470000000000000E-002    4.705700150465304E-002
 -1.460000000000000E-002    4.873389037590056E-002
 -1.450000000000000E-002    5.046040340844232E-002
 -1.440000000000000E-002    5.223757419687005E-002
 -1.430000000000000E-002    5.406642831630500E-002
 -1.420000000000000E-002    5.594801423039679E-002
 -1.410000000000000E-002    5.788336788630125E-002
 -1.400000000000000E-002    5.987353349945383E-002
 -1.390000000000000E-002    6.191956486160001E-002
 -1.380000000000000E-002    6.402250093554129E-002
 -1.370000000000000E-002    6.618338375926540E-002
 -1.360000000000000E-002    6.840326097670639E-002
 -1.350000000000000E-002    7.068316316272581E-002
 -1.340000000000000E-002    7.302412180185178E-002
 -1.330000000000000E-002    7.542714283310820E-002
 -1.320000000000000E-002    7.789323682155944E-002
 -1.310000000000000E-002    8.042339621155152E-002
 -1.300000000000000E-002    8.301860517861354E-002
 -1.290000000000000E-002    8.567982869343083E-002
 -1.280000000000000E-002    8.840801428962194E-002
 -1.270000000000000E-002    9.120411157441614E-002
 -1.260000000000000E-002    9.406902958286223E-002
 -1.250000000000000E-002    9.700367521652117E-002
 -1.240000000000000E-002    0.100008937786158     
 -1.230000000000000E-002    0.103085677951001     
 -1.220000000000000E-002    0.106234740752731     
 -1.210000000000000E-002    0.109456935824858     
 -1.200000000000000E-002    0.112753041195189     
 -1.190000000000000E-002    0.116123834649422     
 -1.180000000000000E-002    0.119570024541915     
 -1.170000000000000E-002    0.123092303068160     
 -1.160000000000000E-002    0.126691315293672     
 -1.150000000000000E-002    0.130367671937404     
 -1.140000000000000E-002    0.134121943801248     
 -1.130000000000000E-002    0.137954662132278     
 -1.120000000000000E-002    0.141866302041653     
 -1.110000000000000E-002    0.145857285434217     
 -1.100000000000000E-002    0.149928007036879     
 -1.090000000000000E-002    0.154078791603233     
 -1.080000000000000E-002    0.158309941416315     
 -1.070000000000000E-002    0.162621666612481     
 -1.060000000000000E-002    0.167014170266603     
 -1.050000000000000E-002    0.171487544064100     
 -1.040000000000000E-002    0.176041841082046     
 -1.030000000000000E-002    0.180677058845289     
 -1.020000000000000E-002    0.185393128827482     
 -1.010000000000000E-002    0.190189875280960     
 -1.000000000000000E-002    0.195067110692723     
 -9.899999999999999E-003    0.200024502108971     
 -9.800000000000000E-003    0.205061684933453     
 -9.699999999999999E-003    0.210178201663094     
 -9.599999999999999E-003    0.215373508462380     
 -9.500000000000000E-003    0.220646965628312     
 -9.399999999999999E-003    0.225997857255923     
 -9.299999999999999E-003    0.231425401104482     
 -9.200000000000000E-003    0.236928684953917     
 -9.099999999999999E-003    0.242506751322426     
 -8.999999999999999E-003    0.248158487400419     
 -8.900000000000000E-003    0.253882745640387     
 -8.799999999999999E-003    0.259678226636093     
 -8.699999999999999E-003    0.265543590752750     
 -8.600000000000000E-003    0.271477327323595     
 -8.499999999999999E-003    0.277477853834671     
 -8.399999999999999E-003    0.283543457416709     
 -8.300000000000000E-003    0.289672356376279     
 -8.199999999999999E-003    0.295862593704882     
 -8.100000000000000E-003    0.302112147524278     
 -8.000000000000000E-003    0.308418828421612     
 -7.899999999999999E-003    0.314780385404695     
 -7.800000000000000E-003    0.321194385464755     
 -7.699999999999999E-003    0.327658332337108     
 -7.599999999999999E-003    0.334169537296454     
 -7.499999999999999E-003    0.340725255544819     
 -7.399999999999999E-003    0.347322573375676     
 -7.299999999999999E-003    0.353958513677672     
 -7.199999999999999E-003    0.360629870052167     
 -7.100000000000000E-003    0.367333415077639     
 -6.999999999999999E-003    0.374065720717538     
 -6.899999999999999E-003    0.380823263738074     
 -6.800000000000000E-003    0.387602374809105     
 -6.699999999999999E-003    0.394399272094958     
 -6.599999999999999E-003    0.401210011716011     
 -6.499999999999999E-003    0.408030533764762     
 -6.399999999999999E-003    0.414856617552546     
 -6.299999999999999E-003    0.421683956818774     
 -6.199999999999999E-003    0.428508063671578     
 -6.100000000000000E-003    0.435324331339625     
 -5.999999999999999E-003    0.442128028198920     
 -5.899999999999999E-003    0.448914299724084     
 -5.800000000000000E-003    0.455678146039482     
 -5.699999999999999E-003    0.462414467651517     
 -5.599999999999999E-003    0.469118017292132     
 -5.499999999999999E-003    0.475783364779118     
 -5.399999999999999E-003    0.482405049512415     
 -5.299999999999999E-003    0.488977454827395     
 -5.199999999999999E-003    0.495494858798115     
 -5.099999999999999E-003    0.501951377479217     
 -4.999999999999999E-003    0.508341060089198     
 -4.899999999999999E-003    0.514657804675879     
 -4.799999999999999E-003    0.520895427522585     
 -4.699999999999999E-003    0.527047625012598     
 -4.599999999999999E-003    0.533107963082034     
 -4.499999999999999E-003    0.539069953007472     
 -4.399999999999999E-003    0.544926975990520     
 -4.299999999999999E-003    0.550672321110661     
 -4.199999999999999E-003    0.556299192700832     
 -4.099999999999999E-003    0.561800718817226     
 -3.999999999999999E-003    0.567169916364971     
 -3.899999999999999E-003    0.572399760026238     
 -3.799999999999999E-003    0.577483185995427     
 -3.699999999999999E-003    0.582412931491306     
 -3.599999999999999E-003    0.587181825627301     
 -3.499999999999999E-003    0.591782537085828     
 -3.399999999999999E-003    0.596207719781452     
 -3.299999999999999E-003    0.600450003754862     
 -3.199999999999999E-003    0.604501901928777     
 -3.099999999999999E-003    0.608356007405586     
 -2.999999999999999E-003    0.612004813197721     
 -2.899999999999999E-003    0.615440831618091     
 -2.799999999999999E-003    0.618656535460978     
 -2.699999999999999E-003    0.621644395677053     
 -2.599999999999999E-003    0.624396916494485     
 -2.499999999999999E-003    0.626906611396374     
 -2.399999999999999E-003    0.629165995549610     
 -2.299999999999999E-003    0.631167542170738     
 -2.199999999999999E-003    0.632903866148126     
 -2.099999999999999E-003    0.634367579664793     
 -1.999999999999999E-003    0.635551348165285     
 -1.899999999999999E-003    0.636447849554622     
 -1.799999999999999E-003    0.637049907002102     
 -1.699999999999999E-003    0.637350351214090     
 -1.599999999999999E-003    0.637342107588281     
 -1.499999999999999E-003    0.637018227703430     
 -1.399999999999999E-003    0.636371810110889     
 -1.299999999999999E-003    0.635396081693807     
 -1.199999999999999E-003    0.634084415666378     
 -1.099999999999999E-003    0.632430284427476     
 -9.999999999999989E-004    0.630427313655047     
 -8.999999999999990E-004    0.628069252659494     
 -7.999999999999990E-004    0.625350019709035     
 -6.999999999999989E-004    0.622263684567176     
 -5.999999999999990E-004    0.618804536463997     
 -4.999999999999989E-004    0.614967007001646     
 -3.999999999999989E-004    0.610745677804483     
 -2.999999999999989E-004    0.606135437262610     
 -1.999999999999989E-004    0.601131350954715     
 -9.999999999999892E-005    0.595728638629490     
  1.084202172485504E-018    0.589922800305412     
  1.000000000000011E-004    0.583709584043828     
  2.000000000000011E-004    0.577084965596014     
  3.000000000000011E-004    0.570045134046409     
  4.000000000000011E-004    0.562586577130691     
  5.000000000000011E-004    0.554706101822955     
  6.000000000000011E-004    0.546400695728482     
  7.000000000000011E-004    0.537667678803776     
  8.000000000000011E-004    0.528504685422773     
  9.000000000000012E-004    0.518909647500327     
  1.000000000000001E-003    0.508880804470809     
  1.100000000000001E-003    0.498416722820635     
  1.200000000000001E-003    0.487516273628854     
  1.300000000000001E-003    0.476178686405140     
  1.400000000000001E-003    0.464403552634555     
  1.500000000000001E-003    0.452190755186816     
  1.600000000000001E-003    0.439540578963557     
  1.700000000000001E-003    0.426453624184323     
  1.800000000000001E-003    0.412930866062509     
  1.900000000000001E-003    0.398973719615835     
  2.000000000000001E-003    0.384583872880765     
  2.100000000000001E-003    0.369763396097607     
  2.200000000000001E-003    0.354514802056842     
  2.300000000000001E-003    0.338840961259103     
  2.400000000000001E-003    0.322745115617731     
  2.500000000000001E-003    0.306230927510866     
  2.600000000000001E-003    0.289302422582553     
  2.700000000000001E-003    0.271964069796505     
  2.800000000000001E-003    0.254220723399966     
  2.900000000000001E-003    0.236077627341380     
  3.000000000000001E-003    0.217540443424692     
  3.100000000000001E-003    0.198615248874393     
  3.200000000000001E-003    0.179308517077488     
  3.300000000000001E-003    0.159627117979104     
  3.400000000000001E-003    0.139578340226563     
  3.500000000000001E-003    0.119169884931344     
  3.600000000000001E-003    9.840980715120161E-002
  3.700000000000001E-003    7.730662109264377E-002
  3.800000000000001E-003    5.586917475293310E-002
  3.900000000000001E-003    3.410675549123553E-002
  4.000000000000001E-003    1.202901324172972E-002
  4.100000000000001E-003   -1.035400209863285E-002
  4.200000000000001E-003   -3.303191430406855E-002
  4.300000000000001E-003   -5.599391402448742E-002
  4.400000000000001E-003   -7.922884851210375E-002
  4.500000000000001E-003   -0.102725173185273     
  4.600000000000002E-003   -0.126471024410780     
  4.700000000000001E-003   -0.150454188616120     
  4.800000000000001E-003   -0.174662068370814     
  4.900000000000002E-003   -0.199081719344103     
  5.000000000000001E-003   -0.223699921766689     
  5.100000000000001E-003   -0.248503116982252     
  5.200000000000001E-003   -0.273477464547741     
  5.300000000000002E-003   -0.298608771645402     
  5.400000000000001E-003   -0.323882566757324     
  5.500000000000001E-003   -0.349284107945609     
  5.600000000000002E-003   -0.374798373767451     
  5.700000000000001E-003   -0.400410143275845     
  5.800000000000001E-003   -0.426103932049117     
  5.900000000000002E-003   -0.451864012735194     
  6.000000000000001E-003   -0.477674435977374     
  6.100000000000001E-003   -0.503519100534905     
  6.200000000000002E-003   -0.529381601245077     
  6.300000000000002E-003   -0.555245438314809     
  6.400000000000001E-003   -0.581093944979155     
  6.500000000000001E-003   -0.606910267813626     
  6.600000000000002E-003   -0.632677512026815     
  6.700000000000001E-003   -0.658378530727184     
  6.800000000000001E-003   -0.683996124071299     
  6.900000000000002E-003   -0.709513058850697     
  7.000000000000001E-003   -0.734911900866189     
  7.100000000000001E-003   -0.760175276407062     
  7.200000000000002E-003   -0.785285761580658     
  7.300000000000002E-003   -0.810225866328708     
  7.400000000000001E-003   -0.834978108403119     
  7.500000000000001E-003   -0.859525033985000     
  7.600000000000002E-003   -0.883849260367566     
  7.700000000000001E-003   -0.907933244896810     
  7.800000000000001E-003   -0.931759771569801     
  7.900000000000001E-003   -0.955311551819234     
  8.000000000000002E-003   -0.978571399183028     
  8.100000000000001E-003    -1.00152219102393     
  8.200000000000001E-003    -1.02414712642781     
  8.300000000000002E-003    -1.04642938473257     
  8.400000000000001E-003    -1.06835240485396     
  8.500000000000002E-003    -1.08989961449912     
  8.600000000000002E-003    -1.11105491714509     
  8.700000000000001E-003    -1.13180221428810     
  8.800000000000002E-003    -1.15212567135226     
  8.900000000000002E-003    -1.17200983647924     
  9.000000000000001E-003    -1.19143936576686     
  9.100000000000002E-003    -1.21039926893806     
  9.200000000000002E-003    -1.22887491154755     
  9.300000000000001E-003    -1.24685182767502     
  9.400000000000002E-003    -1.26431587560275     
  9.500000000000001E-003    -1.28125337350193     
  9.600000000000001E-003    -1.29765096039506     
  9.700000000000002E-003    -1.31349562280397     
  9.800000000000001E-003    -1.32877470790784     
  9.900000000000001E-003    -1.34347602665792     
  1.000000000000000E-002    -1.35758774476150     
  1.010000000000000E-002    -1.37109842296336     
  1.020000000000000E-002    -1.38399720229085     
  1.030000000000000E-002    -1.39627352959476     
  1.040000000000000E-002    -1.40791734321656     
  1.050000000000000E-002    -1.41891902268112     
  1.060000000000000E-002    -1.42926957589872     
  1.070000000000000E-002    -1.43896033655463     
  1.080000000000000E-002    -1.44798317487654     
  1.090000000000000E-002    -1.45633053288199     
  1.100000000000000E-002    -1.46399541663257     
  1.110000000000000E-002    -1.47097118370203     
  1.120000000000000E-002    -1.47725184845712     
  1.130000000000000E-002    -1.48283194169530     
  1.140000000000000E-002    -1.48770654329218     
  1.150000000000000E-002    -1.49187131779134     
  1.160000000000000E-002    -1.49532241612682     
  1.170000000000000E-002    -1.49805663208207     
  1.180000000000000E-002    -1.50007120045096     
  1.190000000000000E-002    -1.50136404199181     
  1.200000000000000E-002    -1.50193364930375     
  1.210000000000000E-002    -1.50177901053221     
  1.220000000000000E-002    -1.50089980635334     
  1.230000000000000E-002    -1.49929610052427     
  1.240000000000000E-002    -1.49696861027977     
  1.250000000000000E-002    -1.49391875186454     
  1.260000000000000E-002    -1.49014836383101     
  1.270000000000000E-002    -1.48565990430298     
  1.280000000000000E-002    -1.48045642749626     
  1.290000000000000E-002    -1.47454154946197     
  1.300000000000000E-002    -1.46791943792181     
  1.310000000000000E-002    -1.46059479606638     
  1.320000000000000E-002    -1.45257278604547     
  1.330000000000000E-002    -1.44385937881371     
  1.340000000000000E-002    -1.43446086858645     
  1.350000000000000E-002    -1.42438405604763     
  1.360000000000000E-002    -1.41363641590409     
  1.370000000000000E-002    -1.40222586773981     
  1.380000000000000E-002    -1.39016078301413     
  1.390000000000000E-002    -1.37745013358060     
  1.400000000000000E-002    -1.36410332231328     
  1.410000000000000E-002    -1.35013014709517     
  1.420000000000000E-002    -1.33554098779029     
  1.430000000000000E-002    -1.32034668067425     
  1.440000000000000E-002    -1.30455839659195     
  1.450000000000000E-002    -1.28818785828975     
  1.460000000000000E-002    -1.27124719470300     
  1.470000000000000E-002    -1.25374886201731     
  1.480000000000000E-002    -1.23570578519671     
  1.490000000000000E-002    -1.21713123964371     
  1.500000000000000E-002    -1.19803885563821     
  1.510000000000000E-002    -1.17844265121851     
  1.520000000000000E-002    -1.15835695796566     
  1.530000000000000E-002    -1.13779642201927     
  1.540000000000000E-002    -1.11677592886521     
  1.550000000000000E-002    -1.09531078674910     
  1.560000000000000E-002    -1.07341651408653     
  1.570000000000000E-002    -1.05110884654468     
  1.580000000000000E-002    -1.02840381430971     
  1.590000000000000E-002    -1.00531762264235     
  1.600000000000000E-002   -0.981866717206929     
  1.610000000000000E-002   -0.958067775370841     
  1.620000000000000E-002   -0.933937504989180     
  1.630000000000000E-002   -0.909492833457890     
  1.640000000000000E-002   -0.884750914673519     
  1.650000000000000E-002   -0.859728929582734     
  1.660000000000000E-002   -0.834444193414143     
  1.670000000000000E-002   -0.808914080887098     
  1.680000000000000E-002   -0.783156091538170     
  1.690000000000000E-002   -0.757187706221278     
  1.700000000000000E-002   -0.731026535595104     
  1.710000000000000E-002   -0.704690102962620     
  1.720000000000000E-002   -0.678195973174596     
  1.730000000000000E-002   -0.651561709794056     
  1.740000000000000E-002   -0.624804854570062     
  1.750000000000000E-002   -0.597942869783968     
  1.760000000000000E-002   -0.570993190056444     
  1.770000000000000E-002   -0.543973163830457     
  1.780000000000000E-002   -0.516900004201787     
  1.790000000000000E-002   -0.489790836607808     
  1.800000000000000E-002   -0.462662672710641     
  1.810000000000000E-002   -0.435532396796944     
  1.820000000000000E-002   -0.408416683249257     
  1.830000000000000E-002   -0.381332054547825     
  1.840000000000000E-002   -0.354294879672722     
  1.850000000000000E-002   -0.327321263221801     
  1.860000000000000E-002   -0.300427155762886     
  1.870000000000000E-002   -0.273628248079989     