 -4.000000000000000E-002    0.000000000000000E+000
 -3.990000000000000E-002    0.000000000000000E+000
 -3.980000000000000E-002    0.000000000000000E+000
 -3.970000000000000E-002    0.000000000000000E+000
 -3.960000000000000E-002    0.000000000000000E+000
 -3.950000000000000E-002    0.000000000000000E+000
 -3.940000000000000E-002    0.000000000000000E+000
 -3.930000000000000E-002    0.000000000000000E+000
 -3.920000000000000E-002    0.000000000000000E+000
 -3.910000000000000E-002    0.000000000000000E+000
 -3.900000000000000E-002    0.000000000000000E+000
 -3.890000000000000E-002    0.000000000000000E+000
 -3.880000000000000E-002    0.000000000000000E+000
 -3.870000000000000E-002    0.000000000000000E+000
 -3.860000000000000E-002    0.000000000000000E+000
 -3.850000000000000E-002    0.000000000000000E+000
 -3.840000000000000E-002    0.000000000000000E+000
 -3.830000000000000E-002    0.000000000000000E+000
 -3.820000000000000E-002    0.000000000000000E+000
 -3.810000000000000E-002    0.000000000000000E+000
 -3.800000000000000E-002    0.000000000000000E+000
 -3.790000000000000E-002    0.000000000000000E+000
 -3.780000000000000E-002    0.000000000000000E+000
 -3.770000000000000E-002    0.000000000000000E+000
 -3.760000000000000E-002    0.000000000000000E+000
 -3.750000000000000E-002    0.000000000000000E+000
 -3.740000000000000E-002    0.000000000000000E+000
 -3.730000000000000E-002    0.000000000000000E+000
 -3.720000000000000E-002    0.000000000000000E+000
 -3.710000000000000E-002    0.000000000000000E+000
 -3.700000000000000E-002    0.000000000000000E+000
 -3.690000000000000E-002    0.000000000000000E+000
 -3.680000000000000E-002    0.000000000000000E+000
 -3.670000000000000E-002    0.000000000000000E+000
 -3.660000000000000E-002    0.000000000000000E+000
 -3.650000000000000E-002    0.000000000000000E+000
 -3.640000000000000E-002    0.000000000000000E+000
 -3.630000000000000E-002    0.000000000000000E+000
 -3.620000000000000E-002    0.000000000000000E+000
 -3.610000000000000E-002    0.000000000000000E+000
 -3.600000000000000E-002    0.000000000000000E+000
 -3.590000000000000E-002    0.000000000000000E+000
 -3.580000000000000E-002    0.000000000000000E+000
 -3.570000000000000E-002    0.000000000000000E+000
 -3.560000000000000E-002    0.000000000000000E+000
 -3.550000000000000E-002    0.000000000000000E+000
 -3.540000000000000E-002    0.000000000000000E+000
 -3.530000000000000E-002    0.000000000000000E+000
 -3.520000000000000E-002    0.000000000000000E+000
 -3.510000000000000E-002    0.000000000000000E+000
 -3.500000000000000E-002    0.000000000000000E+000
 -3.490000000000000E-002    0.000000000000000E+000
 -3.480000000000000E-002    0.000000000000000E+000
 -3.470000000000000E-002    0.000000000000000E+000
 -3.460000000000000E-002    0.000000000000000E+000
 -3.450000000000000E-002    0.000000000000000E+000
 -3.440000000000000E-002    0.000000000000000E+000
 -3.430000000000000E-002    0.000000000000000E+000
 -3.420000000000000E-002    0.000000000000000E+000
 -3.410000000000000E-002    0.000000000000000E+000
 -3.400000000000000E-002    0.000000000000000E+000
 -3.390000000000000E-002    0.000000000000000E+000
 -3.380000000000000E-002    0.000000000000000E+000
 -3.370000000000000E-002    0.000000000000000E+000
 -3.360000000000000E-002    0.000000000000000E+000
 -3.350000000000000E-002    0.000000000000000E+000
 -3.340000000000000E-002    0.000000000000000E+000
 -3.330000000000000E-002    0.000000000000000E+000
 -3.320000000000000E-002    0.000000000000000E+000
 -3.310000000000000E-002    0.000000000000000E+000
 -3.300000000000000E-002    0.000000000000000E+000
 -3.290000000000000E-002   -6.964367633437055E-048
 -3.280000000000000E-002   -1.205886203125792E-047
 -3.270000000000000E-002   -1.473111198779430E-047
 -3.260000000000000E-002   -9.311853214978968E-048
 -3.250000000000000E-002    1.047724395102048E-047
 -3.240000000000000E-002    5.969205587299282E-047
 -3.230000000000000E-002    1.375053129454448E-046
 -3.220000000000000E-002    2.545564594015459E-046
 -3.210000000000000E-002    4.865452927389720E-046
 -3.200000000000000E-002    8.296613562667123E-046
 -3.190000000000000E-002    1.282013449599569E-045
 -3.180000000000000E-002    1.903078492657321E-045
 -3.170000000000000E-002    3.721394293220843E-045
 -3.160000000000000E-002    4.473792250825290E-045
 -3.150000000000000E-002    6.457088147681730E-045
 -3.140000000000000E-002    8.577329145075717E-045
 -3.130000000000000E-002    9.327873469709930E-045
 -3.120000000000000E-002    9.122000572114250E-045
 -3.110000000000000E-002    4.417865168102824E-045
 -3.100000000000000E-002   -9.171511213347411E-045
 -3.090000000000000E-002   -3.624579926100599E-044
 -3.080000000000000E-002   -8.330220363270828E-044
 -3.070000000000000E-002   -1.593140816330049E-043
 -3.060000000000000E-002   -2.742052077301180E-043
 -3.050000000000000E-002   -4.338347350937001E-043
 -3.040000000000000E-002   -6.394464678965114E-043
 -3.030000000000000E-002   -8.768794185801326E-043
 -3.020000000000000E-002   -1.109201519490204E-042
 -3.010000000000000E-002   -1.260764595404123E-042
 -3.000000000000000E-002   -1.200962327154412E-042
 -2.990000000000000E-002   -7.247518406790513E-043
 -2.980000000000000E-002    4.585953721704808E-043
 -2.970000000000000E-002    2.736474343443755E-042
 -2.960000000000000E-002    6.572569143337873E-042
 -2.950000000000000E-002    1.245652832850944E-041
 -2.940000000000000E-002    2.080047008983360E-041
 -2.930000000000000E-002    3.175458414802956E-041
 -2.920000000000000E-002    4.493006216174021E-041
 -2.910000000000000E-002    5.901296232945507E-041
 -2.900000000000000E-002    7.127231810908328E-041
 -2.890000000000000E-002    7.698963063225276E-041
 -2.880000000000000E-002    6.890145752881900E-041
 -2.870000000000000E-002    3.677383846890658E-041
 -2.860000000000000E-002   -3.265243696333691E-041
 -2.850000000000000E-002   -1.550653233151090E-040
 -2.840000000000000E-002   -3.469217298689749E-040
 -2.830000000000000E-002   -6.222953664382182E-040
 -2.820000000000000E-002   -9.877837485800419E-040
 -2.810000000000000E-002   -1.435125731205304E-039
 -2.800000000000000E-002   -1.931439705586361E-039
 -2.790000000000000E-002   -2.407436780071362E-039
 -2.780000000000000E-002   -2.744665956996619E-039
 -2.770000000000000E-002   -2.763809456538203E-039
 -2.760000000000000E-002   -2.217244545705781E-039
 -2.750000000000000E-002   -7.904329144197383E-040
 -2.740000000000000E-002    1.881944977289341E-039
 -2.730000000000000E-002    6.178223733350597E-039
 -2.720000000000000E-002    1.242314977833063E-038
 -2.710000000000000E-002    2.078618882817320E-038
 -2.700000000000000E-002    3.114133344849925E-038
 -2.690000000000000E-002    4.289017135066218E-038
 -2.680000000000000E-002    5.475829995964991E-038
 -2.670000000000000E-002    6.458646808000821E-038
 -2.660000000000000E-002    6.915245046627164E-038
 -2.650000000000000E-002    6.407607750191720E-038
 -2.640000000000000E-002    4.387705699833301E-038
 -2.630000000000000E-002    2.269524651281950E-039
 -2.620000000000000E-002   -6.721451999298511E-038
 -2.610000000000000E-002   -1.701847523722950E-037
 -2.600000000000000E-002   -3.098682802984104E-037
 -2.590000000000000E-002   -4.850814040054132E-037
 -2.580000000000000E-002   -6.877529479081533E-037
 -2.570000000000000E-002   -9.001660468061673E-037
 -2.560000000000000E-002   -1.092231011515191E-036
 -2.550000000000000E-002   -1.219275348278919E-036
 -2.540000000000000E-002   -1.221030062372501E-036
 -2.530000000000000E-002   -1.022673148202851E-036
 -2.520000000000000E-002   -5.389282160424079E-037
 -2.510000000000000E-002    3.177324597013417E-037
 -2.500000000000000E-002    1.623847294572961E-036
 -2.490000000000000E-002    3.426080040472594E-036
 -2.480000000000000E-002    5.716710266398062E-036
 -2.470000000000000E-002    8.404494091904549E-036
 -2.460000000000000E-002    1.128324328342212E-035
 -2.450000000000000E-002    1.400217297845383E-035
 -2.440000000000000E-002    1.604401870669614E-035
 -2.430000000000000E-002    1.671891698296165E-035
 -2.420000000000000E-002    1.518371621096148E-035
 -2.410000000000000E-002    1.049725082317453E-035
 -2.400000000000000E-002    1.721640379780800E-036
 -2.390000000000000E-002   -1.192298278692180E-035
 -2.380000000000000E-002   -3.084830315132928E-035
 -2.370000000000000E-002   -5.483892878579593E-035
 -2.360000000000000E-002   -8.276380516332435E-035
 -2.350000000000000E-002   -1.122923830457789E-034
 -2.340000000000000E-002   -1.396674693014791E-034
 -2.330000000000000E-002   -1.596037476070798E-034
 -2.320000000000000E-002   -1.653944046256799E-034
 -2.310000000000000E-002   -1.493135894211607E-034
 -2.300000000000000E-002   -1.033934483088764E-034
 -2.290000000000000E-002   -2.062699153678521E-035
 -2.280000000000000E-002    1.034037313360772E-034
 -2.270000000000000E-002    2.685536371799610E-034
 -2.260000000000000E-002    4.679762684417989E-034
 -2.250000000000000E-002    6.861237364805356E-034
 -2.240000000000000E-002    8.973110291644946E-034
 -2.230000000000000E-002    1.065374008916079E-033
 -2.220000000000000E-002    1.145003726673506E-033
 -2.210000000000000E-002    1.085312168831688E-033
 -2.200000000000000E-002    8.360291443080409E-034
 -2.190000000000000E-002    3.564387485284702E-034
 -2.180000000000000E-002   -3.733033325127248E-034
 -2.170000000000000E-002   -1.339433678493992E-033
 -2.160000000000000E-002   -2.482098905416171E-033
 -2.150000000000000E-002   -3.685517984283903E-033
 -2.140000000000000E-002   -4.773778176247432E-033
 -2.130000000000000E-002   -5.515553542064454E-033
 -2.120000000000000E-002   -5.640864802072133E-033
 -2.110000000000000E-002   -4.872133776397836E-033
 -2.100000000000000E-002   -2.970179993722328E-033
 -2.090000000000000E-002    2.066792538641869E-034
 -2.080000000000000E-002    4.635437702467873E-033
 -2.070000000000000E-002    1.006172790660837E-032
 -2.060000000000000E-002    1.594581505759923E-032
 -2.050000000000000E-002    2.143620287598824E-032
 -2.040000000000000E-002    2.538692448505856E-032
 -2.030000000000000E-002    2.643342807954197E-032
 -2.020000000000000E-002    2.313762131638889E-032
 -2.010000000000000E-002    1.420455446664627E-032
 -2.000000000000000E-002   -1.238055635483103E-033
 -1.990000000000000E-002   -2.332054614270421E-032
 -1.980000000000000E-002   -5.111060271013502E-032
 -1.970000000000000E-002   -8.234392850613134E-032
 -1.960000000000000E-002   -1.132694526669080E-031
 -1.950000000000000E-002   -1.386753653942530E-031
 -1.940000000000000E-002   -1.521559846370153E-031
 -1.930000000000000E-002   -1.466603258082171E-031
 -1.920000000000000E-002   -1.153326860355963E-031
 -1.910000000000000E-002   -5.261266820381582E-032
 -1.900000000000000E-002    4.448759454338307E-032
 -1.890000000000000E-002    1.750608584515787E-031
 -1.880000000000000E-002    3.331138984306962E-031
 -1.870000000000000E-002    5.067127782200693E-031
 -1.860000000000000E-002    6.776737026928932E-031
 -1.850000000000000E-002    8.219835990879790E-031
 -1.840000000000000E-002    9.110790092696032E-031
 -1.830000000000000E-002    9.140286168550994E-031
 -1.820000000000000E-002    8.005592921077602E-031
 -1.810000000000000E-002    5.447650320487479E-031
 -1.800000000000000E-002    1.292314648877266E-031
 -1.790000000000000E-002   -4.507528829783186E-031
 -1.780000000000000E-002   -1.183263489665567E-030
 -1.770000000000000E-002   -2.036439498280106E-030
 -1.760000000000000E-002   -2.956139000038600E-030
 -1.750000000000000E-002   -3.864816377583224E-030
 -1.740000000000000E-002   -4.661865582082587E-030
 -1.730000000000000E-002   -5.225696290509788E-030
 -1.720000000000000E-002   -5.417898171246554E-030
 -1.710000000000000E-002   -5.090010305035385E-030
 -1.700000000000000E-002   -4.093633445015636E-030
 -1.690000000000000E-002   -2.294745971228583E-030
 -1.680000000000000E-002    4.068968896426684E-031
 -1.670000000000000E-002    4.052702845464206E-030
 -1.660000000000000E-002    8.594736846028949E-030
 -1.650000000000000E-002    1.386130495756503E-029
 -1.640000000000000E-002    1.952208598684814E-029
 -1.630000000000000E-002    2.505863088375607E-029
 -1.620000000000000E-002    2.974854523039965E-029
 -1.610000000000000E-002    3.267382602547698E-029
 -1.600000000000000E-002    3.276468780396649E-029
 -1.590000000000000E-002    2.888946598452929E-029
 -1.580000000000000E-002    1.999743025567016E-029
 -1.570000000000000E-002    5.314573071945136E-030
 -1.560000000000000E-002   -1.541778876608066E-029
 -1.550000000000000E-002   -4.168460910703212E-029
 -1.540000000000000E-002   -7.195617683201274E-029
 -1.530000000000000E-002   -1.035151103055301E-028
 -1.520000000000000E-002   -1.324108187103884E-028
 -1.510000000000000E-002   -1.536024320289267E-028
 -1.500000000000000E-002   -1.613415530907654E-028
 -1.490000000000000E-002   -1.498231208652531E-028
 -1.480000000000000E-002   -1.140946860300397E-028
 -1.470000000000000E-002   -5.116411839595371E-029
 -1.460000000000000E-002    3.881263208924090E-029
 -1.450000000000000E-002    1.514407805092098E-028
 -1.440000000000000E-002    2.773168160827137E-028
 -1.430000000000000E-002    4.018263809035500E-028
 -1.420000000000000E-002    5.057435428617540E-028
 -1.410000000000000E-002    5.668036071103205E-028
 -1.400000000000000E-002    5.623099303592797E-028
 -1.390000000000000E-002    4.726735708352774E-028
 -1.380000000000000E-002    2.855898142484853E-028
 -1.370000000000000E-002    3.489323324694419E-031
 -1.360000000000000E-002   -3.684043447005156E-028
 -1.350000000000000E-002   -7.882664333975268E-028
 -1.340000000000000E-002   -1.208844139233357E-027
 -1.330000000000000E-002   -1.564392093192004E-027
 -1.320000000000000E-002   -1.779730463949804E-027
 -1.310000000000000E-002   -1.779422256762342E-027
 -1.300000000000000E-002   -1.499633631269307E-027
 -1.290000000000000E-002   -9.014914369274007E-028
 -1.280000000000000E-002    1.581825814673164E-029
 -1.270000000000000E-002    1.204397954712196E-027
 -1.260000000000000E-002    2.561776454062808E-027
 -1.250000000000000E-002    3.932008465998930E-027
 -1.240000000000000E-002    5.115289890292308E-027
 -1.230000000000000E-002    5.886644873105839E-027
 -1.220000000000000E-002    6.022907622594429E-027
 -1.210000000000000E-002    5.335704372552690E-027
 -1.200000000000000E-002    3.706680044680567E-027
 -1.190000000000000E-002    1.120066172289038E-027
 -1.180000000000000E-002   -2.312878358066795E-027
 -1.170000000000000E-002   -6.342786171038403E-027
 -1.160000000000000E-002   -1.058855905563861E-026
 -1.150000000000000E-002   -1.456323326152408E-026
 -1.140000000000000E-002   -1.771863007082354E-026
 -1.130000000000000E-002   -1.950500182700286E-026
 -1.120000000000000E-002   -1.943899844374718E-026
 -1.110000000000000E-002   -1.717107481216140E-026
 -1.100000000000000E-002   -1.254259706703026E-026
 -1.090000000000000E-002   -5.623646145641231E-027
 -1.080000000000000E-002    3.274981330961197E-027
 -1.070000000000000E-002    1.361797312278926E-026
 -1.060000000000000E-002    2.468734023876612E-026
 -1.050000000000000E-002    3.564227648584018E-026
 -1.040000000000000E-002    4.558555096186939E-026
 -1.030000000000000E-002    5.362326963214968E-026
 -1.020000000000000E-002    5.890640661403855E-026
 -1.010000000000000E-002    6.064729805516556E-026
 -1.000000000000000E-002    5.811240076005557E-026
 -9.899999999999999E-003    5.060257913468352E-026
 -9.800000000000000E-003    3.744161585577898E-026
 -9.699999999999999E-003    1.800046081632054E-026
 -9.599999999999999E-003   -8.214054803679005E-027
 -9.500000000000000E-003   -4.138421281377883E-026
 -9.399999999999999E-003   -8.111423952809652E-026
 -9.299999999999999E-003   -1.260892989668918E-025
 -9.200000000000000E-003   -1.737094544052356E-025
 -9.099999999999999E-003   -2.197780904771400E-025
 -8.999999999999999E-003   -2.583492945731182E-025
 -8.900000000000000E-003   -2.818489133694784E-025
 -8.799999999999999E-003   -2.815744164798781E-025
 -8.699999999999999E-003   -2.486400453881743E-025
 -8.600000000000000E-003   -1.753694789492023E-025
 -8.499999999999999E-003   -5.704736754605935E-026
 -8.399999999999999E-003    1.061616060816218E-025
 -8.300000000000000E-003    3.074198798902489E-025
 -8.199999999999999E-003    5.319221921046501E-025
 -8.100000000000000E-003    7.565035732745072E-025
 -8.000000000000000E-003    9.505227437209615E-025
 -7.899999999999999E-003    1.078279257485508E-024
 -7.800000000000000E-003    1.103028823509914E-024
 -7.699999999999999E-003    9.923950866746257E-025
 -7.599999999999999E-003    7.246707725366600E-025
 -7.499999999999999E-003    2.951985032166640E-025
 -7.399999999999999E-003   -2.782211619630582E-025
 -7.299999999999999E-003   -9.520675042689153E-025
 -7.199999999999999E-003   -1.657106563579532E-024
 -7.100000000000000E-003   -2.302524472814851E-024
 -6.999999999999999E-003   -2.784565413326748E-024
 -6.899999999999999E-003   -2.999380999971549E-024
 -6.800000000000000E-003   -2.859012868937517E-024
 -6.699999999999999E-003   -2.308632334384609E-024
 -6.599999999999999E-003   -1.342500819771160E-024
 -6.499999999999999E-003   -1.572103308744505E-026
 -6.399999999999999E-003    1.551122889426895E-024
 -6.299999999999999E-003    3.176809324583191E-024
 -6.199999999999999E-003    4.635146599475492E-024
 -6.100000000000000E-003    5.681268497470989E-024
 -5.999999999999999E-003    6.086552189828087E-024
 -5.899999999999999E-003    5.678272934361376E-024
 -5.800000000000000E-003    4.378470495667898E-024
 -5.699999999999999E-003    2.235454581220763E-024
 -5.599999999999999E-003   -5.587963453070651E-025
 -5.499999999999999E-003   -3.671144079699954E-024
 -5.399999999999999E-003   -6.653432716428247E-024
 -5.299999999999999E-003   -8.992814599091630E-024
 -5.199999999999999E-003   -1.018294965769671E-023
 -5.099999999999999E-003   -9.808648911736868E-024
 -4.999999999999999E-003   -7.632851105228428E-024
 -4.899999999999999E-003   -3.672233615534858E-024
 -4.799999999999999E-003    1.753026049269146E-024
 -4.699999999999999E-003    8.008477370395890E-024
 -4.599999999999999E-003    1.418293542074941E-023
 -4.499999999999999E-003    1.917766757619108E-023
 -4.399999999999999E-003    2.184302283314475E-023
 -4.299999999999999E-003    2.115003002804661E-023
 -4.199999999999999E-003    1.637689645672652E-023
 -4.099999999999999E-003    7.284561577799584E-024
 -3.999999999999999E-003   -5.747097352995203E-024
 -3.899999999999999E-003   -2.164946992954600E-023
 -3.799999999999999E-003   -3.868304957439718E-023
 -3.699999999999999E-003   -5.455438778827892E-023
 -3.599999999999999E-003   -6.663064470084070E-023
 -3.499999999999999E-003   -7.223618108539516E-023
 -3.399999999999999E-003   -6.900184119773275E-023
 -3.299999999999999E-003   -5.522711718394506E-023
 -3.199999999999999E-003   -3.020930909349849E-023
 -3.099999999999999E-003    5.505406480191194E-024
 -2.999999999999999E-003    4.998767500370816E-023
 -2.899999999999999E-003    9.993261163512906E-023
 -2.799999999999999E-003    1.508179784960559E-022
 -2.699999999999999E-003    1.972028963113541E-022
 -2.599999999999999E-003    2.331400685495463E-022
 -2.499999999999999E-003    2.526628081307433E-022
 -2.399999999999999E-003    2.503027174697593E-022
 -2.299999999999999E-003    2.215966484450148E-022
 -2.199999999999999E-003    1.635520183746716E-022
 -2.099999999999999E-003    7.505343024707641E-023
 -1.999999999999999E-003   -4.279044034131331E-023
 -1.899999999999999E-003   -1.863507916755013E-022
 -1.799999999999999E-003   -3.492221548175911E-022
 -1.699999999999999E-003   -5.220053329689721E-022
 -1.599999999999999E-003   -6.921541208260653E-022
 -1.499999999999999E-003   -8.439453834076509E-022
 -1.399999999999999E-003   -9.586723958857849E-022
 -1.299999999999999E-003   -1.015196492275439E-021
 -1.199999999999999E-003   -9.910100493458263E-022
 -1.099999999999999E-003   -8.639534174137417E-022
 -9.999999999999989E-004   -6.146762807073262E-022
 -8.999999999999990E-004   -2.298385623926490E-022
 -7.999999999999990E-004    2.940936565445479E-022
 -6.999999999999989E-004    9.467735615045504E-022
 -5.999999999999990E-004    1.700119427764029E-021
 -4.999999999999989E-004    2.505343843922551E-021
 -3.999999999999989E-004    3.291642014313804E-021
 -2.999999999999989E-004    3.967331990677465E-021
 -1.999999999999989E-004    4.424145064015348E-021
 -9.999999999999892E-005    4.545117903844423E-021
  1.084202172485504E-018    4.216159230693668E-021
  1.000000000000011E-004    3.340852406303903E-021
  2.000000000000011E-004    1.857475573180853E-021
  3.000000000000011E-004   -2.433833704268969E-022
  4.000000000000011E-004   -2.902757177990320E-021
  5.000000000000011E-004   -5.981274767289893E-021
  6.000000000000011E-004   -9.253787932116288E-021
  7.000000000000011E-004   -1.241302841845640E-020
  8.000000000000011E-004   -1.508408414215711E-020
  9.000000000000012E-004   -1.685052474035741E-020
  1.000000000000001E-003   -1.729174465245690E-020
  1.100000000000001E-003   -1.602960642109427E-020
  1.200000000000001E-003   -1.278093603087992E-020
  1.300000000000001E-003   -7.411016350286852E-021
  1.400000000000001E-003    1.787506281649782E-023
  1.500000000000001E-003    9.209415907217780E-021
  1.600000000000001E-003    1.961410600629426E-020
  1.700000000000001E-003    3.043368445555363E-020
  1.800000000000001E-003    4.065307534638524E-020
  1.900000000000001E-003    4.910157636785335E-020
  2.000000000000001E-003    5.454211779750107E-020
  2.100000000000001E-003    5.578433098460434E-020
  2.200000000000001E-003    5.181391761565922E-020
  2.300000000000001E-003    4.192816104949612E-020
  2.400000000000001E-003    2.586503890424731E-020
  2.500000000000001E-003    3.912349879702108E-021
  2.600000000000001E-003   -2.301695690641322E-020
  2.700000000000001E-003   -5.335581208883848E-020
  2.800000000000001E-003   -8.491056731490540E-020
  2.900000000000001E-003   -1.149515160175376E-019
  3.000000000000001E-003   -1.403682499451919E-019
  3.100000000000001E-003   -1.578863285077134E-019
  3.200000000000001E-003   -1.643361164759015E-019
  3.300000000000001E-003   -1.569588126072053E-019
  3.400000000000001E-003   -1.337294774133589E-019
  3.500000000000001E-003   -9.367239079622760E-020
  3.600000000000001E-003   -3.714066754844753E-020
  3.700000000000001E-003    3.396937120667697E-020
  3.800000000000001E-003    1.160986576691234E-019
  3.900000000000001E-003    2.040277045639159E-019
  4.000000000000001E-003    2.910227819178734E-019
  4.100000000000001E-003    3.691405324169188E-019
  4.200000000000001E-003    4.296953576688517E-019
  4.300000000000001E-003    4.638808924265772E-019
  4.400000000000001E-003    4.635227080765506E-019
  4.500000000000001E-003    4.219225866435865E-019
  4.600000000000002E-003    3.347390434667376E-019
  4.700000000000001E-003    2.008331270070365E-019
  4.800000000000001E-003    2.299759593809126E-020
  4.900000000000002E-003   -1.915213150119271E-019
  5.000000000000001E-003   -4.307985196664028E-019
  5.100000000000001E-003   -6.783831458645733E-019
  5.200000000000001E-003   -9.138934447821705E-019
  5.300000000000002E-003   -1.114087974514974E-018
  5.400000000000001E-003   -1.254410211529223E-018
  5.500000000000001E-003   -1.310957135230801E-018
  5.600000000000002E-003   -1.262771480299601E-018
  5.700000000000001E-003   -1.094305851441400E-018
  5.800000000000001E-003   -7.978600139428652E-019
  5.900000000000002E-003   -3.757573254405430E-019
  6.000000000000001E-003    1.579952556127750E-019
  6.100000000000001E-003    7.768159179888644E-019
  6.200000000000002E-003    1.441651299989423E-018
  6.300000000000002E-003    2.102245266747760E-018
  6.400000000000001E-003    2.699663329507440E-018
  6.500000000000001E-003    3.170058903261920E-018
  6.600000000000002E-003    3.449545705279929E-018
  6.700000000000001E-003    3.479916194751341E-018
  6.800000000000001E-003    3.214819264578229E-018
  6.900000000000002E-003    2.625908436989352E-018
  7.000000000000001E-003    1.708391478078069E-018
  7.100000000000001E-003    4.853846294644726E-019
  7.200000000000002E-003   -9.895127245718385E-019
  7.300000000000002E-003   -2.631932118889024E-018
  7.400000000000001E-003   -4.329118691179607E-018
  7.500000000000001E-003   -5.945175010536039E-018
  7.600000000000002E-003   -7.329135984020333E-018
  7.700000000000001E-003   -8.325591705641242E-018
  7.800000000000001E-003   -8.787305598909786E-018
  7.900000000000001E-003   -8.589034338862613E-018
  8.000000000000002E-003   -7.641534453526890E-018
  8.100000000000001E-003   -5.904597960315714E-018
  8.200000000000001E-003   -3.397863557945051E-018
  8.300000000000002E-003   -2.081969725330607E-019
  8.400000000000001E-003    3.507468745826594E-018
  8.500000000000002E-003    7.524698769780448E-018
  8.600000000000002E-003    1.156007252284483E-017
  8.700000000000001E-003    1.528577485935990E-017
  8.800000000000002E-003    1.834991838345376E-017
  8.900000000000002E-003    2.040174527491340E-017
  9.000000000000001E-003    2.112032529608443E-017
  9.100000000000002E-003    2.024496658688623E-017
  9.200000000000002E-003    1.760507445195610E-017
  9.300000000000001E-003    1.314703329048358E-017
  9.400000000000002E-003    6.955525919451355E-018
  9.500000000000001E-003   -7.331975899206336E-019
  9.600000000000001E-003   -9.528271345542449E-018
  9.700000000000002E-003   -1.889310013148964E-017
  9.800000000000001E-003   -2.816712753224885E-017
  9.900000000000001E-003   -3.660060166550783E-017
  1.000000000000000E-002   -4.340139352927471E-017
  1.010000000000000E-002   -4.779186769211401E-017
  1.020000000000000E-002   -4.907267881087693E-017
  1.030000000000000E-002   -4.668940719320709E-017
  1.040000000000000E-002   -4.029713104680324E-017
  1.050000000000000E-002   -2.981746356101038E-017
  1.060000000000000E-002   -1.548246423716165E-017
  1.070000000000000E-002    2.139942643550167E-018
  1.080000000000000E-002    2.214360884872030E-017
  1.090000000000000E-002    4.330832428440374E-017
  1.100000000000000E-002    6.415217042675393E-017
  1.110000000000000E-002    8.301177169996788E-017
  1.120000000000000E-002    9.814783415032244E-017
  1.130000000000000E-002    1.078709525102774E-016
  1.140000000000000E-002    1.106803847738268E-016
  1.150000000000000E-002    1.054064694371172E-016
  1.160000000000000E-002    9.134589327484297E-017
  1.170000000000000E-002    6.837807355503079E-017
  1.180000000000000E-002    3.705115303625000E-017
  1.190000000000000E-002   -1.373117369946449E-018
  1.200000000000000E-002   -4.492413239773388E-017
  1.210000000000000E-002   -9.098279559664458E-017
  1.220000000000000E-002   -1.363993565513412E-016
  1.230000000000000E-002   -1.776666164869275E-016
  1.240000000000000E-002   -2.111417449096086E-016
  1.250000000000000E-002   -2.333051501621273E-016
  1.260000000000000E-002   -2.410411578291894E-016
  1.270000000000000E-002   -2.319213773672502E-016
  1.280000000000000E-002   -2.044696889022567E-016
  1.290000000000000E-002   -1.583868663063007E-016
  1.300000000000000E-002   -9.471339220773298E-017
  1.310000000000000E-002   -1.591173103361687E-017
  1.320000000000000E-002    7.414691774706640E-017
  1.330000000000000E-002    1.703007020449631E-016
  1.340000000000000E-002    2.663225653663599E-016
  1.350000000000000E-002    3.552480211189181E-016
  1.360000000000000E-002    4.297926789663828E-016
  1.370000000000000E-002    4.828386732726410E-016
  1.380000000000000E-002    5.079624865317882E-016
  1.390000000000000E-002    4.999717833334257E-016
  1.400000000000000E-002    4.554133440948890E-016
  1.410000000000000E-002    3.730145917640405E-016
  1.420000000000000E-002    2.540202256217096E-016
  1.430000000000000E-002    1.023904062404511E-016
  1.440000000000000E-002   -7.516755153821740E-017
  1.450000000000000E-002   -2.693540378181564E-016
  1.460000000000000E-002   -4.686268886188382E-016
  1.470000000000000E-002   -6.597428120351740E-016
  1.480000000000000E-002   -8.284742472771214E-016
  1.490000000000000E-002   -9.604715494269120E-016
  1.500000000000000E-002   -1.042228368320207E-015
  1.510000000000000E-002   -1.062096397478139E-015
  1.520000000000000E-002   -1.011287480200455E-015
  1.530000000000000E-002   -8.847943285728783E-016
  1.540000000000000E-002   -6.821611991373702E-016
  1.550000000000000E-002   -4.080361072250610E-016
  1.560000000000000E-002   -7.244523445022496E-017
  1.570000000000000E-002    3.092587316965599E-016
  1.580000000000000E-002    7.168074935860084E-016
  1.590000000000000E-002    1.125799347859489E-015
  1.600000000000000E-002    1.508842366250378E-015
  1.610000000000000E-002    1.837024891078169E-015
  1.620000000000000E-002    2.081653240009909E-015
  1.630000000000000E-002    2.216174452979572E-015
  1.640000000000000E-002    2.218180998075531E-015
  1.650000000000000E-002    2.071376043435464E-015
  1.660000000000000E-002    1.767368233556826E-015
  1.670000000000000E-002    1.307164061831631E-015
  1.680000000000000E-002    7.022238897524612E-016
  1.690000000000000E-002   -2.503384026825065E-017
  1.700000000000000E-002   -8.413784602481995E-016
  1.710000000000000E-002   -1.703627641722814E-015
  1.720000000000000E-002   -2.560255042143106E-015
  1.730000000000000E-002   -3.353730976813648E-015
  1.740000000000000E-002   -4.023536072137979E-015
  1.750000000000000E-002   -4.509739599746664E-015
  1.760000000000000E-002   -4.756985452727112E-015
  1.770000000000000E-002   -4.718681412444206E-015
  1.780000000000000E-002   -4.361151598871179E-015
  1.790000000000000E-002   -3.667487158127870E-015
  1.800000000000000E-002   -2.640800501903322E-015
  1.810000000000000E-002   -1.306605800400380E-015
  1.820000000000000E-002    2.859480178688576E-016
  1.830000000000000E-002    2.064227085882627E-015
  1.840000000000000E-002    3.933819932466198E-015
  1.850000000000000E-002    5.781906319204222E-015
  1.860000000000000E-002    7.482294792057755E-015
  1.870000000000000E-002    8.902030331274705E-015