 -4.000000000000000E-002    0.000000000000000E+000
 -3.990000000000000E-002    0.000000000000000E+000
 -3.980000000000000E-002    0.000000000000000E+000
 -3.970000000000000E-002    0.000000000000000E+000
 -3.960000000000000E-002    0.000000000000000E+000
 -3.950000000000000E-002    0.000000000000000E+000
 -3.940000000000000E-002    0.000000000000000E+000
 -3.930000000000000E-002   -1.391482663492086E-026
 -3.920000000000000E-002   -1.723305244293526E-025
 -3.910000000000000E-002   -1.082540340683215E-024
 -3.900000000000000E-002   -4.477337187751859E-024
 -3.890000000000000E-002   -1.299190591868800E-023
 -3.880000000000000E-002   -2.402233680924819E-023
 -3.870000000000000E-002   -3.730806981307555E-024
 -3.860000000000000E-002    1.886749777696978E-022
 -3.850000000000000E-002    9.790643090849500E-022
 -3.840000000000000E-002    3.436021112436558E-021
 -3.830000000000000E-002    9.898026381221164E-021
 -3.820000000000000E-002    2.493915998062351E-020
 -3.810000000000000E-002    5.665740711415185E-020
 -3.800000000000000E-002    1.180909381870004E-019
 -3.790000000000000E-002    2.282779476313878E-019
 -3.780000000000000E-002    4.120882418845546E-019
 -3.770000000000000E-002    6.975329382564599E-019
 -3.760000000000000E-002    1.108928645945044E-018
 -3.750000000000000E-002    1.654246873632167E-018
 -3.740000000000000E-002    2.305449477325237E-018
 -3.730000000000000E-002    2.971833592726590E-018
 -3.720000000000000E-002    3.468534113203849E-018
 -3.710000000000000E-002    3.485345892576299E-018
 -3.700000000000000E-002    2.564654778271832E-018
 -3.690000000000000E-002    1.008925273776752E-019
 -3.680000000000000E-002   -4.623401548863535E-018
 -3.670000000000000E-002   -1.234935758263468E-017
 -3.660000000000000E-002   -2.368890981233461E-017
 -3.650000000000000E-002   -3.890258658969490E-017
 -3.640000000000000E-002   -5.761640511875038E-017
 -3.630000000000000E-002   -7.850448016940066E-017
 -3.620000000000000E-002   -9.898563987721215E-017
 -3.610000000000000E-002   -1.150043780343265E-016
 -3.600000000000000E-002   -1.209843768937625E-016
 -3.590000000000000E-002   -1.100509300010828E-016
 -3.580000000000000E-002   -7.461096828937563E-017
 -3.570000000000000E-002   -7.350513712937467E-018
 -3.560000000000000E-002    9.734360358509448E-017
 -3.550000000000000E-002    2.416083435593289E-016
 -3.540000000000000E-002    4.221419544981337E-016
 -3.530000000000000E-002    6.283262918433163E-016
 -3.520000000000000E-002    8.408030231701824E-016
 -3.510000000000000E-002    1.030942667353440E-015
 -3.500000000000000E-002    1.161663274394645E-015
 -3.490000000000000E-002    1.190001483741668E-015
 -3.480000000000000E-002    1.071693137705198E-015
 -3.470000000000000E-002    7.677776311105215E-016
 -3.460000000000000E-002    2.529070177258142E-016
 -3.450000000000000E-002   -4.753614700244757E-016
 -3.440000000000000E-002   -1.387434082165600E-015
 -3.430000000000000E-002   -2.414243668070895E-015
 -3.420000000000000E-002   -3.443316399114034E-015
 -3.410000000000000E-002   -4.320233095172051E-015
 -3.400000000000000E-002   -4.857191648048856E-015
 -3.390000000000000E-002   -4.849868201030198E-015
 -3.380000000000000E-002   -4.102911871083395E-015
 -3.370000000000000E-002   -2.463222746456861E-015
 -3.360000000000000E-002    1.412832894936077E-016
 -3.350000000000000E-002    3.661271837740506E-015
 -3.340000000000000E-002    7.889277748794601E-015
 -3.330000000000000E-002    1.243317954161578E-014
 -3.320000000000000E-002    1.670694527864204E-014
 -3.310000000000000E-002    1.994550042874122E-014
 -3.300000000000000E-002    2.124932433207391E-014
 -3.290000000000000E-002    1.966198508644668E-014
 -3.280000000000000E-002    1.428032855712294E-014
 -3.270000000000000E-002    4.392588672297489E-015
 -3.260000000000000E-002   -1.036533394595150E-014
 -3.250000000000000E-002   -2.985026721083835E-014
 -3.240000000000000E-002   -5.326822046295274E-014
 -3.230000000000000E-002   -7.906934834623956E-014
 -3.220000000000000E-002   -1.049050470488054E-013
 -3.210000000000000E-002   -1.276690159911333E-013
 -3.200000000000000E-002   -1.436394021300913E-013
 -3.190000000000000E-002   -1.487307930296380E-013
 -3.180000000000000E-002   -1.388538423788195E-013
 -3.170000000000000E-002   -1.103666849702902E-013
 -3.160000000000000E-002   -6.058791059108471E-014
 -3.150000000000000E-002    1.167327833120144E-014
 -3.140000000000000E-002    1.056255441805552E-013
 -3.130000000000000E-002    2.181056678383052E-013
 -3.120000000000000E-002    3.433548421765685E-013
 -3.110000000000000E-002    4.730188244070668E-013
 -3.100000000000000E-002    5.964150878290666E-013
 -3.090000000000000E-002    7.010880730171657E-013
 -3.080000000000000E-002    7.736441496036601E-013
 -3.070000000000000E-002    8.008257427415349E-013
 -3.060000000000000E-002    7.707494858930121E-013
 -3.050000000000000E-002    6.742035852651547E-013
 -3.040000000000000E-002    5.058775796700606E-013
 -3.030000000000000E-002    2.653859590797347E-013
 -3.020000000000000E-002   -4.204662923371533E-014
 -3.010000000000000E-002   -4.053510401770161E-013
 -3.000000000000000E-002   -8.079029704266126E-013
 -2.990000000000000E-002   -1.228357018853595E-012
 -2.980000000000000E-002   -1.641984435874498E-012
 -2.970000000000000E-002   -2.022409373773964E-012
 -2.960000000000000E-002   -2.343577935716185E-012
 -2.950000000000000E-002   -2.581751257082517E-012
 -2.940000000000000E-002   -2.717292023324448E-012
 -2.930000000000000E-002   -2.736016706331390E-012
 -2.920000000000000E-002   -2.629930358121870E-012
 -2.910000000000000E-002   -2.397225258527979E-012
 -2.900000000000000E-002   -2.041526559569057E-012
 -2.890000000000000E-002   -1.570475018192755E-012
 -2.880000000000000E-002   -9.938567814470802E-013
 -2.870000000000000E-002   -3.215877255008907E-013
 -2.860000000000000E-002    4.380692834662689E-013
 -2.850000000000000E-002    1.279652931437110E-012
 -2.840000000000000E-002    2.200654154598185E-012
 -2.830000000000000E-002    3.200402664617772E-012
 -2.820000000000000E-002    4.277584596654803E-012
 -2.810000000000000E-002    5.426492193864562E-012
 -2.800000000000000E-002    6.632342750226501E-012
 -2.790000000000000E-002    7.866229316285303E-012
 -2.780000000000000E-002    9.080467318602042E-012
 -2.770000000000000E-002    1.020521503673037E-011
 -2.760000000000000E-002    1.114726744052054E-011
 -2.750000000000000E-002    1.179182147589850E-011
 -2.740000000000000E-002    1.200776532337648E-011
 -2.730000000000000E-002    1.165668395378789E-011
 -2.720000000000000E-002    1.060531950363496E-011
 -2.710000000000000E-002    8.740697795957962E-012
 -2.700000000000000E-002    5.986642336484730E-012
 -2.690000000000000E-002    2.319965310452482E-012
 -2.680000000000000E-002   -2.215666053921818E-012
 -2.670000000000000E-002   -7.500238862290024E-012
 -2.660000000000000E-002   -1.333417038207668E-011
 -2.650000000000000E-002   -1.944276628645976E-011
 -2.640000000000000E-002   -2.548908523891011E-011
 -2.630000000000000E-002   -3.109500804586450E-011
 -2.620000000000000E-002   -3.586929022281103E-011
 -2.610000000000000E-002   -3.944032737997448E-011
 -2.600000000000000E-002   -4.149050519028017E-011
 -2.590000000000000E-002   -4.178832671175326E-011
 -2.580000000000000E-002   -4.021433612491231E-011
 -2.570000000000000E-002   -3.677704260969292E-011
 -2.560000000000000E-002   -3.161588355563702E-011
 -2.550000000000000E-002   -2.498944018164355E-011
 -2.540000000000000E-002   -1.724888515057691E-011
 -2.530000000000000E-002   -8.798455316756344E-012
 -2.520000000000000E-002   -4.671852825875529E-014
 -2.510000000000000E-002    8.645842870878799E-012
 -2.500000000000000E-002    1.701627519800902E-011
 -2.490000000000000E-002    2.493829348058844E-011
 -2.480000000000000E-002    3.244426160853655E-011
 -2.470000000000000E-002    3.972437297527822E-011
 -2.460000000000000E-002    4.709972151977841E-011
 -2.450000000000000E-002    5.496887752627069E-011
 -2.440000000000000E-002    6.373117956720546E-011
 -2.430000000000000E-002    7.369356393097018E-011
 -2.420000000000000E-002    8.497103038138615E-011
 -2.410000000000000E-002    9.739337508183608E-011
 -2.400000000000000E-002    1.104320476139500E-010
 -2.390000000000000E-002    1.231606899924552E-010
 -2.380000000000000E-002    1.342607623859285E-010
 -2.370000000000000E-002    1.420798707209175E-010
 -2.360000000000000E-002    1.447450072179971E-010
 -2.350000000000000E-002    1.403264949840418E-010
 -2.340000000000000E-002    1.270416315677074E-010
 -2.330000000000000E-002    1.034804570526376E-010
 -2.320000000000000E-002    6.883095169628857E-011
 -2.310000000000000E-002    2.307769971223492E-011
 -2.300000000000000E-002   -3.285248516490900E-011
 -2.290000000000000E-002   -9.702194388241122E-011
 -2.280000000000000E-002   -1.665086907330111E-010
 -2.270000000000000E-002   -2.375377338429904E-010
 -2.260000000000000E-002   -3.057160597369492E-010
 -2.250000000000000E-002   -3.663578651946586E-010
 -2.240000000000000E-002   -4.148753986116927E-010
 -2.230000000000000E-002   -4.471997838152313E-010
 -2.220000000000000E-002   -4.601893723212334E-010
 -2.210000000000000E-002   -4.519797604641254E-010
 -2.200000000000000E-002   -4.222316116568271E-010
 -2.190000000000000E-002   -3.722395094946465E-010
 -2.180000000000000E-002   -3.048775180675379E-010
 -2.170000000000000E-002   -2.243732054822195E-010
 -2.160000000000000E-002   -1.359215679579999E-010
 -2.150000000000000E-002   -4.516938877382096E-011
 -2.140000000000000E-002    4.238080737572659E-011
 -2.130000000000000E-002    1.219842889548047E-010
 -2.120000000000000E-002    1.902138366636928E-010
 -2.110000000000000E-002    2.453936974736901E-010
 -2.100000000000000E-002    2.878447885833676E-010
 -2.090000000000000E-002    3.198931800804020E-010
 -2.080000000000000E-002    3.456187460385191E-010
 -2.070000000000000E-002    3.703494018244017E-010
 -2.060000000000000E-002    3.999373026518232E-010
 -2.050000000000000E-002    4.398840447524794E-010
 -2.040000000000000E-002    4.944065346115778E-010
 -2.030000000000000E-002    5.655524294475440E-010
 -2.020000000000000E-002    6.524795644667803E-010
 -2.010000000000000E-002    7.510067142309679E-010
 -2.000000000000000E-002    8.535223744676732E-010
 -1.990000000000000E-002    9.493050845167127E-010
 -1.980000000000000E-002    1.025266802449746E-009
 -1.970000000000000E-002    1.067082548938483E-009
 -1.960000000000000E-002    1.060620345336063E-009
 -1.950000000000000E-002    9.935430299829707E-010
 -1.940000000000000E-002    8.569190611346881E-010
 -1.930000000000000E-002    6.466632777701053E-010
 -1.920000000000000E-002    3.646283824394711E-010
 -1.910000000000000E-002    1.919067545750258E-011
 -1.900000000000000E-002   -3.747856513574321E-010
 -1.890000000000000E-002   -7.966629205000922E-010
 -1.880000000000000E-002   -1.221410257198375E-009
 -1.870000000000000E-002   -1.621561832501010E-009
 -1.860000000000000E-002   -1.969594443452274E-009
 -1.850000000000000E-002   -2.240504921138153E-009
 -1.840000000000000E-002   -2.414327962054346E-009
 -1.830000000000000E-002   -2.478319316418180E-009
 -1.820000000000000E-002   -2.428544647285432E-009
 -1.810000000000000E-002   -2.270657856969459E-009
 -1.800000000000000E-002   -2.019723991523619E-009
 -1.790000000000000E-002   -1.699037732515977E-009
 -1.780000000000000E-002   -1.337992373815482E-009
 -1.770000000000000E-002   -9.691641269761691E-010
 -1.760000000000000E-002   -6.248752106958599E-010
 -1.750000000000000E-002   -3.335758118916920E-010
 -1.740000000000000E-002   -1.164303658481478E-010
 -1.730000000000000E-002    1.550004792364734E-011
 -1.720000000000000E-002    6.312333137685153E-011
 -1.710000000000000E-002    3.995388681866162E-011
 -1.700000000000000E-002   -2.864191065515864E-011
 -1.690000000000000E-002   -1.076123567066424E-010
 -1.680000000000000E-002   -1.556710665583807E-010
 -1.670000000000000E-002   -1.297486803909497E-010
 -1.660000000000000E-002    9.963249427579572E-012
 -1.650000000000000E-002    2.948809111958365E-010
 -1.640000000000000E-002    7.433606206594659E-010
 -1.630000000000000E-002    1.357035147223588E-009
 -1.620000000000000E-002    2.118624200104913E-009
 -1.610000000000000E-002    2.991567820597215E-009
 -1.600000000000000E-002    3.921658744155609E-009
 -1.590000000000000E-002    4.840650240667239E-009
 -1.580000000000000E-002    5.671609006817931E-009
 -1.570000000000000E-002    6.335579360852800E-009
 -1.560000000000000E-002    6.758963659551517E-009
 -1.550000000000000E-002    6.880910715568818E-009
 -1.540000000000000E-002    6.659959482967911E-009
 -1.530000000000000E-002    6.079217929373778E-009
 -1.520000000000000E-002    5.149468474982108E-009
 -1.510000000000000E-002    3.909770417735208E-009
 -1.500000000000000E-002    2.425364699345961E-009
 -1.490000000000000E-002    7.829531042705365E-010
 -1.480000000000000E-002   -9.163007044768974E-010
 -1.470000000000000E-002   -2.565450390328215E-009
 -1.460000000000000E-002   -4.061329961612421E-009
 -1.450000000000000E-002   -5.314070219658594E-009
 -1.440000000000000E-002   -6.255611106852660E-009
 -1.430000000000000E-002   -6.846304138191968E-009
 -1.420000000000000E-002   -7.078865401958766E-009
 -1.410000000000000E-002   -6.979177992838510E-009
 -1.400000000000000E-002   -6.603751732096185E-009
 -1.390000000000000E-002   -6.033984950887780E-009
 -1.380000000000000E-002   -5.367706559063945E-009
 -1.370000000000000E-002   -4.708787978071777E-009
 -1.360000000000000E-002   -4.155826667075234E-009
 -1.350000000000000E-002   -3.791048322635402E-009
 -1.340000000000000E-002   -3.670591902247828E-009
 -1.330000000000000E-002   -3.817227150773169E-009
 -1.320000000000000E-002   -4.216315729651005E-009
 -1.310000000000000E-002   -4.815564176763240E-009
 -1.300000000000000E-002   -5.528636202094105E-009
 -1.290000000000000E-002   -6.242363272394911E-009
 -1.280000000000000E-002   -6.826832588760508E-009
 -1.270000000000000E-002   -7.147301283235667E-009
 -1.260000000000000E-002   -7.076613090264494E-009
 -1.250000000000000E-002   -6.506732030026562E-009
 -1.240000000000000E-002   -5.357939002900347E-009
 -1.230000000000000E-002   -3.584477746823952E-009
 -1.220000000000000E-002   -1.175766120492821E-009
 -1.210000000000000E-002    1.847392712374055E-009
 -1.200000000000000E-002    5.441481038041326E-009
 -1.190000000000000E-002    9.553412941492384E-009
 -1.180000000000000E-002    1.413700362136005E-008
 -1.170000000000000E-002    1.917138511417706E-008
 -1.160000000000000E-002    2.467957788228814E-008
 -1.150000000000000E-002    3.074541114990937E-008
 -1.140000000000000E-002    3.752696691644006E-008
 -1.130000000000000E-002    4.526497885357384E-008
 -1.120000000000000E-002    5.428510755130854E-008
 -1.110000000000000E-002    6.499346268288257E-008
 -1.100000000000000E-002    7.786545538157730E-008
 -1.090000000000000E-002    9.342863704337129E-008
 -1.080000000000000E-002    1.122410544004891E-007
 -1.070000000000000E-002    1.348667966524929E-007
 -1.060000000000000E-002    1.618508244486001E-007
 -1.050000000000000E-002    1.936957293058609E-007
 -1.040000000000000E-002    2.308425891242249E-007
 -1.030000000000000E-002    2.736576193577556E-007
 -1.020000000000000E-002    3.224264544370686E-007
 -1.010000000000000E-002    3.773565453137108E-007
 -1.000000000000000E-002    4.385876936865888E-007
 -9.899999999999999E-003    5.062102591032524E-007
 -9.800000000000000E-003    5.802889146293366E-007
 -9.699999999999999E-003    6.608901575185312E-007
 -9.599999999999999E-003    7.481113274799959E-007
 -9.500000000000000E-003    8.421071299397254E-007
 -9.399999999999999E-003    9.431132468811394E-007
 -9.299999999999999E-003    1.051461988944174E-006
 -9.200000000000000E-003    1.167590257645829E-006
 -9.099999999999999E-003    1.292039049978409E-006
 -8.999999999999999E-003    1.425442878393364E-006
 -8.900000000000000E-003    1.568511783592265E-006
 -8.799999999999999E-003    1.722006478052655E-006
 -8.699999999999999E-003    1.886710704552192E-006
 -8.600000000000000E-003    2.063401384970184E-006
 -8.499999999999999E-003    2.252822352769753E-006
 -8.399999999999999E-003    2.455663034239888E-006
 -8.300000000000000E-003    2.672544933939277E-006
 -8.199999999999999E-003    2.904017889648760E-006
 -8.100000000000000E-003    3.150566970841131E-006
 -8.000000000000000E-003    3.412629881398182E-006
 -7.899999999999999E-003    3.690623707304383E-006
 -7.800000000000000E-003    3.984977679182146E-006
 -7.699999999999999E-003    4.296171259716937E-006
 -7.599999999999999E-003    4.624770971578620E-006
 -7.499999999999999E-003    4.971464909157820E-006
 -7.399999999999999E-003    5.337089480019991E-006
 -7.299999999999999E-003    5.722649387447306E-006
 -7.199999999999999E-003    6.129320763221573E-006
 -7.100000000000000E-003    6.558448568195941E-006
 -6.999999999999999E-003    7.011526794004456E-006
 -6.899999999999999E-003    7.490171012430561E-006
 -6.800000000000000E-003    7.996083093859949E-006
 -6.699999999999999E-003    8.531014584741270E-006
 -6.599999999999999E-003    9.096726766278418E-006
 -6.499999999999999E-003    9.694960687860091E-006
 -6.399999999999999E-003    1.032741447144121E-005
 -6.299999999999999E-003    1.099573009619585E-005
 -6.199999999999999E-003    1.170149997759409E-005
 -6.100000000000000E-003    1.244628673708070E-005
 -5.999999999999999E-003    1.323165624213629E-005
 -5.899999999999999E-003    1.405922499182604E-005
 -5.800000000000000E-003    1.493070973763350E-005
 -5.699999999999999E-003    1.584799542004124E-005
 -5.599999999999999E-003    1.681318407416738E-005
 -5.499999999999999E-003    1.782865088235142E-005
 -5.399999999999999E-003    1.889708311842347E-005
 -5.299999999999999E-003    2.002150288853217E-005
 -5.199999999999999E-003    2.120527793456428E-005
 -5.099999999999999E-003    2.245211106175283E-005
 -4.999999999999999E-003    2.376601281593636E-005
 -4.899999999999999E-003    2.515125684846822E-005
 -4.799999999999999E-003    2.661233613706928E-005
 -4.699999999999999E-003    2.815389672423224E-005
 -4.599999999999999E-003    2.978069875718007E-005
 -4.499999999999999E-003    3.149755751307156E-005
 -4.399999999999999E-003    3.330932347746517E-005
 -4.299999999999999E-003    3.522085210378854E-005
 -4.199999999999999E-003    3.723702949185205E-005
 -4.099999999999999E-003    3.936278764235783E-005
 -3.999999999999999E-003    4.160315119815002E-005
 -3.899999999999999E-003    4.396330794780879E-005
 -3.799999999999999E-003    4.644867771980038E-005
 -3.699999999999999E-003    4.906500941280543E-005
 -3.599999999999999E-003    5.181843348409273E-005
 -3.499999999999999E-003    5.471556318957950E-005
 -3.399999999999999E-003    5.776353162934493E-005
 -3.299999999999999E-003    6.097003928391458E-005
 -3.199999999999999E-003    6.434336551270176E-005
 -3.099999999999999E-003    6.789234148956565E-005
 -2.999999999999999E-003    7.162635324419333E-005
 -2.899999999999999E-003    7.555525059018640E-005
 -2.799999999999999E-003    7.968930697655243E-005
 -2.699999999999999E-003    8.403914108396897E-005
 -2.599999999999999E-003    8.861564990176583E-005
 -2.499999999999999E-003    9.342993239490739E-005
 -2.399999999999999E-003    9.849325909970559E-005
 -2.299999999999999E-003    1.038170457262158E-004
 -2.199999999999999E-003    1.094128467564081E-004
 -2.099999999999999E-003    1.152923898727192E-004
 -1.999999999999999E-003    1.214676406209733E-004
 -1.899999999999999E-003    1.279508548329079E-004
 -1.799999999999999E-003    1.347546966287952E-004
 -1.699999999999999E-003    1.418923312911777E-004
 -1.599999999999999E-003    1.493775263011319E-004
 -1.499999999999999E-003    1.572247316541327E-004
 -1.399999999999999E-003    1.654492088605393E-004
 -1.299999999999999E-003    1.740670569103814E-004
 -1.199999999999999E-003    1.830952533957860E-004
 -1.099999999999999E-003    1.925516476272649E-004
 -9.999999999999989E-004    2.024549543394834E-004
 -8.999999999999990E-004    2.128247609988969E-004
 -7.999999999999990E-004    2.236813730469111E-004
 -6.999999999999989E-004    2.350458273164270E-004
 -5.999999999999990E-004    2.469398248779790E-004
 -4.999999999999989E-004    2.593856755478301E-004
 -3.999999999999989E-004    2.724062205282155E-004
 -2.999999999999989E-004    2.860248763380213E-004
 -1.999999999999989E-004    3.002656456231743E-004
 -9.999999999999892E-005    3.151531100595552E-004
  1.084202172485504E-018    3.307125396496058E-004
  1.000000000000011E-004    3.469700630840171E-004
  2.000000000000011E-004    3.639526371970262E-004
  3.000000000000011E-004    3.816883002107806E-004
  4.000000000000011E-004    4.002061901999593E-004
  5.000000000000011E-004    4.195367465934221E-004
  6.000000000000011E-004    4.397117529666616E-004
  7.000000000000011E-004    4.607643686204163E-004
  8.000000000000011E-004    4.827291840456408E-004
  9.000000000000012E-004    5.056422303413008E-004
  1.000000000000001E-003    5.295409572282232E-004
  1.100000000000001E-003    5.544640140696342E-004
  1.200000000000001E-003    5.804513820320957E-004
  1.300000000000001E-003    6.075441421679733E-004
  1.400000000000001E-003    6.357844448188033E-004
  1.500000000000001E-003    6.652153380624756E-004
  1.600000000000001E-003    6.958808213945780E-004
  1.700000000000001E-003    7.278257671869665E-004
  1.800000000000001E-003    7.610960458431596E-004
  1.900000000000001E-003    7.957382983958793E-004
  2.000000000000001E-003    8.318004015458639E-004
  2.100000000000001E-003    8.693313750641383E-004
  2.200000000000001E-003    9.083815621229758E-004
  2.300000000000001E-003    9.490028266469594E-004
  2.400000000000001E-003    9.912487174419844E-004
  2.500000000000001E-003    1.035174585437595E-003
  2.600000000000001E-003    1.080837681593290E-003
  2.700000000000001E-003    1.128297380909559E-003
  2.800000000000001E-003    1.177615045670945E-003
  2.900000000000001E-003    1.228853941420008E-003
  3.000000000000001E-003    1.282079598694084E-003
  3.100000000000001E-003    1.337359130033030E-003
  3.200000000000001E-003    1.394761321568900E-003
  3.300000000000001E-003    1.454356733634778E-003
  3.400000000000001E-003    1.516217065992167E-003
  3.500000000000001E-003    1.580415454756252E-003
  3.600000000000001E-003    1.647025919017888E-003
  3.700000000000001E-003    1.716123705378539E-003
  3.800000000000001E-003    1.787784859269536E-003
  3.900000000000001E-003    1.862086585980040E-003
  4.000000000000001E-003    1.939106818261315E-003
  4.100000000000001E-003    2.018924990659036E-003
  4.200000000000001E-003    2.101621633117255E-003
  4.300000000000001E-003    2.187279061880062E-003
  4.400000000000001E-003    2.275980943916026E-003
  4.500000000000001E-003    2.367812969718872E-003
  4.600000000000002E-003    2.462862894904963E-003
  4.700000000000001E-003    2.561220212598818E-003
  4.800000000000001E-003    2.662977047576317E-003
  4.900000000000002E-003    2.768227415483607E-003
  5.000000000000001E-003    2.877067412948187E-003
  5.100000000000001E-003    2.989595100520357E-003
  5.200000000000001E-003    3.105910705506098E-003
  5.300000000000002E-003    3.226115678238727E-003
  5.400000000000001E-003    3.350313200501615E-003
  5.500000000000001E-003    3.478607813113209E-003
  5.600000000000002E-003    3.611105586588193E-003
  5.700000000000001E-003    3.747912779337445E-003
  5.800000000000001E-003    3.889137253686749E-003
  5.900000000000002E-003    4.034888147446906E-003
  6.000000000000001E-003    4.185275330620548E-003
  6.100000000000001E-003    4.340410103169578E-003
  6.200000000000002E-003    4.500405246961793E-003
  6.300000000000002E-003    4.665375225618672E-003
  6.400000000000001E-003    4.835436180360231E-003
  6.500000000000001E-003    5.010706144246963E-003
  6.600000000000002E-003    5.191305395412691E-003
  6.700000000000001E-003    5.377356222123751E-003
  6.800000000000001E-003    5.568982851042240E-003
  6.900000000000002E-003    5.766311946746172E-003
  7.000000000000001E-003    5.969471964888694E-003
  7.100000000000001E-003    6.178592646383553E-003
  7.200000000000002E-003    6.393806033442433E-003
  7.300000000000002E-003    6.615244244645711E-003
  7.400000000000001E-003    6.843041811138842E-003
  7.500000000000001E-003    7.077332909237785E-003
  7.600000000000002E-003    7.318251684127028E-003
  7.700000000000001E-003    7.565933674304534E-003
  7.800000000000001E-003    7.820513635092119E-003
  7.900000000000001E-003    8.082127162659743E-003
  8.000000000000002E-003    8.350909245366427E-003
  8.100000000000001E-003    8.626995418553813E-003
  8.200000000000001E-003    8.910521552485267E-003
  8.300000000000002E-003    9.201623587746025E-003
  8.400000000000001E-003    9.500438209739157E-003
  8.500000000000002E-003    9.807102025479738E-003
  8.600000000000002E-003    1.012175410510538E-002
  8.700000000000001E-003    1.044453278322637E-002
  8.800000000000002E-003    1.077557691805488E-002
  8.900000000000002E-003    1.111502781269256E-002
  9.000000000000001E-003    1.146302497919991E-002
  9.100000000000002E-003    1.181970900079133E-002
  9.200000000000002E-003    1.218522100146145E-002
  9.300000000000001E-003    1.255970023093741E-002
  9.400000000000002E-003    1.294328547364380E-002
  9.500000000000001E-003    1.333611468469218E-002
  9.600000000000001E-003    1.373832358224381E-002
  9.700000000000002E-003    1.415004661630533E-002
  9.800000000000001E-003    1.457141618625797E-002
  9.900000000000001E-003    1.500256382498447E-002
  1.000000000000000E-002    1.544361753582528E-002
  1.010000000000000E-002    1.589470312613202E-002
  1.020000000000000E-002    1.635594695360236E-002
  1.030000000000000E-002    1.682747039596828E-002
  1.040000000000000E-002    1.730939725575270E-002
  1.050000000000000E-002    1.780184766338669E-002
  1.060000000000000E-002    1.830494081393120E-002
  1.070000000000000E-002    1.881879490330599E-002
  1.080000000000000E-002    1.934352754409411E-002
  1.090000000000000E-002    1.987925564115110E-002
  1.100000000000000E-002    2.042609464747953E-002
  1.110000000000000E-002    2.098415611227311E-002
  1.120000000000000E-002    2.155355240039774E-002
  1.130000000000000E-002    2.213439354728222E-002
  1.140000000000000E-002    2.272678697290837E-002
  1.150000000000000E-002    2.333083670291497E-002
  1.160000000000000E-002    2.394664596217267E-002
  1.170000000000000E-002    2.457431420497383E-002
  1.180000000000000E-002    2.521393779865263E-002
  1.190000000000000E-002    2.586560998700847E-002
  1.200000000000000E-002    2.652942233702925E-002
  1.210000000000000E-002    2.720546545134105E-002
  1.220000000000000E-002    2.789382394624932E-002
  1.230000000000000E-002    2.859458480418772E-002
  1.240000000000000E-002    2.930783070644475E-002
  1.250000000000000E-002    3.003364200713641E-002
  1.260000000000000E-002    3.077209927244276E-002
  1.270000000000000E-002    3.152328261953644E-002
  1.280000000000000E-002    3.228727319243658E-002
  1.290000000000000E-002    3.306414601536345E-002
  1.300000000000000E-002    3.385398324732634E-002
  1.310000000000000E-002    3.465685686523333E-002
  1.320000000000000E-002    3.547284765749855E-002
  1.330000000000000E-002    3.630202949435498E-002
  1.340000000000000E-002    3.714447449338832E-002
  1.350000000000000E-002    3.800025469401518E-002
  1.360000000000000E-002    3.886944014926026E-002
  1.370000000000000E-002    3.975210151740846E-002
  1.380000000000000E-002    4.064830483170566E-002
  1.390000000000000E-002    4.155811643150707E-002
  1.400000000000000E-002    4.248160119665832E-002
  1.410000000000000E-002    4.341882054005550E-002
  1.420000000000000E-002    4.436983421230171E-002
  1.430000000000000E-002    4.533470739368285E-002
  1.440000000000000E-002    4.631349853058679E-002
  1.450000000000000E-002    4.730627022133240E-002
  1.460000000000000E-002    4.831308515739911E-002
  1.470000000000000E-002    4.933400667964455E-002
  1.480000000000000E-002    5.036909982777820E-002
  1.490000000000000E-002    5.141842806375362E-002
  1.500000000000000E-002    5.248205613475248E-002
  1.510000000000000E-002    5.356005378550001E-002
  1.520000000000000E-002    5.465248927332500E-002
  1.530000000000000E-002    5.575942957920701E-002
  1.540000000000000E-002    5.688094507826085E-002
  1.550000000000000E-002    5.801710362913063E-002
  1.560000000000000E-002    5.916797370315091E-002
  1.570000000000000E-002    6.033362995841444E-002
  1.580000000000000E-002    6.151413440688536E-002
  1.590000000000000E-002    6.270955623723336E-002
  1.600000000000000E-002    6.391996691391812E-002
  1.610000000000000E-002    6.514544263958648E-002
  1.620000000000000E-002    6.638605210473449E-002
  1.630000000000000E-002    6.764186925683831E-002
  1.640000000000000E-002    6.891296688956136E-002
  1.650000000000000E-002    7.019942524381449E-002
  1.660000000000000E-002    7.150132754388927E-002
  1.670000000000000E-002    7.281876142434787E-002
  1.680000000000000E-002    7.415182433970316E-002
  1.690000000000000E-002    7.550059678684895E-002
  1.700000000000000E-002    7.686518167354228E-002
  1.710000000000000E-002    7.824568171717756E-002
  1.720000000000000E-002    7.964220153522872E-002
  1.730000000000000E-002    8.105484784362675E-002
  1.740000000000000E-002    8.248372864188867E-002
  1.750000000000000E-002    8.392896359803344E-002
  1.760000000000000E-002    8.539066620475243E-002
  1.770000000000000E-002    8.686895666485657E-002
  1.780000000000000E-002    8.836395894252451E-002
  1.790000000000000E-002    8.987579982741289E-002
  1.800000000000000E-002    9.140460025570840E-002
  1.810000000000000E-002    9.295049789784678E-002
  1.820000000000000E-002    9.451362081656400E-002
  1.830000000000000E-002    9.609410624424272E-002
  1.840000000000000E-002    9.769209643191018E-002
  1.850000000000000E-002    9.930773763733149E-002
  1.860000000000000E-002    0.100941168826847     
  1.870000000000000E-002    0.102592549396392     