 -4.000000000000000E-002    0.000000000000000E+000
 -3.990000000000000E-002    0.000000000000000E+000
 -3.980000000000000E-002    0.000000000000000E+000
 -3.970000000000000E-002    0.000000000000000E+000
 -3.960000000000000E-002    0.000000000000000E+000
 -3.950000000000000E-002    0.000000000000000E+000
 -3.940000000000000E-002    0.000000000000000E+000
 -3.930000000000000E-002    0.000000000000000E+000
 -3.920000000000000E-002    0.000000000000000E+000
 -3.910000000000000E-002    0.000000000000000E+000
 -3.900000000000000E-002    0.000000000000000E+000
 -3.890000000000000E-002    0.000000000000000E+000
 -3.880000000000000E-002    0.000000000000000E+000
 -3.870000000000000E-002    0.000000000000000E+000
 -3.860000000000000E-002    0.000000000000000E+000
 -3.850000000000000E-002    0.000000000000000E+000
 -3.840000000000000E-002    0.000000000000000E+000
 -3.830000000000000E-002    0.000000000000000E+000
 -3.820000000000000E-002    0.000000000000000E+000
 -3.810000000000000E-002    0.000000000000000E+000
 -3.800000000000000E-002    0.000000000000000E+000
 -3.790000000000000E-002    0.000000000000000E+000
 -3.780000000000000E-002    0.000000000000000E+000
 -3.770000000000000E-002    0.000000000000000E+000
 -3.760000000000000E-002    0.000000000000000E+000
 -3.750000000000000E-002    0.000000000000000E+000
 -3.740000000000000E-002    0.000000000000000E+000
 -3.730000000000000E-002    0.000000000000000E+000
 -3.720000000000000E-002    0.000000000000000E+000
 -3.710000000000000E-002    0.000000000000000E+000
 -3.700000000000000E-002    0.000000000000000E+000
 -3.690000000000000E-002    0.000000000000000E+000
 -3.680000000000000E-002    0.000000000000000E+000
 -3.670000000000000E-002    0.000000000000000E+000
 -3.660000000000000E-002    0.000000000000000E+000
 -3.650000000000000E-002    0.000000000000000E+000
 -3.640000000000000E-002    0.000000000000000E+000
 -3.630000000000000E-002    0.000000000000000E+000
 -3.620000000000000E-002    0.000000000000000E+000
 -3.610000000000000E-002    0.000000000000000E+000
 -3.600000000000000E-002    0.000000000000000E+000
 -3.590000000000000E-002    0.000000000000000E+000
 -3.580000000000000E-002    0.000000000000000E+000
 -3.570000000000000E-002    0.000000000000000E+000
 -3.560000000000000E-002    0.000000000000000E+000
 -3.550000000000000E-002    0.000000000000000E+000
 -3.540000000000000E-002    0.000000000000000E+000
 -3.530000000000000E-002    0.000000000000000E+000
 -3.520000000000000E-002    0.000000000000000E+000
 -3.510000000000000E-002    0.000000000000000E+000
 -3.500000000000000E-002    0.000000000000000E+000
 -3.490000000000000E-002   -8.203205742053767E-048
 -3.480000000000000E-002   -3.385320030660582E-047
 -3.470000000000000E-002   -5.308965891591298E-047
 -3.460000000000000E-002   -7.880652437522850E-047
 -3.450000000000000E-002   -1.344730780911101E-046
 -3.440000000000000E-002   -1.874749562054855E-046
 -3.430000000000000E-002   -2.626909999111239E-046
 -3.420000000000000E-002   -2.789218100332286E-046
 -3.410000000000000E-002   -1.058891148418908E-045
 -3.400000000000000E-002   -7.192906195977620E-046
 -3.390000000000000E-002   -6.264201336526564E-047
 -3.380000000000000E-002    2.388663526203366E-045
 -3.370000000000000E-002    9.080813032946399E-045
 -3.360000000000000E-002    2.114465295654744E-044
 -3.350000000000000E-002    4.260493254293169E-044
 -3.340000000000000E-002    7.867375951337905E-044
 -3.330000000000000E-002    1.340475197139479E-043
 -3.320000000000000E-002    2.135764319697566E-043
 -3.310000000000000E-002    3.159889590362093E-043
 -3.300000000000000E-002    4.262353598762196E-043
 -3.290000000000000E-002    5.070487030072444E-043
 -3.280000000000000E-002    4.736971580004991E-043
 -3.270000000000000E-002    1.701009887461938E-043
 -3.260000000000000E-002   -6.632639111084082E-043
 -3.250000000000000E-002   -2.427716979560797E-042
 -3.240000000000000E-002   -5.692317015470239E-042
 -3.230000000000000E-002   -1.119241877846628E-041
 -3.220000000000000E-002   -1.975653074793248E-041
 -3.210000000000000E-002   -3.212090346032757E-041
 -3.200000000000000E-002   -4.854388515746765E-041
 -3.190000000000000E-002   -6.814569180897723E-041
 -3.180000000000000E-002   -8.787407922314356E-041
 -3.170000000000000E-002   -1.010248981365448E-040
 -3.160000000000000E-002   -9.533726839528334E-041
 -3.150000000000000E-002   -5.080255423595674E-041
 -3.140000000000000E-002    6.242424045387468E-041
 -3.130000000000000E-002    2.852432065516771E-040
 -3.120000000000000E-002    6.687217574679904E-040
 -3.110000000000000E-002    1.269251159169847E-039
 -3.100000000000000E-002    2.137285904533679E-039
 -3.090000000000000E-002    3.296718277413954E-039
 -3.080000000000000E-002    4.711816166137817E-039
 -3.070000000000000E-002    6.239305977625632E-039
 -3.060000000000000E-002    7.565039787011401E-039
 -3.050000000000000E-002    8.128363630847696E-039
 -3.040000000000000E-002    7.043261468524365E-039
 -3.030000000000000E-002    3.034035546292418E-039
 -3.020000000000000E-002   -5.585349090507836E-039
 -3.010000000000000E-002   -2.084582021075220E-038
 -3.000000000000000E-002   -4.491564255904069E-038
 -2.990000000000000E-002   -7.968422608913101E-038
 -2.980000000000000E-002   -1.260680606902626E-037
 -2.970000000000000E-002   -1.829813445231697E-037
 -2.960000000000000E-002   -2.459480753796443E-037
 -2.950000000000000E-002   -3.053984526689977E-037
 -2.940000000000000E-002   -3.447966083152653E-037
 -2.930000000000000E-002   -3.388948515039088E-037
 -2.920000000000000E-002   -2.525983007123465E-037
 -2.910000000000000E-002   -4.113946745406372E-038
 -2.900000000000000E-002    3.475233873390792E-037
 -2.890000000000000E-002    9.670042387028369E-037
 -2.880000000000000E-002    1.862355536279423E-036
 -2.870000000000000E-002    3.054528659371136E-036
 -2.860000000000000E-002    4.518921097101534E-036
 -2.850000000000000E-002    6.158367014338047E-036
 -2.840000000000000E-002    7.772291771226064E-036
 -2.830000000000000E-002    9.025622698090590E-036
 -2.820000000000000E-002    9.423412129733207E-036
 -2.810000000000000E-002    8.299734534110544E-036
 -2.800000000000000E-002    4.832056015305652E-036
 -2.790000000000000E-002   -1.905774107385570E-036
 -2.780000000000000E-002   -1.283800440669654E-035
 -2.770000000000000E-002   -2.871654282779139E-035
 -2.760000000000000E-002   -4.987777741403791E-035
 -2.750000000000000E-002   -7.592764275028909E-035
 -2.740000000000000E-002   -1.053692132736823E-034
 -2.730000000000000E-002   -1.352055283819507E-034
 -2.720000000000000E-002   -1.605730046354655E-034
 -2.710000000000000E-002   -1.744857592608457E-034
 -2.700000000000000E-002   -1.677961803174293E-034
 -2.690000000000000E-002   -1.294965578272851E-034
 -2.680000000000000E-002   -4.749526007521658E-035
 -2.670000000000000E-002    9.000763578642496E-035
 -2.660000000000000E-002    2.924553258410118E-034
 -2.650000000000000E-002    5.641556553125530E-034
 -2.640000000000000E-002    9.008675951582042E-034
 -2.630000000000000E-002    1.285973861433021E-033
 -2.620000000000000E-002    1.686630194585493E-033
 -2.610000000000000E-002    2.050482623757881E-033
 -2.600000000000000E-002    2.303731582191270E-033
 -2.590000000000000E-002    2.351495489710649E-033
 -2.580000000000000E-002    2.081516178778466E-033
 -2.570000000000000E-002    1.372234644297110E-033
 -2.560000000000000E-002    1.060965861136289E-034
 -2.550000000000000E-002   -1.811455789104206E-033
 -2.540000000000000E-002   -4.427444274477780E-033
 -2.530000000000000E-002   -7.712314216121632E-033
 -2.520000000000000E-002   -1.152853366332328E-032
 -2.510000000000000E-002   -1.560025778878992E-032
 -2.500000000000000E-002   -1.948888395528914E-032
 -2.490000000000000E-002   -2.258055874002182E-032
 -2.480000000000000E-002   -2.409271116352772E-032
 -2.470000000000000E-002   -2.310701029786850E-032
 -2.460000000000000E-002   -1.863577072075247E-032
 -2.450000000000000E-002   -9.727003381289610E-033
 -2.440000000000000E-002    4.389714747033209E-033
 -2.430000000000000E-002    2.411929646342642E-032
 -2.420000000000000E-002    4.928846429770747E-032
 -2.410000000000000E-002    7.892174545823610E-032
 -2.400000000000000E-002    1.110328882090961E-031
 -2.390000000000000E-002    1.424680039501538E-031
 -2.380000000000000E-002    1.688450654744891E-031
 -2.370000000000000E-002    1.846401741848968E-031
 -2.360000000000000E-002    1.834722224900388E-031
 -2.350000000000000E-002    1.586302361686708E-031
 -2.340000000000000E-002    1.038718932381967E-031
 -2.330000000000000E-002    1.449425677404226E-032
 -2.320000000000000E-002   -1.113646768862868E-031
 -2.310000000000000E-002   -2.712872254487417E-031
 -2.300000000000000E-002   -4.571576434615136E-031
 -2.290000000000000E-002   -6.539887518440409E-031
 -2.280000000000000E-002   -8.392806931427043E-031
 -2.270000000000000E-002   -9.832426015380529E-031
 -2.260000000000000E-002   -1.050219255692240E-030
 -2.250000000000000E-002   -1.001624677665270E-030
 -2.240000000000000E-002   -8.005737284481894E-031
 -2.230000000000000E-002   -4.182149772726921E-031
 -2.220000000000000E-002    1.585132836457534E-031
 -2.210000000000000E-002    9.183318793065488E-031
 -2.200000000000000E-002    1.817320649598591E-030
 -2.190000000000000E-002    2.772325844940832E-030
 -2.180000000000000E-002    3.657891984084418E-030
 -2.170000000000000E-002    4.308741926541683E-030
 -2.160000000000000E-002    4.529780815958337E-030
 -2.150000000000000E-002    4.115196407486990E-030
 -2.140000000000000E-002    2.877397927083946E-030
 -2.130000000000000E-002    6.851782382106346E-031
 -2.120000000000000E-002   -2.491250593196101E-030
 -2.110000000000000E-002   -6.532913968358300E-030
 -2.100000000000000E-002   -1.112917553305438E-029
 -2.090000000000000E-002   -1.574820737826063E-029
 -2.080000000000000E-002   -1.963109788306813E-029
 -2.070000000000000E-002   -2.182017644267685E-029
 -2.060000000000000E-002   -2.123088565555545E-029
 -2.050000000000000E-002   -1.677292691858914E-029
 -2.040000000000000E-002   -7.520972287952389E-030
 -2.030000000000000E-002    7.072993065184694E-030
 -2.020000000000000E-002    2.694294937712855E-029
 -2.010000000000000E-002    5.117563304343114E-029
 -2.000000000000000E-002    7.781860525247063E-029
 -1.990000000000000E-002    1.037745369437587E-028
 -1.980000000000000E-002    1.248293969041186E-028
 -1.970000000000000E-002    1.358588026492872E-028
 -1.960000000000000E-002    1.312446323426683E-028
 -1.950000000000000E-002    1.055128923746803E-028
 -1.940000000000000E-002    5.417472020056251E-029
 -1.930000000000000E-002   -2.528542325643456E-029
 -1.920000000000000E-002   -1.323678508852816E-028
 -1.910000000000000E-002   -2.625959574701325E-028
 -1.900000000000000E-002   -4.067966394792986E-028
 -1.890000000000000E-002   -5.507995414704943E-028
 -1.880000000000000E-002   -6.757242857670362E-028
 -1.870000000000000E-002   -7.589908277994717E-028
 -1.860000000000000E-002   -7.761242660886121E-028
 -1.850000000000000E-002   -7.033354811296494E-028
 -1.840000000000000E-002   -5.207482189891651E-028
 -1.830000000000000E-002   -2.160198747955551E-028
 -1.820000000000000E-002    2.120087119096792E-028
 -1.810000000000000E-002    7.500918844971848E-028
 -1.800000000000000E-002    1.368300932982261E-027
 -1.790000000000000E-002    2.019186020194588E-027
 -1.780000000000000E-002    2.638815222895439E-027
 -1.770000000000000E-002    3.149977124826005E-027
 -1.760000000000000E-002    3.467632457135260E-027
 -1.750000000000000E-002    3.506453396870663E-027
 -1.740000000000000E-002    3.190025921856033E-027
 -1.730000000000000E-002    2.461021544106572E-027
 -1.720000000000000E-002    1.291466562234800E-027
 -1.710000000000000E-002   -3.079306353042807E-028
 -1.700000000000000E-002   -2.280454016959436E-027
 -1.690000000000000E-002   -4.519083939903325E-027
 -1.680000000000000E-002   -6.866108984288169E-027
 -1.670000000000000E-002   -9.117327801442806E-027
 -1.660000000000000E-002   -1.103128405193420E-026
 -1.650000000000000E-002   -1.234370139234058E-026
 -1.640000000000000E-002   -1.278705586656181E-026
 -1.630000000000000E-002   -1.211491388985186E-026
 -1.620000000000000E-002   -1.013034494976318E-026
 -1.610000000000000E-002   -6.717306958546436E-027
 -1.600000000000000E-002   -1.873262257788331E-027
 -1.590000000000000E-002    4.259482681911238E-027
 -1.580000000000000E-002    1.136721095455904E-026
 -1.570000000000000E-002    1.894770631158410E-026
 -1.560000000000000E-002    2.630838447939062E-026
 -1.550000000000000E-002    3.258607853583558E-026
 -1.540000000000000E-002    3.679504740599068E-026
 -1.530000000000000E-002    3.790837482146313E-026
 -1.520000000000000E-002    3.497521426209862E-026
 -1.510000000000000E-002    2.727180978035090E-026
 -1.500000000000000E-002    1.447708446786498E-026
 -1.490000000000000E-002   -3.143768844380511E-027
 -1.480000000000000E-002   -2.457353531350670E-026
 -1.470000000000000E-002   -4.792844453949175E-026
 -1.460000000000000E-002   -7.043339200033088E-026
 -1.450000000000000E-002   -8.852604468893274E-026
 -1.440000000000000E-002   -9.812203312535309E-026
 -1.430000000000000E-002   -9.505954272898996E-026
 -1.420000000000000E-002   -7.571667725722185E-026
 -1.410000000000000E-002   -3.776498987331149E-026
 -1.400000000000000E-002    1.901514285040607E-026
 -1.390000000000000E-002    9.196803043680082E-026
 -1.380000000000000E-002    1.749866441667540E-025
 -1.370000000000000E-002    2.582859777407890E-025
 -1.360000000000000E-002    3.286807630095302E-025
 -1.350000000000000E-002    3.704909204815463E-025
 -1.340000000000000E-002    3.671349591223862E-025
 -1.330000000000000E-002    3.033806370801706E-025
 -1.320000000000000E-002    1.681037153930722E-025
 -1.310000000000000E-002   -4.272087562965733E-026
 -1.300000000000000E-002   -3.231894010061535E-025
 -1.290000000000000E-002   -6.552905252471011E-025
 -1.280000000000000E-002   -1.007898289848205E-024
 -1.270000000000000E-002   -1.337428087896433E-024
 -1.260000000000000E-002   -1.590516848046594E-024
 -1.250000000000000E-002   -1.708878101257666E-024
 -1.240000000000000E-002   -1.636179253164245E-024
 -1.230000000000000E-002   -1.326449728179604E-024
 -1.220000000000000E-002   -7.531637144348762E-025
 -1.210000000000000E-002    8.216272953674862E-026
 -1.200000000000000E-002    1.143226629054520E-024
 -1.190000000000000E-002    2.355442169437985E-024
 -1.180000000000000E-002    3.606920225353022E-024
 -1.170000000000000E-002    4.754751878040973E-024
 -1.160000000000000E-002    5.636810986461516E-024
 -1.150000000000000E-002    6.088520632256279E-024
 -1.140000000000000E-002    5.963199608781642E-024
 -1.130000000000000E-002    5.153827006505308E-024
 -1.120000000000000E-002    3.613465657281751E-024
 -1.110000000000000E-002    1.371338681703539E-024
 -1.100000000000000E-002   -1.458324925833572E-024
 -1.090000000000000E-002   -4.676894586020754E-024
 -1.080000000000000E-002   -8.012605390005332E-024
 -1.070000000000000E-002   -1.114225526738880E-023
 -1.060000000000000E-002   -1.372156427365082E-023
 -1.050000000000000E-002   -1.542097587292476E-023
 -1.040000000000000E-002   -1.596250317062683E-023
 -1.030000000000000E-002   -1.515280343106668E-023
 -1.020000000000000E-002   -1.290776324513726E-023
 -1.010000000000000E-002   -9.265062031340146E-024
 -1.000000000000000E-002   -4.382939037298252E-024
 -9.899999999999999E-003    1.474354049389290E-024
 -9.800000000000000E-003    7.961425210737620E-024
 -9.699999999999999E-003    1.468201575428168E-023
 -9.599999999999999E-003    2.121856760968738E-023
 -9.500000000000000E-003    2.715496567778076E-023
 -9.399999999999999E-003    3.208812118404699E-023
 -9.299999999999999E-003    3.562664743754681E-023
 -9.200000000000000E-003    3.737926064279206E-023
 -9.099999999999999E-003    3.693954153524576E-023
 -8.999999999999999E-003    3.387757350287865E-023
 -8.900000000000000E-003    2.775082750548610E-023
 -8.799999999999999E-003    1.814608679174547E-023
 -8.699999999999999E-003    4.760370591645239E-024
 -8.600000000000000E-003   -1.247851340352575E-023
 -8.499999999999999E-003   -3.326104506213497E-023
 -8.399999999999999E-003   -5.673572116576694E-023
 -8.300000000000000E-003   -8.137093636331876E-023
 -8.199999999999999E-003   -1.048787190019132E-022
 -8.100000000000000E-003   -1.242418431106791E-022
 -8.000000000000000E-003   -1.358807760304663E-022
 -7.899999999999999E-003   -1.359818004877406E-022
 -7.800000000000000E-003   -1.209850722472895E-022
 -7.699999999999999E-003   -8.820106969754700E-023
 -7.599999999999999E-003   -3.649060838436566E-023
 -7.499999999999999E-003    3.308669732241856E-023
 -7.399999999999999E-003    1.167729562711182E-022
 -7.299999999999999E-003    2.078865223073218E-022
 -7.199999999999999E-003    2.969826986272600E-022
 -7.100000000000000E-003    3.724775133006588E-022
 -6.999999999999999E-003    4.217538648547410E-022
 -6.899999999999999E-003    4.326941943518420E-022
 -6.800000000000000E-003    3.955008147019700E-022
 -6.699999999999999E-003    3.045846801545302E-022
 -6.599999999999999E-003    1.602435899326247E-022
 -6.499999999999999E-003   -3.017859233966961E-023
 -6.399999999999999E-003   -2.519413390100284E-022
 -6.299999999999999E-003   -4.835862584986502E-022
 -6.199999999999999E-003   -6.987443112693166E-022
 -6.100000000000000E-003   -8.690089617631071E-022
 -5.999999999999999E-003   -9.676259959205512E-022
 -5.899999999999999E-003   -9.735691237450844E-022
 -5.800000000000000E-003   -8.754255728816965E-022
 -5.699999999999999E-003   -6.744355904319465E-022
 -5.599999999999999E-003   -3.860465893193960E-022
 -5.499999999999999E-003   -3.946581658365593E-023
 -5.399999999999999E-003    3.250662782212378E-022
 -5.299999999999999E-003    6.612338313269237E-022
 -5.199999999999999E-003    9.234020771967574E-022
 -5.099999999999999E-003    1.074359003137370E-021
 -4.999999999999999E-003    1.092905970091992E-021
 -4.899999999999999E-003    9.799721195563073E-022
 -4.799999999999999E-003    7.619275402495897E-022
 -4.699999999999999E-003    4.899745034109730E-022
 -4.599999999999999E-003    2.349542551926041E-022
 -4.499999999999999E-003    7.754451075430986E-023
 -4.399999999999999E-003    9.457911172106927E-023
 -4.299999999999999E-003    3.430230708941451E-022
 -4.199999999999999E-003    8.438248766980412E-022
 -4.099999999999999E-003    1.568323266284047E-021
 -3.999999999999999E-003    2.430002469650924E-021
 -3.899999999999999E-003    3.284084775349979E-021
 -3.799999999999999E-003    3.936689218834743E-021
 -3.699999999999999E-003    4.164127849222391E-021
 -3.599999999999999E-003    3.741463221867125E-021
 -3.499999999999999E-003    2.477887271716144E-021
 -3.399999999999999E-003    2.550414792141673E-022
 -3.299999999999999E-003   -2.936724291633818E-021
 -3.199999999999999E-003   -6.969684125848394E-021
 -3.099999999999999E-003   -1.156304031064625E-020
 -2.999999999999999E-003   -1.628458965016904E-020
 -2.899999999999999E-003   -2.057247985516155E-020
 -2.799999999999999E-003   -2.377746344067004E-020
 -2.699999999999999E-003   -2.522346994756815E-020
 -2.599999999999999E-003   -2.428172746543246E-020
 -2.499999999999999E-003   -2.045146926917908E-020
 -2.399999999999999E-003   -1.343878147516969E-020
 -2.299999999999999E-003   -3.224657361946177E-021
 -2.199999999999999E-003    9.886109788007359E-021
 -2.099999999999999E-003    2.524188348645994E-020
 -1.999999999999999E-003    4.185123746875256E-020
 -1.899999999999999E-003    5.842138695562194E-020
 -1.799999999999999E-003    7.342631321778988E-020
 -1.699999999999999E-003    8.520022512450845E-020
 -1.599999999999999E-003    9.205033020107972E-020
 -1.499999999999999E-003    9.238199321268235E-020
 -1.399999999999999E-003    8.482952508721001E-020
 -1.299999999999999E-003    6.838701849087210E-020
 -1.199999999999999E-003    4.253467266689784E-020
 -1.099999999999999E-003    7.357415864248546E-021
 -9.999999999999989E-004   -3.634765093614312E-020
 -8.999999999999990E-004   -8.697900891773194E-020
 -7.999999999999990E-004   -1.420611428969509E-019
 -6.999999999999989E-004   -1.982086063487882E-019
 -5.999999999999990E-004   -2.511399159198924E-019
 -4.999999999999989E-004   -2.957618485426540E-019
 -3.999999999999989E-004   -3.263471471871939E-019
 -2.999999999999989E-004   -3.368284263474965E-019
 -1.999999999999989E-004   -3.212246635077705E-019
 -9.999999999999892E-005   -2.742058722779719E-019
  1.084202172485504E-018   -1.917835950214588E-019
  1.000000000000011E-004   -7.209216027933994E-020
  2.000000000000011E-004    8.379985561537169E-020
  3.000000000000011E-004    2.711355913365744E-019
  4.000000000000011E-004    4.808817967266692E-019
  5.000000000000011E-004    6.994294757248298E-019
  6.000000000000011E-004    9.087058479237670E-019
  7.000000000000011E-004    1.086804572421057E-018
  8.000000000000011E-004    1.209206654606364E-018
  9.000000000000012E-004    1.250609870592773E-018
  1.000000000000001E-003    1.187316608732759E-018
  1.100000000000001E-003    1.000051790224672E-018
  1.200000000000001E-003    6.769990067422707E-019
  1.300000000000001E-003    2.167699527285406E-019
  1.400000000000001E-003   -3.690310331435659E-019
  1.500000000000001E-003   -1.054014460238364E-018
  1.600000000000001E-003   -1.796342301535666E-018
  1.700000000000001E-003   -2.539495312003754E-018
  1.800000000000001E-003   -3.214679031161249E-018
  1.900000000000001E-003   -3.744939766911041E-018
  2.000000000000001E-003   -4.050896971730561E-018
  2.100000000000001E-003   -4.057814382359849E-018
  2.200000000000001E-003   -3.703554925060925E-018
  2.300000000000001E-003   -2.946798753772880E-018
  2.400000000000001E-003   -1.774786384377288E-018
  2.500000000000001E-003   -2.097766751236521E-019
  2.600000000000001E-003    1.686579663924565E-018
  2.700000000000001E-003    3.811682445394008E-018
  2.800000000000001E-003    6.023809860404589E-018
  2.900000000000001E-003    8.147685551334273E-018
  3.000000000000001E-003    9.983860035518617E-018
  3.100000000000001E-003    1.132167108774406E-017
  3.200000000000001E-003    1.195521896529743E-017
  3.300000000000001E-003    1.170149139418212E-017
  3.400000000000001E-003    1.041946349703601E-017
  3.500000000000001E-003    8.028810590328506E-018
  3.600000000000001E-003    4.526698024213444E-018
  3.700000000000001E-003    1.066633770572205E-021
  3.800000000000001E-003   -5.361143505678569E-018
  3.900000000000001E-003   -1.127221316712118E-017
  4.000000000000001E-003   -1.734945720882991E-017
  4.100000000000001E-003   -2.312940056121327E-017
  4.200000000000001E-003   -2.809062466434912E-017
  4.300000000000001E-003   -3.168499160672303E-017
  4.400000000000001E-003   -3.337637109226604E-017
  4.500000000000001E-003   -3.268520456139452E-017
  4.600000000000002E-003   -2.923656562368331E-017
  4.700000000000001E-003   -2.280867439035329E-017
  4.800000000000001E-003   -1.337813135845803E-017
  4.900000000000002E-003   -1.157773838745211E-018
  5.000000000000001E-003    1.337733997817527E-017
  5.100000000000001E-003    2.948010937648934E-017
  5.200000000000001E-003    4.614167757950642E-017
  5.300000000000002E-003    6.212489571901831E-017
  5.400000000000001E-003    7.602265718049730E-017
  5.500000000000001E-003    8.634108153345023E-017
  5.600000000000002E-003    9.160543694765698E-017
  5.700000000000001E-003    9.048410578737721E-017
  5.800000000000001E-003    8.192371236773731E-017
  5.900000000000002E-003    6.528594456506281E-017
  6.000000000000001E-003    4.047481304327286E-017
  6.100000000000001E-003    8.041607440412620E-018
  6.200000000000002E-003   -3.074526638310656E-017
  6.300000000000002E-003   -7.387804259353413E-017
  6.400000000000001E-003   -1.186452015971671E-016
  6.500000000000001E-003   -1.617320419744103E-016
  6.600000000000002E-003   -1.993889818123717E-016
  6.700000000000001E-003   -2.276646547248171E-016
  6.800000000000001E-003   -2.426953324647076E-016
  6.900000000000002E-003   -2.410352760053131E-016
  7.000000000000001E-003   -2.200072305111951E-016
  7.100000000000001E-003   -1.780469419839863E-016
  7.200000000000002E-003   -1.150121560118288E-016
  7.300000000000002E-003   -3.242491120947655E-017
  7.400000000000001E-003    6.638318035247079E-017
  7.500000000000001E-003    1.762494087184320E-016
  7.600000000000002E-003    2.903029295140460E-016
  7.700000000000001E-003    4.002439908715675E-016
  7.800000000000001E-003    4.967802622033051E-016
  7.900000000000001E-003    5.702090461931942E-016
  8.000000000000002E-003    6.111199091790434E-016
  8.100000000000001E-003    6.111804986488376E-016
  8.200000000000001E-003    5.639553569895527E-016
  8.300000000000002E-003    4.656984631269768E-016
  8.400000000000001E-003    3.160536484674374E-016
  8.500000000000002E-003    1.185953754511576E-016
  8.600000000000002E-003   -1.188556578997830E-016
  8.700000000000001E-003   -3.841985966882219E-016
  8.800000000000002E-003   -6.613443548454756E-016
  8.900000000000002E-003   -9.308577358594651E-016
  9.000000000000001E-003   -1.170951852423651E-015
  9.100000000000002E-003   -1.358810105480067E-015
  9.200000000000002E-003   -1.472181884870565E-015
  9.300000000000001E-003   -1.491170649435307E-015
  9.400000000000002E-003   -1.400105483573946E-015
  9.500000000000001E-003   -1.189364906237255E-015
  9.600000000000001E-003   -8.570062817170423E-016
  9.700000000000002E-003   -4.100487731529766E-016
  9.800000000000001E-003    1.347423970056496E-016
  9.900000000000001E-003    7.507008353679047E-016
  1.000000000000000E-002    1.401840158964730E-015
  1.010000000000000E-002    2.044232552184673E-015
  1.020000000000000E-002    2.628197061855800E-015
  1.030000000000000E-002    3.101245585583571E-015
  1.040000000000000E-002    3.411670189690984E-015
  1.050000000000000E-002    3.512587964843801E-015
  1.060000000000000E-002    3.366195566352798E-015
  1.070000000000000E-002    2.947935319516232E-015
  1.080000000000000E-002    2.250238998704416E-015
  1.090000000000000E-002    1.285498062515615E-015
  1.100000000000000E-002    8.792705561456838E-017
  1.110000000000000E-002   -1.285983335334334E-015
  1.120000000000000E-002   -2.758647573531076E-015
  1.130000000000000E-002   -4.234336437139468E-015
  1.140000000000000E-002   -5.603909728671201E-015
  1.150000000000000E-002   -6.751206909080493E-015
  1.160000000000000E-002   -7.560824561369535E-015
  1.170000000000000E-002   -7.926870791139463E-015
  1.180000000000000E-002   -7.762158022237706E-015
  1.190000000000000E-002   -7.007189081940860E-015
  1.200000000000000E-002   -5.638226069159161E-015
  1.210000000000000E-002   -3.673726542808657E-015
  1.220000000000000E-002   -1.178442600244067E-015
  1.230000000000000E-002    1.735403002730213E-015
  1.240000000000000E-002    4.910324700005140E-015
  1.250000000000000E-002    8.149407236687276E-015
  1.260000000000000E-002    1.122578032802792E-014
  1.270000000000000E-002    1.389546500783169E-014
  1.280000000000000E-002    1.591306138630283E-014
  1.290000000000000E-002    1.704944906714113E-014
  1.300000000000000E-002    1.711045772511934E-014
  1.310000000000000E-002    1.595525114798646E-014
  1.320000000000000E-002    1.351305712088280E-014
  1.330000000000000E-002    9.796824273986572E-015
  1.340000000000000E-002    4.912485779281337E-015
  1.350000000000000E-002   -9.373789898605121E-016
  1.360000000000000E-002   -7.456383344499626E-015
  1.370000000000000E-002   -1.426422532445485E-014
  1.380000000000000E-002   -2.091375557442157E-014
  1.390000000000000E-002   -2.691481360315221E-014
  1.400000000000000E-002   -3.176394074631348E-014
  1.410000000000000E-002   -3.497851285355829E-014
  1.420000000000000E-002   -3.613340107984357E-014
  1.430000000000000E-002   -3.489785708210378E-014
  1.440000000000000E-002   -3.107000232639790E-014
  1.450000000000000E-002   -2.460626186743581E-014
  1.460000000000000E-002   -1.564303205754976E-014
  1.470000000000000E-002   -4.508193900842677E-015
  1.480000000000000E-002    8.279532578090396E-015
  1.490000000000000E-002    2.202472340118014E-014
  1.500000000000000E-002    3.588343698862210E-014
  1.510000000000000E-002    4.890508583234550E-014
  1.520000000000000E-002    6.008658001452546E-014
  1.530000000000000E-002    6.843638934470177E-014
  1.540000000000000E-002    7.304509016991737E-014
  1.550000000000000E-002    7.315822345361410E-014
  1.560000000000000E-002    6.824660716812308E-014
  1.570000000000000E-002    5.806883825687175E-014
  1.580000000000000E-002    4.272076437645162E-014
  1.590000000000000E-002    2.266703150818266E-014
  1.600000000000000E-002   -1.249572810916137E-015
  1.610000000000000E-002   -2.782408334961493E-014
  1.620000000000000E-002   -5.553227042042927E-014
  1.630000000000000E-002   -8.260053766588657E-014
  1.640000000000000E-002   -1.071008472491755E-013
  1.650000000000000E-002   -1.270668543521895E-013
  1.660000000000000E-002   -1.406254161584297E-013
  1.670000000000000E-002   -1.461360378231281E-013
  1.680000000000000E-002   -1.423293923436483E-013
  1.690000000000000E-002   -1.284352594482165E-013
  1.700000000000000E-002   -1.042898837065398E-013
  1.710000000000000E-002   -7.041289221210870E-014
  1.720000000000000E-002   -2.804565015761505E-014
  1.730000000000000E-002    2.085622140224596E-014
  1.740000000000000E-002    7.368013257502165E-014
  1.750000000000000E-002    1.272651070929356E-013
  1.760000000000000E-002    1.780595518142443E-013
  1.770000000000000E-002    2.223225540797690E-013
  1.780000000000000E-002    2.563593775321245E-013
  1.790000000000000E-002    2.767786024236097E-013
  1.800000000000000E-002    2.807554593078428E-013
  1.810000000000000E-002    2.662839984945710E-013
  1.820000000000000E-002    2.323994803072541E-013
  1.830000000000000E-002    1.793526002920649E-013
  1.840000000000000E-002    1.087188986522560E-013
  1.850000000000000E-002    2.342887862119368E-014
  1.860000000000000E-002   -7.229144924818429E-014
  1.870000000000000E-002   -1.730744858098524E-013