 -4.000000000000000E-002    0.000000000000000E+000
 -3.990000000000000E-002    0.000000000000000E+000
 -3.980000000000000E-002    0.000000000000000E+000
 -3.970000000000000E-002    0.000000000000000E+000
 -3.960000000000000E-002    0.000000000000000E+000
 -3.950000000000000E-002    3.456251561536818E-022
 -3.940000000000000E-002    3.891791355794819E-021
 -3.930000000000000E-002    2.379918656635651E-020
 -3.920000000000000E-002    1.044400934991525E-019
 -3.910000000000000E-002    3.671429710655547E-019
 -3.900000000000000E-002    1.095334478092903E-018
 -3.890000000000000E-002    2.871633356289067E-018
 -3.880000000000000E-002    6.768346534148256E-018
 -3.870000000000000E-002    1.456873350000188E-017
 -3.860000000000000E-002    2.895781651436123E-017
 -3.850000000000000E-002    5.357125111999717E-017
 -3.840000000000000E-002    9.273767784979623E-017
 -3.830000000000000E-002    1.507095857786632E-016
 -3.820000000000000E-002    2.301702683444053E-016
 -3.810000000000000E-002    3.298523688568076E-016
 -3.800000000000000E-002    4.412257642029577E-016
 -3.790000000000000E-002    5.444184341228518E-016
 -3.780000000000000E-002    6.038171356115615E-016
 -3.770000000000000E-002    5.641301856977857E-016
 -3.760000000000000E-002    3.480365749051696E-016
 -3.750000000000000E-002   -1.431722407628875E-016
 -3.740000000000000E-002   -1.024400081407038E-015
 -3.730000000000000E-002   -2.415506836916122E-015
 -3.720000000000000E-002   -4.422858866876593E-015
 -3.710000000000000E-002   -7.113159828217875E-015
 -3.700000000000000E-002   -1.048002594131363E-014
 -3.690000000000000E-002   -1.440504983368848E-014
 -3.680000000000000E-002   -1.861658180619976E-014
 -3.670000000000000E-002   -2.265105350000578E-014
 -3.660000000000000E-002   -2.582320609387019E-014
 -3.650000000000000E-002   -2.721285430999016E-014
 -3.640000000000000E-002   -2.567664575180767E-014
 -3.630000000000000E-002   -1.989332196499131E-014
 -3.620000000000000E-002   -8.450154502859135E-015
 -3.610000000000000E-002    1.002392047540815E-014
 -3.600000000000000E-002    3.667637246047711E-014
 -3.590000000000000E-002    7.220331796345955E-014
 -3.580000000000000E-002    1.165853837731305E-013
 -3.570000000000000E-002    1.688042952707953E-013
 -3.560000000000000E-002    2.265659573609211E-013
 -3.550000000000000E-002    2.860641092236549E-013
 -3.540000000000000E-002    3.418258623450432E-013
 -3.530000000000000E-002    3.866854306609453E-013
 -3.520000000000000E-002    4.119324830927448E-013
 -3.510000000000000E-002    4.076769094804653E-013
 -3.500000000000000E-002    3.634592605091851E-013
 -3.490000000000000E-002    2.691170221132779E-013
 -3.480000000000000E-002    1.158894465869989E-013
 -3.470000000000000E-002   -1.022889110097900E-013
 -3.460000000000000E-002   -3.873922674608662E-013
 -3.450000000000000E-002   -7.359269329990949E-013
 -3.440000000000000E-002   -1.137725127550301E-012
 -3.430000000000000E-002   -1.575079533764466E-012
 -3.420000000000000E-002   -2.022390445189135E-012
 -3.410000000000000E-002   -2.446479279049888E-012
 -3.400000000000000E-002   -2.807680133165163E-012
 -3.390000000000000E-002   -3.061756946550908E-012
 -3.380000000000000E-002   -3.162614155240271E-012
 -3.370000000000000E-002   -3.065672034358719E-012
 -3.360000000000000E-002   -2.731688228177928E-012
 -3.350000000000000E-002   -2.130724109127866E-012
 -3.340000000000000E-002   -1.245900075934690E-012
 -3.330000000000000E-002   -7.656678390559142E-014
 -3.320000000000000E-002    1.359454896947548E-012
 -3.310000000000000E-002    3.024835573192378E-012
 -3.300000000000000E-002    4.863055135204867E-012
 -3.290000000000000E-002    6.800073788825001E-012
 -3.280000000000000E-002    8.747201500122950E-012
 -3.270000000000000E-002    1.060485048949968E-011
 -3.260000000000000E-002    1.226674309845199E-011
 -3.250000000000000E-002    1.362410163440610E-011
 -3.240000000000000E-002    1.456936996863812E-011
 -3.230000000000000E-002    1.499913552687412E-011
 -3.220000000000000E-002    1.481612536751372E-011
 -3.210000000000000E-002    1.393040072355280E-011
 -3.200000000000000E-002    1.226016689694508E-011
 -3.190000000000000E-002    9.732877360822235E-012
 -3.180000000000000E-002    6.287485433150821E-012
 -3.170000000000000E-002    1.878760115562136E-012
 -3.160000000000000E-002   -3.515553659439303E-012
 -3.150000000000000E-002   -9.884259118521749E-012
 -3.140000000000000E-002   -1.716896586043240E-011
 -3.130000000000000E-002   -2.524781183219054E-011
 -3.120000000000000E-002   -3.391812821975158E-011
 -3.110000000000000E-002   -4.288028739649998E-011
 -3.100000000000000E-002   -5.172562273867092E-011
 -3.090000000000000E-002   -5.993165761964870E-011
 -3.080000000000000E-002   -6.686788331763523E-011
 -3.070000000000000E-002   -7.181492416942649E-011
 -3.060000000000000E-002   -7.399892988213054E-011
 -3.050000000000000E-002   -7.264165516812655E-011
 -3.040000000000000E-002   -6.702483534000384E-011
 -3.030000000000000E-002   -5.656548684868335E-011
 -3.020000000000000E-002   -4.089663908683425E-011
 -3.010000000000000E-002   -1.994624308797976E-011
 -3.000000000000000E-002    5.994335216739889E-012
 -2.990000000000000E-002    3.622131689616215E-011
 -2.980000000000000E-002    6.959778338123625E-011
 -2.970000000000000E-002    1.045682927488362E-010
 -2.960000000000000E-002    1.392136219408221E-010
 -2.950000000000000E-002    1.713467063449261E-010
 -2.940000000000000E-002    1.986468111147462E-010
 -2.930000000000000E-002    2.188246359009340E-010
 -2.920000000000000E-002    2.298065097512731E-010
 -2.910000000000000E-002    2.299226587426172E-010
 -2.900000000000000E-002    2.180819359965047E-010
 -2.890000000000000E-002    1.939147070420330E-010
 -2.880000000000000E-002    1.578666375613843E-010
 -2.870000000000000E-002    1.112293744707146E-010
 -2.860000000000000E-002    5.609880322249881E-011
 -2.850000000000000E-002   -4.741750906588081E-012
 -2.840000000000000E-002   -6.800857358092607E-011
 -2.830000000000000E-002   -1.301628272204559E-010
 -2.820000000000000E-002   -1.876940613548835E-010
 -2.810000000000000E-002   -2.374170693587138E-010
 -2.800000000000000E-002   -2.767531638799671E-010
 -2.790000000000000E-002   -3.039661652942770E-010
 -2.780000000000000E-002   -3.183261296200658E-010
 -2.770000000000000E-002   -3.201783573825611E-010
 -2.760000000000000E-002   -3.109044803513328E-010
 -2.750000000000000E-002   -2.927721498215089E-010
 -2.740000000000000E-002   -2.686817663656306E-010
 -2.730000000000000E-002   -2.418306569511758E-010
 -2.720000000000000E-002   -2.153252620726710E-010
 -2.710000000000000E-002   -1.917805899377530E-010
 -2.700000000000000E-002   -1.729502865336731E-010
 -2.690000000000000E-002   -1.594318846214634E-010
 -2.680000000000000E-002   -1.504863417259533E-010
 -2.670000000000000E-002   -1.440030857424610E-010
 -2.660000000000000E-002   -1.366277954764200E-010
 -2.650000000000000E-002   -1.240547534340985E-010
 -2.640000000000000E-002   -1.014675351093835E-010
 -2.630000000000000E-002   -6.409427057467393E-011
 -2.620000000000000E-002   -7.828526437995782E-012
 -2.610000000000000E-002    7.014475674429048E-011
 -2.600000000000000E-002    1.707860101325679E-010
 -2.590000000000000E-002    2.927661032652211E-010
 -2.580000000000000E-002    4.322197120960545E-010
 -2.570000000000000E-002    5.827325279628309E-010
 -2.560000000000000E-002    7.355874275554346E-010
 -2.550000000000000E-002    8.802702224375044E-010
 -2.540000000000000E-002    1.005209749386838E-009
 -2.530000000000000E-002    1.098700519711230E-009
 -2.520000000000000E-002    1.149932425165235E-009
 -2.510000000000000E-002    1.150035881506734E-009
 -2.500000000000000E-002    1.093040269208543E-009
 -2.490000000000000E-002    9.766445794742721E-010
 -2.480000000000000E-002    8.027089252422187E-010
 -2.470000000000000E-002    5.773975977429351E-010
 -2.460000000000000E-002    3.109327497149754E-010
 -2.450000000000000E-002    1.695413448758813E-011
 -2.440000000000000E-002   -2.884795978164248E-010
 -2.430000000000000E-002   -5.881742345883110E-010
 -2.420000000000000E-002   -8.652594685930026E-010
 -2.410000000000000E-002   -1.104688616350424E-009
 -2.400000000000000E-002   -1.294630501674028E-009
 -2.390000000000000E-002   -1.427602725396562E-009
 -2.380000000000000E-002   -1.501212206331950E-009
 -2.370000000000000E-002   -1.518399311789977E-009
 -2.360000000000000E-002   -1.487124504235004E-009
 -2.350000000000000E-002   -1.419491109581787E-009
 -2.340000000000000E-002   -1.330356906863056E-009
 -2.330000000000000E-002   -1.235545661142024E-009
 -2.320000000000000E-002   -1.149822487272849E-009
 -2.310000000000000E-002   -1.084836424303836E-009
 -2.300000000000000E-002   -1.047258248418268E-009
 -2.290000000000000E-002   -1.037339369849609E-009
 -2.280000000000000E-002   -1.048099317058306E-009
 -2.270000000000000E-002   -1.065299203746344E-009
 -2.260000000000000E-002   -1.068297277255671E-009
 -2.250000000000000E-002   -1.031794653112138E-009
 -2.240000000000000E-002   -9.283914717505036E-010
 -2.230000000000000E-002   -7.317780970466614E-010
 -2.220000000000000E-002   -4.203085897965661E-010
 -2.210000000000000E-002    1.937635598944902E-011
 -2.200000000000000E-002    5.890310156301698E-010
 -2.190000000000000E-002    1.276171754940655E-009
 -2.180000000000000E-002    2.052470700837313E-009
 -2.170000000000000E-002    2.873456990083830E-009
 -2.160000000000000E-002    3.679712203421447E-009
 -2.150000000000000E-002    4.399616559809730E-009
 -2.140000000000000E-002    4.953568918325186E-009
 -2.130000000000000E-002    5.259453879789854E-009
 -2.120000000000000E-002    5.238994536639784E-009
 -2.110000000000000E-002    4.824522616763936E-009
 -2.100000000000000E-002    3.965609895699305E-009
 -2.090000000000000E-002    2.634985093679131E-009
 -2.080000000000000E-002    8.331742161155516E-010
 -2.070000000000000E-002   -1.408619789830801E-009
 -2.060000000000000E-002   -4.027755760463484E-009
 -2.050000000000000E-002   -6.931710424847993E-009
 -2.040000000000000E-002   -1.000194510442615E-008
 -2.030000000000000E-002   -1.309987775889480E-008
 -2.020000000000000E-002   -1.607456012883499E-008
 -2.010000000000000E-002   -1.877149274732056E-008
 -2.000000000000000E-002   -2.104187949137471E-008
 -1.990000000000000E-002   -2.275156939812824E-008
 -1.980000000000000E-002   -2.378896870850236E-008
 -1.970000000000000E-002   -2.407124881221349E-008
 -1.960000000000000E-002   -2.354837641616831E-008
 -1.950000000000000E-002   -2.220469359302147E-008
 -1.940000000000000E-002   -2.005801153854140E-008
 -1.930000000000000E-002   -1.715652797572032E-008
 -1.920000000000000E-002   -1.357401751214012E-008
 -1.910000000000000E-002   -9.404128817193947E-009
 -1.900000000000000E-002   -4.754624531151419E-009
 -1.890000000000000E-002    2.573691414921599E-010
 -1.880000000000000E-002    5.508266063572182E-009
 -1.870000000000000E-002    1.086808577197252E-008
 -1.860000000000000E-002    1.619723612535171E-008
 -1.850000000000000E-002    2.133962865940840E-008
 -1.840000000000000E-002    2.611222941787427E-008
 -1.830000000000000E-002    3.029159618319437E-008
 -1.820000000000000E-002    3.359815829012298E-008
 -1.810000000000000E-002    3.567952281007771E-008
 -1.800000000000000E-002    3.609419927614193E-008
 -1.790000000000000E-002    3.429735324591480E-008
 -1.780000000000000E-002    2.963007768092344E-008
 -1.770000000000000E-002    2.131361861983432E-008
 -1.760000000000000E-002    8.449425188947137E-009
 -1.750000000000000E-002   -9.973907545751630E-009
 -1.740000000000000E-002   -3.506714499515707E-008
 -1.730000000000000E-002   -6.802073392387903E-008
 -1.720000000000000E-002   -1.100795470037127E-007
 -1.710000000000000E-002   -1.625142781593582E-007
 -1.700000000000000E-002   -2.265907818790788E-007
 -1.690000000000000E-002   -3.035396848951867E-007
 -1.680000000000000E-002   -3.945289448308031E-007
 -1.670000000000000E-002   -5.006410120204969E-007
 -1.660000000000000E-002   -6.228559905754560E-007
 -1.650000000000000E-002   -7.620437216673156E-007
 -1.640000000000000E-002   -9.189633129988040E-007
 -1.630000000000000E-002   -1.094271869445334E-006
 -1.620000000000000E-002   -1.288540974125375E-006
 -1.610000000000000E-002   -1.502279718535979E-006
 -1.600000000000000E-002   -1.735961997115180E-006
 -1.590000000000000E-002   -1.990056913007170E-006
 -1.580000000000000E-002   -2.265058204423502E-006
 -1.570000000000000E-002   -2.561511623663239E-006
 -1.560000000000000E-002   -2.880037812611648E-006
 -1.550000000000000E-002   -3.221348348664372E-006
 -1.540000000000000E-002   -3.586254451311413E-006
 -1.530000000000000E-002   -3.975667064998258E-006
 -1.520000000000000E-002   -4.390592604215124E-006
 -1.510000000000000E-002   -4.832118316219797E-006
 -1.500000000000000E-002   -5.301397166368843E-006
 -1.490000000000000E-002   -5.799627673360689E-006
 -1.480000000000000E-002   -6.328036662747648E-006
 -1.470000000000000E-002   -6.887865577285594E-006
 -1.460000000000000E-002   -7.480358824255824E-006
 -1.450000000000000E-002   -8.106763344692247E-006
 -1.440000000000000E-002   -8.768336134810561E-006
 -1.430000000000000E-002   -9.466361709292549E-006
 -1.420000000000000E-002   -1.020217427302876E-005
 -1.410000000000000E-002   -1.097719482432246E-005
 -1.400000000000000E-002   -1.179296779106667E-005
 -1.390000000000000E-002   -1.265120699078122E-005
 -1.380000000000000E-002   -1.355383839153381E-005
 -1.370000000000000E-002   -1.450304248039678E-005
 -1.360000000000000E-002   -1.550129108110128E-005
 -1.350000000000000E-002   -1.655137813715385E-005
 -1.340000000000000E-002   -1.765643968721085E-005
 -1.330000000000000E-002   -1.881996354207266E-005
 -1.320000000000000E-002   -2.004578885400569E-005
 -1.310000000000000E-002   -2.133810161823437E-005
 -1.300000000000000E-002   -2.270140143713588E-005
 -1.290000000000000E-002   -2.414048491181592E-005
 -1.280000000000000E-002   -2.566040979788637E-005
 -1.270000000000000E-002   -2.726645886066799E-005
 -1.260000000000000E-002   -2.896410801245191E-005
 -1.250000000000000E-002   -3.075899306601066E-005
 -1.240000000000000E-002   -3.265688705533528E-005
 -1.230000000000000E-002   -3.466368361521383E-005
 -1.220000000000000E-002   -3.678538369171578E-005
 -1.210000000000000E-002   -3.902810146080031E-005
 -1.200000000000000E-002   -4.139807996368266E-005
 -1.190000000000000E-002   -4.390170609384005E-005
 -1.180000000000000E-002   -4.654555299545667E-005
 -1.170000000000000E-002   -4.933640631551243E-005
 -1.160000000000000E-002   -5.228132541796785E-005
 -1.150000000000000E-002   -5.538769143400130E-005
 -1.140000000000000E-002   -5.866325295375723E-005
 -1.130000000000000E-002   -6.211618848875673E-005
 -1.120000000000000E-002   -6.575515797246043E-005
 -1.110000000000000E-002   -6.958935308583214E-005
 -1.100000000000000E-002   -7.362854639892131E-005
 -1.090000000000000E-002   -7.788311943018151E-005
 -1.080000000000000E-002   -8.236410586721076E-005
 -1.070000000000000E-002   -8.708322455023621E-005
 -1.060000000000000E-002   -9.205285523569156E-005
 -1.050000000000000E-002   -9.728607981699704E-005
 -1.040000000000000E-002   -1.027966616817496E-004
 -1.030000000000000E-002   -1.085990367726412E-004
 -1.020000000000000E-002   -1.147082996773519E-004
 -1.010000000000000E-002   -1.211401517051165E-004
 -1.000000000000000E-002   -1.279109228752888E-004
 -9.899999999999999E-003   -1.350375170989316E-004
 -9.800000000000000E-003   -1.425373938523338E-004
 -9.699999999999999E-003   -1.504285776607161E-004
 -9.599999999999999E-003   -1.587296169235097E-004
 -9.500000000000000E-003   -1.674596707768252E-004
 -9.399999999999999E-003   -1.766384739934745E-004
 -9.299999999999999E-003   -1.862864053956743E-004
 -9.200000000000000E-003   -1.964245953567000E-004
 -9.099999999999999E-003   -2.070749198649922E-004
 -8.999999999999999E-003   -2.182601703764370E-004
 -8.900000000000000E-003   -2.300041341194543E-004
 -8.799999999999999E-003   -2.423316872993792E-004
 -8.699999999999999E-003   -2.552689019137246E-004
 -8.600000000000000E-003   -2.688431373414754E-004
 -8.499999999999999E-003   -2.830831031020563E-004
 -8.399999999999999E-003   -2.980189417869789E-004
 -8.300000000000000E-003   -3.136822398626147E-004
 -8.199999999999999E-003   -3.301060308456604E-004
 -8.100000000000000E-003   -3.473248325831018E-004
 -8.000000000000000E-003   -3.653744734650069E-004
 -7.899999999999999E-003   -3.842921327002234E-004
 -7.800000000000000E-003   -4.041162434970865E-004
 -7.699999999999999E-003   -4.248864498431459E-004
 -7.599999999999999E-003   -4.466434027517637E-004
 -7.499999999999999E-003   -4.694288811203708E-004
 -7.399999999999999E-003   -4.932855698689323E-004
 -7.299999999999999E-003   -5.182572131949127E-004
 -7.199999999999999E-003   -5.443885529121876E-004
 -7.100000000000000E-003   -5.717254435979415E-004
 -6.999999999999999E-003   -6.003148740777351E-004
 -6.899999999999999E-003   -6.302052417618150E-004
 -6.800000000000000E-003   -6.614463938168380E-004
 -6.699999999999999E-003   -6.940899832504540E-004
 -6.599999999999999E-003   -7.281895094329788E-004
 -6.499999999999999E-003   -7.638005294649751E-004
 -6.399999999999999E-003   -8.009809188818937E-004
 -6.299999999999999E-003   -8.397908907666551E-004
 -6.199999999999999E-003   -8.802932546808800E-004
 -6.100000000000000E-003   -9.225533343605119E-004
 -5.999999999999999E-003   -9.666390672357241E-004
 -5.899999999999999E-003   -1.012620899069246E-003
 -5.800000000000000E-003   -1.060571863106690E-003
 -5.699999999999999E-003   -1.110567151855996E-003
 -5.599999999999999E-003   -1.162684343081653E-003
 -5.499999999999999E-003   -1.217002961181749E-003
 -5.399999999999999E-003   -1.273604577529990E-003
 -5.299999999999999E-003   -1.332572283879709E-003
 -5.199999999999999E-003   -1.393991227372971E-003
 -5.099999999999999E-003   -1.457947950614246E-003
 -4.999999999999999E-003   -1.524530601344678E-003
 -4.899999999999999E-003   -1.593828997824889E-003
 -4.799999999999999E-003   -1.665934875519297E-003
 -4.699999999999999E-003   -1.740941936703353E-003
 -4.599999999999999E-003   -1.818945859005019E-003
 -4.499999999999999E-003   -1.900044592757583E-003
 -4.399999999999999E-003   -1.984338702249921E-003
 -4.299999999999999E-003   -2.071931591291724E-003
 -4.199999999999999E-003   -2.162929300070092E-003
 -4.099999999999999E-003   -2.257441186114695E-003
 -3.999999999999999E-003   -2.355579478752846E-003
 -3.899999999999999E-003   -2.457460040132440E-003
 -3.799999999999999E-003   -2.563201406977081E-003
 -3.699999999999999E-003   -2.672925703057296E-003
 -3.599999999999999E-003   -2.786758007120689E-003
 -3.499999999999999E-003   -2.904826135675722E-003
 -3.399999999999999E-003   -3.027260601028931E-003
 -3.299999999999999E-003   -3.154194222230429E-003
 -3.199999999999999E-003   -3.285762215325332E-003
 -3.099999999999999E-003   -3.422101877666297E-003
 -2.999999999999999E-003   -3.563352084934219E-003
 -2.899999999999999E-003   -3.709654124606069E-003
 -2.799999999999999E-003   -3.861150039034382E-003
 -2.699999999999999E-003   -4.017983986645840E-003
 -2.599999999999999E-003   -4.180301497854459E-003
 -2.499999999999999E-003   -4.348249635851039E-003
 -2.399999999999999E-003   -4.521977415678756E-003
 -2.299999999999999E-003   -4.701635065389604E-003
 -2.199999999999999E-003   -4.887375091224411E-003
 -2.099999999999999E-003   -5.079351468040654E-003
 -1.999999999999999E-003   -5.277719961628297E-003
 -1.899999999999999E-003   -5.482638603310435E-003
 -1.799999999999999E-003   -5.694267122746620E-003
 -1.699999999999999E-003   -5.912766790140013E-003
 -1.599999999999999E-003   -6.138300375720639E-003
 -1.499999999999999E-003   -6.371032554914349E-003
 -1.399999999999999E-003   -6.611128323746539E-003
 -1.299999999999999E-003   -6.858754628994095E-003
 -1.199999999999999E-003   -7.114078567322814E-003
 -1.099999999999999E-003   -7.377267593624268E-003
 -9.999999999999989E-004   -7.648489044410308E-003
 -8.999999999999990E-004   -7.927910271371295E-003
 -7.999999999999990E-004   -8.215698886102577E-003
 -6.999999999999989E-004   -8.512020701092360E-003
 -5.999999999999990E-004   -8.817041362313118E-003
 -4.999999999999989E-004   -9.130926162055367E-003
 -3.999999999999989E-004   -9.453837811011230E-003
 -2.999999999999989E-004   -9.785937889921471E-003
 -1.999999999999989E-004   -1.012738666521542E-002
 -9.999999999999892E-005   -1.047834300639314E-002
  1.084202172485504E-018   -1.083896315035872E-002
  1.000000000000011E-004   -1.120940088308391E-002
  2.000000000000011E-004   -1.158980826889425E-002
  3.000000000000011E-004   -1.198033396851202E-002
  4.000000000000011E-004   -1.238112421462672E-002
  5.000000000000011E-004   -1.279232019182052E-002
  6.000000000000011E-004   -1.321406029807156E-002
  7.000000000000011E-004   -1.364647829554354E-002
  8.000000000000011E-004   -1.408970288163694E-002
  9.000000000000012E-004   -1.454385858691238E-002
  1.000000000000001E-003   -1.500906260423912E-002
  1.100000000000001E-003   -1.548542652921565E-002
  1.200000000000001E-003   -1.597305680622419E-002
  1.300000000000001E-003   -1.647205060551371E-002
  1.400000000000001E-003   -1.698249991260247E-002
  1.500000000000001E-003   -1.750448617339126E-002
  1.600000000000001E-003   -1.803808687786785E-002
  1.700000000000001E-003   -1.858336657234258E-002
  1.800000000000001E-003   -1.914038500174967E-002
  1.900000000000001E-003   -1.970919073828181E-002
  2.000000000000001E-003   -2.028982177866502E-002
  2.100000000000001E-003   -2.088230719252649E-002
  2.200000000000001E-003   -2.148666415664033E-002
  2.300000000000001E-003   -2.210289938422800E-002
  2.400000000000001E-003   -2.273100631363334E-002
  2.500000000000001E-003   -2.337096712260868E-002
  2.600000000000001E-003   -2.402275072103545E-002
  2.700000000000001E-003   -2.468630883821621E-002
  2.800000000000001E-003   -2.536158111067403E-002
  2.900000000000001E-003   -2.604849186434337E-002
  3.000000000000001E-003   -2.674694734231214E-002
  3.100000000000001E-003   -2.745683751939408E-002
  3.200000000000001E-003   -2.817803527033330E-002
  3.300000000000001E-003   -2.891039412305478E-002
  3.400000000000001E-003   -2.965375092158357E-002
  3.500000000000001E-003   -3.040791997483607E-002
  3.600000000000001E-003   -3.117269942067953E-002
  3.700000000000001E-003   -3.194786595787821E-002
  3.800000000000001E-003   -3.273317775738592E-002
  3.900000000000001E-003   -3.352836761900339E-002
  4.000000000000001E-003   -3.433315302091305E-002
  4.100000000000001E-003   -3.514722293279202E-002
  4.200000000000001E-003   -3.597024872550048E-002
  4.300000000000001E-003   -3.680187713406349E-002
  4.400000000000001E-003   -3.764173329310869E-002
  4.500000000000001E-003   -3.848941349981067E-002
  4.600000000000002E-003   -3.934449142652771E-002
  4.700000000000001E-003   -4.020651316025863E-002
  4.800000000000001E-003   -4.107500081522693E-002
  4.900000000000002E-003   -4.194944635182975E-002
  5.000000000000001E-003   -4.282931312079172E-002
  5.100000000000001E-003   -4.371403586453042E-002
  5.200000000000001E-003   -4.460301862572837E-002
  5.300000000000002E-003   -4.549563594529400E-002
  5.400000000000001E-003   -4.639123145506225E-002
  5.500000000000001E-003   -4.728911556624735E-002
  5.600000000000002E-003   -4.818856619214322E-002
  5.700000000000001E-003   -4.908883080428678E-002
  5.800000000000001E-003   -4.998912522457609E-002
  5.900000000000002E-003   -5.088862876479280E-002
  6.000000000000001E-003   -5.178649206066916E-002
  6.100000000000001E-003   -5.268183030284236E-002
  6.200000000000002E-003   -5.357372276695473E-002
  6.300000000000002E-003   -5.446122085519971E-002
  6.400000000000001E-003   -5.534333663336904E-002
  6.500000000000001E-003   -5.621905118540127E-002
  6.600000000000002E-003   -5.708731204855239E-002
  6.700000000000001E-003   -5.794702896209067E-002
  6.800000000000001E-003   -5.879708004397061E-002
  6.900000000000002E-003   -5.963630393945621E-002
  7.000000000000001E-003   -6.046350655452345E-002
  7.100000000000001E-003   -6.127746102260723E-002
  7.200000000000002E-003   -6.207689870794349E-002
  7.300000000000002E-003   -6.286051531422758E-002
  7.400000000000001E-003   -6.362697407721161E-002
  7.500000000000001E-003   -6.437489851939675E-002
  7.600000000000002E-003   -6.510287843828129E-002
  7.700000000000001E-003   -6.580946935475988E-002
  7.800000000000001E-003   -6.649319136550128E-002
  7.900000000000001E-003   -6.715252274012221E-002
  8.000000000000002E-003   -6.778591722916623E-002
  8.100000000000001E-003   -6.839178090197044E-002
  8.200000000000001E-003   -6.896849813673388E-002
  8.300000000000002E-003   -6.951440670257807E-002
  8.400000000000001E-003   -7.002782516330046E-002
  8.500000000000002E-003   -7.050703078763124E-002
  8.600000000000002E-003   -7.095027434407475E-002
  8.700000000000001E-003   -7.135576970795313E-002
  8.800000000000002E-003   -7.172170019127215E-002
  8.900000000000002E-003   -7.204622653009798E-002
  9.000000000000001E-003   -7.232747221597496E-002
  9.100000000000002E-003   -7.256354116653757E-002
  9.200000000000002E-003   -7.275250847704694E-002
  9.300000000000001E-003   -7.289241876582797E-002
  9.400000000000002E-003   -7.298129488063554E-002
  9.500000000000001E-003   -7.301713926572943E-002
  9.600000000000001E-003   -7.299792876552347E-002
  9.700000000000002E-003   -7.292162619214831E-002
  9.800000000000001E-003   -7.278616368328722E-002
  9.900000000000001E-003   -7.258946474305047E-002
  1.000000000000000E-002   -7.232943567330451E-002
  1.010000000000000E-002   -7.200396265744959E-002
  1.020000000000000E-002   -7.161091889076261E-002
  1.030000000000000E-002   -7.114816853179837E-002
  1.040000000000000E-002   -7.061356096234346E-002
  1.050000000000000E-002   -7.000493806637174E-002
  1.060000000000000E-002   -6.932012820888914E-002
  1.070000000000000E-002   -6.855696745335926E-002
  1.080000000000000E-002   -6.771327201902211E-002
  1.090000000000000E-002   -6.678686951266148E-002
  1.100000000000000E-002   -6.577557687881039E-002
  1.110000000000000E-002   -6.467722557287167E-002
  1.120000000000000E-002   -6.348964214841077E-002
  1.130000000000000E-002   -6.221066906793209E-002
  1.140000000000000E-002   -6.083815140667247E-002
  1.150000000000000E-002   -5.936994417914754E-002
  1.160000000000000E-002   -5.780393217082581E-002
  1.170000000000000E-002   -5.613800024063884E-002
  1.180000000000000E-002   -5.437006634047320E-002
  1.190000000000000E-002   -5.249806468725456E-002
  1.200000000000000E-002   -5.051995345521912E-002
  1.210000000000000E-002   -4.843372752969395E-002
  1.220000000000000E-002   -4.623739865764966E-002
  1.230000000000000E-002   -4.392902073967291E-002
  1.240000000000000E-002   -4.150668021581003E-002
  1.250000000000000E-002   -3.896849645047307E-002
  1.260000000000000E-002   -3.631263687577184E-002
  1.270000000000000E-002   -3.353730533728116E-002
  1.280000000000000E-002   -3.064075179107185E-002
  1.290000000000000E-002   -2.762127488768835E-002
  1.300000000000000E-002   -2.447722850947881E-002
  1.310000000000000E-002   -2.120701298135230E-002
  1.320000000000000E-002   -1.780909367370703E-002
  1.330000000000000E-002   -1.428198737215765E-002
  1.340000000000000E-002   -1.062428143163728E-002
  1.350000000000000E-002   -6.834627131597619E-003
  1.360000000000000E-002   -2.911746269338619E-003
  1.370000000000000E-002    1.145572114537556E-003
  1.380000000000000E-002    5.338461903142665E-003
  1.390000000000000E-002    9.667976071374490E-003
  1.400000000000000E-002    1.413508933883282E-002
  1.410000000000000E-002    1.874068933779543E-002
  1.420000000000000E-002    2.348558543649654E-002
  1.430000000000000E-002    2.837048488102447E-002
  1.440000000000000E-002    3.339601436807223E-002
  1.450000000000000E-002    3.856270393258259E-002
  1.460000000000000E-002    4.387098714510373E-002
  1.470000000000000E-002    4.932119733168764E-002
  1.480000000000000E-002    5.491356476633293E-002
  1.490000000000000E-002    6.064821770438954E-002
  1.500000000000000E-002    6.652516948266295E-002
  1.510000000000000E-002    7.254433887152803E-002
  1.520000000000000E-002    7.870551621886654E-002
  1.530000000000000E-002    8.500839163205055E-002
  1.540000000000000E-002    9.145253175677115E-002
  1.550000000000000E-002    9.803738499149181E-002
  1.560000000000000E-002    0.104762286617700     
  1.570000000000000E-002    0.111626422986922     
  1.580000000000000E-002    0.118628890225573     
  1.590000000000000E-002    0.125768631664046     
  1.600000000000000E-002    0.133044466870305     
  1.610000000000000E-002    0.140455096504593     
  1.620000000000000E-002    0.147999079957055     
  1.630000000000000E-002    0.155674838336578     
  1.640000000000000E-002    0.163480660102481     
  1.650000000000000E-002    0.171414710345702     
  1.660000000000000E-002    0.179475001844869     
  1.670000000000000E-002    0.187659408550076     
  1.680000000000000E-002    0.195965690882145     
  1.690000000000000E-002    0.204391454029023     
  1.700000000000000E-002    0.212934155106730     
  1.710000000000000E-002    0.221591110491962     
  1.720000000000000E-002    0.230359497246492     
  1.730000000000000E-002    0.239236374295067     
  1.740000000000000E-002    0.248218637810554     
  1.750000000000000E-002    0.257303023707134     
  1.760000000000000E-002    0.266486152944793     
  1.770000000000000E-002    0.275764478322486     
  1.780000000000000E-002    0.285134350189223     
  1.790000000000000E-002    0.294591950100282     
  1.800000000000000E-002    0.304133300868557     
  1.810000000000000E-002    0.313754325060316     
  1.820000000000000E-002    0.323450756169244     
  1.830000000000000E-002    0.333218211246430     
  1.840000000000000E-002    0.343052192273976     
  1.850000000000000E-002    0.352948020815073     
  1.860000000000000E-002    0.362900959572542     
  1.870000000000000E-002    0.372906033945498     