 -4.000000000000000E-002    0.000000000000000E+000
 -3.990000000000000E-002    0.000000000000000E+000
 -3.980000000000000E-002    0.000000000000000E+000
 -3.970000000000000E-002    0.000000000000000E+000
 -3.960000000000000E-002    0.000000000000000E+000
 -3.950000000000000E-002    0.000000000000000E+000
 -3.940000000000000E-002    0.000000000000000E+000
 -3.930000000000000E-002    0.000000000000000E+000
 -3.920000000000000E-002    0.000000000000000E+000
 -3.910000000000000E-002    0.000000000000000E+000
 -3.900000000000000E-002    0.000000000000000E+000
 -3.890000000000000E-002    0.000000000000000E+000
 -3.880000000000000E-002    0.000000000000000E+000
 -3.870000000000000E-002    0.000000000000000E+000
 -3.860000000000000E-002    0.000000000000000E+000
 -3.850000000000000E-002    0.000000000000000E+000
 -3.840000000000000E-002    0.000000000000000E+000
 -3.830000000000000E-002    0.000000000000000E+000
 -3.820000000000000E-002    0.000000000000000E+000
 -3.810000000000000E-002    0.000000000000000E+000
 -3.800000000000000E-002    0.000000000000000E+000
 -3.790000000000000E-002    0.000000000000000E+000
 -3.780000000000000E-002    0.000000000000000E+000
 -3.770000000000000E-002    0.000000000000000E+000
 -3.760000000000000E-002    0.000000000000000E+000
 -3.750000000000000E-002    0.000000000000000E+000
 -3.740000000000000E-002    0.000000000000000E+000
 -3.730000000000000E-002    0.000000000000000E+000
 -3.720000000000000E-002    0.000000000000000E+000
 -3.710000000000000E-002    0.000000000000000E+000
 -3.700000000000000E-002    0.000000000000000E+000
 -3.690000000000000E-002    0.000000000000000E+000
 -3.680000000000000E-002    0.000000000000000E+000
 -3.670000000000000E-002    0.000000000000000E+000
 -3.660000000000000E-002    0.000000000000000E+000
 -3.650000000000000E-002    0.000000000000000E+000
 -3.640000000000000E-002    0.000000000000000E+000
 -3.630000000000000E-002    0.000000000000000E+000
 -3.620000000000000E-002    0.000000000000000E+000
 -3.610000000000000E-002    0.000000000000000E+000
 -3.600000000000000E-002    0.000000000000000E+000
 -3.590000000000000E-002    0.000000000000000E+000
 -3.580000000000000E-002    0.000000000000000E+000
 -3.570000000000000E-002    0.000000000000000E+000
 -3.560000000000000E-002    0.000000000000000E+000
 -3.550000000000000E-002    0.000000000000000E+000
 -3.540000000000000E-002    0.000000000000000E+000
 -3.530000000000000E-002    0.000000000000000E+000
 -3.520000000000000E-002    0.000000000000000E+000
 -3.510000000000000E-002    0.000000000000000E+000
 -3.500000000000000E-002    0.000000000000000E+000
 -3.490000000000000E-002    0.000000000000000E+000
 -3.480000000000000E-002    0.000000000000000E+000
 -3.470000000000000E-002    0.000000000000000E+000
 -3.460000000000000E-002    0.000000000000000E+000
 -3.450000000000000E-002    0.000000000000000E+000
 -3.440000000000000E-002    0.000000000000000E+000
 -3.430000000000000E-002    0.000000000000000E+000
 -3.420000000000000E-002    0.000000000000000E+000
 -3.410000000000000E-002    0.000000000000000E+000
 -3.400000000000000E-002    0.000000000000000E+000
 -3.390000000000000E-002    0.000000000000000E+000
 -3.380000000000000E-002    0.000000000000000E+000
 -3.370000000000000E-002    0.000000000000000E+000
 -3.360000000000000E-002    0.000000000000000E+000
 -3.350000000000000E-002    0.000000000000000E+000
 -3.340000000000000E-002    0.000000000000000E+000
 -3.330000000000000E-002    0.000000000000000E+000
 -3.320000000000000E-002    0.000000000000000E+000
 -3.310000000000000E-002    0.000000000000000E+000
 -3.300000000000000E-002    0.000000000000000E+000
 -3.290000000000000E-002    0.000000000000000E+000
 -3.280000000000000E-002    0.000000000000000E+000
 -3.270000000000000E-002    0.000000000000000E+000
 -3.260000000000000E-002    0.000000000000000E+000
 -3.250000000000000E-002    0.000000000000000E+000
 -3.240000000000000E-002    0.000000000000000E+000
 -3.230000000000000E-002    0.000000000000000E+000
 -3.220000000000000E-002    0.000000000000000E+000
 -3.210000000000000E-002    0.000000000000000E+000
 -3.200000000000000E-002    0.000000000000000E+000
 -3.190000000000000E-002    0.000000000000000E+000
 -3.180000000000000E-002    0.000000000000000E+000
 -3.170000000000000E-002    0.000000000000000E+000
 -3.160000000000000E-002    0.000000000000000E+000
 -3.150000000000000E-002    0.000000000000000E+000
 -3.140000000000000E-002    0.000000000000000E+000
 -3.130000000000000E-002    0.000000000000000E+000
 -3.120000000000000E-002    0.000000000000000E+000
 -3.110000000000000E-002    0.000000000000000E+000
 -3.100000000000000E-002    0.000000000000000E+000
 -3.090000000000000E-002    0.000000000000000E+000
 -3.080000000000000E-002    0.000000000000000E+000
 -3.070000000000000E-002    0.000000000000000E+000
 -3.060000000000000E-002    0.000000000000000E+000
 -3.050000000000000E-002    0.000000000000000E+000
 -3.040000000000000E-002    0.000000000000000E+000
 -3.030000000000000E-002    0.000000000000000E+000
 -3.020000000000000E-002    0.000000000000000E+000
 -3.010000000000000E-002    0.000000000000000E+000
 -3.000000000000000E-002    0.000000000000000E+000
 -2.990000000000000E-002    0.000000000000000E+000
 -2.980000000000000E-002    0.000000000000000E+000
 -2.970000000000000E-002    0.000000000000000E+000
 -2.960000000000000E-002    0.000000000000000E+000
 -2.950000000000000E-002    0.000000000000000E+000
 -2.940000000000000E-002    0.000000000000000E+000
 -2.930000000000000E-002    0.000000000000000E+000
 -2.920000000000000E-002    0.000000000000000E+000
 -2.910000000000000E-002    0.000000000000000E+000
 -2.900000000000000E-002    0.000000000000000E+000
 -2.890000000000000E-002    0.000000000000000E+000
 -2.880000000000000E-002    0.000000000000000E+000
 -2.870000000000000E-002    0.000000000000000E+000
 -2.860000000000000E-002    0.000000000000000E+000
 -2.850000000000000E-002    0.000000000000000E+000
 -2.840000000000000E-002    0.000000000000000E+000
 -2.830000000000000E-002    0.000000000000000E+000
 -2.820000000000000E-002    0.000000000000000E+000
 -2.810000000000000E-002    0.000000000000000E+000
 -2.800000000000000E-002    0.000000000000000E+000
 -2.790000000000000E-002    0.000000000000000E+000
 -2.780000000000000E-002    0.000000000000000E+000
 -2.770000000000000E-002    0.000000000000000E+000
 -2.760000000000000E-002    0.000000000000000E+000
 -2.750000000000000E-002    0.000000000000000E+000
 -2.740000000000000E-002    0.000000000000000E+000
 -2.730000000000000E-002    0.000000000000000E+000
 -2.720000000000000E-002    0.000000000000000E+000
 -2.710000000000000E-002    0.000000000000000E+000
 -2.700000000000000E-002    0.000000000000000E+000
 -2.690000000000000E-002    0.000000000000000E+000
 -2.680000000000000E-002    0.000000000000000E+000
 -2.670000000000000E-002    0.000000000000000E+000
 -2.660000000000000E-002    0.000000000000000E+000
 -2.650000000000000E-002    0.000000000000000E+000
 -2.640000000000000E-002    0.000000000000000E+000
 -2.630000000000000E-002    0.000000000000000E+000
 -2.620000000000000E-002    0.000000000000000E+000
 -2.610000000000000E-002    0.000000000000000E+000
 -2.600000000000000E-002    0.000000000000000E+000
 -2.590000000000000E-002    0.000000000000000E+000
 -2.580000000000000E-002    0.000000000000000E+000
 -2.570000000000000E-002    0.000000000000000E+000
 -2.560000000000000E-002    0.000000000000000E+000
 -2.550000000000000E-002    0.000000000000000E+000
 -2.540000000000000E-002    0.000000000000000E+000
 -2.530000000000000E-002    0.000000000000000E+000
 -2.520000000000000E-002    0.000000000000000E+000
 -2.510000000000000E-002    0.000000000000000E+000
 -2.500000000000000E-002    0.000000000000000E+000
 -2.490000000000000E-002    0.000000000000000E+000
 -2.480000000000000E-002    0.000000000000000E+000
 -2.470000000000000E-002    0.000000000000000E+000
 -2.460000000000000E-002    0.000000000000000E+000
 -2.450000000000000E-002    0.000000000000000E+000
 -2.440000000000000E-002    0.000000000000000E+000
 -2.430000000000000E-002    1.919458833109229E-048
 -2.420000000000000E-002    3.838917666218457E-048
 -2.410000000000000E-002    7.677835332436915E-048
 -2.400000000000000E-002    1.151675299865537E-047
 -2.390000000000000E-002    1.323843374810780E-047
 -2.380000000000000E-002    9.201737998232542E-048
 -2.370000000000000E-002   -2.758411012505547E-047
 -2.360000000000000E-002   -4.020516219236212E-047
 -2.350000000000000E-002   -1.090042210432093E-046
 -2.340000000000000E-002   -1.831292269507280E-046
 -2.330000000000000E-002   -2.398966710145309E-046
 -2.320000000000000E-002   -2.771770998970107E-046
 -2.310000000000000E-002   -3.082122348923127E-046
 -2.300000000000000E-002   -3.073239177095802E-046
 -2.290000000000000E-002   -1.947359983683332E-046
 -2.280000000000000E-002    5.624135717355092E-047
 -2.270000000000000E-002    4.062282960900643E-046
 -2.260000000000000E-002    9.991010859516330E-046
 -2.250000000000000E-002    2.065001498303692E-045
 -2.240000000000000E-002    3.833144653825946E-045
 -2.230000000000000E-002    4.899871652710082E-045
 -2.220000000000000E-002    5.763852365991981E-045
 -2.210000000000000E-002    6.952310980141901E-045
 -2.200000000000000E-002    6.078607185121489E-045
 -2.190000000000000E-002    3.155227622786586E-045
 -2.180000000000000E-002   -2.549220721944663E-045
 -2.170000000000000E-002   -1.311268937899865E-044
 -2.160000000000000E-002   -2.721208002436488E-044
 -2.150000000000000E-002   -4.507353009301348E-044
 -2.140000000000000E-002   -6.433565170432068E-044
 -2.130000000000000E-002   -8.016788415780037E-044
 -2.120000000000000E-002   -8.493339881468143E-044
 -2.110000000000000E-002   -7.022912462839395E-044
 -2.100000000000000E-002   -2.609135424989073E-044
 -2.090000000000000E-002    5.748751602645547E-044
 -2.080000000000000E-002    1.890245837522922E-043
 -2.070000000000000E-002    3.648398159573251E-043
 -2.060000000000000E-002    5.717850160585844E-043
 -2.050000000000000E-002    7.773707110326152E-043
 -2.040000000000000E-002    9.274334800467733E-043
 -2.030000000000000E-002    9.426315945178254E-043
 -2.020000000000000E-002    7.265261012110793E-043
 -2.010000000000000E-002    1.733154723204083E-043
 -2.000000000000000E-002   -8.058193154952949E-043
 -1.990000000000000E-002   -2.256677904097232E-042
 -1.980000000000000E-002   -4.134241391563239E-042
 -1.970000000000000E-002   -6.258524597538828E-042
 -1.960000000000000E-002   -8.269624463420952E-042
 -1.950000000000000E-002   -9.600064621052084E-042
 -1.940000000000000E-002   -9.480600060184306E-042
 -1.930000000000000E-002   -6.999805757333677E-042
 -1.920000000000000E-002   -1.228958651489959E-042
 -1.910000000000000E-002    8.562905631480376E-042
 -1.900000000000000E-002    2.260966625555411E-041
 -1.890000000000000E-002    4.029028753233143E-041
 -1.880000000000000E-002    5.974774092664606E-041
 -1.870000000000000E-002    7.756865167233718E-041
 -1.860000000000000E-002    8.863352146528902E-041
 -1.850000000000000E-002    8.627316696736323E-041
 -1.840000000000000E-002    6.286757890102799E-041
 -1.830000000000000E-002    1.102103665420705E-041
 -1.820000000000000E-002   -7.463477120523003E-041
 -1.810000000000000E-002   -1.950516455889306E-040
 -1.800000000000000E-002   -3.439921658212873E-040
 -1.790000000000000E-002   -5.052765348249957E-040
 -1.780000000000000E-002   -6.506675074873450E-040
 -1.770000000000000E-002   -7.392221822205163E-040
 -1.760000000000000E-002   -7.190526753078259E-040
 -1.750000000000000E-002   -5.324390747852549E-040
 -1.740000000000000E-002   -1.250193778265049E-040
 -1.730000000000000E-002    5.407124669784647E-040
 -1.720000000000000E-002    1.468174710189950E-039
 -1.710000000000000E-002    2.607379823793808E-039
 -1.700000000000000E-002    3.836506916523064E-039
 -1.690000000000000E-002    4.948690540906433E-039
 -1.680000000000000E-002    5.649510541472591E-039
 -1.670000000000000E-002    5.571259159510131E-039
 -1.660000000000000E-002    4.309730574329142E-039
 -1.650000000000000E-002    1.487567553552244E-039
 -1.640000000000000E-002   -3.155149045595042E-039
 -1.630000000000000E-002   -9.647534646935675E-039
 -1.620000000000000E-002   -1.766302730295273E-038
 -1.610000000000000E-002   -2.640211551390049E-038
 -1.600000000000000E-002   -3.450968683253278E-038
 -1.590000000000000E-002   -4.006039163780491E-038
 -1.580000000000000E-002   -4.064834283172396E-038
 -1.570000000000000E-002   -3.361475222369249E-038
 -1.560000000000000E-002   -1.643666772245603E-038
 -1.550000000000000E-002    1.271992572118081E-038
 -1.540000000000000E-002    5.430901892623670E-038
 -1.530000000000000E-002    1.066405769391512E-037
 -1.520000000000000E-002    1.651528085575703E-037
 -1.510000000000000E-002    2.218745281383971E-037
 -1.500000000000000E-002    2.652672937366216E-037
 -1.490000000000000E-002    2.806553368138633E-037
 -1.480000000000000E-002    2.514389629484384E-037
 -1.470000000000000E-002    1.612345192273810E-037
 -1.460000000000000E-002   -3.018849868966486E-039
 -1.450000000000000E-002   -2.471017704925638E-037
 -1.440000000000000E-002   -5.650278898197028E-037
 -1.430000000000000E-002   -9.345900100462950E-037
 -1.420000000000000E-002   -1.313750627249159E-036
 -1.410000000000000E-002   -1.638904280742416E-036
 -1.400000000000000E-002   -1.826174011565357E-036
 -1.390000000000000E-002   -1.776893720662994E-036
 -1.380000000000000E-002   -1.388213353288126E-036
 -1.370000000000000E-002   -5.692914325826140E-037
 -1.360000000000000E-002    7.372231463073449E-037
 -1.350000000000000E-002    2.529769215204561E-036
 -1.340000000000000E-002    4.721146215890458E-036
 -1.330000000000000E-002    7.114522797390214E-036
 -1.320000000000000E-002    9.387550165046970E-036
 -1.310000000000000E-002    1.109096824513394E-035
 -1.300000000000000E-002    1.166845322958078E-035
 -1.290000000000000E-002    1.050382245695522E-035
 -1.280000000000000E-002    6.999767933099777E-036
 -1.270000000000000E-002    6.887362424816253E-037
 -1.260000000000000E-002   -8.628631871649634E-036
 -1.250000000000000E-002   -2.072888327766498E-035
 -1.240000000000000E-002   -3.481414722321313E-035
 -1.230000000000000E-002   -4.939077940559607E-035
 -1.220000000000000E-002   -6.221242195685209E-035
 -1.210000000000000E-002   -7.032587683877683E-035
 -1.200000000000000E-002   -7.025742455179414E-035
 -1.190000000000000E-002   -5.837009993049577E-035
 -1.180000000000000E-002   -3.140647400027402E-035
 -1.170000000000000E-002    1.279383772704265E-035
 -1.160000000000000E-002    7.444738545403179E-035
 -1.150000000000000E-002    1.509383335453774E-034
 -1.140000000000000E-002    2.360211005251586E-034
 -1.130000000000000E-002    3.192895566991494E-034
 -1.120000000000000E-002    3.861187905740890E-034
 -1.110000000000000E-002    4.182934036078594E-034
 -1.100000000000000E-002    3.955114032235414E-034
 -1.090000000000000E-002    2.978844591370614E-034
 -1.080000000000000E-002    1.094357024502439E-034
 -1.070000000000000E-002   -1.775722481165497E-034
 -1.060000000000000E-002   -5.578601458482144E-034
 -1.050000000000000E-002   -1.008522772509300E-033
 -1.040000000000000E-002   -1.485435122974321E-033
 -1.030000000000000E-002   -1.921702581651134E-033
 -1.020000000000000E-002   -2.229261465002941E-033
 -1.010000000000000E-002   -2.304661970093795E-033
 -1.000000000000000E-002   -2.039777090863439E-033
 -9.899999999999999E-003   -1.337655822951407E-033
 -9.800000000000000E-003   -1.329594689616178E-034
 -9.699999999999999E-003    1.584573088263891E-033
 -9.599999999999999E-003    3.746316114794324E-033
 -9.500000000000000E-003    6.184408121597935E-033
 -9.399999999999999E-003    8.619590184075525E-033
 -9.299999999999999E-003    1.066244588426292E-032
 -9.200000000000000E-003    1.183305273382408E-032
 -9.099999999999999E-003    1.160296129339602E-032
 -8.999999999999999E-003    9.461209612867388E-033
 -8.900000000000000E-003    5.002802406928556E-033
 -8.799999999999999E-003   -1.966188856719171E-033
 -8.699999999999999E-003   -1.131765741247716E-032
 -8.600000000000000E-003   -2.250032449349407E-032
 -8.499999999999999E-003   -3.446830200978446E-032
 -8.399999999999999E-003   -4.566169979488262E-032
 -8.300000000000000E-003   -5.406138261787963E-032
 -8.199999999999999E-003   -5.733597379784111E-032
 -8.100000000000000E-003   -5.309103155135024E-032
 -8.000000000000000E-003   -3.921746321326550E-032
 -7.899999999999999E-003   -1.431967845519943E-032
 -7.800000000000000E-003    2.181560329764756E-032
 -7.699999999999999E-003    6.776857487778148E-032
 -7.599999999999999E-003    1.201297748642287E-031
 -7.499999999999999E-003    1.733249212512426E-031
 -7.399999999999999E-003    2.197095677622110E-031
 -7.299999999999999E-003    2.500098511058579E-031
 -7.199999999999999E-003    2.541578566640947E-031
 -7.100000000000000E-003    2.225254330025206E-031
 -6.999999999999999E-003    1.475013791096457E-031
 -6.899999999999999E-003    2.528691287513660E-032
 -6.800000000000000E-003   -1.422876026562103E-031
 -6.699999999999999E-003   -3.461877593139663E-031
 -6.599999999999999E-003   -5.691507074386588E-031
 -6.499999999999999E-003   -7.855341796458630E-031
 -6.399999999999999E-003   -9.623325887181291E-031
 -6.299999999999999E-003   -1.061571986867614E-030
 -6.199999999999999E-003   -1.044159433354978E-030
 -6.100000000000000E-003   -8.750747797604379E-031
 -5.999999999999999E-003   -5.295666178409827E-031
 -5.899999999999999E-003    2.249019787220088E-034
 -5.800000000000000E-003    6.990273796742722E-031
 -5.699999999999999E-003    1.523557950242298E-030
 -5.599999999999999E-003    2.400079550312132E-030
 -5.499999999999999E-003    3.225425546831060E-030
 -5.399999999999999E-003    3.872333396692370E-030
 -5.299999999999999E-003    4.199574117906468E-030
 -5.199999999999999E-003    4.066846356124967E-030
 -5.099999999999999E-003    3.353752494557393E-030
 -4.999999999999999E-003    1.981453689768694E-030
 -4.899999999999999E-003   -6.512191395357126E-032
 -4.799999999999999E-003   -2.717281087608607E-030
 -4.699999999999999E-003   -5.807952347746623E-030
 -4.599999999999999E-003   -9.065766894498128E-030
 -4.499999999999999E-003   -1.212086924054341E-029
 -4.399999999999999E-003   -1.452478625664566E-029
 -4.299999999999999E-003   -1.578549593065905E-029
 -4.199999999999999E-003   -1.541725903841664E-029
 -4.099999999999999E-003   -1.300284776315393E-029
 -3.999999999999999E-003   -8.263727678555862E-030
 -3.899999999999999E-003   -1.131715078384181E-030
 -3.799999999999999E-003    8.186130642729842E-030
 -3.699999999999999E-003    1.915881771532613E-029
 -3.599999999999999E-003    3.090875775023774E-029
 -3.499999999999999E-003    4.222437893287303E-029
 -3.399999999999999E-003    5.161540683037455E-029
 -3.299999999999999E-003    5.741522271284364E-029
 -3.199999999999999E-003    5.793048739411390E-029
 -3.099999999999999E-003    5.163290129534458E-029
 -2.999999999999999E-003    3.738216262370657E-029
 -2.899999999999999E-003    1.466284588879836E-029
 -2.799999999999999E-003   -1.618788632983203E-029
 -2.699999999999999E-003   -5.378970514612504E-029
 -2.599999999999999E-003   -9.559685909211772E-029
 -2.499999999999999E-003   -1.378760116154518E-028
 -2.399999999999999E-003   -1.758133112237957E-028
 -2.299999999999999E-003   -2.037735091822741E-028
 -2.199999999999999E-003   -2.157231190516316E-028
 -2.099999999999999E-003   -2.058148319087344E-028
 -1.999999999999999E-003   -1.691113542532304E-028
 -1.899999999999999E-003   -1.024052680629650E-028
 -1.799999999999999E-003   -5.068173010662402E-030
 -1.699999999999999E-003    1.201598582661050E-028
 -1.599999999999999E-003    2.665481851856299E-028
 -1.499999999999999E-003    4.230400893674868E-028
 -1.399999999999999E-003    5.743240917119507E-028
 -1.299999999999999E-003    7.014197079565834E-028
 -1.199999999999999E-003    7.828555471066734E-028
 -1.099999999999999E-003    7.964697700339346E-028
 -9.999999999999989E-004    7.217983107748871E-028
 -8.999999999999990E-004    5.429348109617156E-028
 -7.999999999999990E-004    2.516573939289363E-028
 -6.999999999999989E-004   -1.494742968442247E-028
 -5.999999999999990E-004   -6.444284839971041E-028
 -4.999999999999989E-004   -1.201852170544236E-027
 -3.999999999999989E-004   -1.774517624905100E-027
 -2.999999999999989E-004   -2.300489633187464E-027
 -1.999999999999989E-004   -2.706346896466921E-027
 -9.999999999999892E-005   -2.912634352172228E-027
  1.084202172485504E-018   -2.841501739689276E-027
  1.000000000000011E-004   -2.426206079545733E-027
  2.000000000000011E-004   -1.621847645903415E-027
  3.000000000000011E-004   -4.163920475431235E-028
  4.000000000000011E-004    1.159249955241415E-027
  5.000000000000011E-004    3.023518036593512E-027
  6.000000000000011E-004    5.040392887515407E-027
  7.000000000000011E-004    7.020921047466327E-027
  8.000000000000011E-004    8.731250329580676E-027
  9.000000000000012E-004    9.907869647622009E-027
  1.000000000000001E-003    1.028009020495810E-026
  1.100000000000001E-003    9.598958839654021E-027
  1.200000000000001E-003    7.670863263418831E-027
  1.300000000000001E-003    4.393135205500718E-027
  1.400000000000001E-003   -2.118972941662671E-028
  1.500000000000001E-003   -5.968629060003048E-027
  1.600000000000001E-003   -1.253018829674120E-026
  1.700000000000001E-003   -1.937516073908212E-026
  1.800000000000001E-003   -2.582281539313987E-026
  1.900000000000001E-003   -3.106943299155536E-026
  2.000000000000001E-003   -3.424661972110499E-026
  2.100000000000001E-003   -3.450028167863278E-026
  2.200000000000001E-003   -3.108644166610366E-026
  2.300000000000001E-003   -2.347742645863091E-026
  2.400000000000001E-003   -1.146944796152837E-026
  2.500000000000001E-003    4.719523314847596E-027
  2.600000000000001E-003    2.437405447621736E-026
  2.700000000000001E-003    4.624062727522988E-026
  2.800000000000001E-003    6.853415128265344E-026
  2.900000000000001E-003    8.900149347626369E-026
  3.000000000000001E-003    1.050482140110628E-025
  3.100000000000001E-003    1.139296657158745E-025
  3.200000000000001E-003    1.130013634274122E-025
  3.300000000000001E-003    1.000164242273460E-025
  3.400000000000001E-003    7.345051877500401E-026
  3.500000000000001E-003    3.282755875623542E-026
  3.600000000000001E-003   -2.098666892225635E-026
  3.700000000000001E-003   -8.555989536771014E-026
  3.800000000000001E-003   -1.567764800010321E-025
  3.900000000000001E-003   -2.288648149803479E-025
  4.000000000000001E-003   -2.945998899373530E-025
  4.100000000000001E-003   -3.457012373720829E-025
  4.200000000000001E-003   -3.734318476675198E-025
  4.300000000000001E-003   -3.693844892626882E-025
  4.400000000000001E-003   -3.264199285360055E-025
  4.500000000000001E-003   -2.396971910847963E-025
  4.600000000000002E-003   -1.077127485266918E-025
  4.700000000000001E-003    6.675566070591638E-026
  4.800000000000001E-003    2.759202051388196E-025
  4.900000000000002E-003    5.065955574172130E-025
  5.000000000000001E-003    7.402743320672373E-025
  5.100000000000001E-003    9.537684226810378E-025
  5.200000000000001E-003    1.120484714656037E-024
  5.300000000000002E-003    1.212354535199537E-024
  5.400000000000001E-003    1.202371480341134E-024
  5.500000000000001E-003    1.067618940473640E-024
  5.600000000000002E-003    7.925864749629457E-025
  5.700000000000001E-003    3.724987367544322E-025
  5.800000000000001E-003   -1.836879227979814E-025
  5.900000000000002E-003   -8.510120097378108E-025
  6.000000000000001E-003   -1.587361735994392E-024
  6.100000000000001E-003   -2.333839160359301E-024
  6.200000000000002E-003   -3.016943590773583E-024
  6.300000000000002E-003   -3.552763729525399E-024
  6.400000000000001E-003   -3.853200280277876E-024
  6.500000000000001E-003   -3.834031497469493E-024
  6.600000000000002E-003   -3.424400385871583E-024
  6.700000000000001E-003   -2.577058899039522E-024
  6.800000000000001E-003   -1.278478943237466E-024
  6.900000000000002E-003    4.422442717924487E-025
  7.000000000000001E-003    2.506873773930619E-024
  7.100000000000001E-003    4.785090396289169E-024
  7.200000000000002E-003    7.096207429801355E-024
  7.300000000000002E-003    9.216367922596129E-024
  7.400000000000001E-003    1.089166899504323E-023
  7.500000000000001E-003    1.185714923274639E-023
  7.600000000000002E-003    1.186095769199388E-023
  7.700000000000001E-003    1.069236451422526E-023
  7.800000000000001E-003    8.211607001535152E-024
  7.900000000000001E-003    4.378962034174054E-024
  8.000000000000002E-003   -7.200198346813674E-025
  8.100000000000001E-003   -6.856421374406232E-024
  8.200000000000001E-003   -1.365028618895759E-023
  8.300000000000002E-003   -2.057625995857300E-023
  8.400000000000001E-003   -2.698473082861700E-023
  8.500000000000002E-003   -3.213955562683338E-023
  8.600000000000002E-003   -3.527205805308975E-023
  8.700000000000001E-003   -3.564932775947307E-023
  8.800000000000002E-003   -3.265306598091230E-023
  8.900000000000002E-003   -2.586343608043697E-023
  9.000000000000001E-003   -1.514078854078100E-023
  9.100000000000002E-003   -6.969128039903932E-025
  9.200000000000002E-003    1.685319301980686E-023
  9.300000000000001E-003    3.646796305981324E-023
  9.400000000000002E-003    5.669229215770566E-023
  9.500000000000001E-003    7.571301761444724E-023
  9.600000000000001E-003    9.146006050477880E-023
  9.700000000000002E-003    1.017526718915909E-022
  9.800000000000001E-003    1.044858169241322E-022
  9.900000000000001E-003    9.784689170304417E-023
  1.000000000000000E-002    8.054805266533149E-023
  1.010000000000000E-002    5.205507752120663E-023
  1.020000000000000E-002    1.279019579133371E-023
  1.030000000000000E-002   -3.571575994708852E-023
  1.040000000000000E-002   -9.074641910309021E-023
  1.050000000000000E-002   -1.484205140001441E-022
  1.060000000000000E-002   -2.038275217348359E-022
  1.070000000000000E-002   -2.512880030481784E-022
  1.080000000000000E-002   -2.847386449274972E-022
  1.090000000000000E-002   -2.982297612442225E-022
  1.100000000000000E-002   -2.865100239603403E-022
  1.110000000000000E-002   -2.456598509311519E-022
  1.120000000000000E-002   -1.737228220855991E-022
  1.130000000000000E-002   -7.127467832809734E-023
  1.140000000000000E-002    5.813618677144548E-023
  1.150000000000000E-002    2.077434129332138E-022
  1.160000000000000E-002    3.675731612197172E-022
  1.170000000000000E-002    5.247586689330289E-022
  1.180000000000000E-002    6.641870606819461E-022
  1.190000000000000E-002    7.694805856350043E-022
  1.200000000000000E-002    8.242831749421176E-022
  1.210000000000000E-002    8.137885784097568E-022
  1.220000000000000E-002    7.264122768209088E-022
  1.230000000000000E-002    5.554767979215023E-022
  1.240000000000000E-002    3.007554066479449E-022
  1.250000000000000E-002   -3.029626561739224E-023
  1.260000000000000E-002   -4.217931216013582E-022
  1.270000000000000E-002   -8.493160694958404E-022
  1.280000000000000E-002   -1.280577467740565E-021
  1.290000000000000E-002   -1.676934397760208E-021
  1.300000000000000E-002   -1.995763464686378E-021
  1.310000000000000E-002   -2.193632928946088E-021
  1.320000000000000E-002   -2.230123364807940E-021
  1.330000000000000E-002   -2.072061757040018E-021
  1.340000000000000E-002   -1.697854210014817E-021
  1.350000000000000E-002   -1.101539423202478E-021
  1.360000000000000E-002   -2.961433627105393E-022
  1.370000000000000E-002    6.840932182314354E-022
  1.380000000000000E-002    1.783013051608641E-021
  1.390000000000000E-002    2.923697220489159E-021
  1.400000000000000E-002    4.011695040238788E-021
  1.410000000000000E-002    4.940396769590046E-021
  1.420000000000000E-002    5.598437768060731E-021
  1.430000000000000E-002    5.878816643116847E-021
  1.440000000000000E-002    5.689207507767345E-021
  1.450000000000000E-002    4.962747005342702E-021
  1.460000000000000E-002    3.668415554615209E-021
  1.470000000000000E-002    1.820016881116487E-021
  1.480000000000000E-002   -5.172770964932620E-022
  1.490000000000000E-002   -3.223813726884270E-021
  1.500000000000000E-002   -6.126633631573574E-021
  1.510000000000000E-002   -9.005548909230728E-021
  1.520000000000000E-002   -1.160441630081843E-020
  1.530000000000000E-002   -1.364748308032939E-020
  1.540000000000000E-002   -1.486021284221067E-020
  1.550000000000000E-002   -1.499351345271814E-020
  1.560000000000000E-002   -1.384980316832174E-020
  1.570000000000000E-002   -1.130894176938102E-020
  1.580000000000000E-002   -7.351729547868744E-021
  1.590000000000000E-002   -2.078525158413929E-021
  1.600000000000000E-002    4.279448201892739E-021
  1.610000000000000E-002    1.135829301769443E-020
  1.620000000000000E-002    1.867083560422423E-020
  1.630000000000000E-002    2.562824340946413E-020
  1.640000000000000E-002    3.157398216902598E-020
  1.650000000000000E-002    3.582916102826583E-020
  1.660000000000000E-002    3.774720161363342E-020
  1.670000000000000E-002    3.677459851697317E-020
  1.680000000000000E-002    3.251353938254648E-020
  1.690000000000000E-002    2.478125723611919E-020
  1.700000000000000E-002    1.366054087097908E-020
  1.710000000000000E-002   -4.643630669441402E-022
  1.720000000000000E-002   -1.689182169278241E-020
  1.730000000000000E-002   -3.461137356580142E-020
  1.740000000000000E-002   -5.233989153041680E-020
  1.750000000000000E-002   -6.858658772595919E-020
  1.760000000000000E-002   -8.174584394124570E-020
  1.770000000000000E-002   -9.021430305121203E-020
  1.780000000000000E-002   -9.252612067889072E-020
  1.790000000000000E-002   -8.749768517416583E-020
  1.800000000000000E-002   -7.437116782736717E-020
  1.810000000000000E-002   -5.294458720047606E-020
  1.820000000000000E-002   -2.367546571660173E-020
  1.830000000000000E-002    1.225462127580481E-020
  1.840000000000000E-002    5.292590635543454E-020
  1.850000000000000E-002    9.572550481156904E-020
  1.860000000000000E-002    1.374568745083930E-019
  1.870000000000000E-002    1.745142198811231E-019