 -4.000000000000000E-002    0.000000000000000E+000
 -3.990000000000000E-002    0.000000000000000E+000
 -3.980000000000000E-002    0.000000000000000E+000
 -3.970000000000000E-002    0.000000000000000E+000
 -3.960000000000000E-002    0.000000000000000E+000
 -3.950000000000000E-002    0.000000000000000E+000
 -3.940000000000000E-002    0.000000000000000E+000
 -3.930000000000000E-002    2.161812593455750E-028
 -3.920000000000000E-002   -1.242054692052434E-028
 -3.910000000000000E-002   -2.724227331459897E-026
 -3.900000000000000E-002   -2.933711934868196E-025
 -3.890000000000000E-002   -1.877958220427567E-024
 -3.880000000000000E-002   -8.921296079143234E-024
 -3.870000000000000E-002   -3.437153203469562E-023
 -3.860000000000000E-002   -1.126572684737702E-022
 -3.850000000000000E-002   -3.235086309550533E-022
 -3.840000000000000E-002   -8.297898455298332E-022
 -3.830000000000000E-002   -1.925758106087498E-021
 -3.820000000000000E-002   -4.076932166793947E-021
 -3.810000000000000E-002   -7.905405799329378E-021
 -3.800000000000000E-002   -1.403428453436974E-020
 -3.790000000000000E-002   -2.265723959594913E-020
 -3.780000000000000E-002   -3.265882627314083E-020
 -3.770000000000000E-002   -4.010567199555154E-020
 -3.760000000000000E-002   -3.599791260608474E-020
 -3.750000000000000E-002   -3.362285892360419E-021
 -3.740000000000000E-002    8.587281608773488E-020
 -3.730000000000000E-002    2.732333116097032E-019
 -3.720000000000000E-002    6.135918074106576E-019
 -3.710000000000000E-002    1.170138852621908E-018
 -3.700000000000000E-002    2.001356438187968E-018
 -3.690000000000000E-002    3.136754062220907E-018
 -3.680000000000000E-002    4.538809237919637E-018
 -3.670000000000000E-002    6.050502119079135E-018
 -3.660000000000000E-002    7.331396360754473E-018
 -3.650000000000000E-002    7.790527409604734E-018
 -3.640000000000000E-002    6.531180738897105E-018
 -3.630000000000000E-002    2.330225687912843E-018
 -3.620000000000000E-002   -6.318404408161887E-018
 -3.610000000000000E-002   -2.106223042980259E-017
 -3.600000000000000E-002   -4.341778219241787E-017
 -3.590000000000000E-002   -7.434304726764782E-017
 -3.580000000000000E-002   -1.136496382066426E-016
 -3.570000000000000E-002   -1.592800277536838E-016
 -3.560000000000000E-002   -2.065167865223175E-016
 -3.550000000000000E-002   -2.472403778664841E-016
 -3.540000000000000E-002   -2.694041390444638E-016
 -3.530000000000000E-002   -2.569400697446046E-016
 -3.520000000000000E-002   -1.903360871205554E-016
 -3.510000000000000E-002   -4.812135430177819E-017
 -3.500000000000000E-002    1.905519952193355E-016
 -3.490000000000000E-002    5.421429380310379E-016
 -3.480000000000000E-002    1.013841857642031E-015
 -3.470000000000000E-002    1.597858499973413E-015
 -3.460000000000000E-002    2.265406992988875E-015
 -3.450000000000000E-002    2.961177982624701E-015
 -3.440000000000000E-002    3.599322969231580E-015
 -3.430000000000000E-002    4.062139814710562E-015
 -3.420000000000000E-002    4.202697704253263E-015
 -3.410000000000000E-002    3.852523303134811E-015
 -3.400000000000000E-002    2.835158135236398E-015
 -3.390000000000000E-002    9.858787210065764E-016
 -3.380000000000000E-002   -1.822851214332673E-015
 -3.370000000000000E-002   -5.651502793857743E-015
 -3.360000000000000E-002   -1.046143932694807E-014
 -3.350000000000000E-002   -1.608391405124795E-014
 -3.340000000000000E-002   -2.219410426278121E-014
 -3.330000000000000E-002   -2.829469547467959E-014
 -3.320000000000000E-002   -3.371366388110767E-014
 -3.310000000000000E-002   -3.762050784864823E-014
 -3.300000000000000E-002   -3.906427550469807E-014
 -3.290000000000000E-002   -3.703520929048065E-014
 -3.280000000000000E-002   -3.054985725524729E-014
 -3.270000000000000E-002   -1.875707467508585E-014
 -3.260000000000000E-002   -1.059759996466482E-015
 -3.250000000000000E-002    2.275548187015153E-014
 -3.240000000000000E-002    5.239091721297081E-014
 -3.230000000000000E-002    8.692458854057916E-014
 -3.220000000000000E-002    1.247248827068137E-013
 -3.210000000000000E-002    1.634064104121382E-013
 -3.200000000000000E-002    1.998402613026771E-013
 -3.190000000000000E-002    2.302298616816333E-013
 -3.180000000000000E-002    2.502608791822966E-013
 -3.170000000000000E-002    2.553296668255079E-013
 -3.160000000000000E-002    2.408496197254917E-013
 -3.150000000000000E-002    2.026290465169689E-013
 -3.140000000000000E-002    1.373073155958261E-013
 -3.130000000000000E-002    4.282880276248046E-014
 -3.120000000000000E-002   -8.107328878913792E-014
 -3.110000000000000E-002   -2.324186128458233E-013
 -3.100000000000000E-002   -4.065887061008000E-013
 -3.090000000000000E-002   -5.960500312664948E-013
 -3.080000000000000E-002   -7.902407100953247E-013
 -3.070000000000000E-002   -9.756691643228241E-013
 -3.060000000000000E-002   -1.136268065668950E-012
 -3.050000000000000E-002   -1.254036044212391E-012
 -3.040000000000000E-002   -1.309983007107284E-012
 -3.030000000000000E-002   -1.285372736382535E-012
 -3.020000000000000E-002   -1.163228057481764E-012
 -3.010000000000000E-002   -9.300324369087200E-013
 -3.000000000000000E-002   -5.775279981117036E-013
 -2.990000000000000E-002   -1.044786508356755E-013
 -2.980000000000000E-002    4.817598374023319E-013
 -2.970000000000000E-002    1.164037893654093E-012
 -2.960000000000000E-002    1.914755238416154E-012
 -2.950000000000000E-002    2.695914039342573E-012
 -2.940000000000000E-002    3.460010740391706E-012
 -2.930000000000000E-002    4.151845565278857E-012
 -2.920000000000000E-002    4.711254607061657E-012
 -2.910000000000000E-002    5.076688415158335E-012
 -2.900000000000000E-002    5.189468601687233E-012
 -2.890000000000000E-002    4.998467363921230E-012
 -2.880000000000000E-002    4.464878600077132E-012
 -2.870000000000000E-002    3.566695342169399E-012
 -2.860000000000000E-002    2.302489673426586E-012
 -2.850000000000000E-002    6.941029953484159E-013
 -2.840000000000000E-002   -1.212081827807240E-012
 -2.830000000000000E-002   -3.345523256494601E-012
 -2.820000000000000E-002   -5.613661097984831E-012
 -2.810000000000000E-002   -7.905764039832452E-012
 -2.800000000000000E-002   -1.009827904200922E-011
 -2.790000000000000E-002   -1.206132475255572E-011
 -2.780000000000000E-002   -1.366585708926369E-011
 -2.770000000000000E-002   -1.479095729398162E-011
 -2.760000000000000E-002   -1.533068374224238E-011
 -2.750000000000000E-002   -1.519997075564119E-011
 -2.740000000000000E-002   -1.433917248672866E-011
 -2.730000000000000E-002   -1.271700528565678E-011
 -2.720000000000000E-002   -1.033184138134891E-011
 -2.710000000000000E-002   -7.211498390289314E-012
 -2.700000000000000E-002   -3.411855949050638E-012
 -2.690000000000000E-002    9.852430612190326E-013
 -2.680000000000000E-002    5.874283017684929E-012
 -2.670000000000000E-002    1.112807349203004E-011
 -2.660000000000000E-002    1.659907888668378E-011
 -2.650000000000000E-002    2.211991889070674E-011
 -2.640000000000000E-002    2.750314607547068E-011
 -2.630000000000000E-002    3.254068874040321E-011
 -2.620000000000000E-002    3.700364113869882E-011
 -2.610000000000000E-002    4.064329421496603E-011
 -2.600000000000000E-002    4.319439570775392E-011
 -2.590000000000000E-002    4.438161259412596E-011
 -2.580000000000000E-002    4.392994539670183E-011
 -2.570000000000000E-002    4.157950450079967E-011
 -2.560000000000000E-002    3.710452606732811E-011
 -2.550000000000000E-002    3.033591519063926E-011
 -2.540000000000000E-002    2.118594911064890E-011
 -2.530000000000000E-002    9.673186861168788E-012
 -2.520000000000000E-002   -4.054841150107809E-012
 -2.510000000000000E-002   -1.970387825927222E-011
 -2.500000000000000E-002   -3.682279710672219E-011
 -2.490000000000000E-002   -5.480348077431294E-011
 -2.480000000000000E-002   -7.289249550757911E-011
 -2.470000000000000E-002   -9.021546180430402E-011
 -2.460000000000000E-002   -1.058139025351279E-010
 -2.450000000000000E-002   -1.186931720584922E-010
 -2.440000000000000E-002   -1.278788581590634E-010
 -2.430000000000000E-002   -1.324779836724855E-010
 -2.420000000000000E-002   -1.317406481981787E-010
 -2.410000000000000E-002   -1.251172567934766E-010
 -2.400000000000000E-002   -1.123066243898547E-010
 -2.390000000000000E-002   -9.329076743077614E-011
 -2.380000000000000E-002   -6.835319887955509E-011
 -2.370000000000000E-002   -3.807884949501758E-011
 -2.360000000000000E-002   -3.335433430097145E-012
 -2.350000000000000E-002    3.476234260251739E-011
 -2.340000000000000E-002    7.490276397416970E-011
 -2.330000000000000E-002    1.156369952131354E-010
 -2.320000000000000E-002    1.554438558293151E-010
 -2.310000000000000E-002    1.927941417852246E-010
 -2.300000000000000E-002    2.262095502790332E-010
 -2.290000000000000E-002    2.543121770371468E-010
 -2.280000000000000E-002    2.758620133967761E-010
 -2.270000000000000E-002    2.897816196511953E-010
 -2.260000000000000E-002    2.951690595251197E-010
 -2.250000000000000E-002    2.913019098643927E-010
 -2.240000000000000E-002    2.776366269745246E-010
 -2.230000000000000E-002    2.538083344528321E-010
 -2.220000000000000E-002    2.196362089327417E-010
 -2.210000000000000E-002    1.751389471130352E-010
 -2.200000000000000E-002    1.205632596273154E-010
 -2.190000000000000E-002    5.642610712276018E-011
 -2.180000000000000E-002   -1.643114141671993E-011
 -2.170000000000000E-002   -9.678154692183313E-011
 -2.160000000000000E-002   -1.829517457602786E-010
 -2.150000000000000E-002   -2.727711977696645E-010
 -2.140000000000000E-002   -3.635423607065503E-010
 -2.130000000000000E-002   -4.520430344299250E-010
 -2.120000000000000E-002   -5.345709758288387E-010
 -2.110000000000000E-002   -6.070380911159483E-010
 -2.100000000000000E-002   -6.651183892690448E-010
 -2.090000000000000E-002   -7.044484862082704E-010
 -2.080000000000000E-002   -7.208743515948553E-010
 -2.070000000000000E-002   -7.107323325608485E-010
 -2.060000000000000E-002   -6.711474368840710E-010
 -2.050000000000000E-002   -6.003272145800271E-010
 -2.040000000000000E-002   -4.978271782411109E-010
 -2.030000000000000E-002   -3.647626707137530E-010
 -2.020000000000000E-002   -2.039434052918140E-010
 -2.010000000000000E-002   -1.991060874069784E-011
 -2.000000000000000E-002    1.811375168501492E-010
 -1.990000000000000E-002    3.915385968304810E-010
 -1.980000000000000E-002    6.024747350123600E-010
 -1.970000000000000E-002    8.043849937153057E-010
 -1.960000000000000E-002    9.874602370258126E-010
 -1.950000000000000E-002    1.142190843820271E-009
 -1.940000000000000E-002    1.259930691649034E-009
 -1.930000000000000E-002    1.333438244942582E-009
 -1.920000000000000E-002    1.357353818745588E-009
 -1.910000000000000E-002    1.328575706828547E-009
 -1.900000000000000E-002    1.246503835015193E-009
 -1.890000000000000E-002    1.113128939498637E-009
 -1.880000000000000E-002    9.329568208520948E-010
 -1.870000000000000E-002    7.127702122351864E-010
 -1.860000000000000E-002    4.612441641890859E-010
 -1.850000000000000E-002    1.884428932829638E-010
 -1.840000000000000E-002   -9.476333769800060E-011
 -1.830000000000000E-002   -3.773159686857802E-010
 -1.820000000000000E-002   -6.485727003390465E-010
 -1.810000000000000E-002   -8.988514840042744E-010
 -1.800000000000000E-002   -1.119873268964714E-009
 -1.790000000000000E-002   -1.305072449494782E-009
 -1.780000000000000E-002   -1.449756521824287E-009
 -1.770000000000000E-002   -1.551111948710493E-009
 -1.760000000000000E-002   -1.608068099541187E-009
 -1.750000000000000E-002   -1.621045132295811E-009
 -1.740000000000000E-002   -1.591623411520900E-009
 -1.730000000000000E-002   -1.522179022169527E-009
 -1.720000000000000E-002   -1.415532578511051E-009
 -1.710000000000000E-002   -1.274655173972208E-009
 -1.700000000000000E-002   -1.102468286191836E-009
 -1.690000000000000E-002   -9.017599152115080E-010
 -1.680000000000000E-002   -6.752260308589252E-010
 -1.670000000000000E-002   -4.256271790357152E-010
 -1.660000000000000E-002   -1.560350592111563E-010
 -1.650000000000000E-002    1.298709118402525E-010
 -1.640000000000000E-002    4.275057704434640E-010
 -1.630000000000000E-002    7.311328914532666E-010
 -1.620000000000000E-002    1.033719788944336E-009
 -1.610000000000000E-002    1.326936700620054E-009
 -1.600000000000000E-002    1.601323010375766E-009
 -1.590000000000000E-002    1.846628725800179E-009
 -1.580000000000000E-002    2.052314506982200E-009
 -1.570000000000000E-002    2.208174633189356E-009
 -1.560000000000000E-002    2.305026901279919E-009
 -1.550000000000000E-002    2.335403539017113E-009
 -1.540000000000000E-002    2.294167080855964E-009
 -1.530000000000000E-002    2.178983099581101E-009
 -1.520000000000000E-002    1.990590035331204E-009
 -1.510000000000000E-002    1.732827452280206E-009
 -1.500000000000000E-002    1.412408787378936E-009
 -1.490000000000000E-002    1.038454422181146E-009
 -1.480000000000000E-002    6.218301885560915E-010
 -1.470000000000000E-002    1.743605955332949E-010
 -1.460000000000000E-002   -2.919939170859526E-010
 -1.450000000000000E-002   -7.658980423656267E-010
 -1.440000000000000E-002   -1.237245103689119E-009
 -1.430000000000000E-002   -1.697523299738958E-009
 -1.420000000000000E-002   -2.139887948526161E-009
 -1.410000000000000E-002   -2.558920140692772E-009
 -1.400000000000000E-002   -2.950090953355306E-009
 -1.390000000000000E-002   -3.308990515407620E-009
 -1.380000000000000E-002   -3.630421458676436E-009
 -1.370000000000000E-002   -3.907481279419630E-009
 -1.360000000000000E-002   -4.130778077652907E-009
 -1.350000000000000E-002   -4.287922551020101E-009
 -1.340000000000000E-002   -4.363423206017558E-009
 -1.330000000000000E-002   -4.339080722831465E-009
 -1.320000000000000E-002   -4.194931167356729E-009
 -1.310000000000000E-002   -3.910727521867846E-009
 -1.300000000000000E-002   -3.467895101226598E-009
 -1.290000000000000E-002   -2.851828846268573E-009
 -1.280000000000000E-002   -2.054359428588162E-009
 -1.270000000000000E-002   -1.076167855029950E-009
 -1.260000000000000E-002    7.108207156524961E-011
 -1.250000000000000E-002    1.363124133904986E-009
 -1.240000000000000E-002    2.762189046295751E-009
 -1.230000000000000E-002    4.216978934202806E-009
 -1.220000000000000E-002    5.663625323590038E-009
 -1.210000000000000E-002    7.027632270889146E-009
 -1.200000000000000E-002    8.226782685635582E-009
 -1.190000000000000E-002    9.174859231694460E-009
 -1.180000000000000E-002    9.786005768702473E-009
 -1.170000000000000E-002    9.979502544506692E-009
 -1.160000000000000E-002    9.684698656755357E-009
 -1.150000000000000E-002    8.845857917096390E-009
 -1.140000000000000E-002    7.426713802929651E-009
 -1.130000000000000E-002    5.414515187478008E-009
 -1.120000000000000E-002    2.823516480056600E-009
 -1.110000000000000E-002   -3.022255503894584E-010
 -1.100000000000000E-002   -3.886623847682135E-009
 -1.090000000000000E-002   -7.819888700954182E-009
 -1.080000000000000E-002   -1.195729345967308E-008
 -1.070000000000000E-002   -1.611815375505471E-008
 -1.060000000000000E-002   -2.008498333064562E-008
 -1.050000000000000E-002   -2.360272427556283E-008
 -1.040000000000000E-002   -2.637776300670734E-008
 -1.030000000000000E-002   -2.807698823467274E-008
 -1.020000000000000E-002   -2.832683455924678E-008
 -1.010000000000000E-002   -2.671238508659795E-008
 -1.000000000000000E-002   -2.277679032777648E-008
 -9.899999999999999E-003   -1.602122640937551E-008
 -9.800000000000000E-003   -5.905329141650281E-009
 -9.699999999999999E-003    8.151162974419640E-009
 -9.599999999999999E-003    2.676582073897975E-008
 -9.500000000000000E-003    5.059006738463733E-008
 -9.399999999999999E-003    8.030417719063315E-008
 -9.299999999999999E-003    1.166116348551408E-007
 -9.200000000000000E-003    1.602327060122290E-007
 -9.099999999999999E-003    2.118973410155942E-007
 -8.999999999999999E-003    2.723384843811272E-007
 -8.900000000000000E-003    3.422848058855923E-007
 -8.799999999999999E-003    4.224553140363486E-007
 -8.699999999999999E-003    5.135541398885272E-007
 -8.600000000000000E-003    6.162672660176084E-007
 -8.499999999999999E-003    7.312604498344389E-007
 -8.399999999999999E-003    8.591791246912068E-007
 -8.300000000000000E-003    1.000649363413308E-006
 -8.199999999999999E-003    1.156280632840942E-006
 -8.100000000000000E-003    1.326669211743027E-006
 -8.000000000000000E-003    1.512403067470459E-006
 -7.899999999999999E-003    1.714065226167610E-006
 -7.800000000000000E-003    1.932239216878614E-006
 -7.699999999999999E-003    2.167512305642243E-006
 -7.599999999999999E-003    2.420479077797388E-006
 -7.499999999999999E-003    2.691743042692173E-006
 -7.399999999999999E-003    2.981919077623456E-006
 -7.299999999999999E-003    3.291633349822457E-006
 -7.199999999999999E-003    3.621524394840786E-006
 -7.100000000000000E-003    3.972243150294005E-006
 -6.999999999999999E-003    4.344455256721412E-006
 -6.899999999999999E-003    4.738842135579545E-006
 -6.800000000000000E-003    5.156105408382242E-006
 -6.699999999999999E-003    5.596971910206759E-006
 -6.599999999999999E-003    6.062202613936595E-006
 -6.499999999999999E-003    6.552601394337405E-006
 -6.399999999999999E-003    7.069027810455733E-006
 -6.299999999999999E-003    7.612411313119956E-006
 -6.199999999999999E-003    8.183765041761567E-006
 -6.100000000000000E-003    8.784202176347981E-006
 -5.999999999999999E-003    9.414953080715554E-006
 -5.899999999999999E-003    1.007737858547592E-005
 -5.800000000000000E-003    1.077298456708305E-005
 -5.699999999999999E-003    1.150343443691798E-005
 -5.599999999999999E-003    1.227055474299456E-005
 -5.499999999999999E-003    1.307634806166246E-005
 -5.399999999999999E-003    1.392298965662408E-005
 -5.299999999999999E-003    1.481283646092071E-005
 -5.199999999999999E-003    1.574842208205816E-005
 -5.099999999999999E-003    1.673245514070462E-005
 -4.999999999999999E-003    1.776782092485643E-005
 -4.899999999999999E-003    1.885757174115567E-005
 -4.799999999999999E-003    2.000493442182265E-005
 -4.699999999999999E-003    2.121330483924208E-005
 -4.599999999999999E-003    2.248625180884693E-005
 -4.499999999999999E-003    2.382752294670370E-005
 -4.399999999999999E-003    2.524105149413085E-005
 -4.299999999999999E-003    2.673096613232511E-005
 -4.199999999999999E-003    2.830160000540787E-005
 -4.099999999999999E-003    2.995751015666607E-005
 -3.999999999999999E-003    3.170348849387527E-005
 -3.899999999999999E-003    3.354456802974832E-005
 -3.799999999999999E-003    3.548604912859481E-005
 -3.699999999999999E-003    3.753349663745635E-005
 -3.599999999999999E-003    3.969275130069005E-005
 -3.499999999999999E-003    4.196994266607425E-005
 -3.399999999999999E-003    4.437147385048442E-005
 -3.299999999999999E-003    4.690403712223971E-005
 -3.199999999999999E-003    4.957460128222155E-005
 -3.099999999999999E-003    5.239040857907313E-005
 -2.999999999999999E-003    5.535896907324713E-005
 -2.899999999999999E-003    5.848805764219913E-005
 -2.799999999999999E-003    6.178572000946204E-005
 -2.699999999999999E-003    6.526026022690019E-005
 -2.599999999999999E-003    6.892026273740392E-005
 -2.499999999999999E-003    7.277459486443496E-005
 -2.399999999999999E-003    7.683242780269316E-005
 -2.299999999999999E-003    8.110326644123888E-005
 -2.199999999999999E-003    8.559696962369260E-005
 -2.099999999999999E-003    9.032379684969615E-005
 -1.999999999999999E-003    9.529443679805565E-005
 -1.899999999999999E-003    1.005200532590060E-004
 -1.799999999999999E-003    1.060123273616745E-004
 -1.699999999999999E-003    1.117834764798102E-004
 -1.599999999999999E-003    1.178463209099909E-004
 -1.499999999999999E-003    1.242143050200475E-004
 -1.399999999999999E-003    1.309014863956209E-004
 -1.299999999999999E-003    1.379226017730734E-004
 -1.199999999999999E-003    1.452930409712280E-004
 -1.099999999999999E-003    1.530288867384506E-004
 -9.999999999999989E-004    1.611468710353435E-004
 -8.999999999999990E-004    1.696644051321562E-004
 -7.999999999999990E-004    1.785995546393700E-004
 -6.999999999999989E-004    1.879710117803123E-004
 -5.999999999999990E-004    1.977981449811722E-004
 -4.999999999999989E-004    2.081009553364331E-004
 -3.999999999999989E-004    2.189000791294141E-004
 -2.999999999999989E-004    2.302168078868606E-004
 -1.999999999999989E-004    2.420731159478072E-004
 -9.999999999999892E-005    2.544916869820725E-004
  1.084202172485504E-018    2.674959424128329E-004
  1.000000000000011E-004    2.811100619279196E-004
  2.000000000000011E-004    2.953590844706609E-004
  3.000000000000011E-004    3.102688982365902E-004
  4.000000000000011E-004    3.258663111079334E-004
  5.000000000000011E-004    3.421791135977713E-004
  6.000000000000011E-004    3.592360885080922E-004
  7.000000000000011E-004    3.770670911232939E-004
  8.000000000000011E-004    3.957030714368654E-004
  9.000000000000012E-004    4.151760078384028E-004
  1.000000000000001E-003    4.355191013335812E-004
  1.100000000000001E-003    4.567665460406286E-004
  1.200000000000001E-003    4.789537320070957E-004
  1.300000000000001E-003    5.021171951005823E-004
  1.400000000000001E-003    5.262945379164334E-004
  1.500000000000001E-003    5.515244213247813E-004
  1.600000000000001E-003    5.778466479397460E-004
  1.700000000000001E-003    6.053021535916938E-004
  1.800000000000001E-003    6.339328726405665E-004
  1.900000000000001E-003    6.637819197893142E-004
  2.000000000000001E-003    6.948934984378599E-004
  2.100000000000001E-003    7.273130071607091E-004
  2.200000000000001E-003    7.610869746016853E-004
  2.300000000000001E-003    7.962631041744840E-004
  2.400000000000001E-003    8.328905379871485E-004
  2.500000000000001E-003    8.710195676525151E-004
  2.600000000000001E-003    9.107018094796149E-004
  2.700000000000001E-003    9.519903938740671E-004
  2.800000000000001E-003    9.949398042956566E-004
  2.900000000000001E-003    1.039606066574069E-003
  3.000000000000001E-003    1.086046681665139E-003
  3.100000000000001E-003    1.134320440012255E-003
  3.200000000000001E-003    1.184487901276428E-003
  3.300000000000001E-003    1.236610799034711E-003
  3.400000000000001E-003    1.290752582094085E-003
  3.500000000000001E-003    1.346978064611882E-003
  3.600000000000001E-003    1.405353416277704E-003
  3.700000000000001E-003    1.465946087938375E-003
  3.800000000000001E-003    1.528824952152345E-003
  3.900000000000001E-003    1.594059903696107E-003
  4.000000000000001E-003    1.661722133404795E-003
  4.100000000000001E-003    1.731884227931132E-003
  4.200000000000001E-003    1.804619599085932E-003
  4.300000000000001E-003    1.880002967390115E-003
  4.400000000000001E-003    1.958110064016916E-003
  4.500000000000001E-003    2.039017720905183E-003
  4.600000000000002E-003    2.122803962325618E-003
  4.700000000000001E-003    2.209547506520910E-003
  4.800000000000001E-003    2.299328822944442E-003
  4.900000000000002E-003    2.392228941851995E-003
  5.000000000000001E-003    2.488329974166869E-003
  5.100000000000001E-003    2.587715694960727E-003
  5.200000000000001E-003    2.690470452387199E-003
  5.300000000000002E-003    2.796679861881124E-003
  5.400000000000001E-003    2.906430318432002E-003
  5.500000000000001E-003    3.019809574853113E-003
  5.600000000000002E-003    3.136906044179294E-003
  5.700000000000001E-003    3.257808613781937E-003
  5.800000000000001E-003    3.382607172878744E-003
  5.900000000000002E-003    3.511392189541803E-003
  6.000000000000001E-003    3.644254250581245E-003
  6.100000000000001E-003    3.781283815934455E-003
  6.200000000000002E-003    3.922571899444844E-003
  6.300000000000002E-003    4.068209302429381E-003
  6.400000000000001E-003    4.218286258641278E-003
  6.500000000000001E-003    4.372892619532820E-003
  6.600000000000002E-003    4.532117601754476E-003
  6.700000000000001E-003    4.696049823945237E-003
  6.800000000000001E-003    4.864776720893151E-003
  6.900000000000002E-003    5.038385574349115E-003
  7.000000000000001E-003    5.216961509878003E-003
  7.100000000000001E-003    5.400589535130486E-003
  7.200000000000002E-003    5.589353255277751E-003
  7.300000000000002E-003    5.783334654549903E-003
  7.400000000000001E-003    5.982614815286598E-003
  7.500000000000001E-003    6.187273202897563E-003
  7.600000000000002E-003    6.397387934088957E-003
  7.700000000000001E-003    6.613035162841894E-003
  7.800000000000001E-003    6.834289113581539E-003
  7.900000000000001E-003    7.061222139052204E-003
  8.000000000000002E-003    7.293904077312571E-003
  8.100000000000001E-003    7.532401203482534E-003
  8.200000000000001E-003    7.776778375830023E-003
  8.300000000000002E-003    8.027096642608905E-003
  8.400000000000001E-003    8.283412536319024E-003
  8.500000000000002E-003    8.545780101245964E-003
  8.600000000000002E-003    8.814248119509755E-003
  8.700000000000001E-003    9.088861054399726E-003
  8.800000000000002E-003    9.369658811650776E-003
  8.900000000000002E-003    9.656676066787922E-003
  9.000000000000001E-003    9.949942104917783E-003
  9.100000000000002E-003    1.024948023472002E-002
  9.200000000000002E-003    1.055530833489163E-002
  9.300000000000001E-003    1.086743871205348E-002
  9.400000000000002E-003    1.118587605577967E-002
  9.500000000000001E-003    1.151062021209001E-002
  9.600000000000001E-003    1.184166309240996E-002
  9.700000000000002E-003    1.217899062539764E-002
  9.800000000000001E-003    1.252258083224018E-002
  9.900000000000001E-003    1.287240457983821E-002
  1.000000000000000E-002    1.322842505984115E-002
  1.010000000000000E-002    1.359059704988597E-002
  1.020000000000000E-002    1.395886715312797E-002
  1.030000000000000E-002    1.433317274070898E-002
  1.040000000000000E-002    1.471344282321534E-002
  1.050000000000000E-002    1.509959443787751E-002
  1.060000000000000E-002    1.549153600513227E-002
  1.070000000000000E-002    1.588916598595830E-002
  1.080000000000000E-002    1.629237040784320E-002
  1.090000000000000E-002    1.670102307290822E-002
  1.100000000000000E-002    1.711498763154905E-002
  1.110000000000000E-002    1.753411590774429E-002
  1.120000000000000E-002    1.795824505993354E-002
  1.130000000000000E-002    1.838720040382381E-002
  1.140000000000000E-002    1.882079445382447E-002
  1.150000000000000E-002    1.925882647344061E-002
  1.160000000000000E-002    1.970108148116047E-002
  1.170000000000000E-002    2.014733154420054E-002
  1.180000000000000E-002    2.059733322991044E-002
  1.190000000000000E-002    2.105083117829597E-002
  1.200000000000000E-002    2.150755340536541E-002
  1.210000000000000E-002    2.196721349857011E-002
  1.220000000000000E-002    2.242950972366339E-002
  1.230000000000000E-002    2.289412563367220E-002
  1.240000000000000E-002    2.336072818133784E-002
  1.250000000000000E-002    2.382896779964841E-002
  1.260000000000000E-002    2.429847882192346E-002
  1.270000000000000E-002    2.476887898146934E-002
  1.280000000000000E-002    2.523976656673806E-002
  1.290000000000000E-002    2.571072521634663E-002
  1.300000000000000E-002    2.618131869528887E-002
  1.310000000000000E-002    2.665109204720404E-002
  1.320000000000000E-002    2.711957417259920E-002
  1.330000000000000E-002    2.758627347230682E-002
  1.340000000000000E-002    2.805068070327467E-002
  1.350000000000000E-002    2.851226723226222E-002
  1.360000000000000E-002    2.897048709848660E-002
  1.370000000000000E-002    2.942477388106329E-002
  1.380000000000000E-002    2.987454371002634E-002
  1.390000000000000E-002    3.031919335039438E-002
  1.400000000000000E-002    3.075810047090031E-002
  1.410000000000000E-002    3.119062601810321E-002
  1.420000000000000E-002    3.161610997100565E-002
  1.430000000000000E-002    3.203387480095875E-002
  1.440000000000000E-002    3.244322534229157E-002
  1.450000000000000E-002    3.284344573628918E-002
  1.460000000000000E-002    3.323379991857785E-002
  1.470000000000000E-002    3.361353732867992E-002
  1.480000000000000E-002    3.398188407914242E-002
  1.490000000000000E-002    3.433805181701193E-002
  1.500000000000000E-002    3.468122814941101E-002
  1.510000000000000E-002    3.501058918756486E-002
  1.520000000000000E-002    3.532528623295186E-002
  1.530000000000000E-002    3.562445846169855E-002
  1.540000000000000E-002    3.590722422473665E-002
  1.550000000000000E-002    3.617268527752857E-002
  1.560000000000000E-002    3.641992721884774E-002
  1.570000000000000E-002    3.664802048070841E-002
  1.580000000000000E-002    3.685602021093985E-002
  1.590000000000000E-002    3.704296513929076E-002
  1.600000000000000E-002    3.720788289184421E-002
  1.610000000000000E-002    3.734978669980996E-002
  1.620000000000000E-002    3.746767581547292E-002
  1.630000000000000E-002    3.756053817518821E-002
  1.640000000000000E-002    3.762734977532831E-002
  1.650000000000000E-002    3.766707678934095E-002
  1.660000000000000E-002    3.767867384592035E-002
  1.670000000000000E-002    3.766108619739349E-002
  1.680000000000000E-002    3.761324906432711E-002
  1.690000000000000E-002    3.753408978292515E-002
  1.700000000000000E-002    3.742252750315882E-002
  1.710000000000000E-002    3.727747636373545E-002
  1.720000000000000E-002    3.709784230430036E-002
  1.730000000000000E-002    3.688252651695902E-002
  1.740000000000000E-002    3.663042336715758E-002
  1.750000000000000E-002    3.634042830345877E-002
  1.760000000000000E-002    3.601143225486155E-002
  1.770000000000000E-002    3.564232478633864E-002
  1.780000000000000E-002    3.523199855127312E-002
  1.790000000000000E-002    3.477934549669010E-002
  1.800000000000000E-002    3.428326451350307E-002
  1.810000000000000E-002    3.374265551196676E-002
  1.820000000000000E-002    3.315642524958876E-002
  1.830000000000000E-002    3.252348960849645E-002
  1.840000000000000E-002    3.184277172609393E-002
  1.850000000000000E-002    3.111320538401406E-002
  1.860000000000000E-002    3.033373719016803E-002
  1.870000000000000E-002    2.950332254931878E-002