 -4.000000000000000E-002    0.000000000000000E+000
 -3.990000000000000E-002    0.000000000000000E+000
 -3.980000000000000E-002    0.000000000000000E+000
 -3.970000000000000E-002    0.000000000000000E+000
 -3.960000000000000E-002    0.000000000000000E+000
 -3.950000000000000E-002    0.000000000000000E+000
 -3.940000000000000E-002   -2.794820391379736E-023
 -3.930000000000000E-002   -3.368337809143385E-022
 -3.920000000000000E-002   -2.157747877413049E-021
 -3.910000000000000E-002   -9.739103702050843E-021
 -3.900000000000000E-002   -3.465782375429852E-020
 -3.890000000000000E-002   -1.032013825745612E-019
 -3.880000000000000E-002   -2.665419344532052E-019
 -3.870000000000000E-002   -6.110995588476924E-019
 -3.860000000000000E-002   -1.262925579558205E-018
 -3.850000000000000E-002   -2.375763888457485E-018
 -3.840000000000000E-002   -4.089090401886797E-018
 -3.830000000000000E-002   -6.442010525724905E-018
 -3.820000000000000E-002   -9.233841758856272E-018
 -3.810000000000000E-002   -1.183448017174971E-017
 -3.800000000000000E-002   -1.296784216712120E-017
 -3.790000000000000E-002   -1.051793398353829E-017
 -3.780000000000000E-002   -1.434706528935426E-018
 -3.770000000000000E-002    1.816206129983196E-017
 -3.760000000000000E-002    5.257759409324063E-017
 -3.750000000000000E-002    1.057533219622533E-016
 -3.740000000000000E-002    1.800655023334215E-016
 -3.730000000000000E-002    2.747689717224571E-016
 -3.720000000000000E-002    3.842554022402991E-016
 -3.710000000000000E-002    4.964143080353680E-016
 -3.700000000000000E-002    5.914828630717384E-016
 -3.690000000000000E-002    6.418164745923575E-016
 -3.680000000000000E-002    6.129727183796340E-016
 -3.670000000000000E-002    4.663582332616216E-016
 -3.660000000000000E-002    1.634394298398993E-016
 -3.650000000000000E-002   -3.288115947622373E-016
 -3.640000000000000E-002   -1.031919003855985E-015
 -3.630000000000000E-002   -1.950328780431686E-015
 -3.620000000000000E-002   -3.067377691256737E-015
 -3.610000000000000E-002   -4.343814213793018E-015
 -3.600000000000000E-002   -5.719468229590969E-015
 -3.590000000000000E-002   -7.117929871043776E-015
 -3.580000000000000E-002   -8.453131525767610E-015
 -3.570000000000000E-002   -9.635677156263134E-015
 -3.560000000000000E-002   -1.057588288182838E-014
 -3.550000000000000E-002   -1.118008772915837E-014
 -3.540000000000000E-002   -1.133717634299780E-014
 -3.530000000000000E-002   -1.089360676814760E-014
 -3.520000000000000E-002   -9.617811242709113E-015
 -3.510000000000000E-002   -7.158223923332651E-015
 -3.500000000000000E-002   -3.003389746923874E-015
 -3.490000000000000E-002    3.543416054730248E-015
 -3.480000000000000E-002    1.335949204032857E-014
 -3.470000000000000E-002    2.745120836140339E-014
 -3.460000000000000E-002    4.684077142537962E-014
 -3.450000000000000E-002    7.238161265640582E-014
 -3.440000000000000E-002    1.045021113453566E-013
 -3.430000000000000E-002    1.428902644669948E-013
 -3.420000000000000E-002    1.861469887611640E-013
 -3.410000000000000E-002    2.314514748293294E-013
 -3.400000000000000E-002    2.742958951060136E-013
 -3.390000000000000E-002    3.083555682151095E-013
 -3.380000000000000E-002    3.255615445149488E-013
 -3.370000000000000E-002    3.164343885541167E-013
 -3.360000000000000E-002    2.707180084170393E-013
 -3.350000000000000E-002    1.783211297478351E-013
 -3.340000000000000E-002    3.053553712384186E-014
 -3.330000000000000E-002   -1.785436091982590E-013
 -3.320000000000000E-002   -4.505148497807821E-013
 -3.310000000000000E-002   -7.812391910308497E-013
 -3.300000000000000E-002   -1.159658163111708E-012
 -3.290000000000000E-002   -1.567042580161497E-012
 -3.280000000000000E-002   -1.976835819105182E-012
 -3.270000000000000E-002   -2.355211217628997E-012
 -3.260000000000000E-002   -2.662403071171524E-012
 -3.250000000000000E-002   -2.854790389589846E-012
 -3.240000000000000E-002   -2.887638894628287E-012
 -3.230000000000000E-002   -2.718317850982666E-012
 -3.220000000000000E-002   -2.309763837467670E-012
 -3.210000000000000E-002   -1.633920663091645E-012
 -3.200000000000000E-002   -6.748971783171465E-013
 -3.190000000000000E-002    5.683913163885326E-013
 -3.180000000000000E-002    2.080250057061423E-012
 -3.170000000000000E-002    3.826985411336561E-012
 -3.160000000000000E-002    5.756406286130977E-012
 -3.150000000000000E-002    7.797977832574210E-012
 -3.140000000000000E-002    9.863470019315472E-012
 -3.130000000000000E-002    1.184797834007746E-011
 -3.120000000000000E-002    1.363122958329608E-011
 -3.110000000000000E-002    1.507921057013587E-011
 -3.100000000000000E-002    1.604627082647279E-011
 -3.090000000000000E-002    1.637803432950656E-011
 -3.080000000000000E-002    1.591556695555341E-011
 -3.070000000000000E-002    1.450133555594507E-011
 -3.060000000000000E-002    1.198747208046919E-011
 -3.050000000000000E-002    8.246724779228941E-012
 -3.040000000000000E-002    3.186204561291303E-012
 -3.030000000000000E-002   -3.236350648662951E-012
 -3.020000000000000E-002   -1.099456770426622E-011
 -3.010000000000000E-002   -1.997501128374774E-011
 -3.000000000000000E-002   -2.996010868163421E-011
 -2.990000000000000E-002   -4.061470674701933E-011
 -2.980000000000000E-002   -5.147864419639950E-011
 -2.970000000000000E-002   -6.196776123895653E-011
 -2.960000000000000E-002   -7.138541825846927E-011
 -2.950000000000000E-002   -7.894589768090418E-011
 -2.940000000000000E-002   -8.381014222421305E-011
 -2.930000000000000E-002   -8.513312454146577E-011
 -2.920000000000000E-002   -8.212088441220207E-011
 -2.910000000000000E-002   -7.409400515749819E-011
 -2.900000000000000E-002   -6.055320231630747E-011
 -2.890000000000000E-002   -4.124204902636889E-011
 -2.880000000000000E-002   -1.620135108407475E-011
 -2.870000000000000E-002    1.418977526333075E-011
 -2.860000000000000E-002    4.919087669543283E-011
 -2.850000000000000E-002    8.769816149779023E-011
 -2.840000000000000E-002    1.282654011416591E-010
 -2.830000000000000E-002    1.691475878803858E-010
 -2.820000000000000E-002    2.083655797742269E-010
 -2.810000000000000E-002    2.437880985058430E-010
 -2.800000000000000E-002    2.732265334907886E-010
 -2.790000000000000E-002    2.945370299180402E-010
 -2.780000000000000E-002    3.057241344413462E-010
 -2.770000000000000E-002    3.050407063903940E-010
 -2.760000000000000E-002    2.910796402662938E-010
 -2.750000000000000E-002    2.628538450246617E-010
 -2.740000000000000E-002    2.198624466005654E-010
 -2.730000000000000E-002    1.621421244272233E-010
 -2.720000000000000E-002    9.030340041860999E-011
 -2.710000000000000E-002    5.552291498946577E-012
 -2.700000000000000E-002   -9.030266468500330E-011
 -2.690000000000000E-002   -1.948579205020426E-010
 -2.680000000000000E-002   -3.051379232696220E-010
 -2.670000000000000E-002   -4.176357034745779E-010
 -2.660000000000000E-002   -5.283731024511195E-010
 -2.650000000000000E-002   -6.329837726768987E-010
 -2.640000000000000E-002   -7.268211797493504E-010
 -2.630000000000000E-002   -8.050937973736884E-010
 -2.620000000000000E-002   -8.630265235825025E-010
 -2.610000000000000E-002   -8.960466567748657E-010
 -2.600000000000000E-002   -8.999889372841148E-010
 -2.590000000000000E-002   -8.713116595581942E-010
 -2.580000000000000E-002   -8.073137570751386E-010
 -2.570000000000000E-002   -7.063404920811340E-010
 -2.560000000000000E-002   -5.679654424607619E-010
 -2.550000000000000E-002   -3.931353846099663E-010
 -2.540000000000000E-002   -1.842679396802929E-010
 -2.530000000000000E-002    5.470623839684662E-011
 -2.520000000000000E-002    3.183615617862880E-010
 -2.510000000000000E-002    5.998575349235333E-010
 -2.500000000000000E-002    8.910768891761014E-010
 -2.490000000000000E-002    1.182817283533202E-009
 -2.480000000000000E-002    1.465029376000521E-009
 -2.470000000000000E-002    1.727091411235190E-009
 -2.460000000000000E-002    1.958114063185776E-009
 -2.450000000000000E-002    2.147267657500540E-009
 -2.440000000000000E-002    2.284127580269688E-009
 -2.430000000000000E-002    2.359033434942578E-009
 -2.420000000000000E-002    2.363460027726163E-009
 -2.410000000000000E-002    2.290396754797325E-009
 -2.400000000000000E-002    2.134730527226625E-009
 -2.390000000000000E-002    1.893621205659298E-009
 -2.380000000000000E-002    1.566857772211946E-009
 -2.370000000000000E-002    1.157174573532367E-009
 -2.360000000000000E-002    6.705001301033873E-010
 -2.350000000000000E-002    1.161115442422005E-010
 -2.340000000000000E-002   -4.933404079371165E-010
 -2.330000000000000E-002   -1.141959250908986E-009
 -2.320000000000000E-002   -1.810912908364259E-009
 -2.310000000000000E-002   -2.478931847938070E-009
 -2.300000000000000E-002   -3.122998248140256E-009
 -2.290000000000000E-002   -3.719203157908801E-009
 -2.280000000000000E-002   -4.243734193314882E-009
 -2.270000000000000E-002   -4.673939515493179E-009
 -2.260000000000000E-002   -4.989400510119476E-009
 -2.250000000000000E-002   -5.172936444788055E-009
 -2.240000000000000E-002   -5.211465541871323E-009
 -2.230000000000000E-002   -5.096655153942350E-009
 -2.220000000000000E-002   -4.825308066673068E-009
 -2.210000000000000E-002   -4.399456742731543E-009
 -2.200000000000000E-002   -3.826165028808484E-009
 -2.190000000000000E-002   -3.117064933315794E-009
 -2.180000000000000E-002   -2.287684750253397E-009
 -2.170000000000000E-002   -1.356646510222807E-009
 -2.160000000000000E-002   -3.448247506261398E-010
 -2.150000000000000E-002    7.254460541331957E-010
 -2.140000000000000E-002    1.831025143485875E-009
 -2.130000000000000E-002    2.948427398435426E-009
 -2.120000000000000E-002    4.054061095789586E-009
 -2.110000000000000E-002    5.124253789765958E-009
 -2.100000000000000E-002    6.135114694713677E-009
 -2.090000000000000E-002    7.062313396817741E-009
 -2.080000000000000E-002    7.880887480056788E-009
 -2.070000000000000E-002    8.565191845566788E-009
 -2.060000000000000E-002    9.089111201322988E-009
 -2.050000000000000E-002    9.426620570094379E-009
 -2.040000000000000E-002    9.552744094271269E-009
 -2.030000000000000E-002    9.444912367061653E-009
 -2.020000000000000E-002    9.084652544625716E-009
 -2.010000000000000E-002    8.459494053048911E-009
 -2.000000000000000E-002    7.564912568167262E-009
 -1.990000000000000E-002    6.406104709671630E-009
 -1.980000000000000E-002    4.999368272766816E-009
 -1.970000000000000E-002    3.372872104039336E-009
 -1.960000000000000E-002    1.566641258669170E-009
 -1.950000000000000E-002   -3.683537636730800E-010
 -1.940000000000000E-002   -2.372049442987105E-009
 -1.930000000000000E-002   -4.378007915960670E-009
 -1.920000000000000E-002   -6.316857076188936E-009
 -1.910000000000000E-002   -8.120217426218860E-009
 -1.900000000000000E-002   -9.724794133304075E-009
 -1.890000000000000E-002   -1.107630610553578E-008
 -1.880000000000000E-002   -1.213289180832610E-008
 -1.870000000000000E-002   -1.286768572580176E-008
 -1.860000000000000E-002   -1.327030882287887E-008
 -1.850000000000000E-002   -1.334711694394599E-008
 -1.840000000000000E-002   -1.312017052107736E-008
 -1.830000000000000E-002   -1.262500193524067E-008
 -1.820000000000000E-002   -1.190738087537942E-008
 -1.810000000000000E-002   -1.101936930181209E-008
 -1.800000000000000E-002   -1.001503444607223E-008
 -1.790000000000000E-002   -8.946212101001832E-009
 -1.780000000000000E-002   -7.858703294619760E-009
 -1.770000000000000E-002   -6.789236551578820E-009
 -1.760000000000000E-002   -5.763453863033624E-009
 -1.750000000000000E-002   -4.795028410098927E-009
 -1.740000000000000E-002   -3.885945198060899E-009
 -1.730000000000000E-002   -3.027806575392512E-009
 -1.720000000000000E-002   -2.203919522201383E-009
 -1.710000000000000E-002   -1.391863879495308E-009
 -1.700000000000000E-002   -5.661393784764494E-010
 -1.690000000000000E-002    2.994644451664643E-010
 -1.680000000000000E-002    1.230135282657937E-009
 -1.670000000000000E-002    2.249198064311947E-009
 -1.660000000000000E-002    3.378338658751821E-009
 -1.650000000000000E-002    4.638919095432865E-009
 -1.640000000000000E-002    6.054285878233746E-009
 -1.630000000000000E-002    7.652851225386409E-009
 -1.620000000000000E-002    9.471630517339645E-009
 -1.610000000000000E-002    1.155984058060278E-008
 -1.600000000000000E-002    1.398216409508229E-008
 -1.590000000000000E-002    1.682128539973563E-008
 -1.580000000000000E-002    2.017937770251972E-008
 -1.570000000000000E-002    2.417833103239553E-008
 -1.560000000000000E-002    2.895862401169449E-008
 -1.550000000000000E-002    3.467688767507139E-008
 -1.540000000000000E-002    4.150236004305113E-008
 -1.530000000000000E-002    4.961257519323229E-008
 -1.520000000000000E-002    5.918860461403292E-008
 -1.510000000000000E-002    7.041043903602981E-008
 -1.500000000000000E-002    8.345293034123823E-008
 -1.490000000000000E-002    9.848272360425651E-008
 -1.480000000000000E-002    1.156566019074118E-007
 -1.470000000000000E-002    1.351214676373942E-007
 -1.460000000000000E-002    1.570161142364269E-007
 -1.450000000000000E-002    1.814747140239615E-007
 -1.440000000000000E-002    2.086319030334940E-007
 -1.430000000000000E-002    2.386290936581849E-007
 -1.420000000000000E-002    2.716215808480455E-007
 -1.410000000000000E-002    3.077860366213400E-007
 -1.400000000000000E-002    3.473277148489896E-007
 -1.390000000000000E-002    3.904869770625634E-007
 -1.380000000000000E-002    4.375445992298129E-007
 -1.370000000000000E-002    4.888253812957638E-007
 -1.360000000000000E-002    5.447001596857016E-007
 -1.350000000000000E-002    6.055855248313358E-007
 -1.340000000000000E-002    6.719419907313488E-007
 -1.330000000000000E-002    7.442700134907927E-007
 -1.320000000000000E-002    8.231049192297576E-007
 -1.310000000000000E-002    9.090105003032842E-007
 -1.300000000000000E-002    1.002572093617795E-006
 -1.290000000000000E-002    1.104389754367570E-006
 -1.280000000000000E-002    1.215071277079366E-006
 -1.270000000000000E-002    1.335226423413060E-006
 -1.260000000000000E-002    1.465462119724519E-006
 -1.250000000000000E-002    1.606379109541415E-006
 -1.240000000000000E-002    1.758569779502353E-006
 -1.230000000000000E-002    1.922617955926259E-006
 -1.220000000000000E-002    2.099099650597993E-006
 -1.210000000000000E-002    2.288585616681379E-006
 -1.200000000000000E-002    2.491643826902187E-006
 -1.190000000000000E-002    2.708844210457160E-006
 -1.180000000000000E-002    2.940762517828740E-006
 -1.170000000000000E-002    3.187985406403679E-006
 -1.160000000000000E-002    3.451114700753136E-006
 -1.150000000000000E-002    3.730771941982842E-006
 -1.140000000000000E-002    4.027602818172190E-006
 -1.130000000000000E-002    4.342281567380516E-006
 -1.120000000000000E-002    4.675515043992385E-006
 -1.110000000000000E-002    5.028047079071170E-006
 -1.100000000000000E-002    5.400662799075823E-006
 -1.090000000000000E-002    5.794193403338867E-006
 -1.080000000000000E-002    6.209521761258234E-006
 -1.070000000000000E-002    6.647588416681607E-006
 -1.060000000000000E-002    7.109398181335335E-006
 -1.050000000000000E-002    7.596028033677626E-006
 -1.040000000000000E-002    8.108635450670700E-006
 -1.030000000000000E-002    8.648466442535300E-006
 -1.020000000000000E-002    9.216866877837798E-006
 -1.010000000000000E-002    9.815289940019908E-006
 -1.000000000000000E-002    1.044530837291474E-005
 -9.899999999999999E-003    1.110862310813247E-005
 -9.800000000000000E-003    1.180707475446761E-005
 -9.699999999999999E-003    1.254265283835696E-005
 -9.599999999999999E-003    1.331750420984142E-005
 -9.500000000000000E-003    1.413394396490749E-005
 -9.399999999999999E-003    1.499446147415842E-005
 -9.299999999999999E-003    1.590172977256248E-005
 -9.200000000000000E-003    1.685860898825419E-005
 -9.099999999999999E-003    1.786815349265954E-005
 -8.999999999999999E-003    1.893361282145416E-005
 -8.900000000000000E-003    2.005843530522260E-005
 -8.799999999999999E-003    2.124626509262445E-005
 -8.699999999999999E-003    2.250094348840329E-005
 -8.600000000000000E-003    2.382650271454164E-005
 -8.499999999999999E-003    2.522716505579066E-005
 -8.399999999999999E-003    2.670733214271173E-005
 -8.300000000000000E-003    2.827158507743642E-005
 -8.199999999999999E-003    2.992467828426472E-005
 -8.100000000000000E-003    3.167153781792921E-005
 -8.000000000000000E-003    3.351725971678168E-005
 -7.899999999999999E-003    3.546711076804902E-005
 -7.800000000000000E-003    3.752654046863252E-005
 -7.699999999999999E-003    3.970118906406998E-005
 -7.599999999999999E-003    4.199690768612834E-005
 -7.499999999999999E-003    4.441977284516735E-005
 -7.399999999999999E-003    4.697611377924229E-005
 -7.299999999999999E-003    4.967253636657468E-005
 -7.199999999999999E-003    5.251596265083922E-005
 -7.100000000000000E-003    5.551364766146205E-005
 -6.999999999999999E-003    5.867321084171117E-005
 -6.899999999999999E-003    6.200266361794984E-005
 -6.800000000000000E-003    6.551042929977670E-005
 -6.699999999999999E-003    6.920535644091326E-005
 -6.599999999999999E-003    7.309672155252104E-005
 -6.499999999999999E-003    7.719423300745244E-005
 -6.399999999999999E-003    8.150803629921141E-005
 -6.299999999999999E-003    8.604867736651169E-005
 -6.199999999999999E-003    9.082709080982430E-005
 -6.100000000000000E-003    9.585459589083806E-005
 -5.999999999999999E-003    1.011428551842857E-004
 -5.899999999999999E-003    1.067038648633010E-004
 -5.800000000000000E-003    1.125499226282516E-004
 -5.699999999999999E-003    1.186936450809922E-004
 -5.599999999999999E-003    1.251479401875899E-004
 -5.499999999999999E-003    1.319260269947461E-004
 -5.399999999999999E-003    1.390414742407778E-004
 -5.299999999999999E-003    1.465081929662853E-004
 -5.199999999999999E-003    1.543405120327052E-004
 -5.099999999999999E-003    1.625532388983988E-004
 -4.999999999999999E-003    1.711616922289854E-004
 -4.899999999999999E-003    1.801817908083823E-004
 -4.799999999999999E-003    1.896301297745463E-004
 -4.699999999999999E-003    1.995240184165880E-004
 -4.599999999999999E-003    2.098815924058109E-004
 -4.499999999999999E-003    2.207218306879667E-004
 -4.399999999999999E-003    2.320646776005041E-004
 -4.299999999999999E-003    2.439309843285777E-004
 -4.199999999999999E-003    2.563426339575574E-004
 -4.099999999999999E-003    2.693225114919293E-004
 -3.999999999999999E-003    2.828945649259056E-004
 -3.899999999999999E-003    2.970837616355155E-004
 -3.799999999999999E-003    3.119160982895672E-004
 -3.699999999999999E-003    3.274186449574673E-004
 -3.599999999999999E-003    3.436194918717549E-004
 -3.499999999999999E-003    3.605478006832223E-004
 -3.399999999999999E-003    3.782337745713315E-004
 -3.299999999999999E-003    3.967087659152897E-004
 -3.199999999999999E-003    4.160051878843608E-004
 -3.099999999999999E-003    4.361566751843074E-004
 -2.999999999999999E-003    4.571980803553768E-004
 -2.899999999999999E-003    4.791655581877939E-004
 -2.799999999999999E-003    5.020966799428282E-004
 -2.699999999999999E-003    5.260304706805058E-004
 -2.599999999999999E-003    5.510075155308792E-004
 -2.499999999999999E-003    5.770700032408603E-004
 -2.399999999999999E-003    6.042618329257408E-004
 -2.299999999999999E-003    6.326285864515164E-004
 -2.199999999999999E-003    6.622177412637803E-004
 -2.099999999999999E-003    6.930784754716803E-004
 -1.999999999999999E-003    7.252618144834505E-004
 -1.899999999999999E-003    7.588205646477921E-004
 -1.799999999999999E-003    7.938093471670091E-004
 -1.699999999999999E-003    8.302844989253889E-004
 -1.599999999999999E-003    8.683040058067140E-004
 -1.499999999999999E-003    9.079275248087034E-004
 -1.399999999999999E-003    9.492162732110232E-004
 -1.299999999999999E-003    9.922330655868236E-004
 -1.199999999999999E-003    1.037042304195060E-003
 -1.099999999999999E-003    1.083709848535356E-003
 -9.999999999999989E-004    1.132303173568962E-003
 -8.999999999999990E-004    1.182891300809274E-003
 -7.999999999999990E-004    1.235544948367020E-003
 -6.999999999999989E-004    1.290336439801556E-003
 -5.999999999999990E-004    1.347339770742570E-003
 -4.999999999999989E-004    1.406630853032926E-003
 -3.999999999999989E-004    1.468287523842040E-003
 -2.999999999999989E-004    1.532389403571528E-003
 -1.999999999999989E-004    1.599018385990449E-003
 -9.999999999999892E-005    1.668258252754336E-003
  1.084202172485504E-018    1.740195068606294E-003
  1.000000000000011E-004    1.814916752482024E-003
  2.000000000000011E-004    1.892513655419520E-003
  3.000000000000011E-004    1.973078123804360E-003
  4.000000000000011E-004    2.056704562512919E-003
  5.000000000000011E-004    2.143489600826533E-003
  6.000000000000011E-004    2.233531884023446E-003
  7.000000000000011E-004    2.326932168893318E-003
  8.000000000000011E-004    2.423793117570031E-003
  9.000000000000012E-004    2.524219438265481E-003
  1.000000000000001E-003    2.628317770948082E-003
  1.100000000000001E-003    2.736197096841035E-003
  1.200000000000001E-003    2.847968307028474E-003
  1.300000000000001E-003    2.963744560921512E-003
  1.400000000000001E-003    3.083641128398552E-003
  1.500000000000001E-003    3.207775397472019E-003
  1.600000000000001E-003    3.336267210710432E-003
  1.700000000000001E-003    3.469239089595350E-003
  1.800000000000001E-003    3.606815723557239E-003
  1.900000000000001E-003    3.749124706392743E-003
  2.000000000000001E-003    3.896295979459367E-003
  2.100000000000001E-003    4.048462587637203E-003
  2.200000000000001E-003    4.205760291927389E-003
  2.300000000000001E-003    4.368327585969813E-003
  2.400000000000001E-003    4.536306095867699E-003
  2.500000000000001E-003    4.709840155703628E-003
  2.600000000000001E-003    4.889077166602512E-003
  2.700000000000001E-003    5.074167272691416E-003
  2.800000000000001E-003    5.265263595151694E-003
  2.900000000000001E-003    5.462522686894025E-003
  3.000000000000001E-003    5.666102941262432E-003
  3.100000000000001E-003    5.876167024828961E-003
  3.200000000000001E-003    6.092880020139196E-003
  3.300000000000001E-003    6.316410059573578E-003
  3.400000000000001E-003    6.546928356312596E-003
  3.500000000000001E-003    6.784609520407697E-003
  3.600000000000001E-003    7.029630661548003E-003
  3.700000000000001E-003    7.282172761683448E-003
  3.800000000000001E-003    7.542419217255990E-003
  3.900000000000001E-003    7.810557936327692E-003
  4.000000000000001E-003    8.086778428303118E-003
  4.100000000000001E-003    8.371274838720189E-003
  4.200000000000001E-003    8.664243269075214E-003
  4.300000000000001E-003    8.965883997012611E-003
  4.400000000000001E-003    9.276398928831120E-003
  4.500000000000001E-003    9.595993540384285E-003
  4.600000000000002E-003    9.924876069581720E-003
  4.700000000000001E-003    1.026325806141756E-002
  4.800000000000001E-003    1.061135198213076E-002
  4.900000000000002E-003    1.096937400954025E-002
  5.000000000000001E-003    1.133754246304308E-002
  5.100000000000001E-003    1.171607780169259E-002
  5.200000000000001E-003    1.210520351497490E-002
  5.300000000000002E-003    1.250514360146622E-002
  5.400000000000001E-003    1.291612551087502E-002
  5.500000000000001E-003    1.333837866001722E-002
  5.600000000000002E-003    1.377213333682674E-002
  5.700000000000001E-003    1.421762274963657E-002
  5.800000000000001E-003    1.467508211593532E-002
  5.900000000000002E-003    1.514474758550932E-002
  6.000000000000001E-003    1.562685817555408E-002
  6.100000000000001E-003    1.612165311436417E-002
  6.200000000000002E-003    1.662937513815406E-002
  6.300000000000002E-003    1.715026752279330E-002
  6.400000000000001E-003    1.768457432052121E-002
  6.500000000000001E-003    1.823253984505736E-002
  6.600000000000002E-003    1.879441205079803E-002
  6.700000000000001E-003    1.937043659422831E-002
  6.800000000000001E-003    1.996086286036982E-002
  6.900000000000002E-003    2.056593850413135E-002
  7.000000000000001E-003    2.118591271051969E-002
  7.100000000000001E-003    2.182103441821051E-002
  7.200000000000002E-003    2.247155409766070E-002
  7.300000000000002E-003    2.313772177959605E-002
  7.400000000000001E-003    2.381978750032000E-002
  7.500000000000001E-003    2.451800066902063E-002
  7.600000000000002E-003    2.523261199392483E-002
  7.700000000000001E-003    2.596387203815133E-002
  7.800000000000001E-003    2.671203119311448E-002
  7.900000000000001E-003    2.747733882077417E-002
  8.000000000000002E-003    2.826004316634445E-002
  8.100000000000001E-003    2.906039437121139E-002
  8.200000000000001E-003    2.987864012508844E-002
  8.300000000000002E-003    3.071502834609450E-002
  8.400000000000001E-003    3.156980545473222E-002
  8.500000000000002E-003    3.244321667135713E-002
  8.600000000000002E-003    3.333550612097744E-002
  8.700000000000001E-003    3.424691619469040E-002
  8.800000000000002E-003    3.517768891117339E-002
  8.900000000000002E-003    3.612806354813369E-002
  9.000000000000001E-003    3.709827714955088E-002
  9.100000000000002E-003    3.808856152633981E-002
  9.200000000000002E-003    3.909915004140186E-002
  9.300000000000001E-003    4.013027420524315E-002
  9.400000000000002E-003    4.118215797356677E-002
  9.500000000000001E-003    4.225502751437110E-002
  9.600000000000001E-003    4.334909989854710E-002
  9.700000000000002E-003    4.446459422509193E-002
  9.800000000000001E-003    4.560172623630394E-002
  9.900000000000001E-003    4.676070260046086E-002
  1.000000000000000E-002    4.794172879115243E-002
  1.010000000000000E-002    4.914500976220879E-002
  1.020000000000000E-002    5.037074119658046E-002
  1.030000000000000E-002    5.161912093871071E-002
  1.040000000000000E-002    5.289033301248976E-002
  1.050000000000000E-002    5.418455827573923E-002
  1.060000000000000E-002    5.550198129102841E-002
  1.070000000000000E-002    5.684277106650021E-002
  1.080000000000000E-002    5.820709784303534E-002
  1.090000000000000E-002    5.959512081471156E-002
  1.100000000000000E-002    6.100699198871364E-002
  1.110000000000000E-002    6.244286161360892E-002
  1.120000000000000E-002    6.390286807130048E-002
  1.130000000000000E-002    6.538713778874737E-002
  1.140000000000000E-002    6.689580010405476E-002
  1.150000000000000E-002    6.842896885662519E-002
  1.160000000000000E-002    6.998674647029017E-002
  1.170000000000000E-002    7.156922988919384E-002
  1.180000000000000E-002    7.317650368127379E-002
  1.190000000000000E-002    7.480864648131622E-002
  1.200000000000000E-002    7.646571265117541E-002
  1.210000000000000E-002    7.814775973231472E-002
  1.220000000000000E-002    7.985483354658465E-002
  1.230000000000000E-002    8.158695463635744E-002
  1.240000000000000E-002    8.334415112513169E-002
  1.250000000000000E-002    8.512641608317958E-002
  1.260000000000000E-002    8.693374379613779E-002
  1.270000000000000E-002    8.876611199073134E-002
  1.280000000000000E-002    9.062347661707464E-002
  1.290000000000000E-002    9.250578726786120E-002
  1.300000000000000E-002    9.441297669663685E-002
  1.310000000000000E-002    9.634495566054921E-002
  1.320000000000000E-002    9.830162221539376E-002
  1.330000000000000E-002    0.100282858461410     
  1.340000000000000E-002    0.102288522116313     
  1.350000000000000E-002    0.104318458503098     
  1.360000000000000E-002    0.106372482468275     
  1.370000000000000E-002    0.108450407668832     
  1.380000000000000E-002    0.110552007191049     
  1.390000000000000E-002    0.112677038821569     
  1.400000000000000E-002    0.114825244379168     
  1.410000000000000E-002    0.116996329441638     
  1.420000000000000E-002    0.119189986973502     
  1.430000000000000E-002    0.121405873752935     
  1.440000000000000E-002    0.123643633317532     
  1.450000000000000E-002    0.125902857718647     
  1.460000000000000E-002    0.128183136767071     
  1.470000000000000E-002    0.130484020121550     
  1.480000000000000E-002    0.132805027127299     
  1.490000000000000E-002    0.135145639696008     
  1.500000000000000E-002    0.137505318102961     
  1.510000000000000E-002    0.139883478709857     
  1.520000000000000E-002    0.142279502644486     
  1.530000000000000E-002    0.144692752380976     
  1.540000000000000E-002    0.147122536314294     
  1.550000000000000E-002    0.149568123370228     
  1.560000000000000E-002    0.152028737237252     
  1.570000000000000E-002    0.154503579295211     
  1.580000000000000E-002    0.156991808409208     
  1.590000000000000E-002    0.159492523637497     
  1.600000000000000E-002    0.162004781624134     
  1.610000000000000E-002    0.164527597603680     
  1.620000000000000E-002    0.167059944579284     
  1.630000000000000E-002    0.169600725290697     
  1.640000000000000E-002    0.172148830013068     
  1.650000000000000E-002    0.174703059149814     
  1.660000000000000E-002    0.177262165751449     
  1.670000000000000E-002    0.179824864169989     
  1.680000000000000E-002    0.182389798193611     
  1.690000000000000E-002    0.184955543611981     
  1.700000000000000E-002    0.187520644314085     
  1.710000000000000E-002    0.190083559723996     
  1.720000000000000E-002    0.192642696191421     
  1.730000000000000E-002    0.195196393528226     
  1.740000000000000E-002    0.197742917120723     
  1.750000000000000E-002    0.200280473529874     
  1.760000000000000E-002    0.202807200344236     
  1.770000000000000E-002    0.205321168786347     
  1.780000000000000E-002    0.207820352403623     
  1.790000000000000E-002    0.210302680271890     
  1.800000000000000E-002    0.212766001687667     
  1.810000000000000E-002    0.215208075161729     
  1.820000000000000E-002    0.217626588257542     
  1.830000000000000E-002    0.220019154877648     
  1.840000000000000E-002    0.222383286326521     
  1.850000000000000E-002    0.224716434494011     
  1.860000000000000E-002    0.227015963126410     
  1.870000000000000E-002    0.229279144921417     