 -4.000000000000000E-002    0.000000000000000E+000
 -3.990000000000000E-002    0.000000000000000E+000
 -3.980000000000000E-002    0.000000000000000E+000
 -3.970000000000000E-002    0.000000000000000E+000
 -3.960000000000000E-002    0.000000000000000E+000
 -3.950000000000000E-002    0.000000000000000E+000
 -3.940000000000000E-002    0.000000000000000E+000
 -3.930000000000000E-002    0.000000000000000E+000
 -3.920000000000000E-002    0.000000000000000E+000
 -3.910000000000000E-002    0.000000000000000E+000
 -3.900000000000000E-002    0.000000000000000E+000
 -3.890000000000000E-002    0.000000000000000E+000
 -3.880000000000000E-002    0.000000000000000E+000
 -3.870000000000000E-002    0.000000000000000E+000
 -3.860000000000000E-002    0.000000000000000E+000
 -3.850000000000000E-002    0.000000000000000E+000
 -3.840000000000000E-002    8.401787699538826E-047
 -3.830000000000000E-002    9.741273065630687E-046
 -3.820000000000000E-002    9.303806143103076E-045
 -3.810000000000000E-002    6.962023235363735E-044
 -3.800000000000000E-002    4.284897479466234E-043
 -3.790000000000000E-002    2.237223365287596E-042
 -3.780000000000000E-002    1.018773811386463E-041
 -3.770000000000000E-002    4.122133164752614E-041
 -3.760000000000000E-002    1.502525653486746E-040
 -3.750000000000000E-002    4.984986235654119E-040
 -3.740000000000000E-002    1.516899877914990E-039
 -3.730000000000000E-002    4.256107493805973E-039
 -3.720000000000000E-002    1.104609895653658E-038
 -3.710000000000000E-002    2.654032409307002E-038
 -3.700000000000000E-002    5.890420475111100E-038
 -3.690000000000000E-002    1.199270957279479E-037
 -3.680000000000000E-002    2.204634415095360E-037
 -3.670000000000000E-002    3.527069402450631E-037
 -3.660000000000000E-002    4.419223095350730E-037
 -3.650000000000000E-002    2.361527182090822E-037
 -3.640000000000000E-002   -9.166497478797797E-037
 -3.630000000000000E-002   -4.474361058567376E-036
 -3.620000000000000E-002   -1.336758756178836E-035
 -3.610000000000000E-002   -3.297639370630788E-035
 -3.600000000000000E-002   -7.235323794366579E-035
 -3.590000000000000E-002   -1.453669364202740E-034
 -3.580000000000000E-002   -2.709488484956457E-034
 -3.570000000000000E-002   -4.708203453586566E-034
 -3.560000000000000E-002   -7.619476826165834E-034
 -3.550000000000000E-002   -1.139622917259270E-033
 -3.540000000000000E-002   -1.545880411145473E-033
 -3.530000000000000E-002   -1.817704301772819E-033
 -3.520000000000000E-002   -1.611468435933907E-033
 -3.510000000000000E-002   -3.061583788277792E-034
 -3.500000000000000E-002    3.099555678480094E-033
 -3.490000000000000E-002    1.006020199559860E-032
 -3.480000000000000E-002    2.245934324298459E-032
 -3.470000000000000E-002    4.238248629733045E-032
 -3.460000000000000E-002    7.154074257491934E-032
 -3.450000000000000E-002    1.101707857142318E-031
 -3.440000000000000E-002    1.552438453245933E-031
 -3.430000000000000E-002    1.978922071356194E-031
 -3.420000000000000E-002    2.201463075986446E-031
 -3.410000000000000E-002    1.914087724209736E-031
 -3.400000000000000E-002    6.560121691163641E-032
 -3.390000000000000E-002   -2.194058249935173E-031
 -3.380000000000000E-002   -7.377000223378998E-031
 -3.370000000000000E-002   -1.563494809117096E-030
 -3.360000000000000E-002   -2.748140015594826E-030
 -3.350000000000000E-002   -4.282986139516114E-030
 -3.340000000000000E-002   -6.046822059871437E-030
 -3.330000000000000E-002   -7.740140477125604E-030
 -3.320000000000000E-002   -8.814268275729742E-030
 -3.310000000000000E-002   -8.411534871568413E-030
 -3.300000000000000E-002   -5.342630760460483E-030
 -3.290000000000000E-002    1.862275848074502E-030
 -3.280000000000000E-002    1.478384978696404E-029
 -3.270000000000000E-002    3.477830864782313E-029
 -3.260000000000000E-002    6.243847020379143E-029
 -3.250000000000000E-002    9.683878781284852E-029
 -3.240000000000000E-002    1.345997716022675E-028
 -3.230000000000000E-002    1.688800112244945E-028
 -3.220000000000000E-002    1.885005230148497E-028
 -3.210000000000000E-002    1.775179307281698E-028
 -3.200000000000000E-002    1.156725363766944E-028
 -3.190000000000000E-002   -1.978467146454416E-029
 -3.180000000000000E-002   -2.503746614360995E-028
 -3.170000000000000E-002   -5.903833493017584E-028
 -3.160000000000000E-002   -1.038445983717290E-027
 -3.150000000000000E-002   -1.567093986694956E-027
 -3.140000000000000E-002   -2.111351234616765E-027
 -3.130000000000000E-002   -2.558382656280180E-027
 -3.120000000000000E-002   -2.741228527925096E-027
 -3.110000000000000E-002   -2.440636219669179E-027
 -3.100000000000000E-002   -1.399684258315644E-027
 -3.090000000000000E-002    6.440512151484375E-028
 -3.080000000000000E-002    3.904980994638931E-027
 -3.070000000000000E-002    8.473146987057349E-027
 -3.060000000000000E-002    1.421750809786588E-026
 -3.050000000000000E-002    2.067707984777950E-026
 -3.040000000000000E-002    2.695539672021043E-026
 -3.030000000000000E-002    3.164190091705493E-026
 -3.020000000000000E-002    3.279169607708069E-026
 -3.010000000000000E-002    2.800090118260099E-026
 -3.000000000000000E-002    1.461629129938337E-026
 -2.990000000000000E-002   -9.887332276078553E-027
 -2.980000000000000E-002   -4.734329681137920E-026
 -2.970000000000000E-002   -9.814980652304130E-026
 -2.960000000000000E-002   -1.603921842497091E-025
 -2.950000000000000E-002   -2.289241213416264E-025
 -2.940000000000000E-002   -2.945569630535687E-025
 -2.930000000000000E-002   -3.435618418163341E-025
 -2.920000000000000E-002   -3.577348222688404E-025
 -2.910000000000000E-002   -3.152977695475808E-025
 -2.900000000000000E-002   -1.928918048140804E-025
 -2.890000000000000E-002    3.114866973090761E-026
 -2.880000000000000E-002    3.721871574528436E-025
 -2.870000000000000E-002    8.334926339680777E-025
 -2.860000000000000E-002    1.399687697374615E-024
 -2.850000000000000E-002    2.030185349873545E-024
 -2.840000000000000E-002    2.653702848092576E-024
 -2.830000000000000E-002    3.165251921373149E-024
 -2.820000000000000E-002    3.427214770258100E-024
 -2.810000000000000E-002    3.276152704898637E-024
 -2.800000000000000E-002    2.536780769796108E-024
 -2.790000000000000E-002    1.044002412052412E-024
 -2.780000000000000E-002   -1.326998492987006E-024
 -2.770000000000000E-002   -4.623883146845978E-024
 -2.760000000000000E-002   -8.776347386076061E-024
 -2.750000000000000E-002   -1.355598410459971E-023
 -2.740000000000000E-002   -1.854315697417251E-023
 -2.730000000000000E-002   -2.310865382402364E-023
 -2.720000000000000E-002   -2.641868423627314E-023
 -2.710000000000000E-002   -2.747157606070003E-023
 -2.700000000000000E-002   -2.517300219446767E-023
 -2.690000000000000E-002   -1.845346558491135E-023
 -2.680000000000000E-002   -6.426999063433594E-024
 -2.670000000000000E-002    1.141627930937286E-023
 -2.660000000000000E-002    3.499854380138467E-023
 -2.650000000000000E-002    6.344627845164661E-023
 -2.640000000000000E-002    9.491594386056787E-023
 -2.630000000000000E-002    1.264888056283370E-022
 -2.620000000000000E-002    1.541727492609020E-022
 -2.610000000000000E-002    1.730467834850818E-022
 -2.600000000000000E-002    1.775759073730631E-022
 -2.590000000000000E-002    1.621099753333215E-022
 -2.580000000000000E-002    1.215597801429592E-022
 -2.570000000000000E-002    5.221787138255536E-023
 -2.560000000000000E-002   -4.733725013845787E-023
 -2.550000000000000E-002   -1.753442503670329E-022
 -2.540000000000000E-002   -3.260853899750133E-022
 -2.530000000000000E-002   -4.893700518491945E-022
 -2.520000000000000E-002   -6.504137792817650E-022
 -2.510000000000000E-002   -7.902388339700782E-022
 -2.500000000000000E-002   -8.866918338493527E-022
 -2.490000000000000E-002   -9.161207627414630E-022
 -2.480000000000000E-002   -8.556835719494048E-022
 -2.470000000000000E-002   -6.861754573426176E-022
 -2.460000000000000E-002   -3.951695277825986E-022
 -2.450000000000000E-002    1.982252863318623E-023
 -2.440000000000000E-002    5.485358469073806E-022
 -2.430000000000000E-002    1.165894701228465E-021
 -2.420000000000000E-002    1.831125964553238E-021
 -2.410000000000000E-002    2.488413261508043E-021
 -2.400000000000000E-002    3.069359290969364E-021
 -2.390000000000000E-002    3.497372481751217E-021
 -2.380000000000000E-002    3.693893477475612E-021
 -2.370000000000000E-002    3.586149918876970E-021
 -2.360000000000000E-002    3.115890271694147E-021
 -2.350000000000000E-002    2.248333787815039E-021
 -2.340000000000000E-002    9.804054902997989E-022
 -2.330000000000000E-002   -6.527644490717503E-022
 -2.320000000000000E-002   -2.574081882751281E-021
 -2.310000000000000E-002   -4.664349947870189E-021
 -2.300000000000000E-002   -6.766374406455970E-021
 -2.290000000000000E-002   -8.693584366770341E-021
 -2.280000000000000E-002   -1.024299261658354E-020
 -2.270000000000000E-002   -1.121183341697307E-020
 -2.260000000000000E-002   -1.141673727390256E-020
 -2.250000000000000E-002   -1.071387018255896E-020
 -2.240000000000000E-002   -9.018166897178177E-021
 -2.230000000000000E-002   -6.319630092437205E-021
 -2.220000000000000E-002   -2.694724333944836E-021
 -2.210000000000000E-002    1.688861604151652E-021
 -2.200000000000000E-002    6.575339094217043E-021
 -2.190000000000000E-002    1.163246696598785E-020
 -2.180000000000000E-002    1.647160260486848E-020
 -2.170000000000000E-002    2.067523955592617E-020
 -2.160000000000000E-002    2.383031855936496E-020
 -2.150000000000000E-002    2.556494303728641E-020
 -2.140000000000000E-002    2.558558296385433E-020
 -2.130000000000000E-002    2.371158745217088E-020
 -2.120000000000000E-002    1.990372906906164E-020
 -2.110000000000000E-002    1.428376217900357E-020
 -2.100000000000000E-002    7.142381772938182E-021
 -2.090000000000000E-002   -1.066347488602808E-021
 -2.080000000000000E-002   -9.745228474707262E-021
 -2.070000000000000E-002   -1.818898856651808E-020
 -2.060000000000000E-002   -2.563334034370046E-020
 -2.050000000000000E-002   -3.131613733716879E-020
 -2.040000000000000E-002   -3.454766262971886E-020
 -2.030000000000000E-002   -3.478603388355214E-020
 -2.020000000000000E-002   -3.171264602795079E-020
 -2.010000000000000E-002   -2.530166617289589E-020
 -2.000000000000000E-002   -1.587669653486995E-020
 -1.990000000000000E-002   -4.147174135126670E-021
 -1.980000000000000E-002    8.783197228119750E-021
 -1.970000000000000E-002    2.144337393308171E-020
 -1.960000000000000E-002    3.206365540314306E-020
 -1.950000000000000E-002    3.869047992093431E-020
 -1.940000000000000E-002    3.934869962067222E-020
 -1.930000000000000E-002    3.224849073226965E-020
 -1.920000000000000E-002    1.602863358269385E-020
 -1.910000000000000E-002   -9.978317699454037E-021
 -1.900000000000000E-002   -4.548005673034693E-020
 -1.890000000000000E-002   -8.898556201533147E-020
 -1.880000000000000E-002   -1.376261956945554E-019
 -1.870000000000000E-002   -1.870735453455591E-019
 -1.860000000000000E-002   -2.315907947515787E-019
 -1.850000000000000E-002   -2.642506664842707E-019
 -1.840000000000000E-002   -2.773438288935751E-019
 -1.830000000000000E-002   -2.629873728680220E-019
 -1.820000000000000E-002   -2.139231092974380E-019
 -1.810000000000000E-002   -1.244709671780810E-019
 -1.800000000000000E-002    8.424635883576707E-021
 -1.790000000000000E-002    1.841454638765817E-019
 -1.780000000000000E-002    3.974620975535895E-019
 -1.770000000000000E-002    6.378425351840425E-019
 -1.760000000000000E-002    8.891480744878645E-019
 -1.750000000000000E-002    1.129850995464781E-018
 -1.740000000000000E-002    1.333884155634910E-018
 -1.730000000000000E-002    1.472187747093451E-018
 -1.720000000000000E-002    1.514955187103508E-018
 -1.710000000000000E-002    1.434500249878507E-018
 -1.700000000000000E-002    1.208573739220732E-018
 -1.690000000000000E-002    8.238685083131232E-019
 -1.680000000000000E-002    2.793622055052353E-019
 -1.670000000000000E-002   -4.109126347796214E-019
 -1.660000000000000E-002   -1.216112440705589E-018
 -1.650000000000000E-002   -2.088259232920011E-018
 -1.640000000000000E-002   -2.963695382133004E-018
 -1.630000000000000E-002   -3.766524372036786E-018
 -1.620000000000000E-002   -4.414052392194501E-018
 -1.610000000000000E-002   -4.824005434068018E-018
 -1.600000000000000E-002   -4.923033573398488E-018
 -1.590000000000000E-002   -4.655752938062713E-018
 -1.580000000000000E-002   -3.993358737798871E-018
 -1.570000000000000E-002   -2.940694982186007E-018
 -1.560000000000000E-002   -1.540644659348144E-018
 -1.550000000000000E-002    1.251865381039919E-019
 -1.540000000000000E-002    1.940239159550164E-018
 -1.530000000000000E-002    3.761536799012429E-018
 -1.520000000000000E-002    5.432742695246741E-018
 -1.510000000000000E-002    6.800838713239802E-018
 -1.500000000000000E-002    7.734863058569921E-018
 -1.490000000000000E-002    8.144576504517765E-018
 -1.480000000000000E-002    7.996503305487881E-018
 -1.470000000000000E-002    7.324670868247645E-018
 -1.460000000000000E-002    6.233573492759307E-018
 -1.450000000000000E-002    4.891504392044019E-018
 -1.440000000000000E-002    3.513369027907110E-018
 -1.430000000000000E-002    2.333435495140286E-018
 -1.420000000000000E-002    1.570007302461704E-018
 -1.410000000000000E-002    1.385567802449236E-018
 -1.400000000000000E-002    1.847359490589369E-018
 -1.390000000000000E-002    2.894336031686596E-018
 -1.380000000000000E-002    4.316778955939170E-018
 -1.370000000000000E-002    5.754387366027271E-018
 -1.360000000000000E-002    6.717266045606545E-018
 -1.350000000000000E-002    6.631899149555262E-018
 -1.340000000000000E-002    4.911103011658888E-018
 -1.330000000000000E-002    1.043339398880412E-018
 -1.320000000000000E-002   -5.306955045428285E-018
 -1.310000000000000E-002   -1.419970593971382E-017
 -1.300000000000000E-002   -2.533428408703830E-017
 -1.290000000000000E-002   -3.799438841927953E-017
 -1.280000000000000E-002   -5.103687932951460E-017
 -1.270000000000000E-002   -6.293571857648642E-017
 -1.260000000000000E-002   -7.188706712396331E-017
 -1.250000000000000E-002   -7.597467053715441E-017
 -1.240000000000000E-002   -7.338652916668279E-017
 -1.230000000000000E-002   -6.266533444945275E-017
 -1.220000000000000E-002   -4.296733596171775E-017
 -1.210000000000000E-002   -1.429837430964245E-017
 -1.200000000000000E-002    2.230718169342805E-017
 -1.190000000000000E-002    6.469791645945455E-017
 -1.180000000000000E-002    1.096351809561334E-016
 -1.170000000000000E-002    1.529592816176021E-016
 -1.160000000000000E-002    1.898962032539227E-016
 -1.150000000000000E-002    2.154921213249197E-016
 -1.140000000000000E-002    2.251451183330786E-016
 -1.130000000000000E-002    2.151863356723733E-016
 -1.120000000000000E-002    1.834489771783762E-016
 -1.110000000000000E-002    1.297552258240990E-016
 -1.100000000000000E-002    5.625021209092608E-017
 -1.090000000000000E-002   -3.248021980670588E-017
 -1.080000000000000E-002   -1.295544839484751E-016
 -1.070000000000000E-002   -2.262246871384905E-016
 -1.060000000000000E-002   -3.125811581305963E-016
 -1.050000000000000E-002   -3.784882387758467E-016
 -1.040000000000000E-002   -4.146737855701681E-016
 -1.030000000000000E-002   -4.138657598480142E-016
 -1.020000000000000E-002   -3.718493386946852E-016
 -1.010000000000000E-002   -2.883109829122541E-016
 -1.000000000000000E-002   -1.673439417996872E-016
 -9.899999999999999E-003   -1.751444184855806E-017
 -9.800000000000000E-003    1.485724105384713E-016
 -9.699999999999999E-003    3.152155106977910E-016
 -9.599999999999999E-003    4.650180420226840E-016
 -9.500000000000000E-003    5.806333792778620E-016
 -9.399999999999999E-003    6.466896843005185E-016
 -9.299999999999999E-003    6.516865073894810E-016
 -9.200000000000000E-003    5.896362899566248E-016
 -9.099999999999999E-003    4.612302588978040E-016
 -8.999999999999999E-003    2.743409636281565E-016
 -8.900000000000000E-003    4.373470236534822E-017
 -8.799999999999999E-003   -2.100487436535630E-016
 -8.699999999999999E-003   -4.625952859429154E-016
 -8.600000000000000E-003   -6.881368766769639E-016
 -8.499999999999999E-003   -8.624418111516767E-016
 -8.399999999999999E-003   -9.657502667396177E-016
 -8.300000000000000E-003   -9.853909354099249E-016
 -8.199999999999999E-003   -9.177139249702193E-016
 -8.100000000000000E-003   -7.690257781225175E-016
 -8.000000000000000E-003   -5.553046688132674E-016
 -7.899999999999999E-003   -3.006095138035362E-016
 -7.800000000000000E-003   -3.425798085994199E-017
 -7.699999999999999E-003    2.129789458569739E-016
 -7.599999999999999E-003    4.132585820639667E-016
 -7.499999999999999E-003    5.460840025515989E-016
 -7.399999999999999E-003    6.021458782017470E-016
 -7.299999999999999E-003    5.859710131551172E-016
 -7.199999999999999E-003    5.168335271908813E-016
 -7.100000000000000E-003    4.275463534016737E-016
 -6.999999999999999E-003    3.609775025436930E-016
 -6.899999999999999E-003    3.644232858333985E-016
 -6.800000000000000E-003    4.822774827041982E-016
 -6.699999999999999E-003    7.477372926740268E-016
 -6.599999999999999E-003    1.174531707293442E-015
 -6.499999999999999E-003    1.749819646474352E-015
 -6.399999999999999E-003    2.429442282564143E-015
 -6.299999999999999E-003    3.136608265619565E-015
 -6.199999999999999E-003    3.764822528462508E-015
 -6.100000000000000E-003    4.185478164782981E-015
 -5.999999999999999E-003    4.260001117186374E-015
 -5.899999999999999E-003    3.855856701738997E-015
 -5.800000000000000E-003    2.865132517884647E-015
 -5.699999999999999E-003    1.223879553355822E-015
 -5.599999999999999E-003   -1.070002109982840E-015
 -5.499999999999999E-003   -3.942731838004306E-015
 -5.399999999999999E-003   -7.236812741157012E-015
 -5.299999999999999E-003   -1.071138390981931E-014
 -5.199999999999999E-003   -1.405212109946865E-014
 -5.099999999999999E-003   -1.689116204779120E-014
 -4.999999999999999E-003   -1.883647885458805E-014
 -4.899999999999999E-003   -1.950895741036834E-014
 -4.799999999999999E-003   -1.858433853889362E-014
 -4.699999999999999E-003   -1.583622187134699E-014
 -4.599999999999999E-003   -1.117567412274717E-014
 -4.499999999999999E-003   -4.682738808490138E-015
 -4.399999999999999E-003    3.374633299774077E-015
 -4.299999999999999E-003    1.253794941442088E-014
 -4.199999999999999E-003    2.217432101579748E-014
 -4.099999999999999E-003    3.151218860786051E-014
 -3.999999999999999E-003    3.969549113272070E-014
 -3.899999999999999E-003    4.585307212414727E-014
 -3.799999999999999E-003    4.917817337952732E-014
 -3.699999999999999E-003    4.901126152732079E-014
 -3.599999999999999E-003    4.491832566955451E-014
 -3.499999999999999E-003    3.675646948939327E-014
 -3.399999999999999E-003    2.471903702102704E-014
 -3.299999999999999E-003    9.353853953847576E-015
 -3.199999999999999E-003   -8.449733584794788E-015
 -3.099999999999999E-003   -2.750661264373880E-014
 -2.999999999999999E-003   -4.641286017878501E-014
 -2.899999999999999E-003   -6.364913375806124E-014
 -2.799999999999999E-003   -7.770263621853735E-014
 -2.699999999999999E-003   -8.719748262386166E-014
 -2.599999999999999E-003   -9.102169951466195E-014
 -2.499999999999999E-003   -8.843869079414897E-014
 -2.399999999999999E-003   -7.917184440790721E-014
 -2.299999999999999E-003   -6.345297500575467E-014
 -2.199999999999999E-003   -4.202846233216080E-014
 -2.099999999999999E-003   -1.612089254455507E-014
 -1.999999999999999E-003    1.265168128761348E-014
 -1.899999999999999E-003    4.239234636812412E-014
 -1.799999999999999E-003    7.106755904134562E-014
 -1.699999999999999E-003    9.666197351386743E-014
 -1.599999999999999E-003    1.173312184278510E-013
 -1.499999999999999E-003    1.315383506399970E-013
 -1.399999999999999E-003    1.381612352868838E-013
 -1.299999999999999E-003    1.365614763690228E-013
 -1.199999999999999E-003    1.266098115293946E-013
 -1.099999999999999E-003    1.086681928026983E-013
 -9.999999999999989E-004    8.353360546938232E-014
 -8.999999999999990E-004    5.235338808812951E-014
 -7.999999999999990E-004    1.652519670565147E-014
 -6.999999999999989E-004   -2.240381782543522E-014
 -5.999999999999990E-004   -6.282447178681225E-014
 -4.999999999999989E-004   -1.031280572538559E-013
 -3.999999999999989E-004   -1.417368410929921E-013
 -2.999999999999989E-004   -1.771015981697770E-013
 -1.999999999999989E-004   -2.076715378259256E-013
 -9.999999999999892E-005   -2.318488060517775E-013
  1.084202172485504E-018   -2.479448277460386E-013
  1.000000000000011E-004   -2.541587320860590E-013
  2.000000000000011E-004   -2.485986553629548E-013
  3.000000000000011E-004   -2.293634329442888E-013
  4.000000000000011E-004   -1.946956596690948E-013
  5.000000000000011E-004   -1.432077506876793E-013
  6.000000000000011E-004   -7.417058418475109E-014
  7.000000000000011E-004    1.215795410154799E-014
  8.000000000000011E-004    1.141997487523769E-013
  9.000000000000012E-004    2.287631720937321E-013
  1.000000000000001E-003    3.508402628906727E-013
  1.100000000000001E-003    4.735452762578408E-013
  1.200000000000001E-003    5.882392728629697E-013
  1.300000000000001E-003    6.848733870742684E-013
  1.400000000000001E-003    7.525635512319438E-013
  1.500000000000001E-003    7.803859988322221E-013
  1.600000000000001E-003    7.583561660653523E-013
  1.700000000000001E-003    6.785253050820901E-013
  1.800000000000001E-003    5.361054616735061E-013
  1.900000000000001E-003    3.305136760014842E-013
  2.000000000000001E-003    6.621666610394907E-014
  2.100000000000001E-003   -2.467421907228228E-013
  2.200000000000001E-003   -5.926383539438109E-013
  2.300000000000001E-003   -9.504620829164898E-013
  2.400000000000001E-003   -1.294855735096804E-012
  2.500000000000001E-003   -1.597586042147945E-012
  2.600000000000001E-003   -1.829490665743294E-012
  2.700000000000001E-003   -1.962787814751992E-012
  2.800000000000001E-003   -1.973585379791803E-012
  2.900000000000001E-003   -1.844388736057781E-012
  3.000000000000001E-003   -1.566382180195001E-012
  3.100000000000001E-003   -1.141252544446662E-012
  3.200000000000001E-003   -5.823400957623872E-013
  3.300000000000001E-003    8.506010768716818E-014
  3.400000000000001E-003    8.243645373554365E-013
  3.500000000000001E-003    1.589379613931897E-012
  3.600000000000001E-003    2.326947983472639E-012
  3.700000000000001E-003    2.980432091010638E-012
  3.800000000000001E-003    3.493815409798089E-012
  3.900000000000001E-003    3.816130502456554E-012
  4.000000000000001E-003    3.905871150186847E-012
  4.100000000000001E-003    3.735019673607885E-012
  4.200000000000001E-003    3.292327287484966E-012
  4.300000000000001E-003    2.585521066064748E-012
  4.400000000000001E-003    1.642184590746642E-012
  4.500000000000001E-003    5.091523109958433E-013
  4.600000000000002E-003   -7.496253125034143E-013
  4.700000000000001E-003   -2.056664730967435E-012
  4.800000000000001E-003   -3.325772636552196E-012
  4.900000000000002E-003   -4.467792702651719E-012
  5.000000000000001E-003   -5.396867441079660E-012
  5.100000000000001E-003   -6.036750524921790E-012
  5.200000000000001E-003   -6.326684794088498E-012
  5.300000000000002E-003   -6.226381633051628E-012
  5.400000000000001E-003   -5.719701404832562E-012
  5.500000000000001E-003   -4.816723308173789E-012
  5.600000000000002E-003   -3.554024591350765E-012
  5.700000000000001E-003   -1.993121271659854E-012
  5.800000000000001E-003   -2.171678658638597E-013
  5.900000000000002E-003    1.673852486684375E-012
  6.000000000000001E-003    3.569103935069882E-012
  6.100000000000001E-003    5.353616391407042E-012
  6.200000000000002E-003    6.915273323451100E-012
  6.300000000000002E-003    8.151595732143690E-012
  6.400000000000001E-003    8.975890815710831E-012
  6.500000000000001E-003    9.322388489522592E-012
  6.600000000000002E-003    9.150100047264670E-012
  6.700000000000001E-003    8.445239131003051E-012
  6.800000000000001E-003    7.222151903688459E-012
  6.900000000000002E-003    5.522816932130229E-012
  7.000000000000001E-003    3.415056753673728E-012
  7.100000000000001E-003    9.896518484099270E-013
  7.200000000000002E-003   -1.643411858234924E-012
  7.300000000000002E-003   -4.359349504578926E-012
  7.400000000000001E-003   -7.023443188362011E-012
  7.500000000000001E-003   -9.496225142063056E-012
  7.600000000000002E-003   -1.163888232723319E-011
  7.700000000000001E-003   -1.331884198841089E-011
  7.800000000000001E-003   -1.441551161986154E-011
  7.900000000000001E-003   -1.482614874162992E-011
  8.000000000000002E-003   -1.447181413959501E-011
  8.100000000000001E-003   -1.330327674470558E-011
  8.200000000000001E-003   -1.130666215758180E-011
  8.300000000000002E-003   -8.508512482656988E-012
  8.400000000000001E-003   -4.979826741273513E-012
  8.500000000000002E-003   -8.385529514059455E-013
  8.600000000000002E-003    3.750054100239097E-012
  8.700000000000001E-003    8.575764383863686E-012
  8.800000000000002E-003    1.338890960665242E-011
  8.900000000000002E-003    1.790945008375177E-011
  9.000000000000001E-003    2.183967636371595E-011
  9.100000000000002E-003    2.488032336443901E-011
  9.200000000000002E-003    2.674955989974217E-011
  9.300000000000001E-003    2.720389066590999E-011
  9.400000000000002E-003    2.605970119845520E-011
  9.500000000000001E-003    2.321384342515789E-011
  9.600000000000001E-003    1.866149374045438E-011
  9.700000000000002E-003    1.250942181997068E-011
  9.800000000000001E-003    4.982935740263533E-012
  9.900000000000001E-003   -3.574972066387010E-012
  1.000000000000000E-002   -1.271330756126152E-011
  1.010000000000000E-002   -2.189199267382000E-011
  1.020000000000000E-002   -3.050974740734437E-011
  1.030000000000000E-002   -3.793982165340075E-011
  1.040000000000000E-002   -4.357175303744154E-011
  1.050000000000000E-002   -4.685655225533229E-011
  1.060000000000000E-002   -4.735218262942743E-011
  1.070000000000000E-002   -4.476584341425578E-011
  1.080000000000000E-002   -3.898947679374887E-011
  1.090000000000000E-002   -3.012509532989241E-011
  1.100000000000000E-002   -1.849705264864139E-011
  1.110000000000000E-002   -4.649171947397997E-012
  1.120000000000000E-002    1.067434199426319E-011
  1.130000000000000E-002    2.656409301898932E-011
  1.140000000000000E-002    4.199534774759381E-011
  1.150000000000000E-002    5.588995446436228E-011
  1.160000000000000E-002    6.718655670220792E-011
  1.170000000000000E-002    7.491443826967749E-011
  1.180000000000000E-002    7.826591938771675E-011
  1.190000000000000E-002    7.666187777626548E-011
  1.200000000000000E-002    6.980541323294285E-011
  1.210000000000000E-002    5.771921081296262E-011
  1.220000000000000E-002    4.076328519297497E-011
  1.230000000000000E-002    1.963110402133767E-011
  1.240000000000000E-002   -4.676381666203773E-012
  1.250000000000000E-002   -3.089759292236899E-011
  1.260000000000000E-002   -5.757546784343689E-011
  1.270000000000000E-002   -8.313678167136178E-011
  1.280000000000000E-002   -1.059805777920429E-010
  1.290000000000000E-002   -1.245700789462519E-010
  1.300000000000000E-002   -1.375220658783576E-010
  1.310000000000000E-002   -1.436882544743130E-010
  1.320000000000000E-002   -1.422236360245611E-010
  1.330000000000000E-002   -1.326380829671631E-010
  1.340000000000000E-002   -1.148286870175192E-010
  1.350000000000000E-002   -8.909183291687541E-011
  1.360000000000000E-002   -5.611540610060585E-011
  1.370000000000000E-002   -1.695297340016260E-011
  1.380000000000000E-002    2.701731941269598E-011
  1.390000000000000E-002    7.414560157326206E-011
  1.400000000000000E-002    1.225711068287562E-010
  1.410000000000000E-002    1.702871563078316E-010
  1.420000000000000E-002    2.152072405448392E-010
  1.430000000000000E-002    2.552295955186023E-010
  1.440000000000000E-002    2.882988284474626E-010
  1.450000000000000E-002    3.124638736080769E-010
  1.460000000000000E-002    3.259327790735257E-010
  1.470000000000000E-002    3.271251412757892E-010
  1.480000000000000E-002    3.147234803934016E-010
  1.490000000000000E-002    2.877247763735574E-010
  1.500000000000000E-002    2.454930152023015E-010
  1.510000000000000E-002    1.878126330649487E-010
  1.520000000000000E-002    1.149417080696526E-010
  1.530000000000000E-002    2.766266684887852E-011
  1.540000000000000E-002   -7.267280585990719E-011
  1.550000000000000E-002   -1.841094355215594E-010
  1.560000000000000E-002   -3.040695655462476E-010
  1.570000000000000E-002   -4.293546118406196E-010
  1.580000000000000E-002   -5.561722631995112E-010
  1.590000000000000E-002   -6.801924750451179E-010
  1.600000000000000E-002   -7.966346448202728E-010
  1.610000000000000E-002   -9.003858647976950E-010
  1.620000000000000E-002   -9.861477616805385E-010
  1.630000000000000E-002   -1.048607588356172E-009
  1.640000000000000E-002   -1.082626256105916E-009
  1.650000000000000E-002   -1.083435040159383E-009
  1.660000000000000E-002   -1.046830625055149E-009
  1.670000000000000E-002   -9.693593406496255E-010
  1.680000000000000E-002   -8.484802805476520E-010
  1.690000000000000E-002   -6.826998629259290E-010
  1.700000000000000E-002   -4.716730240656268E-010
  1.710000000000000E-002   -2.162667256681058E-010
  1.720000000000000E-002    8.141133481497474E-011
  1.730000000000000E-002    4.180162941985806E-010
  1.740000000000000E-002    7.889943263572803E-010
  1.750000000000000E-002    1.188626965668518E-009
  1.760000000000000E-002    1.610080930789424E-009
  1.770000000000000E-002    2.045453184223109E-009
  1.780000000000000E-002    2.485804881867032E-009
  1.790000000000000E-002    2.921175991439490E-009
  1.800000000000000E-002    3.340581962761226E-009
  1.810000000000000E-002    3.731995837589953E-009
  1.820000000000000E-002    4.082324091547626E-009
  1.830000000000000E-002    4.377394729570840E-009
  1.840000000000000E-002    4.601974262029749E-009
  1.850000000000000E-002    4.739840817766356E-009
  1.860000000000000E-002    4.773936869469903E-009
  1.870000000000000E-002    4.686630738769002E-009