 -4.000000000000000E-002    0.000000000000000E+000
 -3.990000000000000E-002    0.000000000000000E+000
 -3.980000000000000E-002    0.000000000000000E+000
 -3.970000000000000E-002    0.000000000000000E+000
 -3.960000000000000E-002    0.000000000000000E+000
 -3.950000000000000E-002    0.000000000000000E+000
 -3.940000000000000E-002    0.000000000000000E+000
 -3.930000000000000E-002    0.000000000000000E+000
 -3.920000000000000E-002    0.000000000000000E+000
 -3.910000000000000E-002    0.000000000000000E+000
 -3.900000000000000E-002    0.000000000000000E+000
 -3.890000000000000E-002    0.000000000000000E+000
 -3.880000000000000E-002    0.000000000000000E+000
 -3.870000000000000E-002    0.000000000000000E+000
 -3.860000000000000E-002    0.000000000000000E+000
 -3.850000000000000E-002    0.000000000000000E+000
 -3.840000000000000E-002    0.000000000000000E+000
 -3.830000000000000E-002    0.000000000000000E+000
 -3.820000000000000E-002    0.000000000000000E+000
 -3.810000000000000E-002   -2.453483741673879E-047
 -3.800000000000000E-002   -1.795307929149073E-046
 -3.790000000000000E-002   -1.271273551257475E-045
 -3.780000000000000E-002   -7.616815942678863E-045
 -3.770000000000000E-002   -3.911369681252079E-044
 -3.760000000000000E-002   -1.802586644997612E-043
 -3.750000000000000E-002   -7.635348493100636E-043
 -3.740000000000000E-002   -2.966771723164041E-042
 -3.730000000000000E-002   -1.064200714184334E-041
 -3.720000000000000E-002   -3.550105948800612E-041
 -3.710000000000000E-002   -1.108148607990255E-040
 -3.700000000000000E-002   -3.252927719349784E-040
 -3.690000000000000E-002   -9.017187565255909E-040
 -3.680000000000000E-002   -2.368505150419047E-039
 -3.670000000000000E-002   -5.911496619456954E-039
 -3.660000000000000E-002   -1.405093899556534E-038
 -3.650000000000000E-002   -3.185865842016340E-038
 -3.640000000000000E-002   -6.898510738887972E-038
 -3.630000000000000E-002   -1.427324666573210E-037
 -3.620000000000000E-002   -2.821378061419058E-037
 -3.610000000000000E-002   -5.322514658864417E-037
 -3.600000000000000E-002   -9.560909152197192E-037
 -3.590000000000000E-002   -1.628550580331018E-036
 -3.580000000000000E-002   -2.611225147292761E-036
 -3.570000000000000E-002   -3.889222715031257E-036
 -3.560000000000000E-002   -5.240870866947525E-036
 -3.550000000000000E-002   -6.000580732451830E-036
 -3.540000000000000E-002   -4.668644409310659E-036
 -3.530000000000000E-002    1.671662609380733E-036
 -3.520000000000000E-002    1.813498214849116E-035
 -3.510000000000000E-002    5.293499883922693E-035
 -3.500000000000000E-002    1.181699442895479E-034
 -3.490000000000000E-002    2.299975768375551E-034
 -3.480000000000000E-002    4.073286172346723E-034
 -3.470000000000000E-002    6.676869937351840E-034
 -3.460000000000000E-002    1.018366602906276E-033
 -3.450000000000000E-002    1.440611958604580E-033
 -3.440000000000000E-002    1.864536596005766E-033
 -3.430000000000000E-002    2.133290865613873E-033
 -3.420000000000000E-002    1.957157855660751E-033
 -3.410000000000000E-002    8.624508111875418E-034
 -3.400000000000000E-002   -1.853093887049190E-033
 -3.390000000000000E-002   -7.136949990111363E-033
 -3.380000000000000E-002   -1.613656237369202E-032
 -3.370000000000000E-002   -3.004471416119795E-032
 -3.360000000000000E-002   -4.977625372960863E-032
 -3.350000000000000E-002   -7.541233860496670E-032
 -3.340000000000000E-002   -1.053585498520008E-031
 -3.330000000000000E-002   -1.351981104261976E-031
 -3.320000000000000E-002   -1.562919092987447E-031
 -3.310000000000000E-002   -1.542931603098098E-031
 -3.300000000000000E-002   -1.079117645191070E-031
 -3.290000000000000E-002    1.152223696672690E-032
 -3.280000000000000E-002    2.389054814918405E-031
 -3.270000000000000E-002    6.116017238583517E-031
 -3.260000000000000E-002    1.161918250927961E-030
 -3.250000000000000E-002    1.904705982764854E-030
 -3.240000000000000E-002    2.819331965391787E-030
 -3.230000000000000E-002    3.826088451054393E-030
 -3.220000000000000E-002    4.758510615807788E-030
 -3.210000000000000E-002    5.335156459379799E-030
 -3.200000000000000E-002    5.137139195041565E-030
 -3.190000000000000E-002    3.600916001394970E-030
 -3.180000000000000E-002    3.909927448666817E-032
 -3.170000000000000E-002   -6.295323869227473E-030
 -3.160000000000000E-002   -1.608506061800143E-029
 -3.150000000000000E-002   -2.975063845154599E-029
 -3.140000000000000E-002   -4.717098717470731E-029
 -3.130000000000000E-002   -6.732750287494888E-029
 -3.120000000000000E-002   -8.789647362713532E-029
 -3.110000000000000E-002   -1.048420558058991E-028
 -3.100000000000000E-002   -1.120958558511223E-028
 -3.090000000000000E-002   -1.014463770529138E-028
 -3.080000000000000E-002   -6.279675694803181E-029
 -3.070000000000000E-002    1.502610938591181E-029
 -3.060000000000000E-002    1.427253734889348E-028
 -3.050000000000000E-002    3.280979169970121E-028
 -3.040000000000000E-002    5.726374319878657E-028
 -3.030000000000000E-002    8.672520564274028E-028
 -3.020000000000000E-002    1.187387868216883E-027
 -3.010000000000000E-002    1.488135944044464E-027
 -3.000000000000000E-002    1.700242375386435E-027
 -2.990000000000000E-002    1.728304594729225E-027
 -2.980000000000000E-002    1.452766397676169E-027
 -2.970000000000000E-002    7.375412792457876E-028
 -2.960000000000000E-002   -5.549039312253491E-028
 -2.950000000000000E-002   -2.539506854688897E-027
 -2.940000000000000E-002   -5.274883267353759E-027
 -2.930000000000000E-002   -8.720527363381995E-027
 -2.920000000000000E-002   -1.268747509054900E-026
 -2.910000000000000E-002   -1.678748147197676E-026
 -2.900000000000000E-002   -2.038870937150398E-026
 -2.890000000000000E-002   -2.258902800143935E-026
 -2.880000000000000E-002   -2.222081900386095E-026
 -2.870000000000000E-002   -1.790307202227900E-026
 -2.860000000000000E-002   -8.156666674470118E-027
 -2.850000000000000E-002    8.403615404003310E-027
 -2.840000000000000E-002    3.279276561759689E-026
 -2.830000000000000E-002    6.529730047578876E-026
 -2.820000000000000E-002    1.050520009361721E-025
 -2.810000000000000E-002    1.495873805240814E-025
 -2.800000000000000E-002    1.944056053751338E-025
 -2.790000000000000E-002    2.326658554586501E-025
 -2.780000000000000E-002    2.550813832602935E-025
 -2.770000000000000E-002    2.501455226863369E-025
 -2.760000000000000E-002    2.048072728152128E-025
 -2.750000000000000E-002    1.057036457195494E-025
 -2.740000000000000E-002   -5.898063704764814E-026
 -2.730000000000000E-002   -2.970197005170756E-025
 -2.720000000000000E-002   -6.091053809015936E-025
 -2.710000000000000E-002   -9.854654205141936E-025
 -2.700000000000000E-002   -1.402490922960505E-024
 -2.690000000000000E-002   -1.819872255297711E-024
 -2.680000000000000E-002   -2.178885100770065E-024
 -2.670000000000000E-002   -2.402570351744356E-024
 -2.660000000000000E-002   -2.398593392394001E-024
 -2.650000000000000E-002   -2.065502800497795E-024
 -2.640000000000000E-002   -1.302921201326197E-024
 -2.630000000000000E-002   -2.585518553800335E-026
 -2.620000000000000E-002    1.817205966250323E-024
 -2.610000000000000E-002    4.223390236480205E-024
 -2.600000000000000E-002    7.113525084207203E-024
 -2.590000000000000E-002    1.031182007479782E-023
 -2.580000000000000E-002    1.353055680862603E-023
 -2.570000000000000E-002    1.636381547216226E-023
 -2.560000000000000E-002    1.829453385747214E-023
 -2.550000000000000E-002    1.871899785654395E-023
 -2.540000000000000E-002    1.699198457030790E-023
 -2.530000000000000E-002    1.249418203419521E-023
 -2.520000000000000E-002    4.721085108225259E-024
 -2.510000000000000E-002   -6.610576803016374E-024
 -2.500000000000000E-002   -2.144659150933488E-023
 -2.490000000000000E-002   -3.928084621968897E-023
 -2.480000000000000E-002   -5.905822140207538E-023
 -2.470000000000000E-002   -7.911322560227305E-023
 -2.460000000000000E-002   -9.716439082206625E-023
 -2.450000000000000E-002   -1.103838445867057E-022
 -2.440000000000000E-002   -1.155581033491860E-022
 -2.430000000000000E-002   -1.093496317421610E-022
 -2.420000000000000E-002   -8.865884389227179E-023
 -2.410000000000000E-002   -5.107332708403098E-023
 -2.400000000000000E-002    4.624230489747900E-024
 -2.390000000000000E-002    7.793400823799045E-023
 -2.380000000000000E-002    1.661631961227023E-022
 -2.370000000000000E-002    2.640686881735938E-022
 -2.360000000000000E-002    3.636978212632282E-022
 -2.350000000000000E-002    4.545051117969680E-022
 -2.340000000000000E-002    5.238117767461811E-022
 -2.330000000000000E-002    5.576514436677411E-022
 -2.320000000000000E-002    5.420106228738175E-022
 -2.310000000000000E-002    4.644261771129599E-022
 -2.300000000000000E-002    3.158483244915210E-022
 -2.290000000000000E-002    9.261977415401876E-023
 -2.280000000000000E-002   -2.016322197282062E-022
 -2.270000000000000E-002   -5.544393060711045E-022
 -2.260000000000000E-002   -9.435439911221587E-022
 -2.250000000000000E-002   -1.336832406158200E-021
 -2.240000000000000E-002   -1.693385552941234E-021
 -2.230000000000000E-002   -1.965814342088536E-021
 -2.220000000000000E-002   -2.103933521361866E-021
 -2.210000000000000E-002   -2.059685003375194E-021
 -2.200000000000000E-002   -1.793051068192261E-021
 -2.190000000000000E-002   -1.278518176659642E-021
 -2.180000000000000E-002   -5.114790393069831E-022
 -2.170000000000000E-002    4.861792335332212E-022
 -2.160000000000000E-002    1.662140198511449E-021
 -2.150000000000000E-002    2.932223095333482E-021
 -2.140000000000000E-002    4.182205503602021E-021
 -2.130000000000000E-002    5.273464706220767E-021
 -2.120000000000000E-002    6.052690409631932E-021
 -2.110000000000000E-002    6.365515329792268E-021
 -2.100000000000000E-002    6.073431598362586E-021
 -2.090000000000000E-002    5.072842283145755E-021
 -2.080000000000000E-002    3.314601648229783E-021
 -2.070000000000000E-002    8.219718851070677E-022
 -2.060000000000000E-002   -2.295359887603647E-021
 -2.050000000000000E-002   -5.833641881661732E-021
 -2.040000000000000E-002   -9.496068506943012E-021
 -2.030000000000000E-002   -1.290425918366115E-020
 -2.020000000000000E-002   -1.562127528453183E-020
 -2.010000000000000E-002   -1.718623299427555E-020
 -2.000000000000000E-002   -1.715931766779465E-020
 -1.990000000000000E-002   -1.517465758475769E-020
 -1.980000000000000E-002   -1.099710787779575E-020
 -1.970000000000000E-002   -4.577770652868700E-021
 -1.960000000000000E-002    3.897912271744867E-021
 -1.950000000000000E-002    1.397618086784041E-020
 -1.940000000000000E-002    2.492172835520273E-020
 -1.930000000000000E-002    3.573113871415768E-020
 -1.920000000000000E-002    4.517742586415126E-020
 -1.910000000000000E-002    5.188789076291500E-020
 -1.900000000000000E-002    5.445463529588264E-020
 -1.890000000000000E-002    5.157365281838513E-020
 -1.880000000000000E-002    4.220469757832476E-020
 -1.870000000000000E-002    2.574040831118462E-020
 -1.860000000000000E-002    2.169819320664904E-021
 -1.850000000000000E-002   -2.778133405355198E-020
 -1.840000000000000E-002   -6.255257832685900E-020
 -1.830000000000000E-002   -9.971209885114749E-020
 -1.820000000000000E-002   -1.359989590101973E-019
 -1.810000000000000E-002   -1.674576923620438E-019
 -1.800000000000000E-002   -1.896729847849184E-019
 -1.790000000000000E-002   -1.981041218164258E-019
 -1.780000000000000E-002   -1.885091244954678E-019
 -1.770000000000000E-002   -1.574375713142151E-019
 -1.760000000000000E-002   -1.027594523751161E-019
 -1.750000000000000E-002   -2.418628773310516E-020
 -1.740000000000000E-002    7.626858234194783E-020
 -1.730000000000000E-002    1.939504994996394E-019
 -1.720000000000000E-002    3.214067706693603E-019
 -1.710000000000000E-002    4.484714334561375E-019
 -1.700000000000000E-002    5.626403219400352E-019
 -1.690000000000000E-002    6.497675986156024E-019
 -1.680000000000000E-002    6.950898874239197E-019
 -1.670000000000000E-002    6.845526329105525E-019
 -1.660000000000000E-002    6.063755393097590E-019
 -1.650000000000000E-002    4.527542343196063E-019
 -1.640000000000000E-002    2.215560700121745E-019
 -1.630000000000000E-002   -8.216625328538397E-020
 -1.620000000000000E-002   -4.450431729414415E-019
 -1.610000000000000E-002   -8.448473027011878E-019
 -1.600000000000000E-002   -1.250738768458469E-018
 -1.590000000000000E-002   -1.624456365449793E-018
 -1.580000000000000E-002   -1.922550826571301E-018
 -1.570000000000000E-002   -2.099667412248817E-018
 -1.560000000000000E-002   -2.112772438185316E-018
 -1.550000000000000E-002   -1.926092663799657E-018
 -1.540000000000000E-002   -1.516402228135464E-018
 -1.530000000000000E-002   -8.781699593878146E-019
 -1.520000000000000E-002   -2.798099929352588E-020
 -1.510000000000000E-002    9.924078659143787E-019
 -1.500000000000000E-002    2.115017734879726E-018
 -1.490000000000000E-002    3.247161430748131E-018
 -1.480000000000000E-002    4.275925831804291E-018
 -1.470000000000000E-002    5.075788733407315E-018
 -1.460000000000000E-002    5.519221989719407E-018
 -1.450000000000000E-002    5.489772264165527E-018
 -1.440000000000000E-002    4.896721835291197E-018
 -1.430000000000000E-002    3.690063872540874E-018
 -1.420000000000000E-002    1.874217752467232E-018
 -1.410000000000000E-002   -4.812804335338158E-019
 -1.400000000000000E-002   -3.235911899181213E-018
 -1.390000000000000E-002   -6.178776246788481E-018
 -1.380000000000000E-002   -9.036912737775082E-018
 -1.370000000000000E-002   -1.149200310074536E-017
 -1.360000000000000E-002   -1.320531201909809E-017
 -1.350000000000000E-002   -1.384978553791595E-017
 -1.340000000000000E-002   -1.314721676821842E-017
 -1.330000000000000E-002   -1.090742476231918E-017
 -1.320000000000000E-002   -7.065572615261964E-018
 -1.310000000000000E-002   -1.713224243262932E-018
 -1.300000000000000E-002    4.881417650332730E-018
 -1.290000000000000E-002    1.226830017307478E-017
 -1.280000000000000E-002    1.982868524128833E-017
 -1.270000000000000E-002    2.680864207781054E-017
 -1.260000000000000E-002    3.237294418033247E-017
 -1.250000000000000E-002    3.567727435746082E-017
 -1.240000000000000E-002    3.595423703683708E-017
 -1.230000000000000E-002    3.260647629786672E-017
 -1.220000000000000E-002    2.529822100129465E-017
 -1.210000000000000E-002    1.403533290002192E-017
 -1.200000000000000E-002   -7.764877100356480E-019
 -1.190000000000000E-002   -1.830504413409115E-017
 -1.180000000000000E-002   -3.730441961048566E-017
 -1.170000000000000E-002   -5.617214489747196E-017
 -1.160000000000000E-002   -7.305176753487725E-017
 -1.150000000000000E-002   -8.597718591544569E-017
 -1.140000000000000E-002   -9.305017955598569E-017
 -1.130000000000000E-002   -9.263780159274020E-017
 -1.120000000000000E-002   -8.357228676305326E-017
 -1.110000000000000E-002   -6.533344952038634E-017
 -1.100000000000000E-002   -3.819250031382669E-017
 -1.090000000000000E-002   -3.297465960403518E-018
 -1.080000000000000E-002    3.731623242447085E-017
 -1.070000000000000E-002    8.080087526897649E-017
 -1.060000000000000E-002    1.236605007589902E-016
 -1.050000000000000E-002    1.619984723804090E-016
 -1.040000000000000E-002    1.918337771951090E-016
 -1.030000000000000E-002    2.094624707603978E-016
 -1.020000000000000E-002    2.118332874238324E-016
 -1.010000000000000E-002    1.969015940987532E-016
 -1.000000000000000E-002    1.639240840740147E-016
 -9.899999999999999E-003    1.136589794575027E-016
 -9.800000000000000E-003    4.844261125413582E-017
 -9.699999999999999E-003   -2.787682037315103E-017
 -9.599999999999999E-003   -1.101542034907427E-016
 -9.500000000000000E-003   -1.923024793675208E-016
 -9.399999999999999E-003   -2.677630148929813E-016
 -9.299999999999999E-003   -3.300528815290517E-016
 -9.200000000000000E-003   -3.733390571511060E-016
 -9.099999999999999E-003   -3.929830483619619E-016
 -8.999999999999999E-003   -3.859984550429727E-016
 -8.900000000000000E-003   -3.513697000853167E-016
 -8.799999999999999E-003   -2.901919719051763E-016
 -8.699999999999999E-003   -2.056106368969614E-016
 -8.600000000000000E-003   -1.025597922766289E-016
 -8.499999999999999E-003    1.267655491441999E-017
 -8.399999999999999E-003    1.330342773847702E-016
 -8.300000000000000E-003    2.513047232847308E-016
 -8.199999999999999E-003    3.607588412038412E-016
 -8.100000000000000E-003    4.556792553737048E-016
 -8.000000000000000E-003    5.317272925994104E-016
 -7.899999999999999E-003    5.860900316038994E-016
 -7.800000000000000E-003    6.173807012110058E-016
 -7.699999999999999E-003    6.253007439217029E-016
 -7.599999999999999E-003    6.101108907778570E-016
 -7.499999999999999E-003    5.719954492985637E-016
 -7.399999999999999E-003    5.104353494091549E-016
 -7.299999999999999E-003    4.237224279184666E-016
 -7.199999999999999E-003    3.087503166482920E-016
 -7.100000000000000E-003    1.611979617229701E-016
 -6.999999999999999E-003   -2.381773514463112E-017
 -6.899999999999999E-003   -2.506022875223427E-016
 -6.800000000000000E-003   -5.213127655014227E-016
 -6.699999999999999E-003   -8.340941884542934E-016
 -6.599999999999999E-003   -1.181139935073992E-015
 -6.499999999999999E-003   -1.546961830260133E-015
 -6.399999999999999E-003   -1.907197096355077E-015
 -6.299999999999999E-003   -2.228287053285025E-015
 -6.199999999999999E-003   -2.468329704546286E-015
 -6.100000000000000E-003   -2.579322823084899E-015
 -5.999999999999999E-003   -2.510888811695508E-015
 -5.899999999999999E-003   -2.215404825634491E-015
 -5.800000000000000E-003   -1.654265256450686E-015
 -5.699999999999999E-003   -8.048048464989689E-016
 -5.599999999999999E-003    3.327806642962349E-016
 -5.499999999999999E-003    1.729321736796424E-015
 -5.399999999999999E-003    3.322264925280090E-015
 -5.299999999999999E-003    5.013846693328445E-015
 -5.199999999999999E-003    6.672635850986180E-015
 -5.099999999999999E-003    8.139002263998528E-015
 -4.999999999999999E-003    9.234755869546961E-015
 -4.899999999999999E-003    9.776790213374300E-015
 -4.799999999999999E-003    9.594097374622024E-015
 -4.699999999999999E-003    8.547043226157584E-015
 -4.599999999999999E-003    6.547347867817753E-015
 -4.499999999999999E-003    3.576855851912904E-015
 -4.399999999999999E-003   -2.970279646025898E-016
 -4.299999999999999E-003   -4.911393650195924E-015
 -4.199999999999999E-003   -1.000532691803909E-014
 -4.099999999999999E-003   -1.522638577418845E-014
 -3.999999999999999E-003   -2.014692641056177E-014
 -3.899999999999999E-003   -2.429030617467048E-014
 -3.799999999999999E-003   -2.716601568828153E-014
 -3.699999999999999E-003   -2.831176725433886E-014
 -3.599999999999999E-003   -2.733959395972982E-014
 -3.499999999999999E-003   -2.398218959462800E-014
 -3.399999999999999E-003   -1.813516296860846E-014
 -3.299999999999999E-003   -9.890681940311944E-015
 -3.199999999999999E-003    4.418229157093432E-016
 -3.099999999999999E-003    1.233154600671645E-014
 -2.999999999999999E-003    2.504135385558232E-014
 -2.899999999999999E-003    3.766306414886427E-014
 -2.799999999999999E-003    4.917227199816548E-014
 -2.699999999999999E-003    5.850014461995752E-014
 -2.599999999999999E-003    6.461773057067744E-014
 -2.499999999999999E-003    6.662667297283061E-014
 -2.399999999999999E-003    6.384901114122100E-014
 -2.299999999999999E-003    5.590803859576994E-014
 -2.199999999999999E-003    4.279221304346941E-014
 -2.099999999999999E-003    2.489490315354380E-014
 -1.999999999999999E-003    3.024235554555520E-015
 -1.899999999999999E-003   -2.162048866539983E-014
 -1.799999999999999E-003   -4.750666187908404E-014
 -1.699999999999999E-003   -7.285836927468442E-014
 -1.599999999999999E-003   -9.577338280765044E-014
 -1.499999999999999E-003   -1.143592207624376E-013
 -1.399999999999999E-003   -1.268782290061648E-013
 -1.299999999999999E-003   -1.318900738672038E-013
 -1.199999999999999E-003   -1.283798195331649E-013
 -1.099999999999999E-003   -1.158603028592839E-013
 -9.999999999999989E-004   -9.443926725768674E-014
 -8.999999999999990E-004   -6.484451344241829E-014
 -7.999999999999990E-004   -2.840365818669772E-014
 -6.999999999999989E-004    1.302093773577502E-014
 -5.999999999999990E-004    5.713768237237404E-014
 -4.999999999999989E-004    1.013636897241340E-013
 -3.999999999999989E-004    1.429843064237291E-013
 -2.999999999999989E-004    1.793216652521507E-013
 -1.999999999999989E-004    2.078991252312865E-013
 -9.999999999999892E-005    2.265893145946436E-013
  1.084202172485504E-018    2.337355818929130E-013
  1.000000000000011E-004    2.282398556416531E-013
  2.000000000000011E-004    2.096137543891923E-013
  3.000000000000011E-004    1.779936571811604E-013
  4.000000000000011E-004    1.341245659057293E-013
  5.000000000000011E-004    7.932009427222104E-014
  6.000000000000011E-004    1.540792815446152E-014
  7.000000000000011E-004   -5.532988771147118E-014
  8.000000000000011E-004   -1.302140793269775E-013
  9.000000000000012E-004   -2.062178110472820E-013
  1.000000000000001E-003   -2.800085211214798E-013
  1.100000000000001E-003   -3.479862238088365E-013
  1.200000000000001E-003   -4.063275910533647E-013
  1.300000000000001E-003   -4.510488896516722E-013
  1.400000000000001E-003   -4.781031389020213E-013
  1.500000000000001E-003   -4.835265477809849E-013
  1.600000000000001E-003   -4.636461343590973E-013
  1.700000000000001E-003   -4.153542693115677E-013
  1.800000000000001E-003   -3.364471020009835E-013
  1.900000000000001E-003   -2.260120955500320E-013
  2.000000000000001E-003   -8.483828527585732E-014
  2.100000000000001E-003    8.418963906249951E-014
  2.200000000000001E-003    2.757619135999996E-013
  2.300000000000001E-003    4.819342886891889E-013
  2.400000000000001E-003    6.920949947788535E-013
  2.500000000000001E-003    8.931592083158891E-013
  2.600000000000001E-003    1.070030696685330E-012
  2.700000000000001E-003    1.206349793873578E-012
  2.800000000000001E-003    1.285522849958866E-012
  2.900000000000001E-003    1.291997087857529E-012
  3.000000000000001E-003    1.212713343536219E-012
  3.100000000000001E-003    1.038637334284156E-012
  3.200000000000001E-003    7.662436397075803E-013
  3.300000000000001E-003    3.988075037359173E-013
  3.400000000000001E-003   -5.264832804438357E-014
  3.500000000000001E-003   -5.688980740064728E-013
  3.600000000000001E-003   -1.122674271139174E-012
  3.700000000000001E-003   -1.679533947463150E-012
  3.800000000000001E-003   -2.199467464051528E-012
  3.900000000000001E-003   -2.639224363318935E-012
  4.000000000000001E-003   -2.955263406740597E-012
  4.100000000000001E-003   -3.107162156316043E-012
  4.200000000000001E-003   -3.061258387260287E-012
  4.300000000000001E-003   -2.794244358405239E-012
  4.400000000000001E-003   -2.296398784394816E-012
  4.500000000000001E-003   -1.574138011701822E-012
  4.600000000000002E-003   -6.515820090741981E-013
  4.700000000000001E-003    4.291161101418963E-013
  4.800000000000001E-003    1.608853774053603E-012
  4.900000000000002E-003    2.814149403400920E-012
  5.000000000000001E-003    3.961154244504109E-012
  5.100000000000001E-003    4.960932519889655E-012
  5.200000000000001E-003    5.725711282083792E-012
  5.300000000000002E-003    6.175688172752972E-012
  5.400000000000001E-003    6.245901281542467E-012
  5.500000000000001E-003    5.892607854278660E-012
  5.600000000000002E-003    5.098617586075678E-012
  5.700000000000001E-003    3.877056959835049E-012
  5.800000000000001E-003    2.273130465231975E-012
  5.900000000000002E-003    3.635759536871050E-013
  6.000000000000001E-003   -1.746327077839592E-012
  6.100000000000001E-003   -3.928144580300677E-012
  6.200000000000002E-003   -6.037824885028513E-012
  6.300000000000002E-003   -7.924945097599955E-012
  6.400000000000001E-003   -9.443066213831148E-012
  6.500000000000001E-003   -1.046047107136295E-011
  6.600000000000002E-003   -1.087048554750780E-011
  6.700000000000001E-003   -1.060058292343372E-011
  6.800000000000001E-003   -9.619521517819802E-012
  6.900000000000002E-003   -7.941891113628704E-012
  7.000000000000001E-003   -5.629627758914462E-012
  7.100000000000001E-003   -2.790261333776146E-012
  7.200000000000002E-003    4.280778840649149E-013
  7.300000000000002E-003    3.844633046046481E-012
  7.400000000000001E-003    7.256475094655256E-012
  7.500000000000001E-003    1.045074784136736E-011
  7.600000000000002E-003    1.321787531743903E-011
  7.700000000000001E-003    1.536482991443513E-011
  7.800000000000001E-003    1.672756093660229E-011
  7.900000000000001E-003    1.718175734214667E-011
  8.000000000000002E-003    1.665125738132479E-011
  8.100000000000001E-003    1.511359639370676E-011
  8.200000000000001E-003    1.260242343437548E-011
  8.300000000000002E-003    9.206718944646509E-012
  8.400000000000001E-003    5.066999459560241E-012
  8.500000000000002E-003    3.688492931218929E-013
  8.600000000000002E-003   -4.665718970250092E-012
  8.700000000000001E-003   -9.788499812914428E-012
  8.800000000000002E-003   -1.473633089853905E-011
  8.900000000000002E-003   -1.924276891828713E-011
  9.000000000000001E-003   -2.304971711476592E-011
  9.100000000000002E-003   -2.591864367412567E-011
  9.200000000000002E-003   -2.764111799482557E-011
  9.300000000000001E-003   -2.804852590881808E-011
  9.400000000000002E-003   -2.702086482082939E-011
  9.500000000000001E-003   -2.449455497178224E-011
  9.600000000000001E-003   -2.046918078816520E-011
  9.700000000000002E-003   -1.501296505437162E-011
  9.800000000000001E-003   -8.266691303695402E-012
  9.900000000000001E-003   -4.456214235111083E-013
  1.000000000000000E-002    8.161164883446794E-012
  1.010000000000000E-002    1.719467473308388E-011
  1.020000000000000E-002    2.623383570960821E-011
  1.030000000000000E-002    3.480787033192212E-011
  1.040000000000000E-002    4.241360851943080E-011
  1.050000000000000E-002    4.853784806825564E-011
  1.060000000000000E-002    5.268440250734985E-011
  1.070000000000000E-002    5.440497325893829E-011
  1.080000000000000E-002    5.333243784605164E-011
  1.090000000000000E-002    4.921454217838018E-011
  1.100000000000000E-002    4.194556363586636E-011
  1.110000000000000E-002    3.159312821655549E-011
  1.120000000000000E-002    1.841727673247037E-011
  1.130000000000000E-002    2.878978769519334E-012
  1.140000000000000E-002   -1.436428435678717E-011
  1.150000000000000E-002   -3.247752472839954E-011
  1.160000000000000E-002   -5.048252101773619E-011
  1.170000000000000E-002   -6.730684457673063E-011
  1.180000000000000E-002   -8.184579181235458E-011
  1.190000000000000E-002   -9.303401861355999E-011
  1.200000000000000E-002   -9.992244396931763E-011
  1.210000000000000E-002   -1.017549497369873E-010
  1.220000000000000E-002   -9.803881562495612E-011
  1.230000000000000E-002   -8.860251440202918E-011
  1.240000000000000E-002   -7.363501477223454E-011
  1.250000000000000E-002   -5.370147799912933E-011
  1.260000000000000E-002   -2.973182079044049E-011
  1.270000000000000E-002   -2.980440265018178E-012
  1.280000000000000E-002    2.504227268714174E-011
  1.290000000000000E-002    5.266360614283058E-011
  1.300000000000000E-002    7.816197116913142E-011
  1.310000000000000E-002    9.989249451840925E-011
  1.320000000000000E-002    1.164155671424665E-010
  1.330000000000000E-002    1.266179788388527E-010
  1.340000000000000E-002    1.298161386262352E-010
  1.350000000000000E-002    1.258315876690442E-010
  1.360000000000000E-002    1.150303925370729E-010
  1.370000000000000E-002    9.832062954383055E-011
  1.380000000000000E-002    7.710505205221966E-011
  1.390000000000000E-002    5.318975226794683E-011
  1.400000000000000E-002    2.865318914707235E-011
  1.410000000000000E-002    5.683671050890360E-012
  1.420000000000000E-002   -1.360345743918737E-011
  1.430000000000000E-002   -2.735536764636206E-011
  1.440000000000000E-002   -3.416292940300154E-011
  1.450000000000000E-002   -3.321823473665587E-011
  1.460000000000000E-002   -2.443421395707630E-011
  1.470000000000000E-002   -8.514299735153574E-012
  1.480000000000000E-002    1.303659561357535E-011
  1.490000000000000E-002    3.796428724689706E-011
  1.500000000000000E-002    6.338034155404907E-011
  1.510000000000000E-002    8.593495774617642E-011
  1.520000000000000E-002    1.020376586227044E-010
  1.530000000000000E-002    1.081120289635061E-010
  1.540000000000000E-002    1.008676152724164E-010
  1.550000000000000E-002    7.757019126068020E-011
  1.560000000000000E-002    3.629145070235693E-011
  1.570000000000000E-002   -2.387986686380842E-011
  1.580000000000000E-002   -1.026808558922205E-010
  1.590000000000000E-002   -1.985829933105871E-010
  1.600000000000000E-002   -3.087736463020672E-010
  1.610000000000000E-002   -4.292126822627785E-010
  1.620000000000000E-002   -5.547613070897763E-010
  1.630000000000000E-002   -6.793757564146959E-010
  1.640000000000000E-002   -7.963540616086808E-010
  1.650000000000000E-002   -8.986221154177274E-010
  1.660000000000000E-002   -9.790431294037403E-010
  1.670000000000000E-002   -1.030734428027276E-009
  1.680000000000000E-002   -1.047376881422278E-009
  1.690000000000000E-002   -1.023504429737021E-009
  1.700000000000000E-002   -9.547638722519698E-010
  1.710000000000000E-002   -8.381381383988449E-010
  1.720000000000000E-002   -6.721306039976767E-010
  1.730000000000000E-002   -4.569093698778554E-010
  1.740000000000000E-002   -1.944138115662775E-010
  1.750000000000000E-002    1.115738910849153E-010
  1.760000000000000E-002    4.553891148953678E-010
  1.770000000000000E-002    8.294755636543966E-010
  1.780000000000000E-002    1.224406228935321E-009
  1.790000000000000E-002    1.628936899604931E-009
  1.800000000000000E-002    2.030097848411024E-009
  1.810000000000000E-002    2.413331564211755E-009
  1.820000000000000E-002    2.762684852152306E-009
  1.830000000000000E-002    3.061066650993650E-009
  1.840000000000000E-002    3.290579605529565E-009
  1.850000000000000E-002    3.432934202002953E-009
  1.860000000000000E-002    3.469947050493506E-009
  1.870000000000000E-002    3.384124020311502E-009