 -4.000000000000000E-002    0.000000000000000E+000
 -3.990000000000000E-002    0.000000000000000E+000
 -3.980000000000000E-002    0.000000000000000E+000
 -3.970000000000000E-002    0.000000000000000E+000
 -3.960000000000000E-002    1.575493780780899E-017
 -3.950000000000000E-002    1.367331594183558E-016
 -3.940000000000000E-002    6.529854274776390E-016
 -3.930000000000000E-002    2.263879930853338E-015
 -3.920000000000000E-002    6.353160607595161E-015
 -3.910000000000000E-002    1.527446888231020E-014
 -3.900000000000000E-002    3.254629499916936E-014
 -3.890000000000000E-002    6.281599387431985E-014
 -3.880000000000000E-002    1.114322574862449E-013
 -3.870000000000000E-002    1.834779201493405E-013
 -3.860000000000000E-002    2.821713270740354E-013
 -3.850000000000000E-002    4.066496793384355E-013
 -3.840000000000000E-002    5.492980712497731E-013
 -3.830000000000000E-002    6.929675051975014E-013
 -3.820000000000000E-002    8.086071619580742E-013
 -3.810000000000000E-002    8.539827407593783E-013
 -3.800000000000000E-002    7.742205444273781E-013
 -3.790000000000000E-002    5.048674225970818E-013
 -3.780000000000000E-002   -2.204628977001785E-014
 -3.770000000000000E-002   -8.688151596852893E-013
 -3.760000000000000E-002   -2.080121953683111E-012
 -3.750000000000000E-002   -3.669346151022314E-012
 -3.740000000000000E-002   -5.604730500028310E-012
 -3.730000000000000E-002   -7.797562069107453E-012
 -3.720000000000000E-002   -1.009484770010893E-011
 -3.710000000000000E-002   -1.227898711488807E-011
 -3.700000000000000E-002   -1.407654620313098E-011
 -3.690000000000000E-002   -1.517740511992210E-011
 -3.680000000000000E-002   -1.526426968885966E-011
 -3.670000000000000E-002   -1.405095970151256E-011
 -3.660000000000000E-002   -1.132614817738847E-011
 -3.650000000000000E-002   -6.997542863175545E-012
 -3.640000000000000E-002   -1.130238291071377E-012
 -3.630000000000000E-002    6.027698504214925E-012
 -3.620000000000000E-002    1.403909934255108E-011
 -3.610000000000000E-002    2.229644779245512E-011
 -3.600000000000000E-002    3.006853763845368E-011
 -3.590000000000000E-002    3.657480782207656E-011
 -3.580000000000000E-002    4.108305637817901E-011
 -3.570000000000000E-002    4.302204123359379E-011
 -3.560000000000000E-002    4.209656806885133E-011
 -3.550000000000000E-002    3.838953870711617E-011
 -3.540000000000000E-002    3.243405203026537E-011
 -3.530000000000000E-002    2.523900117571302E-011
 -3.520000000000000E-002    1.825443516112990E-011
 -3.510000000000000E-002    1.326802575505985E-011
 -3.500000000000000E-002    1.223113377303439E-011
 -3.490000000000000E-002    1.702180970709951E-011
 -3.480000000000000E-002    2.916125611051386E-011
 -3.470000000000000E-002    4.950939903823114E-011
 -3.460000000000000E-002    7.797254245556498E-011
 -3.450000000000000E-002    1.132607088271512E-010
 -3.440000000000000E-002    1.527332273526519E-010
 -3.430000000000000E-002    1.923673953524549E-010
 -3.420000000000000E-002    2.268770746253071E-010
 -3.410000000000000E-002    2.499951690363557E-010
 -3.400000000000000E-002    2.549179390276300E-010
 -3.390000000000000E-002    2.348906859905843E-010
 -3.380000000000000E-002    1.838958330654858E-010
 -3.370000000000000E-002    9.738749866066841E-011
 -3.360000000000000E-002   -2.699587247859764E-011
 -3.350000000000000E-002   -1.888168805831806E-010
 -3.340000000000000E-002   -3.843973081618238E-010
 -3.330000000000000E-002   -6.066144296122347E-010
 -3.320000000000000E-002   -8.449849327582282E-010
 -3.310000000000000E-002   -1.086059932268682E-009
 -3.300000000000000E-002   -1.314124655398370E-009
 -3.290000000000000E-002   -1.512164188122518E-009
 -3.280000000000000E-002   -1.663024645863245E-009
 -3.270000000000000E-002   -1.750670989559844E-009
 -3.260000000000000E-002   -1.761427547704861E-009
 -3.250000000000000E-002   -1.685074872067546E-009
 -3.240000000000000E-002   -1.515688720711106E-009
 -3.230000000000000E-002   -1.252123142300392E-009
 -3.220000000000000E-002   -8.980777456916645E-010
 -3.210000000000000E-002   -4.617316827935148E-010
 -3.200000000000000E-002    4.501976607600144E-011
 -3.190000000000000E-002    6.076406060376632E-010
 -3.180000000000000E-002    1.210206869239352E-009
 -3.170000000000000E-002    1.836669792025838E-009
 -3.160000000000000E-002    2.471948939868165E-009
 -3.150000000000000E-002    3.102676883425648E-009
 -3.140000000000000E-002    3.717455706136018E-009
 -3.130000000000000E-002    4.306535583540943E-009
 -3.120000000000000E-002    4.860904079115746E-009
 -3.110000000000000E-002    5.370860447961440E-009
 -3.100000000000000E-002    5.824244513336284E-009
 -3.090000000000000E-002    6.204564418375625E-009
 -3.080000000000000E-002    6.489332781872312E-009
 -3.070000000000000E-002    6.648954772393234E-009
 -3.060000000000000E-002    6.646485613944431E-009
 -3.050000000000000E-002    6.438537326322052E-009
 -3.040000000000000E-002    5.977497879139567E-009
 -3.030000000000000E-002    5.215096213714678E-009
 -3.020000000000000E-002    4.107173262521331E-009
 -3.010000000000000E-002    2.619351113289545E-009
 -3.000000000000000E-002    7.331172051276549E-010
 -2.990000000000000E-002   -1.548281826110478E-009
 -2.980000000000000E-002   -4.194832091513900E-009
 -2.970000000000000E-002   -7.146328690260451E-009
 -2.960000000000000E-002   -1.031115998363478E-008
 -2.950000000000000E-002   -1.356777948845297E-008
 -2.940000000000000E-002   -1.676910760362900E-008
 -2.930000000000000E-002   -1.974981661224366E-008
 -2.920000000000000E-002   -2.233614958554873E-008
 -2.910000000000000E-002   -2.435757965783499E-008
 -2.900000000000000E-002   -2.565938159122407E-008
 -2.890000000000000E-002   -2.611495844249314E-008
 -2.880000000000000E-002   -2.563669361004586E-008
 -2.870000000000000E-002   -2.418414105038340E-008
 -2.860000000000000E-002   -2.176854592888376E-008
 -2.850000000000000E-002   -1.845298847863028E-008
 -2.840000000000000E-002   -1.434788707759431E-008
 -2.830000000000000E-002   -9.602087940795961E-009
 -2.820000000000000E-002   -4.390233707505615E-009
 -2.810000000000000E-002    1.102351770408674E-009
 -2.800000000000000E-002    6.695735005007427E-009
 -2.790000000000000E-002    1.223059869627394E-008
 -2.780000000000000E-002    1.758080258753989E-008
 -2.770000000000000E-002    2.266166742912170E-008
 -2.760000000000000E-002    2.743273032495542E-008
 -2.750000000000000E-002    3.189431158832954E-008
 -2.740000000000000E-002    3.607792049445505E-008
 -2.730000000000000E-002    4.003128178133493E-008
 -2.720000000000000E-002    4.379951388188398E-008
 -2.710000000000000E-002    4.740456862981362E-008
 -2.700000000000000E-002    5.082547121468630E-008
 -2.690000000000000E-002    5.398203770263871E-008
 -2.680000000000000E-002    5.672460910185938E-008
 -2.670000000000000E-002    5.883183146771239E-008
 -2.660000000000000E-002    6.001782053212722E-008
 -2.650000000000000E-002    5.994901792149461E-008
 -2.640000000000000E-002    5.826996706237448E-008
 -2.630000000000000E-002    5.463623646237489E-008
 -2.620000000000000E-002    4.875152797422899E-008
 -2.610000000000000E-002    4.040553459011578E-008
 -2.600000000000000E-002    2.950844656637096E-008
 -2.590000000000000E-002    1.611827092042597E-008
 -2.580000000000000E-002    4.573652662473174E-010
 -2.570000000000000E-002   -1.708435006510778E-008
 -2.560000000000000E-002   -3.596096268547706E-008
 -2.550000000000000E-002   -5.549681818363402E-008
 -2.540000000000000E-002   -7.492583590051531E-008
 -2.530000000000000E-002   -9.344085777572415E-008
 -2.520000000000000E-002   -1.102486526972211E-007
 -2.510000000000000E-002   -1.246255479677338E-007
 -2.500000000000000E-002   -1.359681116030108E-007
 -2.490000000000000E-002   -1.438338933552201E-007
 -2.480000000000000E-002   -1.479676682842948E-007
 -2.470000000000000E-002   -1.483102984992181E-007
 -2.460000000000000E-002   -1.449889057292825E-007
 -2.450000000000000E-002   -1.382888886038162E-007
 -2.440000000000000E-002   -1.286105188385809E-007
 -2.430000000000000E-002   -1.164143213430346E-007
 -2.420000000000000E-002   -1.021609977586845E-007
 -2.410000000000000E-002   -8.625220774882454E-008
 -2.400000000000000E-002   -6.897883562455760E-008
 -2.390000000000000E-002   -5.048260521601579E-008
 -2.380000000000000E-002   -3.073556779750063E-008
 -2.370000000000000E-002   -9.540370971653242E-009
 -2.360000000000000E-002    1.344830028761022E-008
 -2.350000000000000E-002    3.868285584710961E-008
 -2.340000000000000E-002    6.666659458149161E-008
 -2.330000000000000E-002    9.788816110370822E-008
 -2.320000000000000E-002    1.327538133250188E-007
 -2.310000000000000E-002    1.715254027536929E-007
 -2.300000000000000E-002    2.142715322550448E-007
 -2.290000000000000E-002    2.608383186870406E-007
 -2.280000000000000E-002    3.108442805749401E-007
 -2.270000000000000E-002    3.637015161584030E-007
 -2.260000000000000E-002    4.186625669402155E-007
 -2.250000000000000E-002    4.748895941590544E-007
 -2.240000000000000E-002    5.315400536541059E-007
 -2.230000000000000E-002    5.878608575315994E-007
 -2.220000000000000E-002    6.432820680966654E-007
 -2.210000000000000E-002    6.975007911550007E-007
 -2.200000000000000E-002    7.505463497210226E-007
 -2.190000000000000E-002    8.028196950908298E-007
 -2.180000000000000E-002    8.551021781445594E-007
 -2.170000000000000E-002    9.085321037252554E-007
 -2.160000000000000E-002    9.645498777473270E-007
 -2.150000000000000E-002    1.024816791409422E-006
 -2.140000000000000E-002    1.091113971570014E-006
 -2.130000000000000E-002    1.165231723173966E-006
 -2.120000000000000E-002    1.248859154205957E-006
 -2.110000000000000E-002    1.343484813959190E-006
 -2.100000000000000E-002    1.450318936445786E-006
 -2.090000000000000E-002    1.570244384384202E-006
 -2.080000000000000E-002    1.703802432240463E-006
 -2.070000000000000E-002    1.851215255456561E-006
 -2.060000000000000E-002    2.012443249131288E-006
 -2.050000000000000E-002    2.187273329880009E-006
 -2.040000000000000E-002    2.375429677654916E-006
 -2.030000000000000E-002    2.576696665457619E-006
 -2.020000000000000E-002    2.791043180159649E-006
 -2.010000000000000E-002    3.018736617040446E-006
 -2.000000000000000E-002    3.260434546025016E-006
 -1.990000000000000E-002    3.517246136104991E-006
 -1.980000000000000E-002    3.790757587356006E-006
 -1.970000000000000E-002    4.083016791231903E-006
 -1.960000000000000E-002    4.396481137605930E-006
 -1.950000000000000E-002    4.733929536260581E-006
 -1.940000000000000E-002    5.098349883743539E-006
 -1.930000000000000E-002    5.492810372141536E-006
 -1.920000000000000E-002    5.920326725327561E-006
 -1.910000000000000E-002    6.383740207151480E-006
 -1.900000000000000E-002    6.885615276247321E-006
 -1.890000000000000E-002    7.428168248385643E-006
 -1.880000000000000E-002    8.013236742146590E-006
 -1.870000000000000E-002    8.642288427300018E-006
 -1.860000000000000E-002    9.316475460967610E-006
 -1.850000000000000E-002    1.003672349728057E-005
 -1.840000000000000E-002    1.080385327962128E-005
 -1.830000000000000E-002    1.161872230403077E-005
 -1.820000000000000E-002    1.248236862379758E-005
 -1.810000000000000E-002    1.339615030902518E-005
 -1.800000000000000E-002    1.436186291030853E-005
 -1.790000000000000E-002    1.538182164651848E-005
 -1.780000000000000E-002    1.645890290265588E-005
 -1.770000000000000E-002    1.759653934898193E-005
 -1.760000000000000E-002    1.879866540512409E-005
 -1.750000000000000E-002    2.006962213719789E-005
 -1.740000000000000E-002    2.141402697582101E-005
 -1.730000000000000E-002    2.283662156111807E-005
 -1.720000000000000E-002    2.434211617531989E-005
 -1.710000000000000E-002    2.593504264893523E-005
 -1.700000000000000E-002    2.761964432462445E-005
 -1.690000000000000E-002    2.939979859532634E-005
 -1.680000000000000E-002    3.127900279544553E-005
 -1.670000000000000E-002    3.326041819831168E-005
 -1.660000000000000E-002    3.534697843073804E-005
 -1.650000000000000E-002    3.754155849832288E-005
 -1.640000000000000E-002    3.984719116602900E-005
 -1.630000000000000E-002    4.226730469151869E-005
 -1.620000000000000E-002    4.480599363943109E-005
 -1.610000000000000E-002    4.746825883504017E-005
 -1.600000000000000E-002    5.026022436013570E-005
 -1.590000000000000E-002    5.318931009982038E-005
 -1.580000000000000E-002    5.626432476257753E-005
 -1.570000000000000E-002    5.949550139632061E-005
 -1.560000000000000E-002    6.289443800191387E-005
 -1.550000000000000E-002    6.647398246700081E-005
 -1.540000000000000E-002    7.024804675882193E-005
 -1.530000000000000E-002    7.423138424598399E-005
 -1.520000000000000E-002    7.843936918303623E-005
 -1.510000000000000E-002    8.288773756711418E-005
 -1.500000000000000E-002    8.759241856730801E-005
 -1.490000000000000E-002    9.256938759802705E-005
 -1.480000000000000E-002    9.783459838977390E-005
 -1.470000000000000E-002    1.034039999524652E-004
 -1.460000000000000E-002    1.092936215329268E-004
 -1.450000000000000E-002    1.155197625396769E-004
 -1.440000000000000E-002    1.220992006480231E-004
 -1.430000000000000E-002    1.290494644004794E-004
 -1.420000000000000E-002    1.363890987041928E-004
 -1.410000000000000E-002    1.441379031556746E-004
 -1.400000000000000E-002    1.523171262498080E-004
 -1.390000000000000E-002    1.609495829158801E-004
 -1.380000000000000E-002    1.700596974204231E-004
 -1.370000000000000E-002    1.796734092771851E-004
 -1.360000000000000E-002    1.898180522945516E-004
 -1.350000000000000E-002    2.005221013959446E-004
 -1.340000000000000E-002    2.118149019660356E-004
 -1.330000000000000E-002    2.237263502450391E-004
 -1.320000000000000E-002    2.362865896056604E-004
 -1.310000000000000E-002    2.495257541342668E-004
 -1.300000000000000E-002    2.634737716592264E-004
 -1.290000000000000E-002    2.781602859536471E-004
 -1.280000000000000E-002    2.936146167730806E-004
 -1.270000000000000E-002    3.098659404788599E-004
 -1.260000000000000E-002    3.269435087178778E-004
 -1.250000000000000E-002    3.448768320974817E-004
 -1.240000000000000E-002    3.636961846904504E-004
 -1.230000000000000E-002    3.834328683803796E-004
 -1.220000000000000E-002    4.041196517279951E-004
 -1.210000000000000E-002    4.257909938500786E-004
 -1.200000000000000E-002    4.484833978475312E-004
 -1.190000000000000E-002    4.722354340730405E-004
 -1.180000000000000E-002    4.970879187578648E-004
 -1.170000000000000E-002    5.230837540785457E-004
 -1.160000000000000E-002    5.502678746520759E-004
 -1.150000000000000E-002    5.786870349074673E-004
 -1.140000000000000E-002    6.083895293492348E-004
 -1.130000000000000E-002    6.394251186892856E-004
 -1.120000000000000E-002    6.718447066681522E-004
 -1.110000000000000E-002    7.057003477502552E-004
 -1.100000000000000E-002    7.410451421460081E-004
 -1.090000000000000E-002    7.779333803530468E-004
 -1.080000000000000E-002    8.164206776018554E-004
 -1.070000000000000E-002    8.565642603226420E-004
 -1.060000000000000E-002    8.984232794080501E-004
 -1.050000000000000E-002    9.420591704373181E-004
 -1.040000000000000E-002    9.875360589907916E-004
 -1.030000000000000E-002    1.034921104861104E-003
 -1.020000000000000E-002    1.084284937592210E-003
 -1.010000000000000E-002    1.135701662522549E-003
 -1.000000000000000E-002    1.189249298740426E-003
 -9.899999999999999E-003    1.245009751329646E-003
 -9.800000000000000E-003    1.303068698749903E-003
 -9.699999999999999E-003    1.363515817274267E-003
 -9.599999999999999E-003    1.426444597786160E-003
 -9.500000000000000E-003    1.491952040682751E-003
 -9.399999999999999E-003    1.560138746542237E-003
 -9.299999999999999E-003    1.631108625192191E-003
 -9.200000000000000E-003    1.704969061946269E-003
 -9.099999999999999E-003    1.781830927580492E-003
 -8.999999999999999E-003    1.861808321125211E-003
 -8.900000000000000E-003    1.945019112355464E-003
 -8.799999999999999E-003    2.031584669321652E-003
 -8.699999999999999E-003    2.121630349574705E-003
 -8.600000000000000E-003    2.215285467201650E-003
 -8.499999999999999E-003    2.312683659879488E-003
 -8.399999999999999E-003    2.413962996752161E-003
 -8.300000000000000E-003    2.519265813169488E-003
 -8.199999999999999E-003    2.628739211544981E-003
 -8.100000000000000E-003    2.742534840702740E-003
 -8.000000000000000E-003    2.860809270385090E-003
 -7.899999999999999E-003    2.983723267354567E-003
 -7.800000000000000E-003    3.111442242100007E-003
 -7.699999999999999E-003    3.244136297914401E-003
 -7.599999999999999E-003    3.381979645406616E-003
 -7.499999999999999E-003    3.525151046177916E-003
 -7.399999999999999E-003    3.673833269003608E-003
 -7.299999999999999E-003    3.828213172075305E-003
 -7.199999999999999E-003    3.988481807016880E-003
 -7.100000000000000E-003    4.154833881270562E-003
 -6.999999999999999E-003    4.327467873176847E-003
 -6.899999999999999E-003    4.506585837568197E-003
 -6.800000000000000E-003    4.692393037278186E-003
 -6.699999999999999E-003    4.885098132824030E-003
 -6.599999999999999E-003    5.084912725742088E-003
 -6.499999999999999E-003    5.292051947666460E-003
 -6.399999999999999E-003    5.506732992566470E-003
 -6.299999999999999E-003    5.729176806885704E-003
 -6.199999999999999E-003    5.959606559402432E-003
 -6.100000000000000E-003    6.198249253376000E-003
 -5.999999999999999E-003    6.445334896766380E-003
 -5.899999999999999E-003    6.701096863223953E-003
 -5.800000000000000E-003    6.965771991221643E-003
 -5.699999999999999E-003    7.239601675004275E-003
 -5.599999999999999E-003    7.522831030209343E-003
 -5.499999999999999E-003    7.815709775318355E-003
 -5.399999999999999E-003    8.118491099596338E-003
 -5.299999999999999E-003    8.431433004572494E-003
 -5.199999999999999E-003    8.754797048155186E-003
 -5.099999999999999E-003    9.088848345566542E-003
 -4.999999999999999E-003    9.433854866047857E-003
 -4.899999999999999E-003    9.790087364339404E-003
 -4.799999999999999E-003    1.015781925528293E-002
 -4.699999999999999E-003    1.053732454436472E-002
 -4.599999999999999E-003    1.092887868458101E-002
 -4.499999999999999E-003    1.133275876581666E-002
 -4.399999999999999E-003    1.174924291756188E-002
 -4.299999999999999E-003    1.217860886320722E-002
 -4.199999999999999E-003    1.262113636064552E-002
 -4.099999999999999E-003    1.307710587531348E-002
 -3.999999999999999E-003    1.354680094494772E-002
 -3.899999999999999E-003    1.403050584060108E-002
 -3.799999999999999E-003    1.452850736141732E-002
 -3.699999999999999E-003    1.504109599590653E-002
 -3.599999999999999E-003    1.556856224720455E-002
 -3.499999999999999E-003    1.611120214657574E-002
 -3.399999999999999E-003    1.666931057865400E-002
 -3.299999999999999E-003    1.724318541567476E-002
 -3.199999999999999E-003    1.783312319161605E-002
 -3.099999999999999E-003    1.843941952262866E-002
 -2.999999999999999E-003    1.906236825557667E-002
 -2.899999999999999E-003    1.970225868432865E-002
 -2.799999999999999E-003    2.035937800722405E-002
 -2.699999999999999E-003    2.103400546604329E-002
 -2.599999999999999E-003    2.172641458369108E-002
 -2.499999999999999E-003    2.243687292730532E-002
 -2.399999999999999E-003    2.316564033068225E-002
 -2.299999999999999E-003    2.391297288013478E-002
 -2.199999999999999E-003    2.467911566204200E-002
 -2.099999999999999E-003    2.546431105711696E-002
 -1.999999999999999E-003    2.626879354898486E-002
 -1.899999999999999E-003    2.709278989722444E-002
 -1.799999999999999E-003    2.793652242926209E-002
 -1.699999999999999E-003    2.880020725845719E-002
 -1.599999999999999E-003    2.968405087461374E-002
 -1.499999999999999E-003    3.058825162760400E-002
 -1.399999999999999E-003    3.151299642097072E-002
 -1.299999999999999E-003    3.245845888508446E-002
 -1.199999999999999E-003    3.342480235125547E-002
 -1.099999999999999E-003    3.441217058506731E-002
 -9.999999999999989E-004    3.542069048103486E-002
 -8.999999999999990E-004    3.645046841554912E-002
 -7.999999999999990E-004    3.750159202375302E-002
 -6.999999999999989E-004    3.857412609008098E-002
 -5.999999999999990E-004    3.966811086935733E-002
 -4.999999999999989E-004    4.078356219190377E-002
 -3.999999999999989E-004    4.192047279410566E-002
 -2.999999999999989E-004    4.307881515636718E-002
 -1.999999999999989E-004    4.425853315110498E-002
 -9.999999999999892E-005    4.545954956539197E-002
  1.084202172485504E-018    4.668175908029529E-002
  1.000000000000011E-004    4.792503586896233E-002
  2.000000000000011E-004    4.918922141319072E-002
  3.000000000000011E-004    5.047413230030930E-002
  4.000000000000011E-004    5.177955686398248E-002
  5.000000000000011E-004    5.310524562035496E-002
  6.000000000000011E-004    5.445092202903835E-002
  7.000000000000011E-004    5.581626710580538E-002
  8.000000000000011E-004    5.720092420697786E-002
  9.000000000000012E-004    5.860449570824151E-002
  1.000000000000001E-003    6.002654643739321E-002
  1.100000000000001E-003    6.146659068543969E-002
  1.200000000000001E-003    6.292410053989446E-002
  1.300000000000001E-003    6.439849856900896E-002
  1.400000000000001E-003    6.588916507262285E-002
  1.500000000000001E-003    6.739542709289194E-002
  1.600000000000001E-003    6.891656707377805E-002
  1.700000000000001E-003    7.045182290232500E-002
  1.800000000000001E-003    7.200037645152996E-002
  1.900000000000001E-003    7.356135421402814E-002
  2.000000000000001E-003    7.513384412315263E-002
  2.100000000000001E-003    7.671687761738376E-002
  2.200000000000001E-003    7.830942288196814E-002
  2.300000000000001E-003    7.991039637131099E-002
  2.400000000000001E-003    8.151865636992728E-002
  2.500000000000001E-003    8.313298727993365E-002
  2.600000000000001E-003    8.475212163036759E-002
  2.700000000000001E-003    8.637472557984416E-002
  2.800000000000001E-003    8.799938894415538E-002
  2.900000000000001E-003    8.962463157083467E-002
  3.000000000000001E-003    9.124891126837704E-002
  3.100000000000001E-003    9.287060302908771E-002
  3.200000000000001E-003    9.448800959573869E-002
  3.300000000000001E-003    9.609936013241374E-002
  3.400000000000001E-003    9.770281463646732E-002
  3.500000000000001E-003    9.929645279320926E-002
  3.600000000000001E-003    0.100878275015311     
  3.700000000000001E-003    0.102446212684390     
  3.800000000000001E-003    0.103998114345185     
  3.900000000000001E-003    0.105531746520055     
  4.000000000000001E-003    0.107044794705283     
  4.100000000000001E-003    0.108534869109919     
  4.200000000000001E-003    0.109999482154507     
  4.300000000000001E-003    0.111436062880738     
  4.400000000000001E-003    0.112841954192378     
  4.500000000000001E-003    0.114214416528148     
  4.600000000000002E-003    0.115550603875597     
  4.700000000000001E-003    0.116847594675028     
  4.800000000000001E-003    0.118102369154660     
  4.900000000000002E-003    0.119311821108497     
  5.000000000000001E-003    0.120472738510092     
  5.100000000000001E-003    0.121581839670881     
  5.200000000000001E-003    0.122635743163062     
  5.300000000000002E-003    0.123630977891781     
  5.400000000000001E-003    0.124563978129414     
  5.500000000000001E-003    0.125431099627917     
  5.600000000000002E-003    0.126228599509365     
  5.700000000000001E-003    0.126952648839936     
  5.800000000000001E-003    0.127599336551379     
  5.900000000000002E-003    0.128164646757446     
  6.000000000000001E-003    0.128644485606274     
  6.100000000000001E-003    0.129034672180246     
  6.200000000000002E-003    0.129330933985701     
  6.300000000000002E-003    0.129528903119812     
  6.400000000000001E-003    0.129624145821207     
  6.500000000000001E-003    0.129612128026727     
  6.600000000000002E-003    0.129488258638847     
  6.700000000000001E-003    0.129247841986568     
  6.800000000000001E-003    0.128886122874191     
  6.900000000000002E-003    0.128398275761492     
  7.000000000000001E-003    0.127779394727990     
  7.100000000000001E-003    0.127024521372366     
  7.200000000000002E-003    0.126128624502818     
  7.300000000000002E-003    0.125086615428408     
  7.400000000000001E-003    0.123893353008579     
  7.500000000000001E-003    0.122543628688860     
  7.600000000000002E-003    0.121032190483007     
  7.700000000000001E-003    0.119353735672688     
  7.800000000000001E-003    0.117502919098051     
  7.900000000000001E-003    0.115474355785650     
  8.000000000000002E-003    0.113262616649380     
  8.100000000000001E-003    0.110862246877588     
  8.200000000000001E-003    0.108267766898700     
  8.300000000000002E-003    0.105473667128315     
  8.400000000000001E-003    0.102474428653386     
  8.500000000000002E-003    9.926453043665769E-002
  8.600000000000002E-003    9.583843927851728E-002
  8.700000000000001E-003    9.219063203030867E-002
  8.800000000000002E-003    8.831560126341700E-002
  8.900000000000002E-003    8.420784905589314E-002
  9.000000000000001E-003    7.986191189401769E-002
  9.100000000000002E-003    7.527234799961019E-002
  9.200000000000002E-003    7.043375926179135E-002
  9.300000000000001E-003    6.534078750401628E-002
  9.400000000000002E-003    5.998812234978967E-002
  9.500000000000001E-003    5.437051556367984E-002
  9.600000000000001E-003    4.848278307814739E-002
  9.700000000000002E-003    4.231980837337099E-002
  9.800000000000001E-003    3.587655865956561E-002
  9.900000000000001E-003    2.914809088708318E-002
  1.000000000000000E-002    2.212955949307707E-002
  1.010000000000000E-002    1.481622896649203E-002
  1.020000000000000E-002    7.203476630798816E-003
  1.030000000000000E-002   -7.131893230896645E-004
  1.040000000000000E-002   -8.938118077765574E-003
  1.050000000000000E-002   -1.747551621025854E-002
  1.060000000000000E-002   -2.632942717803227E-002
  1.070000000000000E-002   -3.550373243340160E-002
  1.080000000000000E-002   -4.500213220049862E-002
  1.090000000000000E-002   -5.482814110653487E-002
  1.100000000000000E-002   -6.498507606750258E-002
  1.110000000000000E-002   -7.547605434285576E-002
  1.120000000000000E-002   -8.630397044734027E-002
  1.130000000000000E-002   -9.747149933234261E-002
  1.140000000000000E-002   -0.108981076398219     
  1.150000000000000E-002   -0.120834888152244     
  1.160000000000000E-002   -0.133034881108280     
  1.170000000000000E-002   -0.145582718747018     
  1.180000000000000E-002   -0.158479801599297     
  1.190000000000000E-002   -0.171727218304593     
  1.200000000000000E-002   -0.185325789853125     
  1.210000000000000E-002   -0.199276004634805     
  1.220000000000000E-002   -0.213578030682084     
  1.230000000000000E-002   -0.228231709866621     
  1.240000000000000E-002   -0.243236539461487     
  1.250000000000000E-002   -0.258591640830397     
  1.260000000000000E-002   -0.274295810799920     
  1.270000000000000E-002   -0.290347442923577     
  1.280000000000000E-002   -0.306744575484060     
  1.290000000000000E-002   -0.323484820127271     
  1.300000000000000E-002   -0.340565420974843     
  1.310000000000000E-002   -0.357983214397849     
  1.320000000000000E-002   -0.375734609864882     
  1.330000000000000E-002   -0.393815588377251     
  1.340000000000000E-002   -0.412221727910712     
  1.350000000000000E-002   -0.430948115463476     
  1.360000000000000E-002   -0.449989446559924     
  1.370000000000000E-002   -0.469339935040202     
  1.380000000000000E-002   -0.488993307211850     
  1.390000000000000E-002   -0.508942878168504     
  1.400000000000000E-002   -0.529181426884796     
  1.410000000000000E-002   -0.549701284714760     
  1.420000000000000E-002   -0.570494303858755     
  1.430000000000000E-002   -0.591551856886208     
  1.440000000000000E-002   -0.612864749597422     
  1.450000000000000E-002   -0.634423364057074     
  1.460000000000000E-002   -0.656217528246682     
  1.470000000000000E-002   -0.678236640986523     
  1.480000000000000E-002   -0.700469542930816     
  1.490000000000000E-002   -0.722904591810453     
  1.500000000000000E-002   -0.745529651181379     
  1.510000000000000E-002   -0.768332030523021     
  1.520000000000000E-002   -0.791298586770889     
  1.530000000000000E-002   -0.814415615186732     
  1.540000000000000E-002   -0.837668970841085     
  1.550000000000000E-002   -0.861043982352344     
  1.560000000000000E-002   -0.884525525199712     
  1.570000000000000E-002   -0.908097954272634     
  1.580000000000000E-002   -0.931745102922303     
  1.590000000000000E-002   -0.955450353726513     
  1.600000000000000E-002   -0.979196649767952     
  1.610000000000000E-002    -1.00296642496021     
  1.620000000000000E-002    -1.02674167608020     
  1.630000000000000E-002    -1.05050391900460     
  1.640000000000000E-002    -1.07423423952076     
  1.650000000000000E-002    -1.09791340832560     
  1.660000000000000E-002    -1.12152153517478     
  1.670000000000000E-002    -1.14503856512151     
  1.680000000000000E-002    -1.16844400841352     
  1.690000000000000E-002    -1.19171684436638     
  1.700000000000000E-002    -1.21483577100502     
  1.710000000000000E-002    -1.23777925878550     
  1.720000000000000E-002    -1.26052534512206     
  1.730000000000000E-002    -1.28305170597143     
  1.740000000000000E-002    -1.30533571780524     
  1.750000000000000E-002    -1.32735452768710     
  1.760000000000000E-002    -1.34908510950473     
  1.770000000000000E-002    -1.37050399984720     
  1.780000000000000E-002    -1.39158754842296     
  1.790000000000000E-002    -1.41231207026671     
  1.800000000000000E-002    -1.43265360511902     
  1.810000000000000E-002    -1.45258804942437     
  1.820000000000000E-002    -1.47209122931168     
  1.830000000000000E-002    -1.49113876225687     
  1.840000000000000E-002    -1.50970618031592     
  1.850000000000000E-002    -1.52776915903543     
  1.860000000000000E-002    -1.54530307229179     
  1.870000000000000E-002    -1.56228343139228     