 -4.000000000000000E-002    0.000000000000000E+000
 -3.990000000000000E-002    0.000000000000000E+000
 -3.980000000000000E-002    0.000000000000000E+000
 -3.970000000000000E-002    0.000000000000000E+000
 -3.960000000000000E-002    0.000000000000000E+000
 -3.950000000000000E-002    0.000000000000000E+000
 -3.940000000000000E-002   -4.651031607655347E-024
 -3.930000000000000E-002   -5.070469323608421E-023
 -3.920000000000000E-002   -2.851136307524380E-022
 -3.910000000000000E-002   -1.082110707129038E-021
 -3.900000000000000E-002   -3.026554278707603E-021
 -3.890000000000000E-002   -6.257247662355251E-021
 -3.880000000000000E-002   -8.221543241141755E-021
 -3.870000000000000E-002    1.367259843602596E-021
 -3.860000000000000E-002    4.906477267245009E-020
 -3.850000000000000E-002    1.882899692239001E-019
 -3.840000000000000E-002    5.059600080628810E-019
 -3.830000000000000E-002    1.111725724751571E-018
 -3.820000000000000E-002    2.086834097947329E-018
 -3.810000000000000E-002    3.360545119587982E-018
 -3.800000000000000E-002    4.477979621273367E-018
 -3.790000000000000E-002    4.231053854542069E-018
 -3.780000000000000E-002    1.514584497674528E-019
 -3.770000000000000E-002   -1.208203109783639E-017
 -3.760000000000000E-002   -3.918730873435370E-017
 -3.750000000000000E-002   -9.053325042360297E-017
 -3.740000000000000E-002   -1.777499009442607E-016
 -3.730000000000000E-002   -3.132457216657659E-016
 -3.720000000000000E-002   -5.071489276186400E-016
 -3.710000000000000E-002   -7.622657077523326E-016
 -3.700000000000000E-002   -1.066878468695446E-015
 -3.690000000000000E-002   -1.385627989783103E-015
 -3.680000000000000E-002   -1.649348074605988E-015
 -3.670000000000000E-002   -1.745499305457099E-015
 -3.660000000000000E-002   -1.511714226238768E-015
 -3.650000000000000E-002   -7.357497905635854E-016
 -3.640000000000000E-002    8.343467036487093E-016
 -3.630000000000000E-002    3.466044725424688E-015
 -3.620000000000000E-002    7.401036601887755E-015
 -3.610000000000000E-002    1.279544300875873E-014
 -3.600000000000000E-002    1.964281558120499E-014
 -3.590000000000000E-002    2.768487240546787E-014
 -3.580000000000000E-002    3.631925414427730E-014
 -3.570000000000000E-002    4.451814048362513E-014
 -3.560000000000000E-002    5.077563260524710E-014
 -3.550000000000000E-002    5.310453651568376E-014
 -3.540000000000000E-002    4.910369130797180E-014
 -3.530000000000000E-002    3.611436388414716E-014
 -3.520000000000000E-002    1.147781461590651E-014
 -3.510000000000000E-002   -2.710404618335582E-014
 -3.500000000000000E-002   -8.111714617219721E-014
 -3.490000000000000E-002   -1.507217237904176E-013
 -3.480000000000000E-002   -2.342235471841008E-013
 -3.470000000000000E-002   -3.275933234643178E-013
 -3.460000000000000E-002   -4.241107605052340E-013
 -3.450000000000000E-002   -5.142163152902866E-013
 -3.440000000000000E-002   -5.856507663193613E-013
 -3.430000000000000E-002   -6.239494878994401E-013
 -3.420000000000000E-002   -6.133325767124095E-013
 -3.410000000000000E-002   -5.379950337245983E-013
 -3.400000000000000E-002   -3.837556238915514E-013
 -3.390000000000000E-002   -1.399711863900028E-013
 -3.380000000000000E-002    1.984280064357638E-013
 -3.370000000000000E-002    6.289710940231997E-013
 -3.360000000000000E-002    1.139969672798140E-012
 -3.350000000000000E-002    1.709365603488965E-012
 -3.340000000000000E-002    2.304326349483555E-012
 -3.330000000000000E-002    2.881773388811058E-012
 -3.320000000000000E-002    3.389963629765412E-012
 -3.310000000000000E-002    3.771155256753102E-012
 -3.300000000000000E-002    3.965285242960052E-012
 -3.290000000000000E-002    3.914474749362445E-012
 -3.280000000000000E-002    3.568069982737573E-012
 -3.270000000000000E-002    2.887843073576975E-012
 -3.260000000000000E-002    1.852914096249522E-012
 -3.250000000000000E-002    4.639399496081374E-013
 -3.240000000000000E-002   -1.253857064112667E-012
 -3.230000000000000E-002   -3.249175804764737E-012
 -3.220000000000000E-002   -5.444874706331454E-012
 -3.210000000000000E-002   -7.740055856115541E-012
 -3.200000000000000E-002   -1.001392244887198E-011
 -3.190000000000000E-002   -1.213117876859292E-011
 -3.180000000000000E-002   -1.394860345939667E-011
 -3.170000000000000E-002   -1.532232788818001E-011
 -3.160000000000000E-002   -1.611530752142180E-011
 -3.150000000000000E-002   -1.620449134750694E-011
 -3.140000000000000E-002   -1.548726956897112E-011
 -3.130000000000000E-002   -1.388690844992344E-011
 -3.120000000000000E-002   -1.135684573066062E-011
 -3.110000000000000E-002   -7.883882796760866E-012
 -3.100000000000000E-002   -3.490468368844020E-012
 -3.090000000000000E-002    1.763638156231923E-012
 -3.080000000000000E-002    7.779988517269629E-012
 -3.070000000000000E-002    1.442009103999789E-011
 -3.060000000000000E-002    2.150393996268961E-011
 -3.050000000000000E-002    2.880852855831358E-011
 -3.040000000000000E-002    3.606670941984341E-011
 -3.030000000000000E-002    4.296706351748894E-011
 -3.020000000000000E-002    4.915568434303770E-011
 -3.010000000000000E-002    5.424097660398112E-011
 -3.000000000000000E-002    5.780259849290817E-011
 -2.990000000000000E-002    5.940554505571446E-011
 -2.980000000000000E-002    5.862004158916438E-011
 -2.970000000000000E-002    5.504742030851787E-011
 -2.960000000000000E-002    4.835143813072940E-011
 -2.950000000000000E-002    3.829370449389929E-011
 -2.940000000000000E-002    2.477106581480661E-011
 -2.930000000000000E-002    7.851977516043512E-012
 -2.920000000000000E-002   -1.219168808996270E-011
 -2.910000000000000E-002   -3.486131579569141E-011
 -2.900000000000000E-002   -5.942063898692018E-011
 -2.890000000000000E-002   -8.490071939226377E-011
 -2.880000000000000E-002   -1.101235022445129E-010
 -2.870000000000000E-002   -1.337452381188482E-010
 -2.860000000000000E-002   -1.543195772281279E-010
 -2.850000000000000E-002   -1.703781515588156E-010
 -2.840000000000000E-002   -1.805245773885008E-010
 -2.830000000000000E-002   -1.835359435636421E-010
 -2.820000000000000E-002   -1.784643732656958E-010
 -2.810000000000000E-002   -1.647301687857148E-010
 -2.800000000000000E-002   -1.421977625906185E-010
 -2.790000000000000E-002   -1.112260933197743E-010
 -2.780000000000000E-002   -7.268636397832025E-011
 -2.770000000000000E-002   -2.794234916549147E-011
 -2.760000000000000E-002    2.120891253696624E-011
 -2.750000000000000E-002    7.263449325432076E-011
 -2.740000000000000E-002    1.239961505599957E-010
 -2.730000000000000E-002    1.729052893771558E-010
 -2.720000000000000E-002    2.170905662151376E-010
 -2.710000000000000E-002    2.545638726400638E-010
 -2.700000000000000E-002    2.837691503644311E-010
 -2.690000000000000E-002    3.036986812780002E-010
 -2.680000000000000E-002    3.139631043327852E-010
 -2.670000000000000E-002    3.148045963976243E-010
 -2.660000000000000E-002    3.070474938338161E-010
 -2.650000000000000E-002    2.919862865755597E-010
 -2.640000000000000E-002    2.712175284926978E-010
 -2.630000000000000E-002    2.464288595435081E-010
 -2.620000000000000E-002    2.191646078813607E-010
 -2.610000000000000E-002    1.905919534414908E-010
 -2.600000000000000E-002    1.612950905216958E-010
 -2.590000000000000E-002    1.311248102630934E-010
 -2.580000000000000E-002    9.912890390357804E-011
 -2.570000000000000E-002    6.358305120951594E-011
 -2.560000000000000E-002    2.213363926210904E-011
 -2.550000000000000E-002   -2.794665770854494E-011
 -2.540000000000000E-002   -8.940238462016146E-011
 -2.530000000000000E-002   -1.645622557104178E-010
 -2.520000000000000E-002   -2.548663174312642E-010
 -2.510000000000000E-002   -3.603998681109197E-010
 -2.500000000000000E-002   -4.794871600299387E-010
 -2.490000000000000E-002   -6.084000109952945E-010
 -2.480000000000000E-002   -7.412318201274395E-010
 -2.470000000000000E-002   -8.699787853612908E-010
 -2.460000000000000E-002   -9.848539363391697E-010
 -2.450000000000000E-002   -1.074839822769429E-009
 -2.440000000000000E-002   -1.128461323358157E-009
 -2.430000000000000E-002   -1.134735669233057E-009
 -2.420000000000000E-002   -1.084232620296231E-009
 -2.410000000000000E-002   -9.701566766939512E-010
 -2.400000000000000E-002   -7.893507348398688E-010
 -2.390000000000000E-002   -5.431133655258893E-010
 -2.380000000000000E-002   -2.377283561037165E-010
 -2.370000000000000E-002    1.153804484305504E-010
 -2.360000000000000E-002    4.999291607028012E-010
 -2.350000000000000E-002    8.955134833451839E-010
 -2.340000000000000E-002    1.278791003338488E-009
 -2.330000000000000E-002    1.625045305303757E-009
 -2.320000000000000E-002    1.910025827304847E-009
 -2.310000000000000E-002    2.111922516881242E-009
 -2.300000000000000E-002    2.213305054074097E-009
 -2.290000000000000E-002    2.202846186118782E-009
 -2.280000000000000E-002    2.076650554174274E-009
 -2.270000000000000E-002    1.839035406131638E-009
 -2.260000000000000E-002    1.502646091103185E-009
 -2.250000000000000E-002    1.087848376461040E-009
 -2.240000000000000E-002    6.214006056459144E-010
 -2.230000000000000E-002    1.344818457197541E-010
 -2.220000000000000E-002   -3.397805731582712E-010
 -2.210000000000000E-002   -7.690817340131353E-010
 -2.200000000000000E-002   -1.124762208761497E-009
 -2.190000000000000E-002   -1.384418285704006E-009
 -2.180000000000000E-002   -1.534034835813691E-009
 -2.170000000000000E-002   -1.569412656486813E-009
 -2.160000000000000E-002   -1.496712809793818E-009
 -2.150000000000000E-002   -1.332026514610197E-009
 -2.140000000000000E-002   -1.099965067935856E-009
 -2.130000000000000E-002   -8.313694861431611E-010
 -2.120000000000000E-002   -5.603319628022259E-010
 -2.110000000000000E-002   -3.208027310743051E-010
 -2.100000000000000E-002   -1.431144031003352E-010
 -2.090000000000000E-002   -5.077993086909588E-011
 -2.080000000000000E-002   -5.791211350510933E-011
 -2.070000000000000E-002   -1.675627994270312E-010
 -2.060000000000000E-002   -3.711981301366330E-010
 -2.050000000000000E-002   -6.494172634532818E-010
 -2.040000000000000E-002   -9.738911867628100E-010
 -2.030000000000000E-002   -1.310367129898651E-009
 -2.020000000000000E-002   -1.622457192387114E-009
 -2.010000000000000E-002   -1.875829270877962E-009
 -2.000000000000000E-002   -2.042351827666903E-009
 -1.990000000000000E-002   -2.103721166452065E-009
 -1.980000000000000E-002   -2.054128622374335E-009
 -1.970000000000000E-002   -1.901605493742449E-009
 -1.960000000000000E-002   -1.667803549592219E-009
 -1.950000000000000E-002   -1.386130993420080E-009
 -1.940000000000000E-002   -1.098339279776287E-009
 -1.930000000000000E-002   -8.498396118392504E-010
 -1.920000000000000E-002   -6.841872993116058E-010
 -1.910000000000000E-002   -6.373032693005932E-010
 -1.900000000000000E-002   -7.320712844358598E-010
 -1.890000000000000E-002   -9.739666884328921E-010
 -1.880000000000000E-002   -1.348306569632860E-009
 -1.870000000000000E-002   -1.819589731261511E-009
 -1.860000000000000E-002   -2.333201460697113E-009
 -1.850000000000000E-002   -2.819525568376732E-009
 -1.840000000000000E-002   -3.200262110216872E-009
 -1.830000000000000E-002   -3.396473240652022E-009
 -1.820000000000000E-002   -3.337665950457939E-009
 -1.810000000000000E-002   -2.971058069632862E-009
 -1.800000000000000E-002   -2.270039786818101E-009
 -1.790000000000000E-002   -1.240869161238351E-009
 -1.780000000000000E-002    7.329952125638193E-011
 -1.770000000000000E-002    1.591725781442303E-009
 -1.760000000000000E-002    3.199241777157330E-009
 -1.750000000000000E-002    4.753309472279329E-009
 -1.740000000000000E-002    6.094762608221913E-009
 -1.730000000000000E-002    7.061624756903504E-009
 -1.720000000000000E-002    7.505065732269071E-009
 -1.710000000000000E-002    7.306361974016602E-009
 -1.700000000000000E-002    6.393478429881900E-009
 -1.690000000000000E-002    4.755863071826418E-009
 -1.680000000000000E-002    2.456356233553926E-009
 -1.670000000000000E-002   -3.611351101886230E-010
 -1.660000000000000E-002   -3.468646620750556E-009
 -1.650000000000000E-002   -6.556293573282889E-009
 -1.640000000000000E-002   -9.239371103033356E-009
 -1.630000000000000E-002   -1.106980237685072E-008
 -1.620000000000000E-002   -1.155092523582887E-008
 -1.610000000000000E-002   -1.015399962961166E-008
 -1.600000000000000E-002   -6.335228736136062E-009
 -1.590000000000000E-002    4.486850900430914E-010
 -1.580000000000000E-002    1.072804227858336E-008
 -1.570000000000000E-002    2.501164613380278E-008
 -1.560000000000000E-002    4.378376221880608E-008
 -1.550000000000000E-002    6.750648805827260E-008
 -1.540000000000000E-002    9.662761612797774E-008
 -1.530000000000000E-002    1.315928547452042E-007
 -1.520000000000000E-002    1.728619432295324E-007
 -1.510000000000000E-002    2.209257445081347E-007
 -1.500000000000000E-002    2.763237008954363E-007
 -1.490000000000000E-002    3.396580916385530E-007
 -1.480000000000000E-002    4.116049420741545E-007
 -1.470000000000000E-002    4.929182487862752E-007
 -1.460000000000000E-002    5.844277784616463E-007
 -1.450000000000000E-002    6.870295931924791E-007
 -1.440000000000000E-002    8.016690998924681E-007
 -1.430000000000000E-002    9.293190457915607E-007
 -1.420000000000000E-002    1.070953192193580E-006
 -1.410000000000000E-002    1.227518400688327E-006
 -1.400000000000000E-002    1.399907586968248E-006
 -1.390000000000000E-002    1.588936447595975E-006
 -1.380000000000000E-002    1.795327753793967E-006
 -1.370000000000000E-002    2.019702006636261E-006
 -1.360000000000000E-002    2.262580469357118E-006
 -1.350000000000000E-002    2.524396970933962E-006
 -1.340000000000000E-002    2.805521973563662E-006
 -1.330000000000000E-002    3.106291986287582E-006
 -1.320000000000000E-002    3.427050002233424E-006
 -1.310000000000000E-002    3.768186165841155E-006
 -1.300000000000000E-002    4.130178346618390E-006
 -1.290000000000000E-002    4.513632675038724E-006
 -1.280000000000000E-002    4.919311285667398E-006
 -1.270000000000000E-002    5.348155195816577E-006
 -1.260000000000000E-002    5.801291326558152E-006
 -1.250000000000000E-002    6.280026706996204E-006
 -1.240000000000000E-002    6.785833185098115E-006
 -1.230000000000000E-002    7.320316332543336E-006
 -1.220000000000000E-002    7.885177748017861E-006
 -1.210000000000000E-002    8.482171202470824E-006
 -1.200000000000000E-002    9.113061392276155E-006
 -1.190000000000000E-002    9.779582416393331E-006
 -1.180000000000000E-002    1.048340846891589E-005
 -1.170000000000000E-002    1.122613484830040E-005
 -1.160000000000000E-002    1.200927520555960E-005
 -1.150000000000000E-002    1.283427658129643E-005
 -1.140000000000000E-002    1.370255049246878E-005
 -1.130000000000000E-002    1.461551786273900E-005
 -1.120000000000000E-002    1.557466980215258E-005
 -1.110000000000000E-002    1.658163229278885E-005
 -1.100000000000000E-002    1.763824189581594E-005
 -1.090000000000000E-002    1.874660558378724E-005
 -1.080000000000000E-002    1.990916156375573E-005
 -1.070000000000000E-002    2.112872369684052E-005
 -1.060000000000000E-002    2.240851151661526E-005
 -1.050000000000000E-002    2.375215096623414E-005
 -1.040000000000000E-002    2.516366832788970E-005
 -1.030000000000000E-002    2.664745582993203E-005
 -1.020000000000000E-002    2.820822313401211E-005
 -1.010000000000000E-002    2.985093928481450E-005
 -1.000000000000000E-002    3.158076942357021E-005
 -9.899999999999999E-003    3.340301491588381E-005
 -9.800000000000000E-003    3.532305387373294E-005
 -9.699999999999999E-003    3.734630908803396E-005
 -9.599999999999999E-003    3.947821599230866E-005
 -9.500000000000000E-003    4.172423220265447E-005
 -9.399999999999999E-003    4.408985913643574E-005
 -9.299999999999999E-003    4.658068215777261E-005
 -9.200000000000000E-003    4.920243250851983E-005
 -9.099999999999999E-003    5.196106933946494E-005
 -8.999999999999999E-003    5.486285425564753E-005
 -8.900000000000000E-003    5.791443518173130E-005
 -8.799999999999999E-003    6.112293506783626E-005
 -8.699999999999999E-003    6.449599253847063E-005
 -8.600000000000000E-003    6.804181206965731E-005
 -8.499999999999999E-003    7.176918921297906E-005
 -8.399999999999999E-003    7.568749654793067E-005
 -8.300000000000000E-003    7.980666832155801E-005
 -8.199999999999999E-003    8.413714768060432E-005
 -8.100000000000000E-003    8.868982947257666E-005
 -8.000000000000000E-003    9.347599437530591E-005
 -7.899999999999999E-003    9.850726072407735E-005
 -7.800000000000000E-003    1.037955125570861E-004
 -7.699999999999999E-003    1.093528634539449E-004
 -7.599999999999999E-003    1.151916480000842E-004
 -7.499999999999999E-003    1.213244468259021E-004
 -7.399999999999999E-003    1.277640892115124E-004
 -7.299999999999999E-003    1.345237314942954E-004
 -7.199999999999999E-003    1.416169187417223E-004
 -7.100000000000000E-003    1.490577224270301E-004
 -6.999999999999999E-003    1.568607955084431E-004
 -6.899999999999999E-003    1.650414900234571E-004
 -6.800000000000000E-003    1.736159352015646E-004
 -6.699999999999999E-003    1.826011258585062E-004
 -6.599999999999999E-003    1.920149536082170E-004
 -6.499999999999999E-003    2.018762113298789E-004
 -6.399999999999999E-003    2.122046207737067E-004
 -6.299999999999999E-003    2.230207910229621E-004
 -6.199999999999999E-003    2.343461162251679E-004
 -6.100000000000000E-003    2.462028154560684E-004
 -5.999999999999999E-003    2.586137335719479E-004
 -5.899999999999999E-003    2.716023790608355E-004
 -5.800000000000000E-003    2.851928126035048E-004
 -5.699999999999999E-003    2.994096327175179E-004
 -5.599999999999999E-003    3.142779554545499E-004
 -5.499999999999999E-003    3.298234661281077E-004
 -5.399999999999999E-003    3.460724299311681E-004
 -5.299999999999999E-003    3.630518033997698E-004
 -5.199999999999999E-003    3.807893092969715E-004
 -5.099999999999999E-003    3.993135122715087E-004
 -4.999999999999999E-003    4.186539976215084E-004
 -4.899999999999999E-003    4.388414288575317E-004
 -4.799999999999999E-003    4.599076125934165E-004
 -4.699999999999999E-003    4.818855648779213E-004
 -4.599999999999999E-003    5.048095571162257E-004
 -4.499999999999999E-003    5.287150854386236E-004
 -4.399999999999999E-003    5.536388175390966E-004
 -4.299999999999999E-003    5.796185835559804E-004
 -4.199999999999999E-003    6.066931606891495E-004
 -4.099999999999999E-003    6.349023043869307E-004
 -3.999999999999999E-003    6.642866479255284E-004
 -3.899999999999999E-003    6.948875242655557E-004
 -3.799999999999999E-003    7.267469141314009E-004
 -3.699999999999999E-003    7.599075774153207E-004
 -3.599999999999999E-003    7.944128069288743E-004
 -3.499999999999999E-003    8.303065627436368E-004
 -3.399999999999999E-003    8.676336760276039E-004
 -3.299999999999999E-003    9.064397877693401E-004
 -3.199999999999999E-003    9.467716690836072E-004
 -3.099999999999999E-003    9.886769757565582E-004
 -2.999999999999999E-003    1.032204787273782E-003
 -2.899999999999999E-003    1.077405450427828E-003
 -2.799999999999999E-003    1.124330717805346E-003
 -2.699999999999999E-003    1.173033858436935E-003
 -2.599999999999999E-003    1.223569551532361E-003
 -2.499999999999999E-003    1.275993871341966E-003
 -2.399999999999999E-003    1.330363996023189E-003
 -2.299999999999999E-003    1.386738351787171E-003
 -2.199999999999999E-003    1.445176296964341E-003
 -2.099999999999999E-003    1.505737917874520E-003
 -1.999999999999999E-003    1.568483745262925E-003
 -1.899999999999999E-003    1.633474772653979E-003
 -1.799999999999999E-003    1.700772321469469E-003
 -1.699999999999999E-003    1.770437518737028E-003
 -1.599999999999999E-003    1.842531999590517E-003
 -1.499999999999999E-003    1.917116783856889E-003
 -1.399999999999999E-003    1.994253566825190E-003
 -1.299999999999999E-003    2.074003905512419E-003
 -1.199999999999999E-003    2.156429597375439E-003
 -1.099999999999999E-003    2.241592730294155E-003
 -9.999999999999989E-004    2.329555906999808E-003
 -8.999999999999990E-004    2.420382193209146E-003
 -7.999999999999990E-004    2.514135126907179E-003
 -6.999999999999989E-004    2.610878890876589E-003
 -5.999999999999990E-004    2.710677974532139E-003
 -4.999999999999989E-004    2.813597787139019E-003
 -3.999999999999989E-004    2.919703075745427E-003
 -2.999999999999989E-004    3.029059131451952E-003
 -1.999999999999989E-004    3.141730436837675E-003
 -9.999999999999892E-005    3.257781504021348E-003
  1.084202172485504E-018    3.377275221609907E-003
  1.000000000000011E-004    3.500273680628415E-003
  2.000000000000011E-004    3.626837324276355E-003
  3.000000000000011E-004    3.757024961279933E-003
  4.000000000000011E-004    3.890893584288836E-003
  5.000000000000011E-004    4.028497752869278E-003
  6.000000000000011E-004    4.169890631121293E-003
  7.000000000000011E-004    4.315122537167608E-003
  8.000000000000011E-004    4.464241441466060E-003
  9.000000000000012E-004    4.617293791267806E-003
  1.000000000000001E-003    4.774323275131285E-003
  1.100000000000001E-003    4.935371447967019E-003
  1.200000000000001E-003    5.100477864854304E-003
  1.300000000000001E-003    5.269678939710915E-003
  1.400000000000001E-003    5.443009344623801E-003
  1.500000000000001E-003    5.620499727732910E-003
  1.600000000000001E-003    5.802178469573096E-003
  1.700000000000001E-003    5.988070230837872E-003
  1.800000000000001E-003    6.178195131084894E-003
  1.900000000000001E-003    6.372569151859528E-003
  2.000000000000001E-003    6.571203611241928E-003
  2.100000000000001E-003    6.774104266447015E-003
  2.200000000000001E-003    6.981270877926790E-003
  2.300000000000001E-003    7.192697136279275E-003
  2.400000000000001E-003    7.408370460393843E-003
  2.500000000000001E-003    7.628271488128577E-003
  2.600000000000001E-003    7.852373211434276E-003
  2.700000000000001E-003    8.080641950941034E-003
  2.800000000000001E-003    8.313035944614803E-003
  2.900000000000001E-003    8.549506427232961E-003
  3.000000000000001E-003    8.789997347973618E-003
  3.100000000000001E-003    9.034444100231602E-003
  3.200000000000001E-003    9.282773587762487E-003
  3.300000000000001E-003    9.534905268790177E-003
  3.400000000000001E-003    9.790749335107343E-003
  3.500000000000001E-003    1.005020666741165E-002
  3.600000000000001E-003    1.031316923137534E-002
  3.700000000000001E-003    1.057951911502308E-002
  3.800000000000001E-003    1.084912700454168E-002
  3.900000000000001E-003    1.112185190929141E-002
  4.000000000000001E-003    1.139754201196953E-002
  4.100000000000001E-003    1.167603270522564E-002
  4.200000000000001E-003    1.195714577687524E-002
  4.300000000000001E-003    1.224069059615259E-002
  4.400000000000001E-003    1.252646079972734E-002
  4.500000000000001E-003    1.281423597659158E-002
  4.600000000000002E-003    1.310378207678278E-002
  4.700000000000001E-003    1.339484834038595E-002
  4.800000000000001E-003    1.368716976013017E-002
  4.900000000000002E-003    1.398046539567894E-002
  5.000000000000001E-003    1.427443817968586E-002
  5.100000000000001E-003    1.456877584115973E-002
  5.200000000000001E-003    1.486315048755693E-002
  5.300000000000002E-003    1.515721667355600E-002
  5.400000000000001E-003    1.545061123512358E-002
  5.500000000000001E-003    1.574295609633998E-002
  5.600000000000002E-003    1.603385545023486E-002
  5.700000000000001E-003    1.632289395716838E-002
  5.800000000000001E-003    1.660963685366088E-002
  5.900000000000002E-003    1.689363263547622E-002
  6.000000000000001E-003    1.717440751201762E-002
  6.100000000000001E-003    1.745146815955620E-002
  6.200000000000002E-003    1.772430031823280E-002
  6.300000000000002E-003    1.799236833987737E-002
  6.400000000000001E-003    1.825511129434543E-002
  6.500000000000001E-003    1.851195042844275E-002
  6.600000000000002E-003    1.876228201306814E-002
  6.700000000000001E-003    1.900548102171951E-002
  6.800000000000001E-003    1.924089671542031E-002
  6.900000000000002E-003    1.946785899335359E-002
  7.000000000000001E-003    1.968567379821550E-002
  7.100000000000001E-003    1.989362280051575E-002
  7.200000000000002E-003    2.009096729581514E-002
  7.300000000000002E-003    2.027694476146994E-002
  7.400000000000001E-003    2.045077030929279E-002
  7.500000000000001E-003    2.061163495543384E-002
  7.600000000000002E-003    2.075870887662353E-002
  7.700000000000001E-003    2.089113708032151E-002
  7.800000000000001E-003    2.100804141894129E-002
  7.900000000000001E-003    2.110851934876895E-002
  8.000000000000002E-003    2.119164711930546E-002
  8.100000000000001E-003    2.125647266361511E-002
  8.200000000000001E-003    2.130202220834578E-002
  8.300000000000002E-003    2.132729513115435E-002
  8.400000000000001E-003    2.133126764546100E-002
  8.500000000000002E-003    2.131289097914577E-002
  8.600000000000002E-003    2.127109330794428E-002
  8.700000000000001E-003    2.120477860981614E-002
  8.800000000000002E-003    2.111282682405311E-002
  8.900000000000002E-003    2.099409620772465E-002
  9.000000000000001E-003    2.084742345394142E-002
  9.100000000000002E-003    2.067162242303631E-002
  9.200000000000002E-003    2.046548840141900E-002
  9.300000000000001E-003    2.022779558126014E-002
  9.400000000000002E-003    1.995729718749261E-002
  9.500000000000001E-003    1.965272951415162E-002
  9.600000000000001E-003    1.931281048906432E-002
  9.700000000000002E-003    1.893623938794989E-002
  9.800000000000001E-003    1.852169663713063E-002
  9.900000000000001E-003    1.806784786828873E-002
  1.000000000000000E-002    1.757334106166580E-002
  1.010000000000000E-002    1.703680790998251E-002
  1.020000000000000E-002    1.645686291199722E-002
  1.030000000000000E-002    1.583210830960810E-002
  1.040000000000000E-002    1.516113079683514E-002
  1.050000000000000E-002    1.444250484178770E-002
  1.060000000000000E-002    1.367479180174928E-002
  1.070000000000000E-002    1.285654500774174E-002
  1.080000000000000E-002    1.198630663429525E-002
  1.090000000000000E-002    1.106261193320085E-002
  1.100000000000000E-002    1.008398961462258E-002
  1.110000000000000E-002    9.048966478401572E-003
  1.120000000000000E-002    7.956064076374850E-003
  1.130000000000000E-002    6.803804116762899E-003
  1.140000000000000E-002    5.590706866581242E-003
  1.150000000000000E-002    4.315299771343976E-003
  1.160000000000000E-002    2.976108328793034E-003
  1.170000000000000E-002    1.571665947479697E-003
  1.180000000000000E-002    1.005111201253517E-004
  1.190000000000000E-002   -1.438808734581634E-003
  1.200000000000000E-002   -3.047738236722033E-003
  1.210000000000000E-002   -4.727709511809743E-003
  1.220000000000000E-002   -6.480142857739126E-003
  1.230000000000000E-002   -8.306444270363512E-003
  1.240000000000000E-002   -1.020800841511668E-002
  1.250000000000000E-002   -1.218620933240454E-002
  1.260000000000000E-002   -1.424240010324953E-002
  1.270000000000000E-002   -1.637791366572059E-002
  1.280000000000000E-002   -1.859405914399107E-002
  1.290000000000000E-002   -2.089212180152319E-002
  1.300000000000000E-002   -2.327335830899576E-002
  1.310000000000000E-002   -2.573899006016582E-002
  1.320000000000000E-002   -2.829020787462697E-002
  1.330000000000000E-002   -3.092816848077644E-002
  1.340000000000000E-002   -3.365398493078745E-002
  1.350000000000000E-002   -3.646873867659483E-002
  1.360000000000000E-002   -3.937346105522982E-002
  1.370000000000000E-002   -4.236914074846149E-002
  1.380000000000000E-002   -4.545671689597992E-002
  1.390000000000000E-002   -4.863708601459830E-002
  1.400000000000000E-002   -5.191108991135569E-002
  1.410000000000000E-002   -5.527951735212439E-002
  1.420000000000000E-002   -5.874310392449660E-002
  1.430000000000000E-002   -6.230252222160265E-002
  1.440000000000000E-002   -6.595839162007279E-002
  1.450000000000000E-002   -6.971127269597817E-002
  1.460000000000000E-002   -7.356165651663700E-002
  1.470000000000000E-002   -7.750997247075336E-002
  1.480000000000000E-002   -8.155657783129004E-002
  1.490000000000000E-002   -8.570176058341052E-002
  1.500000000000000E-002   -8.994573792528393E-002
  1.510000000000000E-002   -9.428865003168473E-002
  1.520000000000000E-002   -9.873056033382466E-002
  1.530000000000000E-002   -0.103271445505865     
  1.540000000000000E-002   -0.107911223048731     
  1.550000000000000E-002   -0.112649699932404     
  1.560000000000000E-002   -0.117486601737358     
  1.570000000000000E-002   -0.122421569736072     
  1.580000000000000E-002   -0.127454162499954     
  1.590000000000000E-002   -0.132583844961529     
  1.600000000000000E-002   -0.137809984671930     
  1.610000000000000E-002   -0.143131856062010     
  1.620000000000000E-002   -0.148548633106746     
  1.630000000000000E-002   -0.154059402063724     
  1.640000000000000E-002   -0.159663149444372     
  1.650000000000000E-002   -0.165358764342854     
  1.660000000000000E-002   -0.171145034901394     
  1.670000000000000E-002   -0.177020640829007     
  1.680000000000000E-002   -0.182984158411603     
  1.690000000000000E-002   -0.189034074714095     
  1.700000000000000E-002   -0.195168764705454     
  1.710000000000000E-002   -0.201386475435737     
  1.720000000000000E-002   -0.207685385031248     
  1.730000000000000E-002   -0.214063532303435     
  1.740000000000000E-002   -0.220518881676633     
  1.750000000000000E-002   -0.227049237961157     
  1.760000000000000E-002   -0.233652346078009     
  1.770000000000000E-002   -0.240325810788586     
  1.780000000000000E-002   -0.247067123474246     
  1.790000000000000E-002   -0.253873680286827     
  1.800000000000000E-002   -0.260742785036767     
  1.810000000000000E-002   -0.267671598177447     
  1.820000000000000E-002   -0.274657186021410     
  1.830000000000000E-002   -0.281696521876193     
  1.840000000000000E-002   -0.288786443352631     
  1.850000000000000E-002   -0.295923693067037     
  1.860000000000000E-002   -0.303104914519411     
  1.870000000000000E-002   -0.310326668836974     