 -4.000000000000000E-002    0.000000000000000E+000
 -3.990000000000000E-002    0.000000000000000E+000
 -3.980000000000000E-002    0.000000000000000E+000
 -3.970000000000000E-002    0.000000000000000E+000
 -3.960000000000000E-002    0.000000000000000E+000
 -3.950000000000000E-002    0.000000000000000E+000
 -3.940000000000000E-002    0.000000000000000E+000
 -3.930000000000000E-002    0.000000000000000E+000
 -3.920000000000000E-002    0.000000000000000E+000
 -3.910000000000000E-002    0.000000000000000E+000
 -3.900000000000000E-002    0.000000000000000E+000
 -3.890000000000000E-002    0.000000000000000E+000
 -3.880000000000000E-002    0.000000000000000E+000
 -3.870000000000000E-002    0.000000000000000E+000
 -3.860000000000000E-002    0.000000000000000E+000
 -3.850000000000000E-002    0.000000000000000E+000
 -3.840000000000000E-002    0.000000000000000E+000
 -3.830000000000000E-002    0.000000000000000E+000
 -3.820000000000000E-002    0.000000000000000E+000
 -3.810000000000000E-002    0.000000000000000E+000
 -3.800000000000000E-002    0.000000000000000E+000
 -3.790000000000000E-002    0.000000000000000E+000
 -3.780000000000000E-002    0.000000000000000E+000
 -3.770000000000000E-002    0.000000000000000E+000
 -3.760000000000000E-002    0.000000000000000E+000
 -3.750000000000000E-002    0.000000000000000E+000
 -3.740000000000000E-002    0.000000000000000E+000
 -3.730000000000000E-002    0.000000000000000E+000
 -3.720000000000000E-002    0.000000000000000E+000
 -3.710000000000000E-002    0.000000000000000E+000
 -3.700000000000000E-002    0.000000000000000E+000
 -3.690000000000000E-002    0.000000000000000E+000
 -3.680000000000000E-002    0.000000000000000E+000
 -3.670000000000000E-002    0.000000000000000E+000
 -3.660000000000000E-002    0.000000000000000E+000
 -3.650000000000000E-002    0.000000000000000E+000
 -3.640000000000000E-002    0.000000000000000E+000
 -3.630000000000000E-002    0.000000000000000E+000
 -3.620000000000000E-002    0.000000000000000E+000
 -3.610000000000000E-002    0.000000000000000E+000
 -3.600000000000000E-002    0.000000000000000E+000
 -3.590000000000000E-002    0.000000000000000E+000
 -3.580000000000000E-002    0.000000000000000E+000
 -3.570000000000000E-002    0.000000000000000E+000
 -3.560000000000000E-002    0.000000000000000E+000
 -3.550000000000000E-002    0.000000000000000E+000
 -3.540000000000000E-002    0.000000000000000E+000
 -3.530000000000000E-002    0.000000000000000E+000
 -3.520000000000000E-002    0.000000000000000E+000
 -3.510000000000000E-002    0.000000000000000E+000
 -3.500000000000000E-002    0.000000000000000E+000
 -3.490000000000000E-002    0.000000000000000E+000
 -3.480000000000000E-002    0.000000000000000E+000
 -3.470000000000000E-002    0.000000000000000E+000
 -3.460000000000000E-002    0.000000000000000E+000
 -3.450000000000000E-002    0.000000000000000E+000
 -3.440000000000000E-002    0.000000000000000E+000
 -3.430000000000000E-002    0.000000000000000E+000
 -3.420000000000000E-002    0.000000000000000E+000
 -3.410000000000000E-002    0.000000000000000E+000
 -3.400000000000000E-002    0.000000000000000E+000
 -3.390000000000000E-002    0.000000000000000E+000
 -3.380000000000000E-002    0.000000000000000E+000
 -3.370000000000000E-002    0.000000000000000E+000
 -3.360000000000000E-002    0.000000000000000E+000
 -3.350000000000000E-002    0.000000000000000E+000
 -3.340000000000000E-002    0.000000000000000E+000
 -3.330000000000000E-002    0.000000000000000E+000
 -3.320000000000000E-002    0.000000000000000E+000
 -3.310000000000000E-002    0.000000000000000E+000
 -3.300000000000000E-002    0.000000000000000E+000
 -3.290000000000000E-002    0.000000000000000E+000
 -3.280000000000000E-002    0.000000000000000E+000
 -3.270000000000000E-002    0.000000000000000E+000
 -3.260000000000000E-002    0.000000000000000E+000
 -3.250000000000000E-002    0.000000000000000E+000
 -3.240000000000000E-002    0.000000000000000E+000
 -3.230000000000000E-002    0.000000000000000E+000
 -3.220000000000000E-002    0.000000000000000E+000
 -3.210000000000000E-002    0.000000000000000E+000
 -3.200000000000000E-002    0.000000000000000E+000
 -3.190000000000000E-002    0.000000000000000E+000
 -3.180000000000000E-002    0.000000000000000E+000
 -3.170000000000000E-002    0.000000000000000E+000
 -3.160000000000000E-002    0.000000000000000E+000
 -3.150000000000000E-002    0.000000000000000E+000
 -3.140000000000000E-002    0.000000000000000E+000
 -3.130000000000000E-002    0.000000000000000E+000
 -3.120000000000000E-002    0.000000000000000E+000
 -3.110000000000000E-002    0.000000000000000E+000
 -3.100000000000000E-002    0.000000000000000E+000
 -3.090000000000000E-002    0.000000000000000E+000
 -3.080000000000000E-002    0.000000000000000E+000
 -3.070000000000000E-002    0.000000000000000E+000
 -3.060000000000000E-002    0.000000000000000E+000
 -3.050000000000000E-002    0.000000000000000E+000
 -3.040000000000000E-002    0.000000000000000E+000
 -3.030000000000000E-002    0.000000000000000E+000
 -3.020000000000000E-002    0.000000000000000E+000
 -3.010000000000000E-002    0.000000000000000E+000
 -3.000000000000000E-002    0.000000000000000E+000
 -2.990000000000000E-002    0.000000000000000E+000
 -2.980000000000000E-002    0.000000000000000E+000
 -2.970000000000000E-002    0.000000000000000E+000
 -2.960000000000000E-002    0.000000000000000E+000
 -2.950000000000000E-002    0.000000000000000E+000
 -2.940000000000000E-002    0.000000000000000E+000
 -2.930000000000000E-002    0.000000000000000E+000
 -2.920000000000000E-002    0.000000000000000E+000
 -2.910000000000000E-002    0.000000000000000E+000
 -2.900000000000000E-002    0.000000000000000E+000
 -2.890000000000000E-002    0.000000000000000E+000
 -2.880000000000000E-002    0.000000000000000E+000
 -2.870000000000000E-002    0.000000000000000E+000
 -2.860000000000000E-002    0.000000000000000E+000
 -2.850000000000000E-002    0.000000000000000E+000
 -2.840000000000000E-002    0.000000000000000E+000
 -2.830000000000000E-002    0.000000000000000E+000
 -2.820000000000000E-002    0.000000000000000E+000
 -2.810000000000000E-002    0.000000000000000E+000
 -2.800000000000000E-002    0.000000000000000E+000
 -2.790000000000000E-002    0.000000000000000E+000
 -2.780000000000000E-002    0.000000000000000E+000
 -2.770000000000000E-002    0.000000000000000E+000
 -2.760000000000000E-002    0.000000000000000E+000
 -2.750000000000000E-002    0.000000000000000E+000
 -2.740000000000000E-002    0.000000000000000E+000
 -2.730000000000000E-002    0.000000000000000E+000
 -2.720000000000000E-002    0.000000000000000E+000
 -2.710000000000000E-002    0.000000000000000E+000
 -2.700000000000000E-002    0.000000000000000E+000
 -2.690000000000000E-002    0.000000000000000E+000
 -2.680000000000000E-002    0.000000000000000E+000
 -2.670000000000000E-002    0.000000000000000E+000
 -2.660000000000000E-002    0.000000000000000E+000
 -2.650000000000000E-002    0.000000000000000E+000
 -2.640000000000000E-002    0.000000000000000E+000
 -2.630000000000000E-002    0.000000000000000E+000
 -2.620000000000000E-002    0.000000000000000E+000
 -2.610000000000000E-002    0.000000000000000E+000
 -2.600000000000000E-002    0.000000000000000E+000
 -2.590000000000000E-002    0.000000000000000E+000
 -2.580000000000000E-002    0.000000000000000E+000
 -2.570000000000000E-002    0.000000000000000E+000
 -2.560000000000000E-002    0.000000000000000E+000
 -2.550000000000000E-002    0.000000000000000E+000
 -2.540000000000000E-002    0.000000000000000E+000
 -2.530000000000000E-002    0.000000000000000E+000
 -2.520000000000000E-002    0.000000000000000E+000
 -2.510000000000000E-002    0.000000000000000E+000
 -2.500000000000000E-002    0.000000000000000E+000
 -2.490000000000000E-002    0.000000000000000E+000
 -2.480000000000000E-002    0.000000000000000E+000
 -2.470000000000000E-002    0.000000000000000E+000
 -2.460000000000000E-002    0.000000000000000E+000
 -2.450000000000000E-002    0.000000000000000E+000
 -2.440000000000000E-002    0.000000000000000E+000
 -2.430000000000000E-002    0.000000000000000E+000
 -2.420000000000000E-002    0.000000000000000E+000
 -2.410000000000000E-002    0.000000000000000E+000
 -2.400000000000000E-002    0.000000000000000E+000
 -2.390000000000000E-002    0.000000000000000E+000
 -2.380000000000000E-002    0.000000000000000E+000
 -2.370000000000000E-002    0.000000000000000E+000
 -2.360000000000000E-002    0.000000000000000E+000
 -2.350000000000000E-002    0.000000000000000E+000
 -2.340000000000000E-002    0.000000000000000E+000
 -2.330000000000000E-002    0.000000000000000E+000
 -2.320000000000000E-002    0.000000000000000E+000
 -2.310000000000000E-002    0.000000000000000E+000
 -2.300000000000000E-002    0.000000000000000E+000
 -2.290000000000000E-002    0.000000000000000E+000
 -2.280000000000000E-002    0.000000000000000E+000
 -2.270000000000000E-002    0.000000000000000E+000
 -2.260000000000000E-002    0.000000000000000E+000
 -2.250000000000000E-002    0.000000000000000E+000
 -2.240000000000000E-002    0.000000000000000E+000
 -2.230000000000000E-002    0.000000000000000E+000
 -2.220000000000000E-002    0.000000000000000E+000
 -2.210000000000000E-002    0.000000000000000E+000
 -2.200000000000000E-002    0.000000000000000E+000
 -2.190000000000000E-002    0.000000000000000E+000
 -2.180000000000000E-002    0.000000000000000E+000
 -2.170000000000000E-002    0.000000000000000E+000
 -2.160000000000000E-002    0.000000000000000E+000
 -2.150000000000000E-002    0.000000000000000E+000
 -2.140000000000000E-002    0.000000000000000E+000
 -2.130000000000000E-002    0.000000000000000E+000
 -2.120000000000000E-002    0.000000000000000E+000
 -2.110000000000000E-002    0.000000000000000E+000
 -2.100000000000000E-002    0.000000000000000E+000
 -2.090000000000000E-002    0.000000000000000E+000
 -2.080000000000000E-002   -3.387119842271409E-048
 -2.070000000000000E-002   -3.387119842271409E-048
 -2.060000000000000E-002   -3.387119842271409E-048
 -2.050000000000000E-002   -3.387119842271409E-048
 -2.040000000000000E-002    0.000000000000000E+000
 -2.030000000000000E-002    6.774239684542818E-048
 -2.020000000000000E-002    3.060727437049987E-047
 -2.010000000000000E-002    4.754287358185691E-047
 -2.000000000000000E-002    7.441402449512624E-047
 -1.990000000000000E-002    8.761350024925274E-047
 -1.980000000000000E-002    7.697994131742219E-047
 -1.970000000000000E-002    7.342377954742574E-047
 -1.960000000000000E-002    2.593767186274573E-047
 -1.950000000000000E-002   -1.159719061811213E-046
 -1.940000000000000E-002   -3.838855981346877E-046
 -1.930000000000000E-002   -6.073747526927738E-046
 -1.920000000000000E-002   -8.895937276503410E-046
 -1.910000000000000E-002   -1.085978007691587E-045
 -1.900000000000000E-002   -1.021875380787798E-045
 -1.890000000000000E-002   -7.344652552463221E-046
 -1.880000000000000E-002   -1.007485020366548E-046
 -1.870000000000000E-002    1.107619536572233E-045
 -1.860000000000000E-002    2.696175665832541E-045
 -1.850000000000000E-002    4.601493670232982E-045
 -1.840000000000000E-002    7.182104205575514E-045
 -1.830000000000000E-002    1.017194933340616E-044
 -1.820000000000000E-002    1.279347703177989E-044
 -1.810000000000000E-002    1.289466843615089E-044
 -1.800000000000000E-002    1.060951237064329E-044
 -1.790000000000000E-002    4.720277293043271E-045
 -1.780000000000000E-002   -5.934651309476408E-045
 -1.770000000000000E-002   -2.179910265580175E-044
 -1.760000000000000E-002   -4.174020584086346E-044
 -1.750000000000000E-002   -6.395648506895580E-044
 -1.740000000000000E-002   -8.458432624697968E-044
 -1.730000000000000E-002   -9.807713359222687E-044
 -1.720000000000000E-002   -9.766445862910987E-044
 -1.710000000000000E-002   -7.688874342857634E-044
 -1.700000000000000E-002   -2.599084092130697E-044
 -1.690000000000000E-002    5.985266452208593E-044
 -1.680000000000000E-002    1.811271623442226E-043
 -1.670000000000000E-002    3.322614668693451E-043
 -1.660000000000000E-002    4.965832351509798E-043
 -1.650000000000000E-002    6.486462189722574E-043
 -1.640000000000000E-002    7.498301976565832E-043
 -1.630000000000000E-002    7.513772089153052E-043
 -1.620000000000000E-002    6.025663604502467E-043
 -1.610000000000000E-002    2.530902502645222E-043
 -1.600000000000000E-002   -3.324009620326956E-043
 -1.590000000000000E-002   -1.159693103533918E-042
 -1.580000000000000E-002   -2.193110088348076E-042
 -1.570000000000000E-002   -3.340156055145362E-042
 -1.560000000000000E-002   -4.440828320688709E-042
 -1.550000000000000E-002   -5.266074671053341E-042
 -1.540000000000000E-002   -5.526092162047773E-042
 -1.530000000000000E-002   -4.891954343938808E-042
 -1.520000000000000E-002   -3.033040894191625E-042
 -1.510000000000000E-002    3.257098317051642E-043
 -1.500000000000000E-002    5.333234221705788E-042
 -1.490000000000000E-002    1.192707130994142E-041
 -1.480000000000000E-002    1.974688108599900E-041
 -1.470000000000000E-002    2.804744738147990E-041
 -1.460000000000000E-002    3.563728444227059E-041
 -1.450000000000000E-002    4.084573643185473E-041
 -1.440000000000000E-002    4.156083923336368E-041
 -1.430000000000000E-002    3.533872448680231E-041
 -1.420000000000000E-002    1.963874157532392E-041
 -1.410000000000000E-002   -7.808853447375571E-042
 -1.400000000000000E-002   -4.846711194638617E-041
 -1.390000000000000E-002   -1.022897205860715E-040
 -1.380000000000000E-002   -1.668789768346813E-040
 -1.370000000000000E-002   -2.365614895915525E-040
 -1.360000000000000E-002   -3.015219003575777E-040
 -1.350000000000000E-002   -3.472117718778122E-040
 -1.340000000000000E-002   -3.543127358052073E-040
 -1.330000000000000E-002   -2.996482369030693E-040
 -1.320000000000000E-002   -1.584480524016740E-040
 -1.310000000000000E-002    9.166529645361902E-041
 -1.300000000000000E-002    4.647243498821129E-040
 -1.290000000000000E-002    9.585829912222592E-040
 -1.280000000000000E-002    1.545736389055498E-039
 -1.270000000000000E-002    2.164007841205126E-039
 -1.260000000000000E-002    2.709062618718009E-039
 -1.250000000000000E-002    3.031497366799333E-039
 -1.240000000000000E-002    2.941863339582987E-039
 -1.230000000000000E-002    2.227179123300248E-039
 -1.220000000000000E-002    6.819531499602590E-040
 -1.210000000000000E-002   -1.844736875665092E-039
 -1.200000000000000E-002   -5.387300714492140E-039
 -1.190000000000000E-002   -9.791954823148154E-039
 -1.180000000000000E-002   -1.464543246459032E-038
 -1.170000000000000E-002   -1.921963023306765E-038
 -1.160000000000000E-002   -2.245269718770828E-038
 -1.150000000000000E-002   -2.299003387308852E-038
 -1.140000000000000E-002   -1.930813174271904E-038
 -1.130000000000000E-002   -9.938318540335649E-039
 -1.120000000000000E-002    6.205099477590807E-039
 -1.110000000000000E-002    2.940770772204223E-038
 -1.100000000000000E-002    5.869086534850455E-038
 -1.090000000000000E-002    9.137340535336163E-038
 -1.080000000000000E-002    1.227624714926899E-037
 -1.070000000000000E-002    1.461002603900636E-037
 -1.060000000000000E-002    1.529016793193752E-037
 -1.050000000000000E-002    1.338018864526903E-037
 -1.040000000000000E-002    7.998433381256312E-038
 -1.030000000000000E-002   -1.482518288138402E-038
 -1.020000000000000E-002   -1.519345646863630E-037
 -1.010000000000000E-002   -3.251167423627771E-037
 -1.000000000000000E-002   -5.183395902883754E-037
 -9.899999999999999E-003   -7.043778029637322E-037
 -9.800000000000000E-003   -8.449734455206505E-037
 -9.699999999999999E-003   -8.932002908644026E-037
 -9.599999999999999E-003   -7.985389222547037E-037
 -9.500000000000000E-003   -5.148590945212305E-037
 -9.399999999999999E-003   -1.102360279557216E-038
 -9.299999999999999E-003    7.167978059427745E-037
 -9.200000000000000E-003    1.632728535794534E-036
 -9.099999999999999E-003    2.651010712173122E-036
 -8.999999999999999E-003    3.630890631474071E-036
 -8.900000000000000E-003    4.379595455060537E-036
 -8.799999999999999E-003    4.666121013940087E-036
 -8.699999999999999E-003    4.247612637841123E-036
 -8.600000000000000E-003    2.908475291810276E-036
 -8.499999999999999E-003    5.100471511942256E-037
 -8.399999999999999E-003   -2.954112349528203E-036
 -8.300000000000000E-003   -7.305176972002072E-036
 -8.199999999999999E-003   -1.213866991803595E-035
 -8.100000000000000E-003   -1.680874485115380E-035
 -8.000000000000000E-003   -2.044914173787165E-035
 -7.899999999999999E-003   -2.204063003119454E-035
 -7.800000000000000E-003   -2.053004591649168E-035
 -7.699999999999999E-003   -1.499870919009985E-035
 -7.599999999999999E-003   -4.868569460115146E-036
 -7.499999999999999E-003    9.876229968105880E-036
 -7.399999999999999E-003    2.848505977140938E-035
 -7.299999999999999E-003    4.929460471151598E-035
 -7.199999999999999E-003    6.968539406396477E-035
 -7.100000000000000E-003    8.618306102052594E-035
 -6.999999999999999E-003    9.473562925005049E-035
 -6.899999999999999E-003    9.117879354217074E-035
 -6.800000000000000E-003    7.187364432953961E-035
 -6.699999999999999E-003    3.446784474769324E-035
 -6.599999999999999E-003   -2.130426717060972E-035
 -6.499999999999999E-003   -9.289946967102548E-035
 -6.399999999999999E-003   -1.744610786802416E-034
 -6.299999999999999E-003   -2.566786420690984E-034
 -6.199999999999999E-003   -3.271439596498311E-034
 -6.100000000000000E-003   -3.712955364149992E-034
 -5.999999999999999E-003   -3.739784484025768E-034
 -5.899999999999999E-003   -3.215588514518924E-034
 -5.800000000000000E-003   -2.044307708182401E-034
 -5.699999999999999E-003   -1.964881704489833E-035
 -5.599999999999999E-003    2.266696792091675E-034
 -5.499999999999999E-003    5.175903451657181E-034
 -5.399999999999999E-003    8.246861034683350E-034
 -5.299999999999999E-003    1.108825608882037E-033
 -5.199999999999999E-003    1.322699766424030E-033
 -5.099999999999999E-003    1.415183327576647E-033
 -4.999999999999999E-003    1.337397827219222E-033
 -4.899999999999999E-003    1.050077884933074E-033
 -4.799999999999999E-003    5.315709365472593E-034
 -4.699999999999999E-003   -2.144371923071908E-034
 -4.599999999999999E-003   -1.152555052844695E-033
 -4.499999999999999E-003   -2.211836283410193E-033
 -4.399999999999999E-003   -3.285551426751997E-033
 -4.299999999999999E-003   -4.235491922905198E-033
 -4.199999999999999E-003   -4.901368574512999E-033
 -4.099999999999999E-003   -5.115391837402559E-033
 -3.999999999999999E-003   -4.721534560270380E-033
 -3.899999999999999E-003   -3.598317964904243E-033
 -3.799999999999999E-003   -1.683298100539678E-033
 -3.699999999999999E-003    1.003204976673028E-033
 -3.599999999999999E-003    4.338106962000994E-033
 -3.499999999999999E-003    8.082597259915980E-033
 -3.399999999999999E-003    1.187960756061316E-032
 -3.299999999999999E-003    1.526484203585976E-032
 -3.199999999999999E-003    1.769384928089712E-032
 -3.099999999999999E-003    1.858648142805867E-032
 -2.999999999999999E-003    1.738845223037653E-032
 -2.899999999999999E-003    1.364759367629346E-032
 -2.799999999999999E-003    7.099842294393669E-033
 -2.699999999999999E-003   -2.242780434702318E-033
 -2.599999999999999E-003   -1.401270080649194E-032
 -2.499999999999999E-003   -2.742868191793503E-032
 -2.399999999999999E-003   -4.127326149572524E-032
 -2.299999999999999E-003   -5.391990243318379E-032
 -2.199999999999999E-003   -6.342176513619318E-032
 -2.099999999999999E-003   -6.766945203231987E-032
 -1.999999999999999E-003   -6.461774818509488E-032
 -1.899999999999999E-003   -5.257154686443183E-032
 -1.799999999999999E-003   -3.050962232270207E-032
 -1.699999999999999E-003    1.587292906548984E-033
 -1.599999999999999E-003    4.244866250562934E-032
 -1.499999999999999E-003    8.931873075564250E-032
 -1.399999999999999E-003    1.379077642912524E-031
 -1.299999999999999E-003    1.825385822213178E-031
 -1.199999999999999E-003    2.165220538144970E-031
 -1.099999999999999E-003    2.327711225525066E-031
 -9.999999999999989E-004    2.246301795317119E-031
 -8.999999999999990E-004    1.868587854780471E-031
 -7.999999999999990E-004    1.166700017295868E-031
 -6.999999999999989E-004    1.469059264753508E-032
 -5.999999999999990E-004   -1.143108388475932E-031
 -4.999999999999989E-004   -2.610838132456875E-031
 -3.999999999999989E-004   -4.120785352236647E-031
 -2.999999999999989E-004   -5.502384580176177E-031
 -1.999999999999989E-004   -6.564184246532616E-031
 -9.999999999999892E-005   -7.113552870371614E-031
  1.084202172485504E-018   -6.980213064396293E-031
  1.000000000000011E-004   -6.041034907166183E-031
  2.000000000000011E-004   -4.242873510692829E-031
  3.000000000000011E-004   -1.620008565487503E-031
  4.000000000000011E-004    1.696977559235364E-031
  5.000000000000011E-004    5.483184901870884E-031
  6.000000000000011E-004    9.433167840094006E-031
  7.000000000000011E-004    1.318566746808428E-030
  8.000000000000011E-004    1.635662043762429E-030
  9.000000000000012E-004    1.857610969233721E-030
  1.000000000000001E-003    1.952389185121424E-030
  1.100000000000001E-003    1.895798000151251E-030
  1.200000000000001E-003    1.673176463271177E-030
  1.300000000000001E-003    1.279728360093228E-030
  1.400000000000001E-003    7.195343432837325E-031
  1.500000000000001E-003    3.673405853862969E-033
  1.600000000000001E-003   -8.517894535275031E-031
  1.700000000000001E-003   -1.826963660185214E-030
  1.800000000000001E-003   -2.897423447767825E-030
  1.900000000000001E-003   -4.030826178574344E-030
  2.000000000000001E-003   -5.180574363575110E-030
  2.100000000000001E-003   -6.277006438405482E-030
  2.200000000000001E-003   -7.217573906479885E-030
  2.300000000000001E-003   -7.858453908372922E-030
  2.400000000000001E-003   -8.010872486220417E-030
  2.500000000000001E-003   -7.445834985696695E-030
  2.600000000000001E-003   -5.910748802956219E-030
  2.700000000000001E-003   -3.160401704225088E-030
  2.800000000000001E-003    9.971434327507735E-031
  2.900000000000001E-003    6.641887393958755E-030
  3.000000000000001E-003    1.367590014125680E-029
  3.100000000000001E-003    2.175886724155489E-029
  3.200000000000001E-003    3.025705674022738E-029
  3.300000000000001E-003    3.821955100725647E-029
  3.400000000000001E-003    4.439579526135028E-029
  3.500000000000001E-003    4.730646066292891E-029
  3.600000000000001E-003    4.537496808323939E-029
  3.700000000000001E-003    3.711981710343834E-029
  3.800000000000001E-003    2.139847599021399E-029
  3.900000000000001E-003   -2.316950573502714E-030
  4.000000000000001E-003   -3.366266103523925E-029
  4.100000000000001E-003   -7.114397207155136E-029
  4.200000000000001E-003   -1.119788572096809E-028
  4.300000000000001E-003   -1.520697479768186E-028
  4.400000000000001E-003   -1.861434715435637E-028
  4.500000000000001E-003   -2.080869324350832E-028
  4.600000000000002E-003   -2.114872006992797E-028
  4.700000000000001E-003   -1.903598770238966E-028
  4.800000000000001E-003   -1.400219028116727E-028
  4.900000000000002E-003   -5.803590918048480E-029
  5.000000000000001E-003    5.487258724471525E-029
  5.100000000000001E-003    1.940435279707460E-028
  5.200000000000001E-003    3.503843270257618E-028
  5.300000000000002E-003    5.102707689372766E-028
  5.400000000000001E-003    6.559542442597379E-028
  5.500000000000001E-003    7.665496316131137E-028
  5.600000000000002E-003    8.196304521452561E-028
  5.700000000000001E-003    7.933977721112485E-028
  5.800000000000001E-003    6.693203592628941E-028
  5.900000000000002E-003    4.350701793515440E-028
  6.000000000000001E-003    8.750711959117208E-029
  6.100000000000001E-003   -3.645958862101397E-028
  6.200000000000002E-003   -8.984418007946218E-028
  6.300000000000002E-003   -1.476089771152614E-027
  6.400000000000001E-003   -2.044695134022676E-027
  6.500000000000001E-003   -2.538430392130570E-027
  6.600000000000002E-003   -2.882317711111705E-027
  6.700000000000001E-003   -2.998064944893912E-027
  6.800000000000001E-003   -2.811811021056364E-027
  6.900000000000002E-003   -2.263456559123100E-027
  7.000000000000001E-003   -1.316993662278908E-027
  7.100000000000001E-003    2.902659940422227E-029
  7.200000000000002E-003    1.732013411444242E-027
  7.300000000000002E-003    3.698181737770707E-027
  7.400000000000001E-003    5.779182800845195E-027
  7.500000000000001E-003    7.773976405503803E-027
  7.600000000000002E-003    9.437203255422102E-027
  7.700000000000001E-003    1.049492708941541E-026
  7.800000000000001E-003    1.066798306026432E-026
  7.900000000000001E-003    9.702335435146652E-027
  8.000000000000002E-003    7.404825716578499E-027
  8.100000000000001E-003    3.681583418020216E-027
  8.200000000000001E-003   -1.424721282770458E-027
  8.300000000000002E-003   -7.703515327399699E-027
  8.400000000000001E-003   -1.475619032729760E-026
  8.500000000000002E-003   -2.199260040185080E-026
  8.600000000000002E-003   -2.864900749396465E-026
  8.700000000000001E-003   -3.383097782140899E-026
  8.800000000000002E-003   -3.658258422864286E-026
  8.900000000000002E-003   -3.598044031017874E-026
  9.000000000000001E-003   -3.124770108797316E-026
  9.100000000000002E-003   -2.187955197871345E-026
  9.200000000000002E-003   -7.768228005620530E-027
  9.300000000000001E-003    1.068723551953152E-026
  9.400000000000002E-003    3.250304972685876E-026
  9.500000000000001E-003    5.608114641842337E-026
  9.600000000000001E-003    7.924288756829505E-026
  9.700000000000002E-003    9.933679986315791E-026
  9.800000000000001E-003    1.134248886683173E-025
  9.900000000000001E-003    1.185441184673505E-025
  1.000000000000000E-002    1.120300761554202E-025
  1.010000000000000E-002    9.188015150139542E-026
  1.020000000000000E-002    5.712404916053087E-026
  1.030000000000000E-002    8.161929298867655E-027
  1.040000000000000E-002   -5.297420163016882E-026
  1.050000000000000E-002   -1.224809299723864E-025
  1.060000000000000E-002   -1.948066122600175E-025
  1.070000000000000E-002   -2.628686817045378E-025
  1.080000000000000E-002   -3.184817673769709E-025
  1.090000000000000E-002   -3.529941416538676E-025
  1.100000000000000E-002   -3.581070991575986E-025
  1.110000000000000E-002   -3.268277411677036E-025
  1.120000000000000E-002   -2.544817961547502E-025
  1.130000000000000E-002   -1.396926409803330E-025
  1.140000000000000E-002    1.478229033371086E-026
  1.150000000000000E-002    2.014727850603017E-025
  1.160000000000000E-002    4.079862013009621E-025
  1.170000000000000E-002    6.172620059661690E-025
  1.180000000000000E-002    8.083579877519753E-025
  1.190000000000000E-002    9.577937732090898E-025
  1.200000000000000E-002    1.041428017537623E-024
  1.210000000000000E-002    1.036785732390954E-024
  1.220000000000000E-002    9.256914568845343E-025
  1.230000000000000E-002    6.970043095963674E-025
  1.240000000000000E-002    3.491998874714696E-025
  1.250000000000000E-002   -1.074924433623345E-025
  1.260000000000000E-002   -6.497026305174579E-025
  1.270000000000000E-002   -1.240575725080255E-024
  1.280000000000000E-002   -1.830718758366049E-024
  1.290000000000000E-002   -2.360606729468883E-024
  1.300000000000000E-002   -2.764504328226827E-024
  1.310000000000000E-002   -2.975817274977648E-024
  1.320000000000000E-002   -2.933624463997914E-024
  1.330000000000000E-002   -2.589971939771734E-024
  1.340000000000000E-002   -1.917343521016168E-024
  1.350000000000000E-002   -9.155863012375761E-025
  1.360000000000000E-002    3.825245354564557E-025
  1.370000000000000E-002    1.907923211705488E-024
  1.380000000000000E-002    3.554881100303120E-024
  1.390000000000000E-002    5.184265335725631E-024
  1.400000000000000E-002    6.630822673996718E-024
  1.410000000000000E-002    7.714548467793631E-024
  1.420000000000000E-002    8.255793448222381E-024
  1.430000000000000E-002    8.093303828060478E-024
  1.440000000000000E-002    7.103937820850891E-024
  1.450000000000000E-002    5.222377454153540E-024
  1.460000000000000E-002    2.458841324170999E-024
  1.470000000000000E-002   -1.087380260251573E-024
  1.480000000000000E-002   -5.220720035447257E-024
  1.490000000000000E-002   -9.650375211510341E-024
  1.500000000000000E-002   -1.400102868929653E-023
  1.510000000000000E-002   -1.783395340137452E-023
  1.520000000000000E-002   -2.067830402734950E-023
  1.530000000000000E-002   -2.207131521505780E-023
  1.540000000000000E-002   -2.160504332480167E-023
  1.550000000000000E-002   -1.897617652176481E-023
  1.560000000000000E-002   -1.403457552912275E-023
  1.570000000000000E-002   -6.825552637417227E-024
  1.580000000000000E-002    2.379327761368142E-024
  1.590000000000000E-002    1.306790290508354E-023
  1.600000000000000E-002    2.449373715263703E-023
  1.610000000000000E-002    3.570604348129708E-023
  1.620000000000000E-002    4.560432908744421E-023
  1.630000000000000E-002    5.301672470415153E-023
  1.640000000000000E-002    5.679852558536536E-023
  1.650000000000000E-002    5.594497745636025E-023
  1.660000000000000E-002    4.971006025735917E-023
  1.670000000000000E-002    3.772108791591044E-023
  1.680000000000000E-002    2.007770886495560E-023
  1.690000000000000E-002   -2.576500495016791E-024
  1.700000000000000E-002   -2.902102865740137E-023
  1.710000000000000E-002   -5.747339670275331E-023
  1.720000000000000E-002   -8.565862153987071E-023
  1.730000000000000E-002   -1.109356849583987E-022
  1.740000000000000E-002   -1.304787530930771E-022
  1.750000000000000E-002   -1.415055257580587E-022
  1.760000000000000E-002   -1.415394504387436E-022
  1.770000000000000E-002   -1.286875005133480E-022
  1.780000000000000E-002   -1.019106688669920E-022
  1.790000000000000E-002   -6.126134765000563E-023
  1.800000000000000E-002   -8.060619592061467E-024
  1.810000000000000E-002    5.501048136936379E-023
  1.820000000000000E-002    1.239280604735647E-022
  1.830000000000000E-002    1.934668901172900E-022
  1.840000000000000E-002    2.574738485500806E-022
  1.850000000000000E-002    3.092698110877638E-022
  1.860000000000000E-002    3.421646263077287E-022
  1.870000000000000E-002    3.500567328932174E-022