 -4.000000000000000E-002    0.000000000000000E+000
 -3.990000000000000E-002    0.000000000000000E+000
 -3.980000000000000E-002    0.000000000000000E+000
 -3.970000000000000E-002    0.000000000000000E+000
 -3.960000000000000E-002    0.000000000000000E+000
 -3.950000000000000E-002    0.000000000000000E+000
 -3.940000000000000E-002    0.000000000000000E+000
 -3.930000000000000E-002    0.000000000000000E+000
 -3.920000000000000E-002    0.000000000000000E+000
 -3.910000000000000E-002    0.000000000000000E+000
 -3.900000000000000E-002    0.000000000000000E+000
 -3.890000000000000E-002    0.000000000000000E+000
 -3.880000000000000E-002    0.000000000000000E+000
 -3.870000000000000E-002    0.000000000000000E+000
 -3.860000000000000E-002    0.000000000000000E+000
 -3.850000000000000E-002    0.000000000000000E+000
 -3.840000000000000E-002    0.000000000000000E+000
 -3.830000000000000E-002    0.000000000000000E+000
 -3.820000000000000E-002    0.000000000000000E+000
 -3.810000000000000E-002    0.000000000000000E+000
 -3.800000000000000E-002    0.000000000000000E+000
 -3.790000000000000E-002    0.000000000000000E+000
 -3.780000000000000E-002    0.000000000000000E+000
 -3.770000000000000E-002    0.000000000000000E+000
 -3.760000000000000E-002    0.000000000000000E+000
 -3.750000000000000E-002    0.000000000000000E+000
 -3.740000000000000E-002    0.000000000000000E+000
 -3.730000000000000E-002    0.000000000000000E+000
 -3.720000000000000E-002    0.000000000000000E+000
 -3.710000000000000E-002    0.000000000000000E+000
 -3.700000000000000E-002    0.000000000000000E+000
 -3.690000000000000E-002    0.000000000000000E+000
 -3.680000000000000E-002    0.000000000000000E+000
 -3.670000000000000E-002    0.000000000000000E+000
 -3.660000000000000E-002    0.000000000000000E+000
 -3.650000000000000E-002    0.000000000000000E+000
 -3.640000000000000E-002    0.000000000000000E+000
 -3.630000000000000E-002   -3.562166159894585E-048
 -3.620000000000000E-002   -1.006939873156662E-046
 -3.610000000000000E-002   -2.805109723541308E-046
 -3.600000000000000E-002   -6.397779023129712E-046
 -3.590000000000000E-002   -1.391709470040350E-045
 -3.580000000000000E-002   -2.890131878140590E-045
 -3.570000000000000E-002   -5.695686509340332E-045
 -3.560000000000000E-002   -1.052957672695644E-044
 -3.550000000000000E-002   -1.889466964455921E-044
 -3.540000000000000E-002   -3.184678231521868E-044
 -3.530000000000000E-002   -4.876458795897719E-044
 -3.520000000000000E-002   -6.805960388282565E-044
 -3.510000000000000E-002   -7.986524458408815E-044
 -3.500000000000000E-002   -5.970515403043455E-044
 -3.490000000000000E-002    3.990538150511188E-044
 -3.480000000000000E-002    3.084779607447427E-043
 -3.470000000000000E-002    8.920929357031963E-043
 -3.460000000000000E-002    2.010426797045758E-042
 -3.450000000000000E-002    3.959090517084282E-042
 -3.440000000000000E-002    7.083241811641387E-042
 -3.430000000000000E-002    1.169244017864974E-041
 -3.420000000000000E-002    1.788947773616031E-041
 -3.410000000000000E-002    2.528388836870968E-041
 -3.400000000000000E-002    3.258554930238424E-041
 -3.390000000000000E-002    3.712630192616259E-041
 -3.380000000000000E-002    3.444430796387682E-041
 -3.370000000000000E-002    1.819315028986665E-041
 -3.360000000000000E-002   -1.923398407200530E-041
 -3.350000000000000E-002   -8.487963131769245E-041
 -3.340000000000000E-002   -1.818283840304220E-040
 -3.330000000000000E-002   -3.042852436584533E-040
 -3.320000000000000E-002   -4.322256922237024E-040
 -3.310000000000000E-002   -5.285043162772036E-040
 -3.300000000000000E-002   -5.440664708785189E-040
 -3.290000000000000E-002   -4.402982239547541E-040
 -3.280000000000000E-002   -2.408869484742905E-040
 -3.270000000000000E-002   -1.270672166753906E-040
 -3.260000000000000E-002   -5.870178032407176E-040
 -3.250000000000000E-002   -2.618230898392535E-039
 -3.240000000000000E-002   -7.955633402022986E-039
 -3.230000000000000E-002   -1.925293796616678E-038
 -3.220000000000000E-002   -4.007643848220968E-038
 -3.210000000000000E-002   -7.448060571941194E-038
 -3.200000000000000E-002   -1.258333710889421E-037
 -3.190000000000000E-002   -1.944704186957520E-037
 -3.180000000000000E-002   -2.737264908797877E-037
 -3.170000000000000E-002   -3.439814460762314E-037
 -3.160000000000000E-002   -3.646622952566503E-037
 -3.150000000000000E-002   -2.647594437339848E-037
 -3.140000000000000E-002    6.654884937856186E-038
 -3.130000000000000E-002    7.860436856829802E-037
 -3.120000000000000E-002    2.094265022527754E-036
 -3.110000000000000E-002    4.217499836692605E-036
 -3.100000000000000E-002    7.364187449809856E-036
 -3.090000000000000E-002    1.164430191239609E-035
 -3.080000000000000E-002    1.694025768100732E-035
 -3.070000000000000E-002    2.272083389857081E-035
 -3.060000000000000E-002    2.779723839159192E-035
 -3.050000000000000E-002    3.003458890043722E-035
 -3.040000000000000E-002    2.605441946635810E-035
 -3.030000000000000E-002    1.099582746086658E-035
 -3.020000000000000E-002   -2.155573978558346E-035
 -3.010000000000000E-002   -7.931443033796547E-035
 -3.000000000000000E-002   -1.705063761364605E-034
 -2.990000000000000E-002   -3.022982349953109E-034
 -2.980000000000000E-002   -4.781725823959349E-034
 -2.970000000000000E-002   -6.940117303428735E-034
 -2.960000000000000E-002   -9.327572005694948E-034
 -2.950000000000000E-002   -1.157730097114012E-033
 -2.940000000000000E-002   -1.305073141752602E-033
 -2.930000000000000E-002   -1.276327263251143E-033
 -2.920000000000000E-002   -9.329153391969212E-034
 -2.910000000000000E-002   -9.524303664103084E-035
 -2.900000000000000E-002    1.449821258264082E-033
 -2.890000000000000E-002    3.928330447460407E-033
 -2.880000000000000E-002    7.540056702791689E-033
 -2.870000000000000E-002    1.239529116415547E-032
 -2.860000000000000E-002    1.842347787806742E-032
 -2.850000000000000E-002    2.525264279289841E-032
 -2.840000000000000E-002    3.206420492411785E-032
 -2.830000000000000E-002    3.743642618711828E-032
 -2.820000000000000E-002    3.920167795197496E-032
 -2.810000000000000E-002    3.435758369936834E-032
 -2.800000000000000E-002    1.908844170972841E-032
 -2.790000000000000E-002   -1.103114238482346E-032
 -2.780000000000000E-002   -6.056798302884657E-032
 -2.770000000000000E-002   -1.334151446822510E-031
 -2.760000000000000E-002   -2.315648210058902E-031
 -2.750000000000000E-002   -3.534472645816851E-031
 -2.740000000000000E-002   -4.918870840650688E-031
 -2.730000000000000E-002   -6.318384000823943E-031
 -2.720000000000000E-002   -7.482052508825062E-031
 -2.710000000000000E-002   -8.042237169865485E-031
 -2.700000000000000E-002   -7.510587125746288E-031
 -2.690000000000000E-002   -5.294205462336193E-031
 -2.680000000000000E-002   -7.408525898605345E-032
 -2.670000000000000E-002    6.778405296967944E-031
 -2.660000000000000E-002    1.774300480466839E-030
 -2.650000000000000E-002    3.231180967649303E-030
 -2.640000000000000E-002    5.011322221622741E-030
 -2.630000000000000E-002    7.001292776171824E-030
 -2.620000000000000E-002    8.988817212368979E-030
 -2.610000000000000E-002    1.064512149998280E-029
 -2.600000000000000E-002    1.151772545176807E-029
 -2.590000000000000E-002    1.104012253659297E-029
 -2.580000000000000E-002    8.565019141080524E-030
 -2.570000000000000E-002    3.426971576539868E-030
 -2.560000000000000E-002   -4.961909118568198E-030
 -2.550000000000000E-002   -1.698326938597375E-029
 -2.540000000000000E-002   -3.265623480881197E-029
 -2.530000000000000E-002   -5.146557408584680E-029
 -2.520000000000000E-002   -7.219375544815644E-029
 -2.510000000000000E-002   -9.278350291523890E-029
 -2.500000000000000E-002   -1.102633371442189E-028
 -2.490000000000000E-002   -1.207716118742239E-028
 -2.480000000000000E-002   -1.197132468652837E-028
 -2.470000000000000E-002   -1.020769528225059E-028
 -2.460000000000000E-002   -6.292821951064407E-029
 -2.450000000000000E-002    1.925231624241883E-030
 -2.440000000000000E-002    9.512168382142492E-029
 -2.430000000000000E-002    2.168392212155697E-028
 -2.420000000000000E-002    3.638722214598365E-028
 -2.410000000000000E-002    5.287891361608350E-028
 -2.400000000000000E-002    6.992841351744544E-028
 -2.390000000000000E-002    8.578400722011646E-028
 -2.380000000000000E-002    9.818130807630616E-028
 -2.370000000000000E-002    1.044035022733025E-027
 -2.360000000000000E-002    1.014004501231978E-027
 -2.350000000000000E-002    8.597162017202302E-028
 -2.340000000000000E-002    5.501534343764967E-028
 -2.330000000000000E-002    5.845775878495540E-029
 -2.320000000000000E-002   -6.342205645535274E-028
 -2.310000000000000E-002   -1.534195011630556E-027
 -2.300000000000000E-002   -2.630059145638948E-027
 -2.290000000000000E-002   -3.886929170427749E-027
 -2.280000000000000E-002   -5.240303409333486E-027
 -2.270000000000000E-002   -6.589939660624208E-027
 -2.260000000000000E-002   -7.794458007485684E-027
 -2.250000000000000E-002   -8.667786283115189E-027
 -2.240000000000000E-002   -8.979058432722943E-027
 -2.230000000000000E-002   -8.458048809133402E-027
 -2.220000000000000E-002   -6.808605313111616E-027
 -2.210000000000000E-002   -3.732608865352170E-027
 -2.200000000000000E-002    1.033388735286488E-027
 -2.190000000000000E-002    7.667743753468240E-027
 -2.180000000000000E-002    1.620028399643550E-026
 -2.170000000000000E-002    2.643929674431095E-026
 -2.160000000000000E-002    3.789588157401439E-026
 -2.150000000000000E-002    4.971643591512013E-026
 -2.140000000000000E-002    6.063784918896184E-026
 -2.130000000000000E-002    6.898285981496329E-026
 -2.120000000000000E-002    7.271408181649819E-026
 -2.110000000000000E-002    6.956343603846110E-026
 -2.100000000000000E-002    5.724829375736249E-026
 -2.090000000000000E-002    3.377591954612991E-026
 -2.080000000000000E-002   -2.176044817331829E-027
 -2.070000000000000E-002   -5.083246676138370E-026
 -2.060000000000000E-002   -1.108951379760210E-025
 -2.050000000000000E-002   -1.791842531665147E-025
 -2.040000000000000E-002   -2.504250887370871E-025
 -2.030000000000000E-002   -3.172619381455438E-025
 -2.020000000000000E-002   -3.705724277380002E-025
 -2.010000000000000E-002   -4.001310733955313E-025
 -2.000000000000000E-002   -3.956306932690892E-025
 -1.990000000000000E-002   -3.480142393010406E-025
 -1.980000000000000E-002   -2.510053283526688E-025
 -1.970000000000000E-002   -1.026587597339153E-025
 -1.960000000000000E-002    9.330362221169636E-026
 -1.950000000000000E-002    3.266397061685181E-025
 -1.940000000000000E-002    5.804796553933122E-025
 -1.930000000000000E-002    8.321771203046203E-025
 -1.920000000000000E-002    1.055226366281669E-024
 -1.910000000000000E-002    1.222197744912775E-024
 -1.900000000000000E-002    1.308452028601111E-024
 -1.890000000000000E-002    1.296187482245417E-024
 -1.880000000000000E-002    1.178187886304353E-024
 -1.870000000000000E-002    9.605165584065594E-025
 -1.860000000000000E-002    6.633795823046608E-025
 -1.850000000000000E-002    3.195029591419347E-025
 -1.840000000000000E-002   -3.035459394439981E-026
 -1.830000000000000E-002   -3.446898130438589E-025
 -1.820000000000000E-002   -5.907203406138586E-025
 -1.810000000000000E-002   -7.547808846542733E-025
 -1.800000000000000E-002   -8.518230263580648E-025
 -1.790000000000000E-002   -9.317725019567229E-025
 -1.780000000000000E-002   -1.080367017072515E-024
 -1.770000000000000E-002   -1.412379769284784E-024
 -1.760000000000000E-002   -2.055886325389839E-024
 -1.750000000000000E-002   -3.127485294446724E-024
 -1.740000000000000E-002   -4.700044698845357E-024
 -1.730000000000000E-002   -6.766451772299267E-024
 -1.720000000000000E-002   -9.204722090290169E-024
 -1.710000000000000E-002   -1.175131286394029E-023
 -1.700000000000000E-002   -1.399025674458621E-023
 -1.690000000000000E-002   -1.536535842315379E-023
 -1.680000000000000E-002   -1.522100522942672E-023
 -1.670000000000000E-002   -1.287394772080668E-023
 -1.660000000000000E-002   -7.713931799856540E-024
 -1.650000000000000E-002    6.743589399166576E-025
 -1.640000000000000E-002    1.238126976055808E-023
 -1.630000000000000E-002    2.705229938752842E-023
 -1.620000000000000E-002    4.380005145870734E-023
 -1.610000000000000E-002    6.117040914969845E-023
 -1.600000000000000E-002    7.718267301004685E-023
 -1.590000000000000E-002    8.945690255360732E-023
 -1.580000000000000E-002    9.543133482450626E-023
 -1.570000000000000E-002    9.265969307027010E-023
 -1.560000000000000E-002    7.916336549363159E-023
 -1.550000000000000E-002    5.379943740788914E-023
 -1.540000000000000E-002    1.659436332760194E-023
 -1.530000000000000E-002   -3.101244141352654E-023
 -1.520000000000000E-002   -8.606894526770594E-023
 -1.510000000000000E-002   -1.441975163161429E-022
 -1.500000000000000E-002   -1.998916684976386E-022
 -1.490000000000000E-002   -2.470176165158495E-022
 -1.480000000000000E-002   -2.794838086861283E-022
 -1.470000000000000E-002   -2.920086771457327E-022
 -1.460000000000000E-002   -2.808894855583479E-022
 -1.450000000000000E-002   -2.446578196456433E-022
 -1.440000000000000E-002   -1.845059093828350E-022
 -1.430000000000000E-002   -1.043846882775611E-022
 -1.420000000000000E-002   -1.071100736371563E-023
 -1.410000000000000E-002    8.832562616658307E-023
 -1.400000000000000E-002    1.838021356718013E-022
 -1.390000000000000E-002    2.673261680733993E-022
 -1.380000000000000E-002    3.323480192736854E-022
 -1.370000000000000E-002    3.753053059497607E-022
 -1.360000000000000E-002    3.963797793642899E-022
 -1.350000000000000E-002    3.996759268354587E-022
 -1.340000000000000E-002    3.927006603334203E-022
 -1.330000000000000E-002    3.851248420366503E-022
 -1.320000000000000E-002    3.869318926353863E-022
 -1.310000000000000E-002    4.061834746724570E-022
 -1.300000000000000E-002    4.467396071328931E-022
 -1.290000000000000E-002    5.063370993905083E-022
 -1.280000000000000E-002    5.754322485660337E-022
 -1.270000000000000E-002    6.371483487275357E-022
 -1.260000000000000E-002    6.685267991836773E-022
 -1.250000000000000E-002    6.430816986711891E-022
 -1.240000000000000E-002    5.344240681577625E-022
 -1.230000000000000E-002    3.204956641582331E-022
 -1.220000000000000E-002   -1.222628711030184E-023
 -1.210000000000000E-002   -4.652792958642073E-022
 -1.200000000000000E-002   -1.026207166152872E-021
 -1.190000000000000E-002   -1.668498373179498E-021
 -1.180000000000000E-002   -2.353669299779289E-021
 -1.170000000000000E-002   -3.035280231909327E-021
 -1.160000000000000E-002   -3.664239223348073E-021
 -1.150000000000000E-002   -4.194368768256943E-021
 -1.140000000000000E-002   -4.586974295102519E-021
 -1.130000000000000E-002   -4.813147953585770E-021
 -1.120000000000000E-002   -4.852824158377905E-021
 -1.110000000000000E-002   -4.690179190650863E-021
 -1.100000000000000E-002   -4.305797188689784E-021
 -1.090000000000000E-002   -3.666991860726635E-021
 -1.080000000000000E-002   -2.718618087079558E-021
 -1.070000000000000E-002   -1.377418866946577E-021
 -1.060000000000000E-002    4.667751645182956E-022
 -1.050000000000000E-002    2.940046586755553E-021
 -1.040000000000000E-002    6.161727379778557E-021
 -1.030000000000000E-002    1.021005541975704E-020
 -1.020000000000000E-002    1.507854961956678E-020
 -1.010000000000000E-002    2.062824299432944E-020
 -1.000000000000000E-002    2.654351148577057E-020
 -9.899999999999999E-003    3.230120552203266E-020
 -9.800000000000000E-003    3.716356834724171E-020
 -9.699999999999999E-003    4.020460656269150E-020
 -9.599999999999999E-003    4.037677155779997E-020
 -9.500000000000000E-003    3.662006612600685E-020
 -9.399999999999999E-003    2.800929946842083E-020
 -9.299999999999999E-003    1.392776719515612E-020
 -9.200000000000000E-003   -5.751822598489511E-021
 -9.099999999999999E-003   -3.050461005084480E-020
 -8.999999999999999E-003   -5.903828588394618E-020
 -8.900000000000000E-003   -8.925452375363498E-020
 -8.799999999999999E-003   -1.183120527500597E-019
 -8.699999999999999E-003   -1.428068751283718E-019
 -8.600000000000000E-003   -1.590713488515475E-019
 -8.499999999999999E-003   -1.635767684771525E-019
 -8.399999999999999E-003   -1.534055052426655E-019
 -8.300000000000000E-003   -1.267415727513855E-019
 -8.199999999999999E-003   -8.331516097478513E-020
 -8.100000000000000E-003   -2.473054072162093E-020
 -8.000000000000000E-003    4.539058650602494E-020
 -7.899999999999999E-003    1.215046692136113E-019
 -7.800000000000000E-003    1.965113936852827E-019
 -7.699999999999999E-003    2.623861688580264E-019
 -7.599999999999999E-003    3.110396194634365E-019
 -7.499999999999999E-003    3.353247178692424E-019
 -7.399999999999999E-003    3.300776477096728E-019
 -7.299999999999999E-003    2.930549668028694E-019
 -7.199999999999999E-003    2.256218265494670E-019
 -7.100000000000000E-003    1.330576075311540E-019
 -6.999999999999999E-003    2.437827628089796E-020
 -6.899999999999999E-003   -8.837296837263976E-020
 -6.800000000000000E-003   -1.913479617292284E-019
 -6.699999999999999E-003   -2.705355681235934E-019
 -6.599999999999999E-003   -3.136577570871155E-019
 -6.499999999999999E-003   -3.120945697777508E-019
 -6.399999999999999E-003   -2.625778991131112E-019
 -6.299999999999999E-003   -1.683887905021761E-019
 -6.199999999999999E-003   -3.982598701839175E-020
 -6.100000000000000E-003    1.062170775578095E-019
 -5.999999999999999E-003    2.476298310865525E-019
 -5.899999999999999E-003    3.593569296281868E-019
 -5.800000000000000E-003    4.163786780894023E-019
 -5.699999999999999E-003    3.970943048039115E-019
 -5.599999999999999E-003    2.867154548698843E-019
 -5.499999999999999E-003    8.023206170814767E-020
 -5.399999999999999E-003   -2.154772992537830E-019
 -5.299999999999999E-003   -5.807489581738130E-019
 -5.199999999999999E-003   -9.836885254323560E-019
 -5.099999999999999E-003   -1.382247541235789E-018
 -4.999999999999999E-003   -1.727708606325398E-018
 -4.899999999999999E-003   -1.969280528361302E-018
 -4.799999999999999E-003   -2.059351215454765E-018
 -4.699999999999999E-003   -1.958840462318758E-018
 -4.599999999999999E-003   -1.642062557117388E-018
 -4.499999999999999E-003   -1.100549191266554E-018
 -4.399999999999999E-003   -3.453987802831378E-019
 -4.299999999999999E-003    5.921066672673158E-019
 -4.199999999999999E-003    1.661672231635808E-018
 -4.099999999999999E-003    2.796792739355802E-018
 -3.999999999999999E-003    3.918856867048448E-018
 -3.899999999999999E-003    4.942104582319192E-018
 -3.799999999999999E-003    5.778951970192238E-018
 -3.699999999999999E-003    6.345246107054481E-018
 -3.599999999999999E-003    6.565133271701521E-018
 -3.499999999999999E-003    6.375393080112554E-018
 -3.399999999999999E-003    5.729270459230312E-018
 -3.299999999999999E-003    4.599981090452446E-018
 -3.199999999999999E-003    2.984136964597405E-018
 -3.099999999999999E-003    9.052920096061424E-019
 -2.999999999999999E-003   -1.582345793934617E-018
 -2.899999999999999E-003   -4.390264452899224E-018
 -2.799999999999999E-003   -7.392624395843707E-018
 -2.699999999999999E-003   -1.042476682946059E-017
 -2.599999999999999E-003   -1.328443542388107E-017
 -2.499999999999999E-003   -1.573699698109879E-017
 -2.399999999999999E-003   -1.752583057610998E-017
 -2.299999999999999E-003   -1.838865277354771E-017
 -2.199999999999999E-003   -1.807985436423232E-017
 -2.099999999999999E-003   -1.639800558081462E-017
 -1.999999999999999E-003   -1.321659685077567E-017
 -1.899999999999999E-003   -8.515010620760704E-018
 -1.799999999999999E-003   -2.405807265111885E-018
 -1.699999999999999E-003    4.846141287355840E-018
 -1.599999999999999E-003    1.281715324501186E-017
 -1.499999999999999E-003    2.093474214953229E-017
 -1.399999999999999E-003    2.850668964795101E-017
 -1.299999999999999E-003    3.476978577319001E-017
 -1.199999999999999E-003    3.895643455848435E-017
 -1.099999999999999E-003    4.037465711540149E-017
 -9.999999999999989E-004    3.849448678933764E-017
 -8.999999999999990E-004    3.303168099279603E-017
 -7.999999999999990E-004    2.401842733708779E-017
 -6.999999999999989E-004    1.185059411183754E-017
 -5.999999999999990E-004   -2.697702458478722E-018
 -4.999999999999989E-004   -1.849894597770813E-017
 -3.999999999999989E-004   -3.413946385186933E-017
 -2.999999999999989E-004   -4.802750061623517E-017
 -1.999999999999989E-004   -5.853557831960578E-017
 -9.999999999999892E-005   -6.416582172499835E-017
  1.084202172485504E-018   -6.372297856571835E-017
  1.000000000000011E-004   -5.647737583317127E-017
  2.000000000000011E-004   -4.229917930578085E-017
  3.000000000000011E-004   -2.174680454409122E-017
  4.000000000000011E-004    3.904392547153941E-018
  5.000000000000011E-004    3.270171506022132E-017
  6.000000000000011E-004    6.212525945113621E-017
  7.000000000000011E-004    8.926353410928744E-017
  8.000000000000011E-004    1.110429193814643E-016
  9.000000000000012E-004    1.244932551003288E-016
  1.000000000000001E-003    1.270278431012897E-016
  1.100000000000001E-003    1.167139697187580E-016
  1.200000000000001E-003    9.251063900459235E-017
  1.300000000000001E-003    5.445249695548394E-017
  1.400000000000001E-003    3.763511188044744E-018
  1.500000000000001E-003   -5.711061512090561E-017
  1.600000000000001E-003   -1.245561304074144E-016
  1.700000000000001E-003   -1.939304507539919E-016
  1.800000000000001E-003   -2.597811771459327E-016
  1.900000000000001E-003   -3.161359336294021E-016
  2.000000000000001E-003   -3.568514796182350E-016
  2.100000000000001E-003   -3.760094831010109E-016
  2.200000000000001E-003   -3.683451371090904E-016
  2.300000000000001E-003   -3.296939282587757E-016
  2.400000000000001E-003   -2.574394269286593E-016
  2.500000000000001E-003   -1.509413923670107E-016
  2.600000000000001E-003   -1.191873042276425E-017
  2.700000000000001E-003    1.552447294758815E-016
  2.800000000000001E-003    3.433096622583309E-016
  2.900000000000001E-003    5.421486638692466E-016
  3.000000000000001E-003    7.389160011894543E-016
  3.100000000000001E-003    9.184604725139171E-016
  3.200000000000001E-003    1.064011399907080E-015
  3.300000000000001E-003    1.158149929841673E-015
  3.400000000000001E-003    1.184052158112000E-015
  3.500000000000001E-003    1.126957654307720E-015
  3.600000000000001E-003    9.757816210663370E-016
  3.700000000000001E-003    7.247528362103057E-016
  3.800000000000001E-003    3.749275519795733E-016
  3.900000000000001E-003   -6.459139380058253E-017
  4.000000000000001E-003   -5.759078746586045E-016
  4.100000000000001E-003   -1.132223766781259E-015
  4.200000000000001E-003   -1.698501305352109E-015
  4.300000000000001E-003   -2.232975189483348E-015
  4.400000000000001E-003   -2.689521980970252E-015
  4.500000000000001E-003   -3.020808312450217E-015
  4.600000000000002E-003   -3.182050564304051E-015
  4.700000000000001E-003   -3.135130665793619E-015
  4.800000000000001E-003   -2.852743918857612E-015
  4.900000000000002E-003   -2.322202642491124E-015
  5.000000000000001E-003   -1.548508233617547E-015
  5.100000000000001E-003   -5.563222125875215E-016
  5.200000000000001E-003    6.094706608092859E-016
  5.300000000000002E-003    1.884818585967595E-015
  5.400000000000001E-003    3.189263620287908E-015
  5.500000000000001E-003    4.430346439273722E-015
  5.600000000000002E-003    5.509446529520759E-015
  5.700000000000001E-003    6.328705397461184E-015
  5.800000000000001E-003    6.798563214262674E-015
  5.900000000000002E-003    6.845357347320068E-015
  6.000000000000001E-003    6.418393008430536E-015
  6.100000000000001E-003    5.495903839037271E-015
  6.200000000000002E-003    4.089383204595578E-015
  6.300000000000002E-003    2.245866775510614E-015
  6.400000000000001E-003    4.787719154231105E-017
  6.500000000000001E-003   -2.389094734481469E-015
  6.600000000000002E-003   -4.921542990033184E-015
  6.700000000000001E-003   -7.385140291013883E-015
  6.800000000000001E-003   -9.603840867951812E-015
  6.900000000000002E-003   -1.140044698547680E-014
  7.000000000000001E-003   -1.260809113123808E-014
  7.100000000000001E-003   -1.308204164378347E-014
  7.200000000000002E-003   -1.271118928616265E-014
  7.300000000000002E-003   -1.142856231922243E-014
  7.400000000000001E-003   -9.220223833570077E-015
  7.500000000000001E-003   -6.131916567065724E-015
  7.600000000000002E-003   -2.272859773782336E-015
  7.700000000000001E-003    2.183843397283054E-015
  7.800000000000001E-003    7.004645418648040E-015
  7.900000000000001E-003    1.190317983709335E-014
  8.000000000000002E-003    1.655223428074679E-014
  8.100000000000001E-003    2.060000910439519E-014
  8.200000000000001E-003    2.369032818319822E-014
  8.300000000000002E-003    2.548611571179813E-014
  8.400000000000001E-003    2.569509792176056E-014
  8.500000000000002E-003    2.409631689075436E-014
  8.600000000000002E-003    2.056568909590753E-014
  8.700000000000001E-003    1.509857942590700E-014
  8.800000000000002E-003    7.827207134726081E-015
  8.900000000000002E-003   -9.692934205291482E-016
  9.000000000000001E-003   -1.086411275779598E-014
  9.100000000000002E-003   -2.129286649671619E-014
  9.200000000000002E-003   -3.157544389826418E-014
  9.300000000000001E-003   -4.094970090193474E-014
  9.400000000000002E-003   -4.861612202804934E-014
  9.500000000000001E-003   -5.379151357104776E-014
  9.600000000000001E-003   -5.576881895825193E-014
  9.700000000000002E-003   -5.397922473801936E-014
  9.800000000000001E-003   -4.805202936918985E-014
  9.900000000000001E-003   -3.786737643417554E-014
  1.000000000000000E-002   -2.359691707367619E-014
  1.010000000000000E-002   -5.727872089687808E-015
  1.020000000000000E-002    1.493326602886116E-014
  1.030000000000000E-002    3.727996937087719E-014
  1.040000000000000E-002    5.994895097648274E-014
  1.050000000000000E-002    8.138684818625960E-014
  1.060000000000000E-002    9.993794831978241E-014
  1.070000000000000E-002    1.139487919954930E-013
  1.080000000000000E-002    1.218839578206594E-013
  1.090000000000000E-002    1.224459570838877E-013
  1.100000000000000E-002    1.146914348797444E-013
  1.110000000000000E-002    9.813527893864319E-014
  1.120000000000000E-002    7.283451970056289E-014
  1.130000000000000E-002    3.944446625903716E-014
  1.140000000000000E-002   -7.593043376623809E-016
  1.150000000000000E-002   -4.589779049256451E-014
  1.160000000000000E-002   -9.354700830280111E-014
  1.170000000000000E-002   -1.408382981252390E-013
  1.180000000000000E-002   -1.845983102621231E-013
  1.190000000000000E-002   -2.215238299898091E-013
  1.200000000000000E-002   -2.483839063203315E-013
  1.210000000000000E-002   -2.622394092537066E-013
  1.220000000000000E-002   -2.606678837581566E-013
  1.230000000000000E-002   -2.419800097357596E-013
  1.240000000000000E-002   -2.054127998884855E-013
  1.250000000000000E-002   -1.512845210975797E-013
  1.260000000000000E-002   -8.109674136408986E-014
  1.270000000000000E-002    2.429271071256136E-015
  1.280000000000000E-002    9.539213355531000E-014
  1.290000000000000E-002    1.928322647121152E-013
  1.300000000000000E-002    2.889380153651971E-013
  1.310000000000000E-002    3.773323085143344E-013
  1.320000000000000E-002    4.514300871517369E-013
  1.330000000000000E-002    5.048506979052264E-013
  1.340000000000000E-002    5.318637502650044E-013
  1.350000000000000E-002    5.278414952522736E-013
  1.360000000000000E-002    4.896877091878092E-013
  1.370000000000000E-002    4.162103992592491E-013
  1.380000000000000E-002    3.084064906164176E-013
  1.390000000000000E-002    1.696289348313987E-013
  1.400000000000000E-002    5.611878253898715E-015
  1.410000000000000E-002   -1.756628860192747E-013
  1.420000000000000E-002   -3.642653705088173E-013
  1.430000000000000E-002   -5.487790934992823E-013
  1.440000000000000E-002   -7.169091313372818E-013
  1.450000000000000E-002   -8.562090153808467E-013
  1.460000000000000E-002   -9.548879292479224E-013
  1.470000000000000E-002   -1.002650837358710E-012
  1.480000000000000E-002   -9.915170253968677E-013
  1.490000000000000E-002   -9.165604409879732E-013
  1.500000000000000E-002   -7.765150355240355E-013
  1.510000000000000E-002   -5.741930882872289E-013
  1.520000000000000E-002   -3.166732910823019E-013
  1.530000000000000E-002   -1.522679579296175E-014
  1.540000000000000E-002    3.150351506876735E-013
  1.550000000000000E-002    6.557920305960728E-013
  1.560000000000000E-002    9.864046848557986E-013
  1.570000000000000E-002    1.285030410268962E-012
  1.580000000000000E-002    1.529908409238493E-012
  1.590000000000000E-002    1.700748712693907E-012
  1.600000000000000E-002    1.780145568720468E-012
  1.610000000000000E-002    1.754928005630458E-012
  1.620000000000000E-002    1.617359340317349E-012
  1.630000000000000E-002    1.366097267362846E-012
  1.640000000000000E-002    1.006835871455888E-012
  1.650000000000000E-002    5.525627548745278E-013
  1.660000000000000E-002    2.338217947032432E-014
  1.670000000000000E-002   -5.541222276778541E-013
  1.680000000000000E-002   -1.147986403633440E-012
  1.690000000000000E-002   -1.722399001781401E-012
  1.700000000000000E-002   -2.239611765432478E-012
  1.710000000000000E-002   -2.662142822941819E-012
  1.720000000000000E-002   -2.955160211380314E-012
  1.730000000000000E-002   -3.088913087492328E-012
  1.740000000000000E-002   -3.041059866683252E-012
  1.750000000000000E-002   -2.798736013888461E-012
  1.760000000000000E-002   -2.360204935771215E-012
  1.770000000000000E-002   -1.735947675456523E-012
  1.780000000000000E-002   -9.490682101394011E-013
  1.790000000000000E-002   -3.492618911447071E-014
  1.800000000000000E-002    9.600501404545817E-013
  1.810000000000000E-002    1.980367019339671E-012
  1.820000000000000E-002    2.964226688660758E-012
  1.830000000000000E-002    3.846932650241922E-012
  1.840000000000000E-002    4.564771435317831E-012
  1.850000000000000E-002    5.059157525576026E-012
  1.860000000000000E-002    5.280789044486195E-012
  1.870000000000000E-002    5.193542726757652E-012