 -4.000000000000000E-002    0.000000000000000E+000
 -3.990000000000000E-002    0.000000000000000E+000
 -3.980000000000000E-002    0.000000000000000E+000
 -3.970000000000000E-002    0.000000000000000E+000
 -3.960000000000000E-002    0.000000000000000E+000
 -3.950000000000000E-002    0.000000000000000E+000
 -3.940000000000000E-002    0.000000000000000E+000
 -3.930000000000000E-002    0.000000000000000E+000
 -3.920000000000000E-002    0.000000000000000E+000
 -3.910000000000000E-002    0.000000000000000E+000
 -3.900000000000000E-002    0.000000000000000E+000
 -3.890000000000000E-002    0.000000000000000E+000
 -3.880000000000000E-002    0.000000000000000E+000
 -3.870000000000000E-002    0.000000000000000E+000
 -3.860000000000000E-002    0.000000000000000E+000
 -3.850000000000000E-002    0.000000000000000E+000
 -3.840000000000000E-002    0.000000000000000E+000
 -3.830000000000000E-002    0.000000000000000E+000
 -3.820000000000000E-002    0.000000000000000E+000
 -3.810000000000000E-002    0.000000000000000E+000
 -3.800000000000000E-002    0.000000000000000E+000
 -3.790000000000000E-002    0.000000000000000E+000
 -3.780000000000000E-002    0.000000000000000E+000
 -3.770000000000000E-002    0.000000000000000E+000
 -3.760000000000000E-002    0.000000000000000E+000
 -3.750000000000000E-002    0.000000000000000E+000
 -3.740000000000000E-002    0.000000000000000E+000
 -3.730000000000000E-002    0.000000000000000E+000
 -3.720000000000000E-002    0.000000000000000E+000
 -3.710000000000000E-002    0.000000000000000E+000
 -3.700000000000000E-002    0.000000000000000E+000
 -3.690000000000000E-002    0.000000000000000E+000
 -3.680000000000000E-002    0.000000000000000E+000
 -3.670000000000000E-002    0.000000000000000E+000
 -3.660000000000000E-002    0.000000000000000E+000
 -3.650000000000000E-002    0.000000000000000E+000
 -3.640000000000000E-002    0.000000000000000E+000
 -3.630000000000000E-002    0.000000000000000E+000
 -3.620000000000000E-002    0.000000000000000E+000
 -3.610000000000000E-002    0.000000000000000E+000
 -3.600000000000000E-002    0.000000000000000E+000
 -3.590000000000000E-002    0.000000000000000E+000
 -3.580000000000000E-002    0.000000000000000E+000
 -3.570000000000000E-002    0.000000000000000E+000
 -3.560000000000000E-002    0.000000000000000E+000
 -3.550000000000000E-002    0.000000000000000E+000
 -3.540000000000000E-002    0.000000000000000E+000
 -3.530000000000000E-002    0.000000000000000E+000
 -3.520000000000000E-002    0.000000000000000E+000
 -3.510000000000000E-002    0.000000000000000E+000
 -3.500000000000000E-002    0.000000000000000E+000
 -3.490000000000000E-002    0.000000000000000E+000
 -3.480000000000000E-002    0.000000000000000E+000
 -3.470000000000000E-002    0.000000000000000E+000
 -3.460000000000000E-002    0.000000000000000E+000
 -3.450000000000000E-002    0.000000000000000E+000
 -3.440000000000000E-002    0.000000000000000E+000
 -3.430000000000000E-002    0.000000000000000E+000
 -3.420000000000000E-002    0.000000000000000E+000
 -3.410000000000000E-002    0.000000000000000E+000
 -3.400000000000000E-002    0.000000000000000E+000
 -3.390000000000000E-002    0.000000000000000E+000
 -3.380000000000000E-002    0.000000000000000E+000
 -3.370000000000000E-002    0.000000000000000E+000
 -3.360000000000000E-002    0.000000000000000E+000
 -3.350000000000000E-002    0.000000000000000E+000
 -3.340000000000000E-002    0.000000000000000E+000
 -3.330000000000000E-002    0.000000000000000E+000
 -3.320000000000000E-002    0.000000000000000E+000
 -3.310000000000000E-002    0.000000000000000E+000
 -3.300000000000000E-002    0.000000000000000E+000
 -3.290000000000000E-002    0.000000000000000E+000
 -3.280000000000000E-002    0.000000000000000E+000
 -3.270000000000000E-002    0.000000000000000E+000
 -3.260000000000000E-002    0.000000000000000E+000
 -3.250000000000000E-002    0.000000000000000E+000
 -3.240000000000000E-002    0.000000000000000E+000
 -3.230000000000000E-002    0.000000000000000E+000
 -3.220000000000000E-002    0.000000000000000E+000
 -3.210000000000000E-002    0.000000000000000E+000
 -3.200000000000000E-002    0.000000000000000E+000
 -3.190000000000000E-002    0.000000000000000E+000
 -3.180000000000000E-002    0.000000000000000E+000
 -3.170000000000000E-002    0.000000000000000E+000
 -3.160000000000000E-002    0.000000000000000E+000
 -3.150000000000000E-002    0.000000000000000E+000
 -3.140000000000000E-002    0.000000000000000E+000
 -3.130000000000000E-002    0.000000000000000E+000
 -3.120000000000000E-002    0.000000000000000E+000
 -3.110000000000000E-002    0.000000000000000E+000
 -3.100000000000000E-002    0.000000000000000E+000
 -3.090000000000000E-002    0.000000000000000E+000
 -3.080000000000000E-002    0.000000000000000E+000
 -3.070000000000000E-002    0.000000000000000E+000
 -3.060000000000000E-002    0.000000000000000E+000
 -3.050000000000000E-002    0.000000000000000E+000
 -3.040000000000000E-002    0.000000000000000E+000
 -3.030000000000000E-002    0.000000000000000E+000
 -3.020000000000000E-002    0.000000000000000E+000
 -3.010000000000000E-002    0.000000000000000E+000
 -3.000000000000000E-002    0.000000000000000E+000
 -2.990000000000000E-002    0.000000000000000E+000
 -2.980000000000000E-002    0.000000000000000E+000
 -2.970000000000000E-002    0.000000000000000E+000
 -2.960000000000000E-002    0.000000000000000E+000
 -2.950000000000000E-002    0.000000000000000E+000
 -2.940000000000000E-002    0.000000000000000E+000
 -2.930000000000000E-002    0.000000000000000E+000
 -2.920000000000000E-002    0.000000000000000E+000
 -2.910000000000000E-002    0.000000000000000E+000
 -2.900000000000000E-002    0.000000000000000E+000
 -2.890000000000000E-002    0.000000000000000E+000
 -2.880000000000000E-002    0.000000000000000E+000
 -2.870000000000000E-002    0.000000000000000E+000
 -2.860000000000000E-002    0.000000000000000E+000
 -2.850000000000000E-002    0.000000000000000E+000
 -2.840000000000000E-002    0.000000000000000E+000
 -2.830000000000000E-002    0.000000000000000E+000
 -2.820000000000000E-002    0.000000000000000E+000
 -2.810000000000000E-002    0.000000000000000E+000
 -2.800000000000000E-002    0.000000000000000E+000
 -2.790000000000000E-002    0.000000000000000E+000
 -2.780000000000000E-002    0.000000000000000E+000
 -2.770000000000000E-002    0.000000000000000E+000
 -2.760000000000000E-002    0.000000000000000E+000
 -2.750000000000000E-002    0.000000000000000E+000
 -2.740000000000000E-002    0.000000000000000E+000
 -2.730000000000000E-002    0.000000000000000E+000
 -2.720000000000000E-002    0.000000000000000E+000
 -2.710000000000000E-002    0.000000000000000E+000
 -2.700000000000000E-002    0.000000000000000E+000
 -2.690000000000000E-002    0.000000000000000E+000
 -2.680000000000000E-002    0.000000000000000E+000
 -2.670000000000000E-002    0.000000000000000E+000
 -2.660000000000000E-002    0.000000000000000E+000
 -2.650000000000000E-002    0.000000000000000E+000
 -2.640000000000000E-002    0.000000000000000E+000
 -2.630000000000000E-002    0.000000000000000E+000
 -2.620000000000000E-002    0.000000000000000E+000
 -2.610000000000000E-002    0.000000000000000E+000
 -2.600000000000000E-002    0.000000000000000E+000
 -2.590000000000000E-002    0.000000000000000E+000
 -2.580000000000000E-002    0.000000000000000E+000
 -2.570000000000000E-002    0.000000000000000E+000
 -2.560000000000000E-002    0.000000000000000E+000
 -2.550000000000000E-002    0.000000000000000E+000
 -2.540000000000000E-002    0.000000000000000E+000
 -2.530000000000000E-002    0.000000000000000E+000
 -2.520000000000000E-002    0.000000000000000E+000
 -2.510000000000000E-002    0.000000000000000E+000
 -2.500000000000000E-002    0.000000000000000E+000
 -2.490000000000000E-002    0.000000000000000E+000
 -2.480000000000000E-002    0.000000000000000E+000
 -2.470000000000000E-002    0.000000000000000E+000
 -2.460000000000000E-002    0.000000000000000E+000
 -2.450000000000000E-002    0.000000000000000E+000
 -2.440000000000000E-002    0.000000000000000E+000
 -2.430000000000000E-002    0.000000000000000E+000
 -2.420000000000000E-002    0.000000000000000E+000
 -2.410000000000000E-002    0.000000000000000E+000
 -2.400000000000000E-002    3.941889679328290E-048
 -2.390000000000000E-002    7.883779358656579E-048
 -2.380000000000000E-002    7.883779358656579E-048
 -2.370000000000000E-002    7.883779358656579E-048
 -2.360000000000000E-002   -8.027153149953394E-048
 -2.350000000000000E-002   -3.182186501721995E-047
 -2.340000000000000E-002   -6.350035624314308E-047
 -2.330000000000000E-002   -1.146255034119586E-046
 -2.320000000000000E-002   -1.616653871101491E-046
 -2.310000000000000E-002   -2.043572148839654E-046
 -2.300000000000000E-002   -2.750480100038563E-046
 -2.290000000000000E-002   -1.789686882440381E-046
 -2.280000000000000E-002    1.154708435310678E-049
 -2.270000000000000E-002    3.764681957768329E-046
 -2.260000000000000E-002    1.089114575045586E-045
 -2.250000000000000E-002    2.117139446744479E-045
 -2.240000000000000E-002    2.602867217971336E-045
 -2.230000000000000E-002    4.058276814686059E-045
 -2.220000000000000E-002    4.729300479491890E-045
 -2.210000000000000E-002    4.189400008129081E-045
 -2.200000000000000E-002    3.877340290235761E-046
 -2.190000000000000E-002   -5.715871115620618E-045
 -2.180000000000000E-002   -1.490497828108889E-044
 -2.170000000000000E-002   -2.652582786559760E-044
 -2.160000000000000E-002   -3.902501636271963E-044
 -2.150000000000000E-002   -5.021629738447215E-044
 -2.140000000000000E-002   -5.514801410130992E-044
 -2.130000000000000E-002   -4.863675510371202E-044
 -2.120000000000000E-002   -2.243617301826987E-044
 -2.110000000000000E-002    3.061739339669026E-044
 -2.100000000000000E-002    1.143456577526448E-043
 -2.090000000000000E-002    2.293727546807046E-043
 -2.080000000000000E-002    3.664718389923119E-043
 -2.070000000000000E-002    5.034368209310518E-043
 -2.060000000000000E-002    6.041751543591084E-043
 -2.050000000000000E-002    6.136613290289600E-043
 -2.040000000000000E-002    4.653614167548614E-043
 -2.030000000000000E-002    8.700089254560093E-044
 -2.020000000000000E-002   -5.836589247891082E-043
 -2.010000000000000E-002   -1.573641605276202E-042
 -2.000000000000000E-002   -2.846477241489550E-042
 -1.990000000000000E-002   -4.266835640439718E-042
 -1.980000000000000E-002   -5.568914789750629E-042
 -1.970000000000000E-002   -6.340606966888091E-042
 -1.960000000000000E-002   -6.029143271786116E-042
 -1.950000000000000E-002   -3.992232569848105E-042
 -1.940000000000000E-002    4.003386268074611E-043
 -1.930000000000000E-002    7.598949011701380E-042
 -1.920000000000000E-002    1.764972001061743E-041
 -1.910000000000000E-002    2.992244511903325E-041
 -1.900000000000000E-002    4.284383905834928E-041
 -1.890000000000000E-002    5.368918689499189E-041
 -1.880000000000000E-002    5.852983310297042E-041
 -1.870000000000000E-002    5.244087435803533E-041
 -1.860000000000000E-002    3.007504878813167E-041
 -1.850000000000000E-002   -1.332166394474979E-041
 -1.840000000000000E-002   -8.042217839126808E-041
 -1.830000000000000E-002   -1.699412944999654E-040
 -1.820000000000000E-002   -2.745845102986378E-040
 -1.810000000000000E-002   -3.791998908281292E-040
 -1.800000000000000E-002   -4.596858499377711E-040
 -1.790000000000000E-002   -4.833299351764423E-040
 -1.780000000000000E-002   -4.113250857240647E-040
 -1.770000000000000E-002   -2.041087381706947E-040
 -1.760000000000000E-002    1.701116760984761E-040
 -1.750000000000000E-002    7.238020301434785E-040
 -1.740000000000000E-002    1.436440200595174E-039
 -1.730000000000000E-002    2.240663827858079E-039
 -1.720000000000000E-002    3.011179576935737E-039
 -1.710000000000000E-002    3.560401167555092E-039
 -1.700000000000000E-002    3.645378262808743E-039
 -1.690000000000000E-002    2.990511643372153E-039
 -1.680000000000000E-002    1.329497117212245E-039
 -1.670000000000000E-002   -1.532452020709275E-039
 -1.660000000000000E-002   -5.638864608801005E-039
 -1.650000000000000E-002   -1.079266466940180E-038
 -1.640000000000000E-002   -1.647119526526518E-038
 -1.630000000000000E-002   -2.176574700887623E-038
 -1.620000000000000E-002   -2.537071223348455E-038
 -1.610000000000000E-002   -2.564963998307141E-038
 -1.600000000000000E-002   -2.080311042902216E-038
 -1.590000000000000E-002   -9.154637898536169E-039
 -1.580000000000000E-002    1.044538417369137E-038
 -1.570000000000000E-002    3.812162784096841E-038
 -1.560000000000000E-002    7.243615213352999E-038
 -1.550000000000000E-002    1.098995878486658E-037
 -1.540000000000000E-002    1.446521087675285E-037
 -1.530000000000000E-002    1.684586172823955E-037
 -1.520000000000000E-002    1.711687358498772E-037
 -1.510000000000000E-002    1.417716685113160E-037
 -1.500000000000000E-002    7.012092011847170E-038
 -1.490000000000000E-002   -5.069058848520821E-038
 -1.480000000000000E-002   -2.214581559113502E-037
 -1.470000000000000E-002   -4.338130922705529E-037
 -1.460000000000000E-002   -6.674860804029100E-037
 -1.450000000000000E-002   -8.885455632805163E-037
 -1.440000000000000E-002   -1.049384474876508E-036
 -1.430000000000000E-002   -1.091249386161722E-036
 -1.420000000000000E-002   -9.499900547734571E-037
 -1.410000000000000E-002   -5.654169853986781E-037
 -1.400000000000000E-002    1.058319630245485E-037
 -1.390000000000000E-002    1.074693680032615E-036
 -1.380000000000000E-002    2.302960473240609E-036
 -1.370000000000000E-002    3.687950306508141E-036
 -1.360000000000000E-002    5.051919951677024E-036
 -1.350000000000000E-002    6.140184586452470E-036
 -1.340000000000000E-002    6.632083243519398E-036
 -1.330000000000000E-002    6.168452486495730E-036
 -1.320000000000000E-002    4.397967588340383E-036
 -1.310000000000000E-002    1.042426239437870E-036
 -1.300000000000000E-002   -4.022190824221971E-036
 -1.290000000000000E-002   -1.067613981688201E-035
 -1.280000000000000E-002   -1.846963144822293E-035
 -1.270000000000000E-002   -2.655614640913833E-035
 -1.260000000000000E-002   -3.366526006438003E-035
 -1.250000000000000E-002   -3.813660215253958E-035
 -1.240000000000000E-002   -3.803539925540373E-035
 -1.230000000000000E-002   -3.136485657982614E-035
 -1.220000000000000E-002   -1.638064913588297E-035
 -1.210000000000000E-002    8.002280457354105E-036
 -1.200000000000000E-002    4.174031994139544E-035
 -1.190000000000000E-002    8.318215835673222E-035
 -1.180000000000000E-002    1.286573084581933E-034
 -1.170000000000000E-002    1.722308337161201E-034
 -1.160000000000000E-002    2.057366836702326E-034
 -1.150000000000000E-002    2.192026167431438E-034
 -1.140000000000000E-002    2.017612657936358E-034
 -1.130000000000000E-002    1.430994202337903E-034
 -1.120000000000000E-002    3.542829144350923E-035
 -1.110000000000000E-002   -1.241384379171106E-034
 -1.100000000000000E-002   -3.310291380924571E-034
 -1.090000000000000E-002   -5.708390801550819E-034
 -1.080000000000000E-002   -8.176133654664843E-034
 -1.070000000000000E-002   -1.033354015956784E-033
 -1.060000000000000E-002   -1.169345892969016E-033
 -1.050000000000000E-002   -1.169834281150663E-033
 -1.040000000000000E-002   -9.784080793107864E-034
 -1.030000000000000E-002   -5.471285966087812E-034
 -1.020000000000000E-002    1.520077977028461E-034
 -1.010000000000000E-002    1.114249032395479E-033
 -1.000000000000000E-002    2.289516986831082E-033
 -9.899999999999999E-003    3.572303546997210E-033
 -9.800000000000000E-003    4.796730818069002E-033
 -9.699999999999999E-003    5.739679196364319E-033
 -9.599999999999999E-003    6.134686069356150E-033
 -9.500000000000000E-003    5.698566661724297E-033
 -9.399999999999999E-003    4.171338770099073E-033
 -9.299999999999999E-003    1.368011106671864E-033
 -9.200000000000000E-003   -2.761757165260258E-033
 -9.099999999999999E-003   -8.072987428414609E-033
 -8.999999999999999E-003   -1.417338798273871E-032
 -8.900000000000000E-003   -2.039195390997043E-032
 -8.799999999999999E-003   -2.578119483459210E-032
 -8.699999999999999E-003   -2.916532099042912E-032
 -8.600000000000000E-003   -2.924372961480890E-032
 -8.499999999999999E-003   -2.475342219416894E-032
 -8.399999999999999E-003   -1.468563900818585E-032
 -8.300000000000000E-003    1.458691829664810E-033
 -8.199999999999999E-003    2.340201696054289E-032
 -8.100000000000000E-003    4.985078687077859E-032
 -8.000000000000000E-003    7.833214644822652E-032
 -7.899999999999999E-003    1.051600308859420E-031
 -7.800000000000000E-003    1.255817790150347E-031
 -7.699999999999999E-003    1.341450597193002E-031
 -7.599999999999999E-003    1.253032873237417E-031
 -7.499999999999999E-003    9.424576024188528E-032
 -7.399999999999999E-003    3.789826073605401E-032
 -7.299999999999999E-003   -4.400541929903342E-032
 -7.199999999999999E-003   -1.479248807181455E-031
 -7.100000000000000E-003   -2.657673483313945E-031
 -6.999999999999999E-003   -3.845937318292665E-031
 -6.899999999999999E-003   -4.869695531701620E-031
 -6.800000000000000E-003   -5.521154415072148E-031
 -6.699999999999999E-003   -5.579376499764609E-031
 -6.599999999999999E-003   -4.839089470548009E-031
 -6.499999999999999E-003   -3.146309297324296E-031
 -6.399999999999999E-003   -4.375304593058966E-032
 -6.299999999999999E-003    3.222288746210697E-031
 -6.199999999999999E-003    7.608985467790919E-031
 -6.100000000000000E-003    1.232244006036491E-030
 -5.999999999999999E-003    1.679047671082389E-030
 -5.899999999999999E-003    2.029896172950565E-030
 -5.800000000000000E-003    2.205139508584533E-030
 -5.699999999999999E-003    2.125791729998377E-030
 -5.599999999999999E-003    1.724937572028317E-030
 -5.499999999999999E-003    9.607231397898570E-031
 -5.399999999999999E-003   -1.704683194019913E-031
 -5.299999999999999E-003   -1.622463813234893E-030
 -5.199999999999999E-003   -3.291435994265683E-030
 -5.099999999999999E-003   -5.013822532459733E-030
 -4.999999999999999E-003   -6.571869833254299E-030
 -4.899999999999999E-003   -7.708068754638138E-030
 -4.799999999999999E-003   -8.148853804466297E-030
 -4.699999999999999E-003   -7.636778931984686E-030
 -4.599999999999999E-003   -5.969046477294054E-030
 -4.499999999999999E-003   -3.038898657824575E-030
 -4.399999999999999E-003    1.124841847862715E-030
 -4.299999999999999E-003    6.325680355476944E-030
 -4.199999999999999E-003    1.218076950120799E-029
 -4.099999999999999E-003    1.812127583935597E-029
 -3.999999999999999E-003    2.341632207419762E-029
 -3.899999999999999E-003    2.722313212538887E-029
 -3.799999999999999E-003    2.866336324882699E-029
 -3.699999999999999E-003    2.692242955790832E-029
 -3.599999999999999E-003    2.136516406421667E-029
 -3.499999999999999E-003    1.165778775576563E-029
 -3.399999999999999E-003   -2.116743381620866E-030
 -3.299999999999999E-003   -1.936495313929253E-029
 -3.199999999999999E-003   -3.892629824092119E-029
 -3.099999999999999E-003   -5.906875749699446E-029
 -2.999999999999999E-003   -7.754884124792787E-029
 -2.899999999999999E-003   -9.174402143799529E-029
 -2.799999999999999E-003   -9.885952905332509E-029
 -2.699999999999999E-003   -9.620408522137811E-029
 -2.599999999999999E-003   -8.152073999500383E-029
 -2.499999999999999E-003   -5.335027790780302E-029
 -2.399999999999999E-003   -1.139618542911267E-029
 -2.299999999999999E-003    4.314717618333854E-029
 -2.199999999999999E-003    1.073468746794054E-028
 -2.099999999999999E-003    1.764103981322512E-028
 -1.999999999999999E-003    2.437361586222412E-028
 -1.899999999999999E-003    3.011743279954840E-028
 -1.799999999999999E-003    3.395252024564840E-028
 -1.699999999999999E-003    3.492850964858077E-028
 -1.599999999999999E-003    3.216259762947087E-028
 -1.499999999999999E-003    2.495663214318944E-028
 -1.399999999999999E-003    1.292575825279450E-028
 -1.299999999999999E-003   -3.872426682801510E-029
 -1.199999999999999E-003   -2.482258158850336E-028
 -1.099999999999999E-003   -4.866724612563277E-028
 -9.999999999999989E-004   -7.347200553792554E-028
 -8.999999999999990E-004   -9.665859781490717E-028
 -7.999999999999990E-004   -1.151218741182304E-027
 -6.999999999999989E-004   -1.254413166545345E-027
 -5.999999999999990E-004   -1.241895726241699E-027
 -4.999999999999989E-004   -1.083294338383098E-027
 -3.999999999999989E-004   -7.567735044600658E-028
 -2.999999999999989E-004   -2.539679894194989E-028
 -1.999999999999989E-004    4.152946447865554E-028
 -9.999999999999892E-005    1.219115225196276E-027
  1.084202172485504E-018    2.101197016388047E-027
  1.000000000000011E-004    2.980790025787612E-027
  2.000000000000011E-004    3.755543249268458E-027
  3.000000000000011E-004    4.307716061325338E-027
  4.000000000000011E-004    4.513908305849158E-027
  5.000000000000011E-004    4.258075569121889E-027
  6.000000000000011E-004    3.447125124486994E-027
  7.000000000000011E-004    2.027886958561954E-027
  8.000000000000011E-004    3.771183742399507E-030
  9.000000000000012E-004   -2.550972348118542E-027
  1.000000000000001E-003   -5.481709247346616E-027
  1.100000000000001E-003   -8.550913444548655E-027
  1.200000000000001E-003   -1.144474185973406E-026
  1.300000000000001E-003   -1.379014193562249E-026
  1.400000000000001E-003   -1.518302976654435E-026
  1.500000000000001E-003   -1.522690050407155E-026
  1.600000000000001E-003   -1.357985066815064E-026
  1.700000000000001E-003   -1.000655455359918E-026
  1.800000000000001E-003   -4.430380601375840E-027
  1.900000000000001E-003    3.020245491191365E-027
  2.000000000000001E-003    1.197776980441225E-026
  2.100000000000001E-003    2.182029238652641E-026
  2.200000000000001E-003    3.168106250752894E-026
  2.300000000000001E-003    4.048704785226477E-026
  2.400000000000001E-003    4.702866155246024E-026
  2.500000000000001E-003    5.005979425239724E-026
  2.600000000000001E-003    4.842385329378771E-026
  2.700000000000001E-003    4.119789414190328E-026
  2.800000000000001E-003    2.784342772712766E-026
  2.900000000000001E-003    8.349505527260204E-027
  3.000000000000001E-003   -1.664839966611400E-026
  3.100000000000001E-003   -4.579099883082083E-026
  3.200000000000001E-003   -7.697585665314453E-026
  3.300000000000001E-003   -1.074101817131425E-025
  3.400000000000001E-003   -1.337454925154305E-025
  3.500000000000001E-003   -1.522978679552714E-025
  3.600000000000001E-003   -1.593499031598229E-025
  3.700000000000001E-003   -1.515217720394770E-025
  3.800000000000001E-003   -1.261896227017061E-025
  3.900000000000001E-003   -8.192035431066652E-026
  4.000000000000001E-003   -1.888371205424156E-026
  4.100000000000001E-003    6.080355864824070E-026
  4.200000000000001E-003    1.528502725510701E-025
  4.300000000000001E-003    2.507284226109510E-025
  4.400000000000001E-003    3.458191910131744E-025
  4.500000000000001E-003    4.278006854754808E-025
  4.600000000000002E-003    4.852945720133136E-025
  4.700000000000001E-003    5.067679020834501E-025
  4.800000000000001E-003    4.816599787153649E-025
  4.900000000000002E-003    4.016748184780623E-025
  5.000000000000001E-003    2.621484550796762E-025
  5.100000000000001E-003    6.337089231911651E-026
  5.200000000000001E-003   -1.882824798873892E-025
  5.300000000000002E-003   -4.795713693480200E-025
  5.400000000000001E-003   -7.901275839745945E-025
  5.500000000000001E-003   -1.092860247129607E-024
  5.600000000000002E-003   -1.355148374551784E-024
  5.700000000000001E-003   -1.540885894150326E-024
  5.800000000000001E-003   -1.613371014801261E-024
  5.900000000000002E-003   -1.538939760029427E-024
  6.000000000000001E-003   -1.291139429361413E-024
  6.100000000000001E-003   -8.551323934518658E-025
  6.200000000000002E-003   -2.319202891545344E-025
  6.300000000000002E-003    5.580979473947395E-025
  6.400000000000001E-003    1.472764931168927E-024
  6.500000000000001E-003    2.447526706210316E-024
  6.600000000000002E-003    3.396980380275987E-024
  6.700000000000001E-003    4.218943507651724E-024
  6.800000000000001E-003    4.801187022013881E-024
  6.900000000000002E-003    5.030722608322265E-024
  7.000000000000001E-003    4.805238835707229E-024
  7.100000000000001E-003    4.045962783836559E-024
  7.200000000000002E-003    2.710918122787521E-024
  7.300000000000002E-003    8.072847822905426E-025
  7.400000000000001E-003   -1.598615795767509E-024
  7.500000000000001E-003   -4.375248460105120E-024
  7.600000000000002E-003   -7.325159262430564E-024
  7.700000000000001E-003   -1.019083838342974E-023
  7.800000000000001E-003   -1.266791737375246E-023
  7.900000000000001E-003   -1.442587533155770E-023
  8.000000000000002E-003   -1.513569544725762E-023
  8.100000000000001E-003   -1.450309306846897E-023
  8.200000000000001E-003   -1.230510811805151E-023
  8.300000000000002E-003   -8.427067741449856E-024
  8.400000000000001E-003   -2.896316067196100E-024
  8.500000000000002E-003    4.091286866064276E-024
  8.600000000000002E-003    1.215614849754159E-023
  8.700000000000001E-003    2.073473633135349E-023
  8.800000000000002E-003    2.909735392894675E-023
  8.900000000000002E-003    3.638569681451122E-023
  9.000000000000001E-003    4.167040410947321E-023
  9.100000000000002E-003    4.402693130401283E-023
  9.200000000000002E-003    4.262600510771507E-023
  9.300000000000001E-003    3.683276638525255E-023
  9.400000000000002E-003    2.630679998283185E-023
  9.500000000000001E-003    1.109363722634643E-023
  9.600000000000001E-003   -8.302666030974848E-024
  9.700000000000002E-003   -3.087647311071342E-023
  9.800000000000001E-003   -5.511687215610417E-023
  9.900000000000001E-003   -7.905136549340646E-023
  1.000000000000000E-002   -1.003420280543245E-022
  1.010000000000000E-002   -1.164352804049601E-022
  1.020000000000000E-002   -1.247615317627931E-022
  1.030000000000000E-002   -1.229755803519465E-022
  1.040000000000000E-002   -1.092229951427650E-022
  1.050000000000000E-002   -8.241233318998183E-023
  1.060000000000000E-002   -4.246866594890415E-023
  1.070000000000000E-002    9.459286983772434E-024
  1.080000000000000E-002    7.086703491351559E-023
  1.090000000000000E-002    1.378644107157256E-022
  1.100000000000000E-002    2.052706450534559E-022
  1.110000000000000E-002    2.668498240945236E-022
  1.120000000000000E-002    3.156917954087529E-022
  1.130000000000000E-002    3.447307202741254E-022
  1.140000000000000E-002    3.473788401646085E-022
  1.150000000000000E-002    3.182377549146389E-022
  1.160000000000000E-002    2.538347863049907E-022
  1.170000000000000E-002    1.533194759718895E-022
  1.180000000000000E-002    1.904672995529372E-023
  1.190000000000000E-002   -1.430302493396111E-022
  1.200000000000000E-002   -3.232304884279561E-022
  1.210000000000000E-002   -5.083413259283250E-022
  1.220000000000000E-002   -6.821826105856923E-022
  1.230000000000000E-002   -8.265549293899794E-022
  1.240000000000000E-002   -9.225539570719145E-022
  1.250000000000000E-002   -9.521950370252340E-022
  1.260000000000000E-002   -9.002527743089926E-022
  1.270000000000000E-002   -7.561824401560060E-022
  1.280000000000000E-002   -5.159584299216269E-022
  1.290000000000000E-002   -1.836431396143847E-022
  1.300000000000000E-002    2.275083991312736E-022
  1.310000000000000E-002    6.945939560997925E-022
  1.320000000000000E-002    1.185417076494404E-021
  1.330000000000000E-002    1.659758317529519E-021
  1.340000000000000E-002    2.071608684104125E-021
  1.350000000000000E-002    2.372328204276036E-021
  1.360000000000000E-002    2.514601247278503E-021
  1.370000000000000E-002    2.456964897891315E-021
  1.380000000000000E-002    2.168595366666723E-021
  1.390000000000000E-002    1.633962787537063E-021
  1.400000000000000E-002    8.569089910105958E-022
  1.410000000000000E-002   -1.363181459080488E-022
  1.420000000000000E-002   -1.295523806855784E-021
  1.430000000000000E-002   -2.546909204822566E-021
  1.440000000000000E-002   -3.795583951908389E-021
  1.450000000000000E-002   -4.930387632990676E-021
  1.460000000000000E-002   -5.830975194949374E-021
  1.470000000000000E-002   -6.376913781157687E-021
  1.480000000000000E-002   -6.458319020704942E-021
  1.490000000000000E-002   -5.987344443088702E-021
  1.500000000000000E-002   -4.909652041657693E-021
  1.510000000000000E-002   -3.214850642428341E-021
  1.520000000000000E-002   -9.448160381098655E-022
  1.530000000000000E-002    1.801184811668470E-021
  1.540000000000000E-002    4.865537095506271E-021
  1.550000000000000E-002    8.036255177006264E-021
  1.560000000000000E-002    1.105635463682030E-020
  1.570000000000000E-002    1.363867968813038E-020
  1.580000000000000E-002    1.548579319286129E-020
  1.590000000000000E-002    1.631402149647116E-020
  1.600000000000000E-002    1.588024978550559E-020
  1.610000000000000E-002    1.400959347620517E-020
  1.620000000000000E-002    1.062170040150998E-020
  1.630000000000000E-002    5.753187289659200E-021
  1.640000000000000E-002   -4.263399502252550E-022
  1.650000000000000E-002   -7.607096110072030E-021
  1.660000000000000E-002   -1.534278992374334E-020
  1.670000000000000E-002   -2.306658699705468E-020
  1.680000000000000E-002   -3.011994739689631E-020
  1.690000000000000E-002   -3.579392443687228E-020
  1.700000000000000E-002   -3.938136868549907E-020
  1.710000000000000E-002   -4.023729458584109E-020
  1.720000000000000E-002   -3.784355743084919E-020
  1.730000000000000E-002   -3.187300303010783E-020
  1.740000000000000E-002   -2.224755183202301E-020
  1.750000000000000E-002   -9.184345494280234E-021
  1.760000000000000E-002    6.775813899495503E-021
  1.770000000000000E-002    2.476287852700745E-020
  1.780000000000000E-002    4.359881574153867E-020
  1.790000000000000E-002    6.184803971065801E-020
  1.800000000000000E-002    7.789724565442881E-020
  1.810000000000000E-002    9.006240004571203E-020
  1.820000000000000E-002    9.671806679625352E-020
  1.830000000000000E-002    9.644163451859851E-020
  1.840000000000000E-002    8.816263930014526E-020
  1.850000000000000E-002    7.130556194031996E-020
  1.860000000000000E-002    4.591326944223000E-020
  1.870000000000000E-002    1.273798149004174E-020