 -4.000000000000000E-002    0.000000000000000E+000
 -3.990000000000000E-002    0.000000000000000E+000
 -3.980000000000000E-002    0.000000000000000E+000
 -3.970000000000000E-002    0.000000000000000E+000
 -3.960000000000000E-002    0.000000000000000E+000
 -3.950000000000000E-002    0.000000000000000E+000
 -3.940000000000000E-002    0.000000000000000E+000
 -3.930000000000000E-002    0.000000000000000E+000
 -3.920000000000000E-002    0.000000000000000E+000
 -3.910000000000000E-002    0.000000000000000E+000
 -3.900000000000000E-002    0.000000000000000E+000
 -3.890000000000000E-002    0.000000000000000E+000
 -3.880000000000000E-002    0.000000000000000E+000
 -3.870000000000000E-002   -7.266585106048097E-043
 -3.860000000000000E-002   -1.792205585106251E-041
 -3.850000000000000E-002   -2.273863444512312E-040
 -3.840000000000000E-002   -1.975374222022181E-039
 -3.830000000000000E-002   -1.319802637365580E-038
 -3.820000000000000E-002   -7.222410679635630E-038
 -3.810000000000000E-002   -3.366701546493997E-037
 -3.800000000000000E-002   -1.372786334018805E-036
 -3.790000000000000E-002   -4.989943835477349E-036
 -3.780000000000000E-002   -1.639608265384822E-035
 -3.770000000000000E-002   -4.921300891072772E-035
 -3.760000000000000E-002   -1.359961328803296E-034
 -3.750000000000000E-002   -3.480010803072929E-034
 -3.740000000000000E-002   -8.278302073578015E-034
 -3.730000000000000E-002   -1.834494654865338E-033
 -3.720000000000000E-002   -3.787148599622235E-033
 -3.710000000000000E-002   -7.263214947763237E-033
 -3.700000000000000E-002   -1.284861263725459E-032
 -3.690000000000000E-002   -2.064336657563527E-032
 -3.680000000000000E-002   -2.909490391737915E-032
 -3.670000000000000E-002   -3.268538345846919E-032
 -3.660000000000000E-002   -1.789941166074139E-032
 -3.650000000000000E-002    4.303603176332746E-032
 -3.640000000000000E-002    2.007286875276339E-031
 -3.630000000000000E-002    5.385853483550161E-031
 -3.620000000000000E-002    1.181362983762402E-030
 -3.610000000000000E-002    2.296640189489769E-030
 -3.600000000000000E-002    4.079826128165185E-030
 -3.590000000000000E-002    6.709422338295801E-030
 -3.580000000000000E-002    1.025659576232056E-029
 -3.570000000000000E-002    1.453399736620215E-029
 -3.560000000000000E-002    1.887624013998999E-029
 -3.550000000000000E-002    2.186166669250205E-029
 -3.540000000000000E-002    2.101421607975924E-029
 -3.530000000000000E-002    1.256460746084422E-029
 -3.520000000000000E-002   -8.604404424741405E-030
 -3.510000000000000E-002   -4.866575779292240E-029
 -3.500000000000000E-002   -1.140372626275247E-028
 -3.490000000000000E-002   -2.099288995894349E-028
 -3.480000000000000E-002   -3.382597151866300E-028
 -3.470000000000000E-002   -4.951975306081577E-028
 -3.460000000000000E-002   -6.689157311768956E-028
 -3.450000000000000E-002   -8.385544733538978E-028
 -3.440000000000000E-002   -9.756991402945309E-028
 -3.430000000000000E-002   -1.049759725766046E-027
 -3.420000000000000E-002   -1.038194744606802E-027
 -3.410000000000000E-002   -9.412747284784533E-028
 -3.400000000000000E-002   -7.988081216317458E-028
 -3.390000000000000E-002   -7.028578135631326E-028
 -3.380000000000000E-002   -7.962422932616557E-028
 -3.370000000000000E-002   -1.242307562835314E-027
 -3.360000000000000E-002   -2.148423886980760E-027
 -3.350000000000000E-002   -3.426058875812654E-027
 -3.340000000000000E-002   -4.576637326671462E-027
 -3.330000000000000E-002   -4.407498858630365E-027
 -3.320000000000000E-002   -7.084352041494205E-028
 -3.310000000000000E-002    1.004282396603049E-026
 -3.300000000000000E-002    3.283055737800342E-026
 -3.290000000000000E-002    7.393943884404832E-026
 -3.280000000000000E-002    1.402703278212615E-025
 -3.270000000000000E-002    2.379033460756963E-025
 -3.260000000000000E-002    3.697002940501460E-025
 -3.250000000000000E-002    5.318303699720345E-025
 -3.240000000000000E-002    7.092805310340106E-025
 -3.230000000000000E-002    8.706872950671773E-025
 -3.220000000000000E-002    9.632013261547629E-025
 -3.210000000000000E-002    9.085345784746803E-025
 -3.200000000000000E-002    6.018010230510668E-025
 -3.190000000000000E-002   -8.485692362392820E-026
 -3.180000000000000E-002   -1.291659885676623E-024
 -3.170000000000000E-002   -3.151528814025032E-024
 -3.160000000000000E-002   -5.759871014197047E-024
 -3.150000000000000E-002   -9.133437997771450E-024
 -3.140000000000000E-002   -1.315966576220997E-023
 -3.130000000000000E-002   -1.754019528255676E-023
 -3.120000000000000E-002   -2.173508408439390E-023
 -3.110000000000000E-002   -2.491709718468201E-023
 -3.100000000000000E-002   -2.594816150322149E-023
 -3.090000000000000E-002   -2.339198066552700E-023
 -3.080000000000000E-002   -1.557739775529769E-023
 -3.070000000000000E-002   -7.259590611843026E-025
 -3.060000000000000E-002    2.284630951859752E-023
 -3.050000000000000E-002    5.644854644336266E-023
 -3.040000000000000E-002    1.006598988395491E-022
 -3.030000000000000E-002    1.549132669236318E-022
 -3.020000000000000E-002    2.170427757669534E-022
 -3.010000000000000E-002    2.828316730345858E-022
 -3.000000000000000E-002    3.456087733875574E-022
 -2.990000000000000E-002    3.959519083687498E-022
 -2.980000000000000E-002    4.215667048641910E-022
 -2.970000000000000E-002    4.074162351273892E-022
 -2.960000000000000E-002    3.361846337161958E-022
 -2.950000000000000E-002    1.891619941719798E-022
 -2.940000000000000E-002   -5.235596316481759E-023
 -2.930000000000000E-002   -4.050651899932105E-022
 -2.920000000000000E-002   -8.809625633430091E-022
 -2.910000000000000E-002   -1.483913275129668E-021
 -2.900000000000000E-002   -2.205466471947053E-021
 -2.890000000000000E-002   -3.020000410365504E-021
 -2.880000000000000E-002   -3.879411573550412E-021
 -2.870000000000000E-002   -4.707754020479650E-021
 -2.860000000000000E-002   -5.396490033386950E-021
 -2.850000000000000E-002   -5.801315337915080E-021
 -2.840000000000000E-002   -5.741846286649183E-021
 -2.830000000000000E-002   -5.005757976575928E-021
 -2.820000000000000E-002   -3.359171577268163E-021
 -2.810000000000000E-002   -5.651003061281822E-022
 -2.800000000000000E-002    3.588481929359798E-021
 -2.790000000000000E-002    9.250102941074875E-021
 -2.780000000000000E-002    1.645600108608738E-020
 -2.770000000000000E-002    2.507306593940347E-020
 -2.760000000000000E-002    3.473755482027850E-020
 -2.750000000000000E-002    4.479623518930921E-020
 -2.740000000000000E-002    5.425920596884855E-020
 -2.730000000000000E-002    6.177604553713945E-020
 -2.720000000000000E-002    6.564859584624655E-020
 -2.710000000000000E-002    6.389414157817340E-020
 -2.700000000000000E-002    5.437117066467821E-020
 -2.690000000000000E-002    3.497615191775161E-020
 -2.680000000000000E-002    3.913203700028876E-021
 -2.670000000000000E-002   -3.997053212106114E-020
 -2.660000000000000E-002   -9.680279310612935E-020
 -2.650000000000000E-002   -1.652889917350423E-019
 -2.640000000000000E-002   -2.423450681621520E-019
 -2.630000000000000E-002   -3.228164639896684E-019
 -2.620000000000000E-002   -3.993474652768407E-019
 -2.610000000000000E-002   -4.624659099278063E-019
 -2.600000000000000E-002   -5.009424116613065E-019
 -2.590000000000000E-002   -5.024655741355029E-019
 -2.580000000000000E-002   -4.546493114074081E-019
 -2.570000000000000E-002   -3.463505213731630E-019
 -2.560000000000000E-002   -1.692328408782313E-019
 -2.550000000000000E-002    8.053545078683455E-020
 -2.540000000000000E-002    4.006083638048123E-019
 -2.530000000000000E-002    7.810070754136746E-019
 -2.520000000000000E-002    1.203101479614919E-018
 -2.510000000000000E-002    1.639244840608255E-018
 -2.500000000000000E-002    2.053254297954529E-018
 -2.490000000000000E-002    2.401872901201384E-018
 -2.480000000000000E-002    2.637266732595636E-018
 -2.470000000000000E-002    2.710503744712496E-018
 -2.460000000000000E-002    2.575840786251189E-018
 -2.450000000000000E-002    2.195521188193541E-018
 -2.440000000000000E-002    1.544684507588300E-018
 -2.430000000000000E-002    6.159051126431586E-019
 -2.420000000000000E-002   -5.771443441720978E-019
 -2.410000000000000E-002   -1.997387849876211E-018
 -2.400000000000000E-002   -3.583783155059929E-018
 -2.390000000000000E-002   -5.252741510058376E-018
 -2.380000000000000E-002   -6.901566846917932E-018
 -2.370000000000000E-002   -8.413724748361638E-018
 -2.360000000000000E-002   -9.665532721798722E-018
 -2.350000000000000E-002   -1.053367235967176E-017
 -2.340000000000000E-002   -1.090281387435386E-017
 -2.330000000000000E-002   -1.067261884411798E-017
 -2.320000000000000E-002   -9.763483758454836E-018
 -2.310000000000000E-002   -8.120599176626918E-018
 -2.300000000000000E-002   -5.716216994819774E-018
 -2.290000000000000E-002   -2.550364922733471E-018
 -2.280000000000000E-002    1.349368315041153E-018
 -2.270000000000000E-002    5.928048989184229E-018
 -2.260000000000000E-002    1.110254506714678E-017
 -2.250000000000000E-002    1.675857802239992E-017
 -2.240000000000000E-002    2.274492433284030E-017
 -2.230000000000000E-002    2.886461827541102E-017
 -2.220000000000000E-002    3.486374203859045E-017
 -2.210000000000000E-002    4.041937542594124E-017
 -2.200000000000000E-002    4.512922747705884E-017
 -2.190000000000000E-002    4.850628239744298E-017
 -2.180000000000000E-002    4.998237796973355E-017
 -2.170000000000000E-002    4.892456522138247E-017
 -2.160000000000000E-002    4.466762466314409E-017
 -2.150000000000000E-002    3.656465706120160E-017
 -2.140000000000000E-002    2.405578117117852E-017
 -2.130000000000000E-002    6.752330051787909E-018
 -2.120000000000000E-002   -1.546896083055005E-017
 -2.110000000000000E-002   -4.237038035250289E-017
 -2.100000000000000E-002   -7.326712953233792E-017
 -2.090000000000000E-002   -1.069635060100582E-016
 -2.080000000000000E-002   -1.417245080960256E-016
 -2.070000000000000E-002   -1.752946644072889E-016
 -2.060000000000000E-002   -2.049731831192501E-016
 -2.050000000000000E-002   -2.277495906381130E-016
 -2.040000000000000E-002   -2.404979280262330E-016
 -2.030000000000000E-002   -2.402204580186192E-016
 -2.020000000000000E-002   -2.243245695203846E-016
 -2.010000000000000E-002   -1.909099709021029E-016
 -2.000000000000000E-002   -1.390385096699674E-016
 -1.990000000000000E-002   -6.895663252556651E-017
 -1.980000000000000E-002    1.775813691658119E-017
 -1.970000000000000E-002    1.181510262295455E-016
 -1.960000000000000E-002    2.279596599949073E-016
 -1.950000000000000E-002    3.418038186067319E-016
 -1.940000000000000E-002    4.534865013503958E-016
 -1.930000000000000E-002    5.563828624809994E-016
 -1.920000000000000E-002    6.438827611146430E-016
 -1.910000000000000E-002    7.098415135846286E-016
 -1.900000000000000E-002    7.489905935376856E-016
 -1.890000000000000E-002    7.572608591151209E-016
 -1.880000000000000E-002    7.319800157280667E-016
 -1.870000000000000E-002    6.719201794841389E-016
 -1.860000000000000E-002    5.771925847714295E-016
 -1.850000000000000E-002    4.490080735401915E-016
 -1.840000000000000E-002    2.893463357173264E-016
 -1.830000000000000E-002    1.005963053514530E-016
 -1.820000000000000E-002   -1.147574981560678E-016
 -1.810000000000000E-002   -3.543233455469077E-016
 -1.800000000000000E-002   -6.157949865047766E-016
 -1.790000000000000E-002   -8.967001317762753E-016
 -1.780000000000000E-002   -1.193887925547590E-015
 -1.770000000000000E-002   -1.502779861648643E-015
 -1.760000000000000E-002   -1.816456714458600E-015
 -1.750000000000000E-002   -2.124697560509510E-015
 -1.740000000000000E-002   -2.413123923494134E-015
 -1.730000000000000E-002   -2.662626989479182E-015
 -1.720000000000000E-002   -2.849258416026551E-015
 -1.710000000000000E-002   -2.944742978424343E-015
 -1.700000000000000E-002   -2.917727947538263E-015
 -1.690000000000000E-002   -2.735815387271544E-015
 -1.680000000000000E-002   -2.368329152683190E-015
 -1.670000000000000E-002   -1.789683655200814E-015
 -1.660000000000000E-002   -9.831029586816030E-016
 -1.650000000000000E-002    5.562619702041227E-017
 -1.640000000000000E-002    1.314764027024658E-015
 -1.630000000000000E-002    2.764005849063077E-015
 -1.620000000000000E-002    4.353044258757274E-015
 -1.610000000000000E-002    6.011650772441293E-015
 -1.600000000000000E-002    7.651504071429755E-015
 -1.590000000000000E-002    9.169843607484968E-015
 -1.580000000000000E-002    1.045485969636919E-014
 -1.570000000000000E-002    1.139254233500530E-014
 -1.560000000000000E-002    1.187453347689012E-014
 -1.550000000000000E-002    1.180639087069209E-014
 -1.540000000000000E-002    1.111556528617936E-014
 -1.530000000000000E-002    9.758375184874614E-015
 -1.520000000000000E-002    7.725302799633169E-015
 -1.510000000000000E-002    5.044046385935267E-015
 -1.500000000000000E-002    1.779974711828103E-015
 -1.490000000000000E-002   -1.966146433118311E-015
 -1.480000000000000E-002   -6.062994649993035E-015
 -1.470000000000000E-002   -1.035568165687376E-014
 -1.460000000000000E-002   -1.467422804241851E-014
 -1.450000000000000E-002   -1.884266844489227E-014
 -1.440000000000000E-002   -2.268785038557908E-014
 -1.430000000000000E-002   -2.604701295620989E-014
 -1.420000000000000E-002   -2.877337217524221E-014
 -1.410000000000000E-002   -3.073916353948789E-014
 -1.400000000000000E-002   -3.183597087264941E-014
 -1.390000000000000E-002   -3.197252834650512E-014
 -1.380000000000000E-002   -3.107063203159413E-014
 -1.370000000000000E-002   -2.906016832426823E-014
 -1.360000000000000E-002   -2.587453838595575E-014
 -1.350000000000000E-002   -2.144798003540316E-014
 -1.340000000000000E-002   -1.571613893187744E-014
 -1.330000000000000E-002   -8.621214133187461E-015
 -1.320000000000000E-002   -1.223288890758656E-016
 -1.310000000000000E-002    9.788558624772933E-015
 -1.300000000000000E-002    2.106595350570606E-014
 -1.290000000000000E-002    3.358662429291614E-014
 -1.280000000000000E-002    4.712425064557647E-014
 -1.270000000000000E-002    6.132589229750214E-014
 -1.260000000000000E-002    7.569369845622100E-014
 -1.250000000000000E-002    8.957567648884445E-014
 -1.240000000000000E-002    1.021689650984810E-013
 -1.230000000000000E-002    1.125385473641109E-013
 -1.220000000000000E-002    1.196533840101759E-013
 -1.210000000000000E-002    1.224403449112420E-013
 -1.200000000000000E-002    1.198547993873674E-013
 -1.190000000000000E-002    1.109645545380960E-013
 -1.180000000000000E-002    9.504225707170096E-014
 -1.170000000000000E-002    7.165931953168820E-014
 -1.160000000000000E-002    4.077346663586152E-014
 -1.150000000000000E-002    2.801023904218473E-015
 -1.140000000000000E-002   -4.133453262557075E-014
 -1.130000000000000E-002   -9.018579753487666E-014
 -1.120000000000000E-002   -1.418018272046718E-013
 -1.110000000000000E-002   -1.937893620119034E-013
 -1.100000000000000E-002   -2.434145583438689E-013
 -1.090000000000000E-002   -2.877414854340306E-013
 -1.080000000000000E-002   -3.238000543003040E-013
 -1.070000000000000E-002   -3.487723168881568E-013
 -1.060000000000000E-002   -3.601837526282731E-013
 -1.050000000000000E-002   -3.560844339764991E-013
 -1.040000000000000E-002   -3.352048494665140E-013
 -1.030000000000000E-002   -2.970724155924333E-013
 -1.020000000000000E-002   -2.420778756316502E-013
 -1.010000000000000E-002   -1.714843507940508E-013
 -1.000000000000000E-002   -8.737785782508365E-014
 -9.899999999999999E-003    7.436975614228704E-015
 -9.800000000000000E-003    1.095863144313291E-013
 -9.699999999999999E-003    2.153073655246691E-013
 -9.599999999999999E-003    3.206420253864588E-013
 -9.500000000000000E-003    4.216253152307019E-013
 -9.399999999999999E-003    5.144504751369428E-013
 -9.299999999999999E-003    5.955968595397846E-013
 -9.200000000000000E-003    6.619111225822836E-013
 -9.099999999999999E-003    7.106402675321380E-013
 -8.999999999999999E-003    7.394223332112545E-013
 -8.900000000000000E-003    7.462480589708419E-013
 -8.799999999999999E-003    7.294128096916744E-013
 -8.699999999999999E-003    6.874826468373162E-013
 -8.600000000000000E-003    6.192969648602319E-013
 -8.499999999999999E-003    5.240293154073841E-013
 -8.399999999999999E-003    4.013178488539221E-013
 -8.300000000000000E-003    2.514684273170068E-013
 -8.199999999999999E-003    7.571949284830171E-014
 -8.100000000000000E-003   -1.234561591238663E-013
 -8.000000000000000E-003   -3.420507951169136E-013
 -7.899999999999999E-003   -5.742700144730695E-013
 -7.800000000000000E-003   -8.123839365603796E-013
 -7.699999999999999E-003   -1.046732390527470E-012
 -7.599999999999999E-003   -1.265929734271358E-012
 -7.499999999999999E-003   -1.457296951007390E-012
 -7.399999999999999E-003   -1.607528010957560E-012
 -7.299999999999999E-003   -1.703569291564367E-012
 -7.199999999999999E-003   -1.733662546356591E-012
 -7.100000000000000E-003   -1.688473694554342E-012
 -6.999999999999999E-003   -1.562204874646761E-012
 -6.899999999999999E-003   -1.353574493605419E-012
 -6.800000000000000E-003   -1.066543156070150E-012
 -6.699999999999999E-003   -7.106741838473530E-013
 -6.599999999999999E-003   -3.010400661343549E-013
 -6.499999999999999E-003    1.423780237358500E-013
 -6.399999999999999E-003    5.958044120271461E-013
 -6.299999999999999E-003    1.033249191815734E-012
 -6.199999999999999E-003    1.428454129792327E-012
 -6.100000000000000E-003    1.757053559722405E-012
 -5.999999999999999E-003    1.998759711190291E-012
 -5.899999999999999E-003    2.139362666969219E-012
 -5.800000000000000E-003    2.172328388985937E-012
 -5.699999999999999E-003    2.099801609675036E-012
 -5.599999999999999E-003    1.932863153937818E-012
 -5.499999999999999E-003    1.690950572729106E-012
 -5.399999999999999E-003    1.400432796601591E-012
 -5.299999999999999E-003    1.092409828560887E-012
 -5.199999999999999E-003    7.998950783192682E-013
 -5.099999999999999E-003    5.546106484891927E-013
 -4.999999999999999E-003    3.836784748517808E-013
 -4.899999999999999E-003    3.065275715710028E-013
 -4.799999999999999E-003    3.323266068438834E-013
 -4.699999999999999E-003    4.582241935989653E-013
 -4.599999999999999E-003    6.686192477660842E-013
 -4.499999999999999E-003    9.355863984811627E-013
 -4.399999999999999E-003    1.220489059817841E-012
 -4.299999999999999E-003    1.476689145620768E-012
 -4.199999999999999E-003    1.653170749045152E-012
 -4.099999999999999E-003    1.698788080962528E-012
 -3.999999999999999E-003    1.566800774097499E-012
 -3.899999999999999E-003    1.219314586054038E-012
 -3.799999999999999E-003    6.312590591077691E-013
 -3.699999999999999E-003   -2.064300072087776E-013
 -3.599999999999999E-003   -1.284683402828260E-012
 -3.499999999999999E-003   -2.575389115628171E-012
 -3.399999999999999E-003   -4.031758967782835E-012
 -3.299999999999999E-003   -5.589927562008229E-012
 -3.199999999999999E-003   -7.171628928316021E-012
 -3.099999999999999E-003   -8.687744823263834E-012
 -2.999999999999999E-003   -1.004246734138102E-011
 -2.899999999999999E-003   -1.113779459274040E-011
 -2.799999999999999E-003   -1.187812369541515E-011
 -2.699999999999999E-003   -1.217473156360694E-011
 -2.599999999999999E-003   -1.195001846961775E-011
 -2.499999999999999E-003   -1.114142940560422E-011
 -2.399999999999999E-003   -9.705048792638691E-012
 -2.299999999999999E-003   -7.618891637835185E-012
 -2.199999999999999E-003   -4.885933461247313E-012
 -2.099999999999999E-003   -1.536874715579754E-012
 -1.999999999999999E-003    2.367400300286594E-012
 -1.899999999999999E-003    6.733811066821482E-012
 -1.799999999999999E-003    1.143574386780823E-011
 -1.699999999999999E-003    1.631273327842939E-011
 -1.599999999999999E-003    2.117156047976343E-011
 -1.499999999999999E-003    2.578922052034733E-011
 -1.399999999999999E-003    2.991819208621094E-011
 -1.299999999999999E-003    3.329433785903987E-011
 -1.199999999999999E-003    3.564763165053589E-011
 -1.099999999999999E-003    3.671566047524375E-011
 -9.999999999999989E-004    3.625958828610125E-011
 -8.999999999999990E-004    3.408193436173090E-011
 -7.999999999999990E-004    3.004522752003644E-011
 -6.999999999999989E-004    2.409029885469546E-011
 -5.999999999999990E-004    1.625275835665864E-011
 -4.999999999999989E-004    6.676081991598521E-012
 -3.999999999999989E-004   -4.380267864159594E-012
 -2.999999999999989E-004   -1.653910268428546E-011
 -1.999999999999989E-004   -2.931129143320032E-011
 -9.999999999999892E-005   -4.210977860647315E-011
  1.084202172485504E-018   -5.427198681833113E-011
  1.000000000000011E-004   -6.509014762161098E-011
  2.000000000000011E-004   -7.384843706687907E-011
  3.000000000000011E-004   -7.986514533170794E-011
  4.000000000000011E-004   -8.253755600822165E-011
  5.000000000000011E-004   -8.138676192370566E-011
  6.000000000000011E-004   -7.609934294857059E-011
  7.000000000000011E-004   -6.656285592638502E-011
  8.000000000000011E-004   -5.289213210508015E-011
  9.000000000000012E-004   -3.544384059234439E-011
  1.000000000000001E-003   -1.481738901072516E-011
  1.100000000000001E-003    8.159061516188505E-012
  1.200000000000001E-003    3.245767651862450E-011
  1.300000000000001E-003    5.689443657816082E-011
  1.400000000000001E-003    8.018530246052006E-011
  1.500000000000001E-003    1.010124287901014E-010
  1.600000000000001E-003    1.180969970629549E-010
  1.700000000000001E-003    1.302746223897825E-010
  1.800000000000001E-003    1.365689523427912E-010
  1.900000000000001E-003    1.362589464791465E-010
  2.000000000000001E-003    1.289355139847717E-010
  2.100000000000001E-003    1.145436703469885E-010
  2.200000000000001E-003    9.340699698970047E-011
  2.300000000000001E-003    6.623220239594330E-011
  2.400000000000001E-003    3.409259325931675E-011
  2.500000000000001E-003   -1.609593282007931E-012
  2.600000000000001E-003   -3.920077058759586E-011
  2.700000000000001E-003   -7.681119804174718E-011
  2.800000000000001E-003   -1.124644441759514E-010
  2.900000000000001E-003   -1.441767921524392E-010
  3.000000000000001E-003   -1.700617420721913E-010
  3.100000000000001E-003   -1.884342406001503E-010
  3.200000000000001E-003   -1.979091124945439E-010
  3.300000000000001E-003   -1.974883970598109E-010
  3.400000000000001E-003   -1.866325531854322E-010
  3.500000000000001E-003   -1.653112372467129E-010
  3.600000000000001E-003   -1.340302554977126E-010
  3.700000000000001E-003   -9.383224990344579E-011
  3.800000000000001E-003   -4.627002367174185E-011
  3.900000000000001E-003    6.647373791578902E-012
  4.000000000000001E-003    6.253428948678494E-011
  4.100000000000001E-003    1.187309783255222E-010
  4.200000000000001E-003    1.724248714686294E-010
  4.300000000000001E-003    2.207854221758874E-010
  4.400000000000001E-003    2.611061646135509E-010
  4.500000000000001E-003    2.909473104301528E-010
  4.600000000000002E-003    3.082712541113601E-010
  4.700000000000001E-003    3.115637534321759E-010
  4.800000000000001E-003    2.999335421845222E-010
  4.900000000000002E-003    2.731838542119304E-010
  5.000000000000001E-003    2.318504602787647E-010
  5.100000000000001E-003    1.772021453339766E-010
  5.200000000000001E-003    1.112014551129478E-010
  5.300000000000002E-003    3.642552477633970E-011
  5.400000000000001E-003   -4.405085014203110E-011
  5.500000000000001E-003   -1.268054572690702E-010
  5.600000000000002E-003   -2.082454245478898E-010
  5.700000000000001E-003   -2.848015879393045E-010
  5.800000000000001E-003   -3.531297901057562E-010
  5.900000000000002E-003   -4.103070350199442E-010
  6.000000000000001E-003   -4.540100296513928E-010
  6.100000000000001E-003   -4.826634628212005E-010
  6.200000000000002E-003   -4.955465082004897E-010
  6.300000000000002E-003   -4.928476444546623E-010
  6.400000000000001E-003   -4.756605491608186E-010
  6.500000000000001E-003   -4.459171408160265E-010
  6.600000000000002E-003   -4.062576413761494E-010
  6.700000000000001E-003   -3.598418871943212E-010
  6.800000000000001E-003   -3.101105527584465E-010
  6.900000000000002E-003   -2.605088765726682E-010
  7.000000000000001E-003   -2.141896218486263E-010
  7.100000000000001E-003   -1.737146964906821E-010
  7.200000000000002E-003   -1.407770725959141E-010
  7.300000000000002E-003   -1.159651541213903E-010
  7.400000000000001E-003   -9.859096639824667E-011
  7.500000000000001E-003   -8.660190374697641E-011
  7.600000000000002E-003   -7.659094858565390E-011
  7.700000000000001E-003   -6.391697387157156E-011
  7.800000000000001E-003   -4.293853761384593E-011
  7.900000000000001E-003   -7.358780052807927E-012
  8.000000000000002E-003    4.932852209625934E-011
  8.100000000000001E-003    1.333095738640520E-010
  8.200000000000001E-003    2.498638765978211E-010
  8.300000000000002E-003    4.027500472345217E-010
  8.400000000000001E-003    5.936016780703609E-010
  8.500000000000002E-003    8.213718679961622E-010
  8.600000000000002E-003    1.081867426204370E-009
  8.700000000000001E-003    1.367411886539465E-009
  8.800000000000002E-003    1.666673426200033E-009
  8.900000000000002E-003    1.964687544214378E-009
  9.000000000000001E-003    2.243096005435115E-009
  9.100000000000002E-003    2.480615493989907E-009
  9.200000000000002E-003    2.653735381481038E-009
  9.300000000000001E-003    2.737635771081572E-009
  9.400000000000002E-003    2.707301811160777E-009
  9.500000000000001E-003    2.538800679087609E-009
  9.600000000000001E-003    2.210679644397978E-009
  9.700000000000002E-003    1.705428580283946E-009
  9.800000000000001E-003    1.010957549968660E-009
  9.900000000000001E-003    1.220224126137002E-010
  1.000000000000000E-002   -9.584526840469775E-010
  1.010000000000000E-002   -2.218214605927159E-009
  1.020000000000000E-002   -3.634725941046178E-009
  1.030000000000000E-002   -5.174450180217320E-009
  1.040000000000000E-002   -6.792403665313453E-009
  1.050000000000000E-002   -8.431978997141139E-009
  1.060000000000000E-002   -1.002503697043820E-008
  1.070000000000000E-002   -1.149224287713551E-008
  1.080000000000000E-002   -1.274361871505722E-008
  1.090000000000000E-002   -1.367925708595247E-008
  1.100000000000000E-002   -1.419014865425625E-008
  1.110000000000000E-002   -1.415905671074568E-008
  1.120000000000000E-002   -1.346138421031314E-008
  1.130000000000000E-002   -1.196596148409123E-008
  1.140000000000000E-002   -9.535705052534390E-009
  1.150000000000000E-002   -6.028095989146293E-009
  1.160000000000000E-002   -1.295446323596726E-009
  1.170000000000000E-002    4.815092659709903E-009
  1.180000000000000E-002    1.246175988347814E-008
  1.190000000000000E-002    2.180868183394584E-008
  1.200000000000000E-002    3.302660099515273E-008
  1.210000000000000E-002    4.629382058148604E-008
  1.220000000000000E-002    6.179733111494973E-008
  1.230000000000000E-002    7.973405131090830E-008
  1.240000000000000E-002    1.003121676024859E-007
  1.250000000000000E-002    1.237524637516085E-007
  1.260000000000000E-002    1.502896556565070E-007
  1.270000000000000E-002    1.801735916352062E-007
  1.280000000000000E-002    2.136703635792618E-007
  1.290000000000000E-002    2.510631596530916E-007
  1.300000000000000E-002    2.926529306900055E-007
  1.310000000000000E-002    3.387587642981411E-007
  1.320000000000000E-002    3.897180535366248E-007
  1.330000000000000E-002    4.458862187243936E-007
  1.340000000000000E-002    5.076363538663098E-007
  1.350000000000000E-002    5.753584517672644E-007
  1.360000000000000E-002    6.494584045452982E-007
  1.370000000000000E-002    7.303570532759946E-007
  1.380000000000000E-002    8.184887729344224E-007
  1.390000000000000E-002    9.143005147153705E-007
  1.400000000000000E-002    1.018250438731179E-006
  1.410000000000000E-002    1.130807070546118E-006
  1.420000000000000E-002    1.252448641228313E-006
  1.430000000000000E-002    1.383662834693207E-006
  1.440000000000000E-002    1.524946943016164E-006
  1.450000000000000E-002    1.676808540620624E-006
  1.460000000000000E-002    1.839767113220004E-006
  1.470000000000000E-002    2.014355647739764E-006
  1.480000000000000E-002    2.201123847490129E-006
  1.490000000000000E-002    2.400640761827525E-006
  1.500000000000000E-002    2.613499263574779E-006
  1.510000000000000E-002    2.840320003270489E-006
  1.520000000000000E-002    3.081755677728452E-006
  1.530000000000000E-002    3.338496835625657E-006
  1.540000000000000E-002    3.611276072537888E-006
  1.550000000000000E-002    3.900873053278576E-006
  1.560000000000000E-002    4.208120010516762E-006
  1.570000000000000E-002    4.533905181447029E-006
  1.580000000000000E-002    4.879178053604191E-006
  1.590000000000000E-002    5.244951793422713E-006
  1.600000000000000E-002    5.632307702513025E-006
  1.610000000000000E-002    6.042397307159028E-006
  1.620000000000000E-002    6.476445183431715E-006
  1.630000000000000E-002    6.935751200409267E-006
  1.640000000000000E-002    7.421693026622892E-006
  1.650000000000000E-002    7.935727215294994E-006
  1.660000000000000E-002    8.479392499506851E-006
  1.670000000000000E-002    9.054312265303240E-006
  1.680000000000000E-002    9.662197252291241E-006
  1.690000000000000E-002    1.030484887762070E-005
  1.700000000000000E-002    1.098416368657228E-005
  1.710000000000000E-002    1.170213875419659E-005
  1.720000000000000E-002    1.246087738533116E-005
  1.730000000000000E-002    1.326259354150986E-005
  1.740000000000000E-002    1.410962111435324E-005
  1.750000000000000E-002    1.500442036322398E-005
  1.760000000000000E-002    1.594958521586655E-005
  1.770000000000000E-002    1.694785199708945E-005
  1.780000000000000E-002    1.800210914807297E-005
  1.790000000000000E-002    1.911540318110916E-005
  1.800000000000000E-002    2.029094740016609E-005
  1.810000000000000E-002    2.153213117496423E-005
  1.820000000000000E-002    2.284252746238663E-005
  1.830000000000000E-002    2.422589798906011E-005
  1.840000000000000E-002    2.568620187874979E-005
  1.850000000000000E-002    2.722760259739035E-005
  1.860000000000000E-002    2.885447120115637E-005
  1.870000000000000E-002    3.057139598640895E-005