 -4.000000000000000E-002    0.000000000000000E+000
 -3.990000000000000E-002    0.000000000000000E+000
 -3.980000000000000E-002    0.000000000000000E+000
 -3.970000000000000E-002    0.000000000000000E+000
 -3.960000000000000E-002    0.000000000000000E+000
 -3.950000000000000E-002    0.000000000000000E+000
 -3.940000000000000E-002    0.000000000000000E+000
 -3.930000000000000E-002    0.000000000000000E+000
 -3.920000000000000E-002    0.000000000000000E+000
 -3.910000000000000E-002    0.000000000000000E+000
 -3.900000000000000E-002   -5.740809066881476E-034
 -3.890000000000000E-002   -1.090979729721447E-032
 -3.880000000000000E-002   -1.073435057420696E-031
 -3.870000000000000E-002   -7.270052980271801E-031
 -3.860000000000000E-002   -3.801846197336150E-030
 -3.850000000000000E-002   -1.632561883721905E-029
 -3.840000000000000E-002   -5.977100856651902E-029
 -3.830000000000000E-002   -1.912164567003728E-028
 -3.820000000000000E-002   -5.433608672112289E-028
 -3.810000000000000E-002   -1.385886019603033E-027
 -3.800000000000000E-002   -3.189900413714352E-027
 -3.790000000000000E-002   -6.624495048819825E-027
 -3.780000000000000E-002   -1.230996742799221E-026
 -3.770000000000000E-002   -1.998065888506820E-026
 -3.760000000000000E-002   -2.647796093196680E-026
 -3.750000000000000E-002   -2.175591143334028E-026
 -3.740000000000000E-002    1.802467474651229E-026
 -3.730000000000000E-002    1.409644471309141E-025
 -3.720000000000000E-002    4.330904329562736E-025
 -3.710000000000000E-002    1.032661844298532E-024
 -3.700000000000000E-002    2.138829457002659E-024
 -3.690000000000000E-002    4.003016926484227E-024
 -3.680000000000000E-002    6.884990218718266E-024
 -3.670000000000000E-002    1.094968630081464E-023
 -3.660000000000000E-002    1.607836628132117E-023
 -3.650000000000000E-002    2.157285176177229E-023
 -3.640000000000000E-002    2.574980936201179E-023
 -3.630000000000000E-002    2.545860087835204E-023
 -3.620000000000000E-002    1.561452975691451E-023
 -3.610000000000000E-002   -1.108172527343786E-023
 -3.600000000000000E-002   -6.397697710392719E-023
 -3.590000000000000E-002   -1.535060859108863E-022
 -3.580000000000000E-002   -2.890519183964259E-022
 -3.570000000000000E-002   -4.752750437581067E-022
 -3.560000000000000E-002   -7.067336663895115E-022
 -3.550000000000000E-002   -9.609607575505090E-022
 -3.540000000000000E-002   -1.190714382527192E-021
 -3.530000000000000E-002   -1.316853353329044E-021
 -3.520000000000000E-002   -1.224142062766615E-021
 -3.510000000000000E-002   -7.631008690365938E-022
 -3.500000000000000E-002    2.384384963736574E-022
 -3.490000000000000E-002    1.950449288255944E-021
 -3.480000000000000E-002    4.499828471323457E-021
 -3.470000000000000E-002    7.913027223513856E-021
 -3.460000000000000E-002    1.204529425469547E-020
 -3.450000000000000E-002    1.650457437784752E-020
 -3.440000000000000E-002    2.058399989713696E-020
 -3.430000000000000E-002    2.322290322090183E-020
 -3.420000000000000E-002    2.302107373456069E-020
 -3.410000000000000E-002    1.833285633651447E-020
 -3.400000000000000E-002    7.464713253958310E-021
 -3.390000000000000E-002   -1.100971160565995E-020
 -3.380000000000000E-002   -3.782052254927549E-020
 -3.370000000000000E-002   -7.248744705225208E-020
 -3.360000000000000E-002   -1.127816877547785E-019
 -3.350000000000000E-002   -1.542597394422008E-019
 -3.340000000000000E-002   -1.899973311222233E-019
 -3.330000000000000E-002   -2.106731394170840E-019
 -3.320000000000000E-002   -2.051535727333774E-019
 -3.310000000000000E-002   -1.617029497123079E-019
 -3.300000000000000E-002   -6.987973113257210E-020
 -3.290000000000000E-002    7.692332756527809E-020
 -3.280000000000000E-002    2.784768947809686E-019
 -3.270000000000000E-002    5.245979504966746E-019
 -3.260000000000000E-002    7.924355022163829E-019
 -3.250000000000000E-002    1.044824193772010E-018
 -3.240000000000000E-002    1.230456983676208E-018
 -3.230000000000000E-002    1.286615905060548E-018
 -3.220000000000000E-002    1.145052587507275E-018
 -3.210000000000000E-002    7.413017157391937E-019
 -3.200000000000000E-002    2.723539470979439E-020
 -3.190000000000000E-002   -1.013953235000199E-018
 -3.180000000000000E-002   -2.351864204091992E-018
 -3.170000000000000E-002   -3.894352280278621E-018
 -3.160000000000000E-002   -5.477192912881500E-018
 -3.150000000000000E-002   -6.861175401919571E-018
 -3.140000000000000E-002   -7.739816189599284E-018
 -3.130000000000000E-002   -7.760343358975032E-018
 -3.120000000000000E-002   -6.559464997467669E-018
 -3.110000000000000E-002   -3.813693269240905E-018
 -3.100000000000000E-002    6.982687330639023E-019
 -3.090000000000000E-002    7.026173691695692E-018
 -3.080000000000000E-002    1.497963938943952E-017
 -3.070000000000000E-002    2.407035436117271E-017
 -3.060000000000000E-002    3.347660915909917E-017
 -3.050000000000000E-002    4.204198271464934E-017
 -3.040000000000000E-002    4.831867390224818E-017
 -3.030000000000000E-002    5.066282404723751E-017
 -3.020000000000000E-002    4.738410974634688E-017
 -3.010000000000000E-002    3.694526363822459E-017
 -3.000000000000000E-002    1.819935376830230E-017
 -2.990000000000000E-002   -9.355395608123981E-018
 -2.980000000000000E-002   -4.533071588924281E-017
 -2.970000000000000E-002   -8.824628097939538E-017
 -2.960000000000000E-002   -1.354057373056317E-016
 -2.950000000000000E-002   -1.828841013931219E-016
 -2.940000000000000E-002   -2.256535175640917E-016
 -2.930000000000000E-002   -2.578628694963644E-016
 -2.920000000000000E-002   -2.732715350477649E-016
 -2.910000000000000E-002   -2.658188546840986E-016
 -2.900000000000000E-002   -2.302916028128363E-016
 -2.890000000000000E-002   -1.630331077977311E-016
 -2.880000000000000E-002   -6.262378226898630E-017
 -2.870000000000000E-002    6.954540678466807E-017
 -2.860000000000000E-002    2.288844478800629E-016
 -2.850000000000000E-002    4.074684154390193E-016
 -2.840000000000000E-002    5.942020127141149E-016
 -2.830000000000000E-002    7.753037995083062E-016
 -2.820000000000000E-002    9.350962506194537E-016
 -2.810000000000000E-002    1.057051175064128E-015
 -2.800000000000000E-002    1.125008391426393E-015
 -2.790000000000000E-002    1.124459266446157E-015
 -2.780000000000000E-002    1.043775992676353E-015
 -2.770000000000000E-002    8.752682833569408E-016
 -2.760000000000000E-002    6.159696712769241E-016
 -2.750000000000000E-002    2.680890161106365E-016
 -2.740000000000000E-002   -1.608910813107155E-016
 -2.730000000000000E-002   -6.584373410596313E-016
 -2.720000000000000E-002   -1.207431391317734E-015
 -2.710000000000000E-002   -1.786764243408031E-015
 -2.700000000000000E-002   -2.371930062396116E-015
 -2.690000000000000E-002   -2.935504577431101E-015
 -2.680000000000000E-002   -3.447429550947004E-015
 -2.670000000000000E-002   -3.875097841400184E-015
 -2.660000000000000E-002   -4.183314737937158E-015
 -2.650000000000000E-002   -4.334309387803365E-015
 -2.640000000000000E-002   -4.288049306239490E-015
 -2.630000000000000E-002   -4.003167795419139E-015
 -2.620000000000000E-002   -3.438821219390519E-015
 -2.610000000000000E-002   -2.557734555532145E-015
 -2.600000000000000E-002   -1.330573754853020E-015
 -2.590000000000000E-002    2.584117330487660E-016
 -2.580000000000000E-002    2.204777887763255E-015
 -2.570000000000000E-002    4.476880497742689E-015
 -2.560000000000000E-002    7.009315833285767E-015
 -2.550000000000000E-002    9.697859628491959E-015
 -2.540000000000000E-002    1.239707654393910E-014
 -2.530000000000000E-002    1.492173394201205E-014
 -2.520000000000000E-002    1.705297443310614E-014
 -2.510000000000000E-002    1.854980831385035E-014
 -2.500000000000000E-002    1.916595133039373E-014
 -2.490000000000000E-002    1.867133656003444E-014
 -2.480000000000000E-002    1.687689264352987E-014
 -2.470000000000000E-002    1.366046036227861E-014
 -2.460000000000000E-002    8.991121585186090E-015
 -2.450000000000000E-002    2.948839215200984E-015
 -2.440000000000000E-002   -4.263694017425675E-015
 -2.430000000000000E-002   -1.231976569192706E-014
 -2.420000000000000E-002   -2.077987636904855E-014
 -2.410000000000000E-002   -2.911627034265330E-014
 -2.400000000000000E-002   -3.675008796165257E-014
 -2.390000000000000E-002   -4.309871570051021E-014
 -2.380000000000000E-002   -4.762941229671320E-014
 -2.370000000000000E-002   -4.991373464900822E-014
 -2.360000000000000E-002   -4.967653350332233E-014
 -2.350000000000000E-002   -4.683291837506684E-014
 -2.340000000000000E-002   -4.150720948110479E-014
 -2.330000000000000E-002   -3.402932895040551E-014
 -2.320000000000000E-002   -2.490629499575194E-014
 -2.310000000000000E-002   -1.476944091812640E-014
 -2.300000000000000E-002   -4.301190002454073E-015
 -2.290000000000000E-002    5.851537054683018E-015
 -2.280000000000000E-002    1.516731612621031E-014
 -2.270000000000000E-002    2.333185024468072E-014
 -2.260000000000000E-002    3.029875719751826E-014
 -2.250000000000000E-002    3.631792942137680E-014
 -2.240000000000000E-002    4.192258778877855E-014
 -2.230000000000000E-002    4.787022395399745E-014
 -2.220000000000000E-002    5.503810326490762E-014
 -2.210000000000000E-002    6.428026756569402E-014
 -2.200000000000000E-002    7.625911074591324E-014
 -2.190000000000000E-002    9.127019898902365E-014
 -2.180000000000000E-002    1.090827322593043E-013
 -2.170000000000000E-002    1.288198120636947E-013
 -2.160000000000000E-002    1.489011872766284E-013
 -2.150000000000000E-002    1.670668850537604E-013
 -2.140000000000000E-002    1.804927861302693E-013
 -2.130000000000000E-002    1.859992962693329E-013
 -2.120000000000000E-002    1.803431298440626E-013
 -2.110000000000000E-002    1.605706770724895E-013
 -2.100000000000000E-002    1.244006718084914E-013
 -2.090000000000000E-002    7.059649190329781E-014
 -2.080000000000000E-002   -7.160213362151870E-016
 -2.070000000000000E-002   -8.782818619465886E-014
 -2.060000000000000E-002   -1.873624142698150E-013
 -2.050000000000000E-002   -2.943460655600488E-013
 -2.040000000000000E-002   -4.024552941863141E-013
 -2.030000000000000E-002   -5.044201449983121E-013
 -2.020000000000000E-002   -5.925634274328249E-013
 -2.010000000000000E-002   -6.594271697729314E-013
 -2.000000000000000E-002   -6.984272582010456E-013
 -1.990000000000000E-002   -7.044679901557329E-013
 -1.980000000000000E-002   -6.744478540115126E-013
 -1.970000000000000E-002   -6.075955058723958E-013
 -1.960000000000000E-002   -5.055901714555356E-013
 -1.950000000000000E-002   -3.724440920953572E-013
 -1.940000000000000E-002   -2.141503918141119E-013
 -1.930000000000000E-002   -3.812984584878425E-014
 -1.920000000000000E-002    1.474648929538305E-013
 -1.910000000000000E-002    3.345059974076320E-013
 -1.900000000000000E-002    5.156162051216150E-013
 -1.890000000000000E-002    6.847689378115911E-013
 -1.880000000000000E-002    8.376796384894457E-013
 -1.870000000000000E-002    9.719281561472810E-013
 -1.860000000000000E-002    1.086784216426934E-012
 -1.850000000000000E-002    1.182747783980917E-012
 -1.840000000000000E-002    1.260856599436015E-012
 -1.830000000000000E-002    1.321851329895092E-012
 -1.820000000000000E-002    1.365317463854916E-012
 -1.810000000000000E-002    1.388938879274660E-012
 -1.800000000000000E-002    1.387997567394587E-012
 -1.790000000000000E-002    1.355234757346926E-012
 -1.780000000000000E-002    1.281151863528910E-012
 -1.770000000000000E-002    1.154780041650627E-012
 -1.760000000000000E-002    9.648869595300062E-013
 -1.750000000000000E-002    7.015277279876286E-013
 -1.740000000000000E-002    3.577892400599283E-013
 -1.730000000000000E-002   -6.846452640080052E-014
 -1.720000000000000E-002   -5.730637181030656E-013
 -1.710000000000000E-002   -1.144436727568785E-012
 -1.700000000000000E-002   -1.763135851924799E-012
 -1.690000000000000E-002   -2.402120931599645E-012
 -1.680000000000000E-002   -3.027862608284662E-012
 -1.670000000000000E-002   -3.602240502615073E-012
 -1.660000000000000E-002   -4.085117763921332E-012
 -1.650000000000000E-002   -4.437390634484557E-012
 -1.640000000000000E-002   -4.624240929090007E-012
 -1.630000000000000E-002   -4.618280093433403E-012
 -1.620000000000000E-002   -4.402264464931002E-012
 -1.610000000000000E-002   -3.971085049110692E-012
 -1.600000000000000E-002   -3.332805147615698E-012
 -1.590000000000000E-002   -2.508602048241701E-012
 -1.580000000000000E-002   -1.531583515951619E-012
 -1.570000000000000E-002   -4.445700904127518E-013
 -1.560000000000000E-002    7.029601379589116E-013
 -1.550000000000000E-002    1.858470083171507E-012
 -1.540000000000000E-002    2.970154837617949E-012
 -1.530000000000000E-002    3.990551286370908E-012
 -1.520000000000000E-002    4.879616953494061E-012
 -1.510000000000000E-002    5.606989094298089E-012
 -1.500000000000000E-002    6.153232512479173E-012
 -1.490000000000000E-002    6.510004731128174E-012
 -1.480000000000000E-002    6.679191524879541E-012
 -1.470000000000000E-002    6.671185045296403E-012
 -1.460000000000000E-002    6.502569749118417E-012
 -1.450000000000000E-002    6.193540922191440E-012
 -1.440000000000000E-002    5.765392100506332E-012
 -1.430000000000000E-002    5.238378045879146E-012
 -1.420000000000000E-002    4.630186008055512E-012
 -1.410000000000000E-002    3.955145445901940E-012
 -1.400000000000000E-002    3.224183327572562E-012
 -1.390000000000000E-002    2.445417421319931E-012
 -1.380000000000000E-002    1.625176774481966E-012
 -1.370000000000000E-002    7.691756271405780E-013
 -1.360000000000000E-002   -1.164478460659270E-013
 -1.350000000000000E-002   -1.024489371372475E-012
 -1.340000000000000E-002   -1.946612912822564E-012
 -1.330000000000000E-002   -2.873924227598018E-012
 -1.320000000000000E-002   -3.798107190928277E-012
 -1.310000000000000E-002   -4.712917840768667E-012
 -1.300000000000000E-002   -5.615713232864064E-012
 -1.290000000000000E-002   -6.508622789205603E-012
 -1.280000000000000E-002   -7.398978211286837E-012
 -1.270000000000000E-002   -8.298652829288889E-012
 -1.260000000000000E-002   -9.222115145964625E-012
 -1.250000000000000E-002   -1.018316665342548E-011
 -1.240000000000000E-002   -1.119055290901620E-011
 -1.230000000000000E-002   -1.224285418883992E-011
 -1.220000000000000E-002   -1.332325680807416E-011
 -1.210000000000000E-002   -1.439493507492262E-011
 -1.200000000000000E-002   -1.539782279853627E-011
 -1.190000000000000E-002   -1.624748980193726E-011
 -1.180000000000000E-002   -1.683670165370055E-011
 -1.170000000000000E-002   -1.703994685893890E-011
 -1.160000000000000E-002   -1.672093437850739E-011
 -1.150000000000000E-002   -1.574266113989803E-011
 -1.140000000000000E-002   -1.397932094465080E-011
 -1.130000000000000E-002   -1.132902845901266E-011
 -1.120000000000000E-002   -7.726131064375063E-012
 -1.110000000000000E-002   -3.151832762302464E-012
 -1.100000000000000E-002    2.358058236119332E-012
 -1.090000000000000E-002    8.709201214705576E-012
 -1.080000000000000E-002    1.574916135126193E-011
 -1.070000000000000E-002    2.327232381234823E-011
 -1.060000000000000E-002    3.102885430137322E-011
 -1.050000000000000E-002    3.873683997306664E-011
 -1.040000000000000E-002    4.609632298729385E-011
 -1.030000000000000E-002    5.280377318166821E-011
 -1.020000000000000E-002    5.856545851384674E-011
 -1.010000000000000E-002    6.310839605749356E-011
 -1.000000000000000E-002    6.618793951916896E-011
 -9.899999999999999E-003    6.759160597059703E-011
 -9.800000000000000E-003    6.713934934843742E-011
 -9.699999999999999E-003    6.468120496121140E-011
 -9.599999999999999E-003    6.009369901227256E-011
 -9.500000000000000E-003    5.327686050067898E-011
 -9.399999999999999E-003    4.415375828272294E-011
 -9.299999999999999E-003    3.267432674005335E-011
 -9.200000000000000E-003    1.882469181180965E-011
 -9.099999999999999E-003    2.642524300348050E-012
 -8.999999999999999E-003   -1.576217865554785E-011
 -8.900000000000000E-003   -3.618245527177861E-011
 -8.799999999999999E-003   -5.828854749914544E-011
 -8.699999999999999E-003   -8.160442557179208E-011
 -8.600000000000000E-003   -1.054906560047105E-010
 -8.499999999999999E-003   -1.291377896801058E-010
 -8.399999999999999E-003   -1.515738597346570E-010
 -8.300000000000000E-003   -1.716887208518909E-010
 -8.199999999999999E-003   -1.882763797629026E-010
 -8.100000000000000E-003   -2.000947593846991E-010
 -8.000000000000000E-003   -2.059402263044456E-010
 -7.899999999999999E-003   -2.047322287319787E-010
 -7.800000000000000E-003   -1.956018072905903E-010
 -7.699999999999999E-003   -1.779763403279945E-010
 -7.599999999999999E-003   -1.516524762299188E-010
 -7.499999999999999E-003   -1.168494964041655E-010
 -7.399999999999999E-003   -7.423644167410836E-011
 -7.299999999999999E-003   -2.492842872707183E-011
 -7.199999999999999E-003    2.954988941770541E-011
 -7.100000000000000E-003    8.733265930382533E-011
 -6.999999999999999E-003    1.463086041462159E-010
 -6.899999999999999E-003    2.042371204635744E-010
 -6.800000000000000E-003    2.588750072456020E-010
 -6.699999999999999E-003    3.081027354937028E-010
 -6.599999999999999E-003    3.500387186675372E-010
 -6.499999999999999E-003    3.831310155204816E-010
 -6.399999999999999E-003    4.062177434223228E-010
 -6.299999999999999E-003    4.185508323381233E-010
 -6.199999999999999E-003    4.197814827786664E-010
 -6.100000000000000E-003    4.099102538408422E-010
 -5.999999999999999E-003    3.892085161245848E-010
 -5.899999999999999E-003    3.581220979712640E-010
 -5.800000000000000E-003    3.171702491317598E-010
 -5.699999999999999E-003    2.668545534355339E-010
 -5.599999999999999E-003    2.075916679666254E-010
 -5.499999999999999E-003    1.396819140355408E-010
 -5.399999999999999E-003    6.332218595565471E-011
 -5.299999999999999E-003   -2.133379478672290E-011
 -5.199999999999999E-003   -1.140700714953078E-010
 -5.099999999999999E-003   -2.144665370918597E-010
 -4.999999999999999E-003   -3.217340888883238E-010
 -4.899999999999999E-003   -4.345454745285319E-010
 -4.799999999999999E-003   -5.508825528571620E-010
 -4.699999999999999E-003   -6.679216015184966E-010
 -4.599999999999999E-003   -7.819769813147688E-010
 -4.499999999999999E-003   -8.885187202631885E-010
 -4.399999999999999E-003   -9.822736790791193E-010
 -4.299999999999999E-003   -1.057413696444233E-009
 -4.199999999999999E-003   -1.107823877426629E-009
 -4.099999999999999E-003   -1.127437714741495E-009
 -3.999999999999999E-003   -1.110616994276385E-009
 -3.899999999999999E-003   -1.052549901325351E-009
 -3.799999999999999E-003   -9.496370970740030E-010
 -3.699999999999999E-003   -7.998344778913406E-010
 -3.599999999999999E-003   -6.029259830091789E-010
 -3.499999999999999E-003   -3.607025949799482E-010
 -3.399999999999999E-003   -7.703427050718274E-011
 -3.299999999999999E-003    2.421706754988235E-010
 -3.199999999999999E-003    5.891140633487536E-010
 -3.099999999999999E-003    9.543486101833977E-010
 -2.999999999999999E-003    1.327087795762338E-009
 -2.899999999999999E-003    1.695557151214499E-009
 -2.799999999999999E-003    2.047354413489055E-009
 -2.699999999999999E-003    2.369790818599910E-009
 -2.599999999999999E-003    2.650187130707971E-009
 -2.499999999999999E-003    2.876108335927653E-009
 -2.399999999999999E-003    3.035533933561350E-009
 -2.299999999999999E-003    3.116967524543361E-009
 -2.199999999999999E-003    3.109507286949875E-009
 -2.099999999999999E-003    3.002908643289639E-009
 -1.999999999999999E-003    2.787673765902548E-009
 -1.899999999999999E-003    2.455219695313045E-009
 -1.799999999999999E-003    1.998158040934958E-009
 -1.699999999999999E-003    1.410730703338265E-009
 -1.599999999999999E-003    6.894258050744413E-010
 -1.499999999999999E-003   -1.662092187006700E-010
 -1.399999999999999E-003   -1.152573630755519E-009
 -1.299999999999999E-003   -2.260847235427461E-009
 -1.199999999999999E-003   -3.475706517692393E-009
 -1.099999999999999E-003   -4.773981770611621E-009
 -9.999999999999989E-004   -6.123313505603405E-009
 -8.999999999999990E-004   -7.480895960050929E-009
 -7.999999999999990E-004   -8.792390039402259E-009
 -6.999999999999989E-004   -9.991046213333043E-009
 -5.999999999999990E-004   -1.099712969137629E-008
 -4.999999999999989E-004   -1.171762265420443E-008
 -3.999999999999989E-004   -1.204629404779953E-008
 -2.999999999999989E-004   -1.186403320757964E-008
 -1.999999999999989E-004   -1.103946032936549E-008
 -9.999999999999892E-005   -9.429713162668987E-009
  1.084202172485504E-018   -6.881367491414797E-009
  1.000000000000011E-004   -3.231334247647129E-009
  2.000000000000011E-004    1.692280986573453E-009
  3.000000000000011E-004    8.069502849109026E-009
  4.000000000000011E-004    1.608802418208847E-008
  5.000000000000011E-004    2.594302457534896E-008
  6.000000000000011E-004    3.783725699795233E-008
  7.000000000000011E-004    5.198138637540411E-008
  8.000000000000011E-004    6.859456753098202E-008
  9.000000000000012E-004    8.790509680680032E-008
  1.000000000000001E-003    1.101512340334065E-007
  1.100000000000001E-003    1.355817529484391E-007
  1.200000000000001E-003    1.644564874895253E-007
  1.300000000000001E-003    1.970466692566602E-007
  1.400000000000001E-003    2.336347911878145E-007
  1.500000000000001E-003    2.745142275022457E-007
  1.600000000000001E-003    3.199886296191465E-007
  1.700000000000001E-003    3.703708147431276E-007
  1.800000000000001E-003    4.259817149925464E-007
  1.900000000000001E-003    4.871490563940533E-007
  2.000000000000001E-003    5.542063302728012E-007
  2.100000000000001E-003    6.274916861493302E-007
  2.200000000000001E-003    7.073477178775665E-007
  2.300000000000001E-003    7.941208139201164E-007
  2.400000000000001E-003    8.881620766703629E-007
  2.500000000000001E-003    9.898282718507768E-007
  2.600000000000001E-003    1.099483133639279E-006
  2.700000000000001E-003    1.217500137289169E-006
  2.800000000000001E-003    1.344264593163411E-006
  2.900000000000001E-003    1.480176864099046E-006
  3.000000000000001E-003    1.625654988058533E-006
  3.100000000000001E-003    1.781137725445040E-006
  3.200000000000001E-003    1.947087604458096E-006
  3.300000000000001E-003    2.123992929494144E-006
  3.400000000000001E-003    2.312369416451795E-006
  3.500000000000001E-003    2.512763183064955E-006
  3.600000000000001E-003    2.725750019640099E-006
  3.700000000000001E-003    2.951936871275625E-006
  3.800000000000001E-003    3.191963872100493E-006
  3.900000000000001E-003    3.446502679369882E-006
  4.000000000000001E-003    3.716259597258792E-006
  4.100000000000001E-003    4.001975156704416E-006
  4.200000000000001E-003    4.304428559909571E-006
  4.300000000000001E-003    4.624438249364821E-006
  4.400000000000001E-003    4.962867821852509E-006
  4.500000000000001E-003    5.320629540357809E-006
  4.600000000000002E-003    5.698690410266466E-006
  4.700000000000001E-003    6.098078939983714E-006
  4.800000000000001E-003    6.519891347854105E-006
  4.900000000000002E-003    6.965298571758409E-006
  5.000000000000001E-003    7.435553977800455E-006
  5.100000000000001E-003    7.931998255322579E-006
  5.200000000000001E-003    8.456066554041219E-006
  5.300000000000002E-003    9.009293484563088E-006
  5.400000000000001E-003    9.593315259936767E-006
  5.500000000000001E-003    1.020987413835897E-005
  5.600000000000002E-003    1.086082022534913E-005
  5.700000000000001E-003    1.154811104899976E-005
  5.800000000000001E-003    1.227381352230238E-005
  5.900000000000002E-003    1.304010217572736E-005
  6.000000000000001E-003    1.384926276287923E-005
  6.100000000000001E-003    1.470368952453946E-005
  6.200000000000002E-003    1.560589093835297E-005
  6.300000000000002E-003    1.655848994516085E-005
  6.400000000000001E-003    1.756422647012821E-005
  6.500000000000001E-003    1.862596856254162E-005
  6.600000000000002E-003    1.974671548791081E-005
  6.700000000000001E-003    2.092960731867520E-005
  6.800000000000001E-003    2.217793237852636E-005
  6.900000000000002E-003    2.349513757114708E-005
  7.000000000000001E-003    2.488484320864696E-005
  7.100000000000001E-003    2.635084718398168E-005
  7.200000000000002E-003    2.789713561928887E-005
  7.300000000000002E-003    2.952789084255993E-005
  7.400000000000001E-003    3.124750111111927E-005
  7.500000000000001E-003    3.306056632516845E-005
  7.600000000000002E-003    3.497190462217053E-005
  7.700000000000001E-003    3.698655507094249E-005
  7.800000000000001E-003    3.910978027078006E-005
  7.900000000000001E-003    4.134707992091358E-005
  8.000000000000002E-003    4.370418241029623E-005
  8.100000000000001E-003    4.618706707222534E-005
  8.200000000000001E-003    4.880195643441068E-005
  8.300000000000002E-003    5.155532578862195E-005
  8.400000000000001E-003    5.445392588467563E-005
  8.500000000000002E-003    5.750478613577176E-005
  8.600000000000002E-003    6.071522411661507E-005
  8.700000000000001E-003    6.409287892469927E-005
  8.800000000000002E-003    6.764570436973137E-005
  8.900000000000002E-003    7.138200711590491E-005
  9.000000000000001E-003    7.531045575721052E-005
  9.100000000000002E-003    7.944008910629482E-005
  9.200000000000002E-003    8.378035133184083E-005
  9.300000000000001E-003    8.834109675882365E-005
  9.400000000000002E-003    9.313258594160649E-005
  9.500000000000001E-003    9.816553415809794E-005
  9.600000000000001E-003    1.034510944942884E-004
  9.700000000000002E-003    1.090008742849122E-004
  9.800000000000001E-003    1.148269449917401E-004
  9.900000000000001E-003    1.209418565099028E-004
  1.000000000000000E-002    1.273586287511394E-004
  1.010000000000000E-002    1.340907701645886E-004
  1.020000000000000E-002    1.411523050260474E-004
  1.030000000000000E-002    1.485577573299196E-004
  1.040000000000000E-002    1.563221773172394E-004
  1.050000000000000E-002    1.644611762160413E-004
  1.060000000000000E-002    1.729909157585164E-004
  1.070000000000000E-002    1.819281683254640E-004
  1.080000000000000E-002    1.912902958807404E-004
  1.090000000000000E-002    2.010953100909629E-004
  1.100000000000000E-002    2.113618917644814E-004
  1.110000000000000E-002    2.221093840520932E-004
  1.120000000000000E-002    2.333578901429332E-004
  1.130000000000000E-002    2.451282079815110E-004
  1.140000000000000E-002    2.574419065418889E-004
  1.150000000000000E-002    2.703213374660788E-004
  1.160000000000000E-002    2.837896596238077E-004
  1.170000000000000E-002    2.978708676231713E-004
  1.180000000000000E-002    3.125897302544647E-004
  1.190000000000000E-002    3.279719178134601E-004
  1.200000000000000E-002    3.440439194855358E-004
  1.210000000000000E-002    3.608331204819158E-004
  1.220000000000000E-002    3.783678009769829E-004
  1.230000000000000E-002    3.966771390014101E-004
  1.240000000000000E-002    4.157912472590285E-004
  1.250000000000000E-002    4.357411758955710E-004
  1.260000000000000E-002    4.565589246099684E-004
  1.270000000000000E-002    4.782775544774380E-004
  1.280000000000000E-002    5.009311283811819E-004
  1.290000000000000E-002    5.245547048078776E-004
  1.300000000000000E-002    5.491845235131632E-004
  1.310000000000000E-002    5.748578314252772E-004
  1.320000000000000E-002    6.016130961779690E-004
  1.330000000000000E-002    6.294898655338083E-004
  1.340000000000000E-002    6.585289585515541E-004
  1.350000000000000E-002    6.887722738413317E-004
  1.360000000000000E-002    7.202630993319492E-004
  1.370000000000000E-002    7.530457801112881E-004
  1.380000000000000E-002    7.871659333511169E-004
  1.390000000000000E-002    8.226705048455137E-004
  1.400000000000000E-002    8.596076752068844E-004
  1.410000000000000E-002    8.980267919984434E-004
  1.420000000000000E-002    9.379786714306041E-004
  1.430000000000000E-002    9.795152721582007E-004
  1.440000000000000E-002    1.022689999543908E-003
  1.450000000000000E-002    1.067557401994602E-003
  1.460000000000000E-002    1.114173576416535E-003
  1.470000000000000E-002    1.162595929457724E-003
  1.480000000000000E-002    1.212883168283044E-003
  1.490000000000000E-002    1.265095551802753E-003
  1.500000000000000E-002    1.319294654687189E-003
  1.510000000000000E-002    1.375543574526292E-003
  1.520000000000000E-002    1.433906879224380E-003
  1.530000000000000E-002    1.494450455273441E-003
  1.540000000000000E-002    1.557241888638491E-003
  1.550000000000000E-002    1.622350164148682E-003
  1.560000000000000E-002    1.689845722365419E-003
  1.570000000000000E-002    1.759800613265513E-003
  1.580000000000000E-002    1.832288467507858E-003
  1.590000000000000E-002    1.907384190751257E-003
  1.600000000000000E-002    1.985164219941138E-003
  1.610000000000000E-002    2.065706590080511E-003
  1.620000000000000E-002    2.149090721814009E-003
  1.630000000000000E-002    2.235397426547603E-003
  1.640000000000000E-002    2.324709109374010E-003
  1.650000000000000E-002    2.417109431409236E-003
  1.660000000000000E-002    2.512683454127090E-003
  1.670000000000000E-002    2.611517907280245E-003
  1.680000000000000E-002    2.713700774785519E-003
  1.690000000000000E-002    2.819321374511899E-003
  1.700000000000000E-002    2.928470482045639E-003
  1.710000000000000E-002    3.041240036303468E-003
  1.720000000000000E-002    3.157723409891280E-003
  1.730000000000000E-002    3.278015368840350E-003
  1.740000000000000E-002    3.402211879409593E-003
  1.750000000000000E-002    3.530410330930872E-003
  1.760000000000000E-002    3.662709199994967E-003
  1.770000000000000E-002    3.799208097451437E-003
  1.780000000000000E-002    3.940007593963264E-003
  1.790000000000000E-002    4.085209374219877E-003
  1.800000000000000E-002    4.234916237795323E-003
  1.810000000000000E-002    4.389232110705174E-003
  1.820000000000000E-002    4.548261080599642E-003
  1.830000000000000E-002    4.712108275041467E-003
  1.840000000000000E-002    4.880880147006409E-003
  1.850000000000000E-002    5.054683181560169E-003
  1.860000000000000E-002    5.233624899489483E-003
  1.870000000000000E-002    5.417812978407336E-003