 -4.000000000000000E-002    0.000000000000000E+000
 -3.990000000000000E-002    0.000000000000000E+000
 -3.980000000000000E-002    0.000000000000000E+000
 -3.970000000000000E-002    0.000000000000000E+000
 -3.960000000000000E-002    0.000000000000000E+000
 -3.950000000000000E-002    0.000000000000000E+000
 -3.940000000000000E-002    0.000000000000000E+000
 -3.930000000000000E-002    0.000000000000000E+000
 -3.920000000000000E-002    0.000000000000000E+000
 -3.910000000000000E-002    0.000000000000000E+000
 -3.900000000000000E-002    0.000000000000000E+000
 -3.890000000000000E-002    0.000000000000000E+000
 -3.880000000000000E-002    0.000000000000000E+000
 -3.870000000000000E-002    0.000000000000000E+000
 -3.860000000000000E-002    0.000000000000000E+000
 -3.850000000000000E-002    0.000000000000000E+000
 -3.840000000000000E-002    1.693855126838657E-047
 -3.830000000000000E-002   -8.156076861991750E-047
 -3.820000000000000E-002   -9.875360479012256E-046
 -3.810000000000000E-002   -8.915017875744251E-045
 -3.800000000000000E-002   -6.271096948296367E-044
 -3.790000000000000E-002   -3.653355743139010E-043
 -3.780000000000000E-002   -1.843283434286647E-042
 -3.770000000000000E-002   -8.215250159167218E-042
 -3.760000000000000E-002   -3.279045194353043E-041
 -3.750000000000000E-002   -1.185572585207550E-040
 -3.740000000000000E-002   -3.915194250863258E-040
 -3.730000000000000E-002   -1.188036141388846E-039
 -3.720000000000000E-002   -3.325440908154054E-039
 -3.710000000000000E-002   -8.601159268451217E-039
 -3.700000000000000E-002   -2.053700772136343E-038
 -3.690000000000000E-002   -4.504873452941823E-038
 -3.680000000000000E-002   -8.972769933778523E-038
 -3.670000000000000E-002   -1.580733874302998E-037
 -3.660000000000000E-002   -2.302660811740113E-037
 -3.650000000000000E-002   -2.137383978875363E-037
 -3.640000000000000E-002    1.656222294231384E-037
 -3.630000000000000E-002    1.575167886880458E-036
 -3.620000000000000E-002    5.441457261774084E-036
 -3.610000000000000E-002    1.450209461610831E-035
 -3.600000000000000E-002    3.348622079387823E-035
 -3.590000000000000E-002    6.963727026073437E-035
 -3.580000000000000E-002    1.323185157057700E-034
 -3.570000000000000E-002    2.300994790426011E-034
 -3.560000000000000E-002    3.624012902824846E-034
 -3.550000000000000E-002    5.009862530242348E-034
 -3.540000000000000E-002    5.545988489362340E-034
 -3.530000000000000E-002    3.087084493900794E-034
 -3.520000000000000E-002   -6.667367464028555E-034
 -3.510000000000000E-002   -3.142447753500715E-033
 -3.500000000000000E-002   -8.372983581057068E-033
 -3.490000000000000E-002   -1.821214748913177E-032
 -3.480000000000000E-002   -3.510242088521398E-032
 -3.470000000000000E-002   -6.176242911225599E-032
 -3.460000000000000E-002   -1.002940525469035E-031
 -3.450000000000000E-002   -1.503172900895204E-031
 -3.440000000000000E-002   -2.056483589749308E-031
 -3.430000000000000E-002   -2.490261651638708E-031
 -3.420000000000000E-002   -2.445608800340011E-031
 -3.410000000000000E-002   -1.280640585126142E-031
 -3.400000000000000E-002    2.036153478094770E-031
 -3.390000000000000E-002    9.015063039446838E-031
 -3.380000000000000E-002    2.166554179062856E-030
 -3.370000000000000E-002    4.236525857994120E-030
 -3.360000000000000E-002    7.345934976856666E-030
 -3.350000000000000E-002    1.164380065801381E-029
 -3.340000000000000E-002    1.705222481844003E-029
 -3.330000000000000E-002    2.305041377653843E-029
 -3.320000000000000E-002    2.837660225908223E-029
 -3.310000000000000E-002    3.065742814479564E-029
 -3.300000000000000E-002    2.600407278860493E-029
 -3.290000000000000E-002    8.659207977712175E-030
 -3.280000000000000E-002   -2.916111258546438E-029
 -3.270000000000000E-002   -9.701439690743738E-029
 -3.260000000000000E-002   -2.052772800935880E-028
 -3.250000000000000E-002   -3.631399125828795E-028
 -3.240000000000000E-002   -5.751824027807603E-028
 -3.230000000000000E-002   -8.362277490520285E-028
 -3.220000000000000E-002   -1.124349426354110E-027
 -3.210000000000000E-002   -1.392265160502370E-027
 -3.200000000000000E-002   -1.557909209097049E-027
 -3.190000000000000E-002   -1.495761960408107E-027
 -3.180000000000000E-002   -1.031506547303456E-027
 -3.170000000000000E-002    5.631082928824697E-029
 -3.160000000000000E-002    2.022881722489624E-027
 -3.150000000000000E-002    5.126517553220017E-027
 -3.140000000000000E-002    9.575284023634080E-027
 -3.130000000000000E-002    1.544645719867425E-026
 -3.120000000000000E-002    2.257711201348708E-026
 -3.110000000000000E-002    3.042905082720972E-026
 -3.100000000000000E-002    3.793859731957718E-026
 -3.090000000000000E-002    4.337153455618787E-026
 -3.080000000000000E-002    4.421522644442327E-026
 -3.070000000000000E-002    3.715246352691196E-026
 -3.060000000000000E-002    1.817287769583612E-026
 -3.050000000000000E-002   -1.711501849717502E-026
 -3.040000000000000E-002   -7.290871041288579E-026
 -3.030000000000000E-002   -1.523238814454030E-025
 -3.020000000000000E-002   -2.561733979204831E-025
 -3.010000000000000E-002   -3.814418531342487E-025
 -3.000000000000000E-002   -5.195552673888137E-025
 -2.990000000000000E-002   -6.546366841310389E-025
 -2.980000000000000E-002   -7.620442772637121E-025
 -2.970000000000000E-002   -8.075973875118175E-025
 -2.960000000000000E-002   -7.479903570394374E-025
 -2.950000000000000E-002   -5.329503515506340E-025
 -2.940000000000000E-002   -1.096853552309827E-025
 -2.930000000000000E-002    5.699392938479693E-025
 -2.920000000000000E-002    1.539291093793375E-024
 -2.910000000000000E-002    2.804101772509298E-024
 -2.900000000000000E-002    4.327543075735731E-024
 -2.890000000000000E-002    6.014616514830705E-024
 -2.880000000000000E-002    7.697967912485475E-024
 -2.870000000000000E-002    9.127993436367182E-024
 -2.860000000000000E-002    9.970725739362066E-024
 -2.850000000000000E-002    9.817352584218024E-024
 -2.840000000000000E-002    8.209144099224542E-024
 -2.830000000000000E-002    4.680854330242005E-024
 -2.820000000000000E-002   -1.175773887387114E-024
 -2.810000000000000E-002   -9.629092664523865E-024
 -2.800000000000000E-002   -2.070903749180359E-023
 -2.790000000000000E-002   -3.410066335321675E-023
 -2.780000000000000E-002   -4.904161574859060E-023
 -2.770000000000000E-002   -6.423948617209519E-023
 -2.760000000000000E-002   -7.782845748559448E-023
 -2.750000000000000E-002   -8.738647200660060E-023
 -2.740000000000000E-002   -9.003373735257271E-023
 -2.730000000000000E-002   -8.262980137024633E-023
 -2.720000000000000E-002   -6.207923631001050E-023
 -2.710000000000000E-002   -2.574473770169180E-023
 -2.700000000000000E-002    2.804850868979585E-023
 -2.690000000000000E-002    9.945112141600197E-023
 -2.680000000000000E-002    1.865235629635919E-022
 -2.670000000000000E-002    2.847376026954415E-022
 -2.660000000000000E-002    3.866314081783270E-022
 -2.650000000000000E-002    4.817127924508194E-022
 -2.640000000000000E-002    5.567028778565908E-022
 -2.630000000000000E-002    5.961982739057996E-022
 -2.620000000000000E-002    5.838002336880262E-022
 -2.610000000000000E-002    5.037150271497412E-022
 -2.600000000000000E-002    3.427721987010209E-022
 -2.590000000000000E-002    9.273943239170866E-023
 -2.580000000000000E-002   -2.472590620983983E-022
 -2.570000000000000E-002   -6.684799117900308E-022
 -2.560000000000000E-002   -1.150767087198112E-021
 -2.550000000000000E-002   -1.661567406856020E-021
 -2.540000000000000E-002   -2.156090449052473E-021
 -2.530000000000000E-002   -2.578893903270197E-021
 -2.520000000000000E-002   -2.867082731975300E-021
 -2.510000000000000E-002   -2.955161990752450E-021
 -2.500000000000000E-002   -2.781397609937698E-021
 -2.490000000000000E-002   -2.295327533539707E-021
 -2.480000000000000E-002   -1.465843843886612E-021
 -2.470000000000000E-002   -2.890632018650219E-022
 -2.460000000000000E-002    1.204949506288751E-021
 -2.450000000000000E-002    2.947625822880418E-021
 -2.440000000000000E-002    4.830489257395711E-021
 -2.430000000000000E-002    6.707750760173382E-021
 -2.420000000000000E-002    8.403461330323441E-021
 -2.410000000000000E-002    9.723375429335263E-021
 -2.400000000000000E-002    1.047116509806362E-020
 -2.390000000000000E-002    1.046805866430598E-020
 -2.380000000000000E-002    9.574380228305544E-021
 -2.370000000000000E-002    7.710960647778351E-021
 -2.360000000000000E-002    4.877996175920367E-021
 -2.350000000000000E-002    1.168759686095285E-021
 -2.340000000000000E-002   -3.224346306040768E-021
 -2.330000000000000E-002   -8.013464604451623E-021
 -2.320000000000000E-002   -1.283007587531785E-020
 -2.310000000000000E-002   -1.725120474454784E-020
 -2.300000000000000E-002   -2.083610158322621E-020
 -2.290000000000000E-002   -2.317105546844249E-020
 -2.280000000000000E-002   -2.391858833974062E-020
 -2.270000000000000E-002   -2.286608345627443E-020
 -2.260000000000000E-002   -1.996803918892466E-020
 -2.250000000000000E-002   -1.537579064432612E-020
 -2.240000000000000E-002   -9.448874222944733E-021
 -2.230000000000000E-002   -2.743281878354069E-021
 -2.220000000000000E-002    4.026376482317502E-021
 -2.210000000000000E-002    1.005117778079319E-020
 -2.200000000000000E-002    1.451610457770489E-020
 -2.190000000000000E-002    1.670620077512695E-020
 -2.180000000000000E-002    1.612152208134101E-020
 -2.170000000000000E-002    1.258881839370470E-020
 -2.160000000000000E-002    6.355921418830940E-021
 -2.150000000000000E-002   -1.846012261975697E-021
 -2.140000000000000E-002   -1.078654278122301E-020
 -2.130000000000000E-002   -1.877808985933698E-020
 -2.120000000000000E-002   -2.378366598285635E-020
 -2.110000000000000E-002   -2.359216277495827E-020
 -2.100000000000000E-002   -1.605594014631165E-020
 -2.090000000000000E-002    6.222248095109440E-022
 -2.080000000000000E-002    2.757370614886935E-020
 -2.070000000000000E-002    6.494828795255858E-020
 -2.060000000000000E-002    1.116316522808446E-019
 -2.050000000000000E-002    1.650331899656301E-019
 -2.040000000000000E-002    2.209813635078446E-019
 -2.030000000000000E-002    2.737603642649350E-019
 -2.020000000000000E-002    3.163147503454914E-019
 -2.010000000000000E-002    3.406374810965292E-019
 -2.000000000000000E-002    3.383425374559516E-019
 -1.990000000000000E-002    3.014062399412579E-019
 -1.980000000000000E-002    2.230422558897680E-019
 -1.970000000000000E-002    9.865685666848351E-020
 -1.960000000000000E-002   -7.318700239098882E-020
 -1.950000000000000E-002   -2.898825119317708E-019
 -1.940000000000000E-002   -5.440649028923437E-019
 -1.930000000000000E-002   -8.231697960424663E-019
 -1.920000000000000E-002   -1.109359395378988E-018
 -1.910000000000000E-002   -1.379899354851137E-018
 -1.900000000000000E-002   -1.608046282554266E-018
 -1.890000000000000E-002   -1.764474585422818E-018
 -1.880000000000000E-002   -1.819229717015633E-018
 -1.870000000000000E-002   -1.744147883415986E-018
 -1.860000000000000E-002   -1.515627369008871E-018
 -1.850000000000000E-002   -1.117584086565983E-018
 -1.840000000000000E-002   -5.443688407991066E-019
 -1.830000000000000E-002    1.966164254812899E-019
 -1.820000000000000E-002    1.082898032934206E-018
 -1.810000000000000E-002    2.075807544786566E-018
 -1.800000000000000E-002    3.120538279220176E-018
 -1.790000000000000E-002    4.147618942802361E-018
 -1.780000000000000E-002    5.075946197473435E-018
 -1.770000000000000E-002    5.817414798825160E-018
 -1.760000000000000E-002    6.283019316283731E-018
 -1.750000000000000E-002    6.390140014832724E-018
 -1.740000000000000E-002    6.070550514505266E-018
 -1.730000000000000E-002    5.278509584578965E-018
 -1.720000000000000E-002    3.998173479009906E-018
 -1.710000000000000E-002    2.249484329075918E-018
 -1.700000000000000E-002    9.168810495483159E-020
 -1.690000000000000E-002   -2.376264253160449E-018
 -1.680000000000000E-002   -5.018982400430397E-018
 -1.670000000000000E-002   -7.671807903731429E-018
 -1.660000000000000E-002   -1.015174428195468E-017
 -1.650000000000000E-002   -1.227153494205032E-017
 -1.640000000000000E-002   -1.385581690594069E-017
 -1.630000000000000E-002   -1.475785574822672E-017
 -1.620000000000000E-002   -1.487504190234922E-017
 -1.610000000000000E-002   -1.416119581611462E-017
 -1.600000000000000E-002   -1.263379131316533E-017
 -1.590000000000000E-002   -1.037456658336189E-017
 -1.580000000000000E-002   -7.522586056083935E-018
 -1.570000000000000E-002   -4.259675041510956E-018
 -1.560000000000000E-002   -7.891644559757799E-019
 -1.550000000000000E-002    2.690017986782080E-018
 -1.540000000000000E-002    6.010868606675394E-018
 -1.530000000000000E-002    9.063600472433923E-018
 -1.520000000000000E-002    1.181447006189479E-017
 -1.510000000000000E-002    1.431403821778146E-017
 -1.500000000000000E-002    1.669148814412441E-017
 -1.490000000000000E-002    1.913301623712378E-017
 -1.480000000000000E-002    2.184430274309487E-017
 -1.470000000000000E-002    2.499942638169236E-017
 -1.460000000000000E-002    2.868119847545085E-017
 -1.450000000000000E-002    3.282029620936246E-017
 -1.440000000000000E-002    3.714251193171665E-017
 -1.430000000000000E-002    4.113442132255974E-017
 -1.420000000000000E-002    4.403757547286024E-017
 -1.410000000000000E-002    4.487966184115483E-017
 -1.400000000000000E-002    4.254782877696538E-017
 -1.390000000000000E-002    3.590477870856207E-017
 -1.380000000000000E-002    2.394247308152690E-017
 -1.370000000000000E-002    5.962048974110732E-018
 -1.360000000000000E-002   -1.823765252965704E-017
 -1.350000000000000E-002   -4.818551266116296E-017
 -1.340000000000000E-002   -8.260345695233676E-017
 -1.330000000000000E-002   -1.193380899887442E-016
 -1.320000000000000E-002   -1.553824767751532E-016
 -1.310000000000000E-002   -1.870056114912100E-016
 -1.300000000000000E-002   -2.099975406905269E-016
 -1.290000000000000E-002   -2.200258493910873E-016
 -1.280000000000000E-002   -2.130845701392832E-016
 -1.270000000000000E-002   -1.860025363845573E-016
 -1.260000000000000E-002   -1.369643382449424E-016
 -1.250000000000000E-002   -6.598727864286439E-017
 -1.240000000000000E-002    2.470753749977834E-017
 -1.230000000000000E-002    1.304909360779639E-016
 -1.220000000000000E-002    2.443406149307989E-016
 -1.210000000000000E-002    3.571122262894962E-016
 -1.200000000000000E-002    4.580811970767605E-016
 -1.190000000000000E-002    5.357422882502490E-016
 -1.180000000000000E-002    5.788239084697395E-016
 -1.170000000000000E-002    5.774450261224860E-016
 -1.160000000000000E-002    5.243150997377565E-016
 -1.150000000000000E-002    4.158604090572743E-016
 -1.140000000000000E-002    2.531500963563892E-016
 -1.130000000000000E-002    4.249992117434539E-017
 -1.120000000000000E-002   -2.043514611605511E-016
 -1.110000000000000E-002   -4.705682849216068E-016
 -1.100000000000000E-002   -7.350775929418439E-016
 -1.090000000000000E-002   -9.739461276658252E-016
 -1.080000000000000E-002   -1.162201774509160E-015
 -1.070000000000000E-002   -1.275976825635460E-015
 -1.060000000000000E-002   -1.294802923994923E-015
 -1.050000000000000E-002   -1.203858642490601E-015
 -1.040000000000000E-002   -9.959520999129935E-016
 -1.030000000000000E-002   -6.730302628688139E-016
 -1.020000000000000E-002   -2.470308916091446E-016
 -1.010000000000000E-002    2.600589370339053E-016
 -1.000000000000000E-002    8.170093933172675E-016
 -9.899999999999999E-003    1.385016842734584E-015
 -9.800000000000000E-003    1.920150773684425E-015
 -9.699999999999999E-003    2.376420888860461E-015
 -9.599999999999999E-003    2.709237890885768E-015
 -9.500000000000000E-003    2.878998417290524E-015
 -9.399999999999999E-003    2.854498998739939E-015
 -9.299999999999999E-003    2.615892843520853E-015
 -9.200000000000000E-003    2.156930630219964E-015
 -9.099999999999999E-003    1.486288990027422E-015
 -8.999999999999999E-003    6.278624857994253E-016
 -8.900000000000000E-003   -3.800120022586671E-016
 -8.799999999999999E-003   -1.486342622886604E-015
 -8.699999999999999E-003   -2.630137806157766E-015
 -8.600000000000000E-003   -3.743722036428017E-015
 -8.499999999999999E-003   -4.756454747853532E-015
 -8.399999999999999E-003   -5.598586516201594E-015
 -8.300000000000000E-003   -6.204993040368866E-015
 -8.199999999999999E-003   -6.518571120318649E-015
 -8.100000000000000E-003   -6.493143326033502E-015
 -8.000000000000000E-003   -6.095792382249010E-015
 -7.899999999999999E-003   -5.308617202295216E-015
 -7.800000000000000E-003   -4.129977808304660E-015
 -7.699999999999999E-003   -2.575334256253348E-015
 -7.599999999999999E-003   -6.778024882825545E-016
 -7.499999999999999E-003    1.511463011134193E-015
 -7.399999999999999E-003    3.923006404530189E-015
 -7.299999999999999E-003    6.468951997397965E-015
 -7.199999999999999E-003    9.043159431426621E-015
 -7.100000000000000E-003    1.152188082669827E-014
 -6.999999999999999E-003    1.376525664977842E-014
 -6.899999999999999E-003    1.562003364953726E-014
 -6.800000000000000E-003    1.692392456672829E-014
 -6.699999999999999E-003    1.751196616168430E-014
 -6.599999999999999E-003    1.722512461488980E-014
 -6.499999999999999E-003    1.592119629280403E-014
 -6.399999999999999E-003    1.348779474977193E-014
 -6.299999999999999E-003    9.856904375441027E-015
 -6.199999999999999E-003    5.020135097990270E-015
 -6.100000000000000E-003   -9.565244896061164E-016
 -5.999999999999999E-003   -7.919925409704120E-015
 -5.899999999999999E-003   -1.562063792514641E-014
 -5.800000000000000E-003   -2.370925180039507E-014
 -5.699999999999999E-003   -3.173974432385966E-014
 -5.599999999999999E-003   -3.918132604239680E-014
 -5.499999999999999E-003   -4.543965154529865E-014
 -5.399999999999999E-003   -4.988767370766898E-014
 -5.299999999999999E-003   -5.190555425870993E-014
 -5.199999999999999E-003   -5.092816400288091E-014
 -5.099999999999999E-003   -4.649764762768058E-014
 -4.999999999999999E-003   -3.831775423787167E-014
 -4.899999999999999E-003   -2.630563808976612E-014
 -4.799999999999999E-003   -1.063645682199912E-014
 -4.699999999999999E-003    8.224228104423797E-015
 -4.599999999999999E-003    2.950505885553183E-014
 -4.499999999999999E-003    5.213467737823727E-014
 -4.399999999999999E-003    7.477176877097601E-014
 -4.299999999999999E-003    9.586097144556354E-014
 -4.199999999999999E-003    1.137141822788406E-013
 -4.099999999999999E-003    1.266148595191724E-013
 -3.999999999999999E-003    1.329403673346669E-013
 -3.899999999999999E-003    1.312954565536732E-013
 -3.799999999999999E-003    1.206478916079125E-013
 -3.699999999999999E-003    1.004558356747247E-013
 -3.599999999999999E-003    7.077595538151458E-014
 -3.499999999999999E-003    3.234119386699390E-014
 -3.399999999999999E-003   -1.340184739770392E-014
 -3.299999999999999E-003   -6.430386050219588E-014
 -3.199999999999999E-003   -1.175773249492038E-013
 -3.099999999999999E-003   -1.699160540706941E-013
 -2.999999999999999E-003   -2.176671374226904E-013
 -2.899999999999999E-003   -2.570482681143153E-013
 -2.799999999999999E-003   -2.843990425896991E-013
 -2.699999999999999E-003   -2.964512714813208E-013
 -2.599999999999999E-003   -2.905999628990465E-013
 -2.499999999999999E-003   -2.651553315288038E-013
 -2.399999999999999E-003   -2.195554205437703E-013
 -2.299999999999999E-003   -1.545204324070019E-013
 -2.199999999999999E-003   -7.213235183739484E-014
 -2.099999999999999E-003    2.417207318099812E-014
 -1.999999999999999E-003    1.297015972164974E-013
 -1.899999999999999E-003    2.387042317475810E-013
 -1.799999999999999E-003    3.446479730991048E-013
 -1.699999999999999E-003    4.405754330793651E-013
 -1.599999999999999E-003    5.195133599145689E-013
 -1.499999999999999E-003    5.749130573653843E-013
 -1.399999999999999E-003    6.010946292304969E-013
 -1.299999999999999E-003    5.936663568854060E-013
 -1.199999999999999E-003    5.498911055233888E-013
 -1.099999999999999E-003    4.689742414603983E-013
 -9.999999999999989E-004    3.522515103256675E-013
 -8.999999999999990E-004    2.032616735198579E-013
 -7.999999999999990E-004    2.769487356460759E-014
 -6.999999999999989E-004   -1.667847902576581E-013
 -5.999999999999990E-004   -3.708363811090216E-013
 -4.999999999999989E-004   -5.738466540899235E-013
 -3.999999999999989E-004   -7.644231536949848E-013
 -2.999999999999989E-004   -9.309531554938612E-013
 -1.999999999999989E-004   -1.062201911676019E-012
 -9.999999999999892E-005   -1.147922267887244E-012
  1.084202172485504E-018   -1.179447615139231E-012
  1.000000000000011E-004   -1.150240659869891E-012
  2.000000000000011E-004   -1.056372278335067E-012
  3.000000000000011E-004   -8.969079975864395E-013
  4.000000000000011E-004   -6.741815217962931E-013
  5.000000000000011E-004   -3.939384674910971E-013
  6.000000000000011E-004   -6.533708166940129E-014
  7.000000000000011E-004    2.992043762910906E-013
  8.000000000000011E-004    6.843200480533507E-013
  9.000000000000012E-004    1.072170385457647E-012
  1.000000000000001E-003    1.443074654133737E-012
  1.100000000000001E-003    1.776292701935874E-012
  1.200000000000001E-003    2.050940098958960E-012
  1.300000000000001E-003    2.247012007649594E-012
  1.400000000000001E-003    2.346483381072158E-012
  1.500000000000001E-003    2.334439361730632E-012
  1.600000000000001E-003    2.200187898704208E-012
  1.700000000000001E-003    1.938289887630331E-012
  1.800000000000001E-003    1.549441964925013E-012
  1.900000000000001E-003    1.041139990275603E-012
  2.000000000000001E-003    4.280547219885137E-013
  2.100000000000001E-003   -2.679448372955908E-013
  2.200000000000001E-003   -1.018172390094741E-012
  2.300000000000001E-003   -1.787945754634892E-012
  2.400000000000001E-003   -2.537860284757324E-012
  2.500000000000001E-003   -3.225499906019080E-012
  2.600000000000001E-003   -3.807537835996948E-012
  2.700000000000001E-003   -4.242152503522549E-012
  2.800000000000001E-003   -4.491640524740689E-012
  2.900000000000001E-003   -4.525091423354061E-012
  3.000000000000001E-003   -4.320958640541835E-012
  3.100000000000001E-003   -3.869346044965523E-012
  3.200000000000001E-003   -3.173826723747896E-012
  3.300000000000001E-003   -2.252616017851248E-012
  3.400000000000001E-003   -1.138945883499274E-012
  3.500000000000001E-003    1.194826727301674E-013
  3.600000000000001E-003    1.462039760118108E-012
  3.700000000000001E-003    2.817714519291618E-012
  3.800000000000001E-003    4.108612583086706E-012
  3.900000000000001E-003    5.254282162285339E-012
  4.000000000000001E-003    6.176662885508312E-012
  4.100000000000001E-003    6.805393676546558E-012
  4.200000000000001E-003    7.083159776280197E-012
  4.300000000000001E-003    6.970706983279968E-012
  4.400000000000001E-003    6.451146926590380E-012
  4.500000000000001E-003    5.533172679826203E-012
  4.600000000000002E-003    4.252838129349248E-012
  4.700000000000001E-003    2.673615083860786E-012
  4.800000000000001E-003    8.845354679180974E-013
  4.900000000000002E-003   -1.003664084101315E-012
  5.000000000000001E-003   -2.864346310960660E-012
  5.100000000000001E-003   -4.562532485088120E-012
  5.200000000000001E-003   -5.963869157613334E-012
  5.300000000000002E-003   -6.944527976250436E-012
  5.400000000000001E-003   -7.401427591776292E-012
  5.500000000000001E-003   -7.262086674046695E-012
  5.600000000000002E-003   -6.493357823407885E-012
  5.700000000000001E-003   -5.108286872510880E-012
  5.800000000000001E-003   -3.170402660890133E-012
  5.900000000000002E-003   -7.948256839803401E-013
  6.000000000000001E-003    1.854236344929192E-012
  6.100000000000001E-003    4.569844913020769E-012
  6.200000000000002E-003    7.112528522692056E-012
  6.300000000000002E-003    9.224037389331718E-012
  6.400000000000001E-003    1.064410666918414E-011
  6.500000000000001E-003    1.112939182640042E-011
  6.600000000000002E-003    1.047352515764430E-011
  6.700000000000001E-003    8.527063182370724E-012
  6.800000000000001E-003    5.215938052099666E-012
  6.900000000000002E-003    5.570518347623716E-013
  7.000000000000001E-003   -5.330342186930853E-012
  7.100000000000001E-003   -1.221865175293723E-011
  7.200000000000002E-003   -1.977230909760166E-011
  7.300000000000002E-003   -2.755509393495070E-011
  7.400000000000001E-003   -3.504470287387115E-011
  7.500000000000001E-003   -4.165435527139151E-011
  7.600000000000002E-003   -4.676083992111773E-011
  7.700000000000001E-003   -4.973795254529278E-011
  7.800000000000001E-003   -4.999387489051832E-011
  7.900000000000001E-003   -4.701075990201910E-011
  8.000000000000002E-003   -4.038445481723723E-011
  8.100000000000001E-003   -2.986225485244846E-011
  8.200000000000001E-003   -1.537650017495875E-011
  8.300000000000002E-003    2.928143192981226E-012
  8.400000000000001E-003    2.467550903443689E-011
  8.500000000000002E-003    4.924860679735578E-011
  8.600000000000002E-003    7.579121647882890E-011
  8.700000000000001E-003    1.032213236587070E-010
  8.800000000000002E-003    1.302565781791199E-010
  8.900000000000002E-003    1.554515818323904E-010
  9.000000000000001E-003    1.772462932296111E-010
  9.100000000000002E-003    1.940243576436939E-010
  9.200000000000002E-003    2.041796941224860E-010
  9.300000000000001E-003    2.061893112220160E-010
  9.400000000000002E-003    1.986900260462710E-010
  9.500000000000001E-003    1.805564708209242E-010
  9.600000000000001E-003    1.509775130533353E-010
  9.700000000000002E-003    1.095282844961857E-010
  9.800000000000001E-003    5.623463226298902E-011
  9.900000000000001E-003   -8.372764118092447E-012
  1.000000000000000E-002   -8.321784382856043E-011
  1.010000000000000E-002   -1.666545926821804E-010
  1.020000000000000E-002   -2.564611952856967E-010
  1.030000000000000E-002   -3.498550643814316E-010
  1.040000000000000E-002   -4.435303894448773E-010
  1.050000000000000E-002   -5.337195020721717E-010
  1.060000000000000E-002   -6.162783975058870E-010
  1.070000000000000E-002   -6.867961731297084E-010
  1.080000000000000E-002   -7.407273771592161E-010
  1.090000000000000E-002   -7.735446792675817E-010
  1.100000000000000E-002   -7.809088801261349E-010
  1.110000000000000E-002   -7.588521953705832E-010
  1.120000000000000E-002   -7.039688316536729E-010
  1.130000000000000E-002   -6.136076336830737E-010
  1.140000000000000E-002   -4.860592770384414E-010
  1.150000000000000E-002   -3.207306613454073E-010
  1.160000000000000E-002   -1.182987682665627E-010
  1.170000000000000E-002    1.191632212376095E-010
  1.180000000000000E-002    3.880950825994629E-010
  1.190000000000000E-002    6.834003398427625E-010
  1.200000000000000E-002    9.984440968081708E-010
  1.210000000000000E-002    1.325102152994046E-009
  1.220000000000000E-002    1.653863345583735E-009
  1.230000000000000E-002    1.973986584141528E-009
  1.240000000000000E-002    2.273711403880092E-009
  1.250000000000000E-002    2.540519341851806E-009
  1.260000000000000E-002    2.761442484229849E-009
  1.270000000000000E-002    2.923412247260819E-009
  1.280000000000000E-002    3.013644364995577E-009
  1.290000000000000E-002    3.020049899429876E-009
  1.300000000000000E-002    2.931665246199393E-009
  1.310000000000000E-002    2.739093723833589E-009
  1.320000000000000E-002    2.434949203104320E-009
  1.330000000000000E-002    2.014292024195345E-009
  1.340000000000000E-002    1.475051458464968E-009
  1.350000000000000E-002    8.184225465562837E-010
  1.360000000000000E-002    4.923057188850116E-011
  1.370000000000000E-002   -8.237476878945044E-010
  1.380000000000000E-002   -1.787517379754993E-009
  1.390000000000000E-002   -2.824662926409030E-009
  1.400000000000000E-002   -3.913225463548356E-009
  1.410000000000000E-002   -5.026671393207608E-009
  1.420000000000000E-002   -6.133968371993662E-009
  1.430000000000000E-002   -7.199785510103590E-009
  1.440000000000000E-002   -8.184833669797533E-009
  1.450000000000000E-002   -9.046359564610820E-009
  1.460000000000000E-002   -9.738811660933881E-009
  1.470000000000000E-002   -1.021468663343739E-008
  1.480000000000000E-002   -1.042557003937346E-008
  1.490000000000000E-002   -1.032337022251557E-008
  1.500000000000000E-002   -9.861748711639487E-009
  1.510000000000000E-002   -8.997738936600259E-009
  1.520000000000000E-002   -7.693541191490788E-009
  1.530000000000000E-002   -5.918476341919993E-009
  1.540000000000000E-002   -3.651061821519371E-009
  1.550000000000000E-002   -8.811982414254451E-010
  1.560000000000000E-002    2.387593290962926E-009
  1.570000000000000E-002    6.135907363522943E-009
  1.580000000000000E-002    1.032620610199962E-008
  1.590000000000000E-002    1.490064528551262E-008
  1.600000000000000E-002    1.977899367452259E-008
  1.610000000000000E-002    2.485670069461349E-008
  1.620000000000000E-002    3.000313673462014E-008
  1.630000000000000E-002    3.506005169537013E-008
  1.640000000000000E-002    3.984023242452278E-008
  1.650000000000000E-002    4.412643505744611E-008
  1.660000000000000E-002    4.767055262687205E-008
  1.670000000000000E-002    5.019302359860039E-008
  1.680000000000000E-002    5.138250782458961E-008
  1.690000000000000E-002    5.089578950382038E-008
  1.700000000000000E-002    4.835790422894060E-008
  1.710000000000000E-002    4.336247292774097E-008
  1.720000000000000E-002    3.547222088221547E-008
  1.730000000000000E-002    2.421966281019004E-008
  1.740000000000000E-002    9.107909975634516E-009
  1.750000000000000E-002   -1.038837247844650E-008
  1.760000000000000E-002   -3.482196103762925E-008
  1.770000000000000E-002   -6.477196979804323E-008
  1.780000000000000E-002   -1.008427636773649E-007
  1.790000000000000E-002   -1.436628105163121E-007
  1.800000000000000E-002   -1.938836185837940E-007
  1.810000000000000E-002   -2.521787192709569E-007
  1.820000000000000E-002   -3.192427985816634E-007
  1.830000000000000E-002   -3.957908723035278E-007
  1.840000000000000E-002   -4.825578744218768E-007
  1.850000000000000E-002   -5.802982357652563E-007
  1.860000000000000E-002   -6.897859958037889E-007
  1.870000000000000E-002   -8.118148601055187E-007