 -4.000000000000000E-002    0.000000000000000E+000
 -3.990000000000000E-002    0.000000000000000E+000
 -3.980000000000000E-002    0.000000000000000E+000
 -3.970000000000000E-002    0.000000000000000E+000
 -3.960000000000000E-002    0.000000000000000E+000
 -3.950000000000000E-002    0.000000000000000E+000
 -3.940000000000000E-002    0.000000000000000E+000
 -3.930000000000000E-002    0.000000000000000E+000
 -3.920000000000000E-002    0.000000000000000E+000
 -3.910000000000000E-002    0.000000000000000E+000
 -3.900000000000000E-002    0.000000000000000E+000
 -3.890000000000000E-002    0.000000000000000E+000
 -3.880000000000000E-002    0.000000000000000E+000
 -3.870000000000000E-002    0.000000000000000E+000
 -3.860000000000000E-002    0.000000000000000E+000
 -3.850000000000000E-002    0.000000000000000E+000
 -3.840000000000000E-002    0.000000000000000E+000
 -3.830000000000000E-002    0.000000000000000E+000
 -3.820000000000000E-002    0.000000000000000E+000
 -3.810000000000000E-002    0.000000000000000E+000
 -3.800000000000000E-002    0.000000000000000E+000
 -3.790000000000000E-002    0.000000000000000E+000
 -3.780000000000000E-002    0.000000000000000E+000
 -3.770000000000000E-002    0.000000000000000E+000
 -3.760000000000000E-002    0.000000000000000E+000
 -3.750000000000000E-002    0.000000000000000E+000
 -3.740000000000000E-002    0.000000000000000E+000
 -3.730000000000000E-002    0.000000000000000E+000
 -3.720000000000000E-002    0.000000000000000E+000
 -3.710000000000000E-002    0.000000000000000E+000
 -3.700000000000000E-002    0.000000000000000E+000
 -3.690000000000000E-002    0.000000000000000E+000
 -3.680000000000000E-002    0.000000000000000E+000
 -3.670000000000000E-002    0.000000000000000E+000
 -3.660000000000000E-002    0.000000000000000E+000
 -3.650000000000000E-002    0.000000000000000E+000
 -3.640000000000000E-002    0.000000000000000E+000
 -3.630000000000000E-002    0.000000000000000E+000
 -3.620000000000000E-002    0.000000000000000E+000
 -3.610000000000000E-002    0.000000000000000E+000
 -3.600000000000000E-002    0.000000000000000E+000
 -3.590000000000000E-002    0.000000000000000E+000
 -3.580000000000000E-002    0.000000000000000E+000
 -3.570000000000000E-002    0.000000000000000E+000
 -3.560000000000000E-002    0.000000000000000E+000
 -3.550000000000000E-002    0.000000000000000E+000
 -3.540000000000000E-002    0.000000000000000E+000
 -3.530000000000000E-002    0.000000000000000E+000
 -3.520000000000000E-002    0.000000000000000E+000
 -3.510000000000000E-002    0.000000000000000E+000
 -3.500000000000000E-002    0.000000000000000E+000
 -3.490000000000000E-002    0.000000000000000E+000
 -3.480000000000000E-002    0.000000000000000E+000
 -3.470000000000000E-002    0.000000000000000E+000
 -3.460000000000000E-002    0.000000000000000E+000
 -3.450000000000000E-002    0.000000000000000E+000
 -3.440000000000000E-002    0.000000000000000E+000
 -3.430000000000000E-002    0.000000000000000E+000
 -3.420000000000000E-002    0.000000000000000E+000
 -3.410000000000000E-002    0.000000000000000E+000
 -3.400000000000000E-002    0.000000000000000E+000
 -3.390000000000000E-002    0.000000000000000E+000
 -3.380000000000000E-002    0.000000000000000E+000
 -3.370000000000000E-002    0.000000000000000E+000
 -3.360000000000000E-002    0.000000000000000E+000
 -3.350000000000000E-002    0.000000000000000E+000
 -3.340000000000000E-002    0.000000000000000E+000
 -3.330000000000000E-002    0.000000000000000E+000
 -3.320000000000000E-002    0.000000000000000E+000
 -3.310000000000000E-002    0.000000000000000E+000
 -3.300000000000000E-002    0.000000000000000E+000
 -3.290000000000000E-002    0.000000000000000E+000
 -3.280000000000000E-002    0.000000000000000E+000
 -3.270000000000000E-002    0.000000000000000E+000
 -3.260000000000000E-002    0.000000000000000E+000
 -3.250000000000000E-002    0.000000000000000E+000
 -3.240000000000000E-002    0.000000000000000E+000
 -3.230000000000000E-002    0.000000000000000E+000
 -3.220000000000000E-002    0.000000000000000E+000
 -3.210000000000000E-002    0.000000000000000E+000
 -3.200000000000000E-002    0.000000000000000E+000
 -3.190000000000000E-002    0.000000000000000E+000
 -3.180000000000000E-002    0.000000000000000E+000
 -3.170000000000000E-002    0.000000000000000E+000
 -3.160000000000000E-002    0.000000000000000E+000
 -3.150000000000000E-002    0.000000000000000E+000
 -3.140000000000000E-002    0.000000000000000E+000
 -3.130000000000000E-002    0.000000000000000E+000
 -3.120000000000000E-002    0.000000000000000E+000
 -3.110000000000000E-002    0.000000000000000E+000
 -3.100000000000000E-002    0.000000000000000E+000
 -3.090000000000000E-002    0.000000000000000E+000
 -3.080000000000000E-002    0.000000000000000E+000
 -3.070000000000000E-002    0.000000000000000E+000
 -3.060000000000000E-002    0.000000000000000E+000
 -3.050000000000000E-002    0.000000000000000E+000
 -3.040000000000000E-002    0.000000000000000E+000
 -3.030000000000000E-002    0.000000000000000E+000
 -3.020000000000000E-002    0.000000000000000E+000
 -3.010000000000000E-002    0.000000000000000E+000
 -3.000000000000000E-002    0.000000000000000E+000
 -2.990000000000000E-002    0.000000000000000E+000
 -2.980000000000000E-002    0.000000000000000E+000
 -2.970000000000000E-002    0.000000000000000E+000
 -2.960000000000000E-002    0.000000000000000E+000
 -2.950000000000000E-002    0.000000000000000E+000
 -2.940000000000000E-002    0.000000000000000E+000
 -2.930000000000000E-002    0.000000000000000E+000
 -2.920000000000000E-002    0.000000000000000E+000
 -2.910000000000000E-002    0.000000000000000E+000
 -2.900000000000000E-002    0.000000000000000E+000
 -2.890000000000000E-002    0.000000000000000E+000
 -2.880000000000000E-002    0.000000000000000E+000
 -2.870000000000000E-002    0.000000000000000E+000
 -2.860000000000000E-002    0.000000000000000E+000
 -2.850000000000000E-002    0.000000000000000E+000
 -2.840000000000000E-002    0.000000000000000E+000
 -2.830000000000000E-002    0.000000000000000E+000
 -2.820000000000000E-002    0.000000000000000E+000
 -2.810000000000000E-002   -3.531842204290811E-048
 -2.800000000000000E-002   -7.063684408581623E-048
 -2.790000000000000E-002   -1.059552661287243E-047
 -2.780000000000000E-002   -9.983680102399205E-047
 -2.770000000000000E-002   -1.566028132383467E-046
 -2.760000000000000E-002   -2.098369832484105E-046
 -2.750000000000000E-002   -2.632016949001573E-046
 -2.740000000000000E-002   -3.345503843471266E-046
 -2.730000000000000E-002   -3.906956068094631E-046
 -2.720000000000000E-002   -3.287437459063763E-046
 -2.710000000000000E-002    1.258836628570112E-046
 -2.700000000000000E-002    7.333874352499879E-046
 -2.690000000000000E-002    1.672574886868561E-045
 -2.680000000000000E-002    3.076070249211758E-045
 -2.670000000000000E-002    4.746740855059005E-045
 -2.660000000000000E-002    6.759994727609891E-045
 -2.650000000000000E-002    9.087780061468571E-045
 -2.640000000000000E-002    1.083259795401510E-044
 -2.630000000000000E-002    1.280841516888364E-044
 -2.620000000000000E-002    1.346993545812440E-044
 -2.610000000000000E-002    1.269279327609280E-044
 -2.600000000000000E-002    8.082491319775247E-045
 -2.590000000000000E-002   -4.089918902661571E-046
 -2.580000000000000E-002   -1.530473410388413E-044
 -2.570000000000000E-002   -4.083922130332506E-044
 -2.560000000000000E-002   -7.702264565159140E-044
 -2.550000000000000E-002   -1.254864911659409E-043
 -2.540000000000000E-002   -1.867185409214018E-043
 -2.530000000000000E-002   -2.588692994497727E-043
 -2.520000000000000E-002   -3.371376668033243E-043
 -2.510000000000000E-002   -4.079242816515789E-043
 -2.500000000000000E-002   -4.512006231198988E-043
 -2.490000000000000E-002   -4.355375663028933E-043
 -2.480000000000000E-002   -3.159833674531139E-043
 -2.470000000000000E-002   -3.280029545242892E-044
 -2.460000000000000E-002    4.884521934351678E-043
 -2.450000000000000E-002    1.324211552843020E-042
 -2.440000000000000E-002    2.545767671938536E-042
 -2.430000000000000E-002    4.190043961623784E-042
 -2.420000000000000E-002    6.224767601603099E-042
 -2.410000000000000E-002    8.496617546742789E-042
 -2.400000000000000E-002    1.067493439856983E-041
 -2.390000000000000E-002    1.219008490137059E-041
 -2.380000000000000E-002    1.218349943835014E-041
 -2.370000000000000E-002    9.497295325010753E-042
 -2.360000000000000E-002    2.721278300119553E-042
 -2.350000000000000E-002   -9.657058250842746E-042
 -2.340000000000000E-002   -2.896845319078020E-041
 -2.330000000000000E-002   -5.593154668340892E-041
 -2.320000000000000E-002   -9.005483102349695E-041
 -2.310000000000000E-002   -1.289210946724577E-040
 -2.300000000000000E-002   -1.674423826169513E-040
 -2.290000000000000E-002   -1.972350819282501E-040
 -2.280000000000000E-002   -2.063396348643832E-040
 -2.270000000000000E-002   -1.795700467372987E-040
 -2.260000000000000E-002   -9.978999489317954E-041
 -2.250000000000000E-002    4.961687110857069E-041
 -2.240000000000000E-002    2.809290783580301E-040
 -2.230000000000000E-002    5.970056838448878E-040
 -2.220000000000000E-002    9.853408293581255E-040
 -2.210000000000000E-002    1.412079761484611E-039
 -2.200000000000000E-002    1.817272570555527E-039
 -2.190000000000000E-002    2.113042693178629E-039
 -2.180000000000000E-002    2.186544442980171E-039
 -2.170000000000000E-002    1.909515293176991E-039
 -2.160000000000000E-002    1.155609757966097E-039
 -2.150000000000000E-002   -1.743893295006303E-040
 -2.140000000000000E-002   -2.121118163893275E-039
 -2.130000000000000E-002   -4.632686236724419E-039
 -2.120000000000000E-002   -7.534290254780952E-039
 -2.110000000000000E-002   -1.050932975395235E-038
 -2.100000000000000E-002   -1.310093428336591E-038
 -2.090000000000000E-002   -1.474204488129727E-038
 -2.080000000000000E-002   -1.481915503473351E-038
 -2.070000000000000E-002   -1.276917257840580E-038
 -2.060000000000000E-002   -8.200835855967428E-039
 -2.050000000000000E-002   -1.022572691287842E-039
 -2.040000000000000E-002    8.450548078614996E-039
 -2.030000000000000E-002    1.944454362236790E-038
 -2.020000000000000E-002    3.076331484386606E-038
 -2.010000000000000E-002    4.094078835298865E-038
 -2.000000000000000E-002    4.851548293574671E-038
 -1.990000000000000E-002    5.240480669976776E-038
 -1.980000000000000E-002    5.231761030024885E-038
 -1.970000000000000E-002    4.910312692947478E-038
 -1.960000000000000E-002    4.490121331814380E-038
 -1.950000000000000E-002    4.294617204327138E-038
 -1.940000000000000E-002    4.689756643681111E-038
 -1.930000000000000E-002    5.963763774614572E-038
 -1.920000000000000E-002    8.159151273840039E-038
 -1.910000000000000E-002    1.087874803743999E-037
 -1.900000000000000E-002    1.310601576730249E-037
 -1.890000000000000E-002    1.309741014019498E-037
 -1.880000000000000E-002    8.415858476618258E-038
 -1.870000000000000E-002   -3.826344013379032E-038
 -1.860000000000000E-002   -2.646507475796078E-037
 -1.850000000000000E-002   -6.151191995870151E-037
 -1.840000000000000E-002   -1.091621028307646E-036
 -1.830000000000000E-002   -1.667109831029062E-036
 -1.820000000000000E-002   -2.275891112240982E-036
 -1.810000000000000E-002   -2.807956130783464E-036
 -1.800000000000000E-002   -3.110431706423694E-036
 -1.790000000000000E-002   -2.999028103994696E-036
 -1.780000000000000E-002   -2.281330453897089E-036
 -1.770000000000000E-002   -7.918781043751046E-037
 -1.760000000000000E-002    1.563705444295268E-036
 -1.750000000000000E-002    4.761400492867455E-036
 -1.740000000000000E-002    8.617154251754221E-036
 -1.730000000000000E-002    1.276191388551976E-035
 -1.720000000000000E-002    1.664462955724096E-035
 -1.710000000000000E-002    1.957230741289071E-035
 -1.700000000000000E-002    2.079090057926358E-035
 -1.690000000000000E-002    1.960260230935026E-035
 -1.680000000000000E-002    1.550481416513463E-035
 -1.670000000000000E-002    8.325566707636898E-036
 -1.660000000000000E-002   -1.678024834253078E-036
 -1.650000000000000E-002   -1.379430840293822E-035
 -1.640000000000000E-002   -2.693476482784897E-035
 -1.630000000000000E-002   -3.982852728597247E-035
 -1.620000000000000E-002   -5.131997237728963E-035
 -1.610000000000000E-002   -6.072014726475178E-035
 -1.600000000000000E-002   -6.812487230143797E-035
 -1.590000000000000E-002   -7.458130597505896E-035
 -1.580000000000000E-002   -8.197232022648326E-035
 -1.570000000000000E-002   -9.250640106830040E-035
 -1.560000000000000E-002   -1.077588456639063E-034
 -1.550000000000000E-002   -1.273126944993745E-034
 -1.540000000000000E-002   -1.471877440533837E-034
 -1.530000000000000E-002   -1.584057022412077E-034
 -1.520000000000000E-002   -1.461859434962948E-034
 -1.510000000000000E-002   -9.035770709427524E-035
 -1.500000000000000E-002    3.244089782761045E-035
 -1.490000000000000E-002    2.443716378495642E-034
 -1.480000000000000E-002    5.597557177371381E-034
 -1.470000000000000E-002    9.766516202563279E-034
 -1.460000000000000E-002    1.467784981426830E-033
 -1.450000000000000E-002    1.972663535394760E-033
 -1.440000000000000E-002    2.393311846943893E-033
 -1.430000000000000E-002    2.596358751012982E-033
 -1.420000000000000E-002    2.424033528798701E-033
 -1.410000000000000E-002    1.715780057502725E-033
 -1.400000000000000E-002    3.406136782200791E-034
 -1.390000000000000E-002   -1.761955228866806E-033
 -1.380000000000000E-002   -4.537388971275557E-033
 -1.370000000000000E-002   -7.775819101561506E-033
 -1.360000000000000E-002   -1.108617442253046E-032
 -1.350000000000000E-002   -1.389608026207257E-032
 -1.340000000000000E-002   -1.548809049343247E-032
 -1.330000000000000E-002   -1.507945536059356E-032
 -1.320000000000000E-002   -1.194653223878252E-032
 -1.310000000000000E-002   -5.586241005460123E-033
 -1.300000000000000E-002    4.103473643660302E-033
 -1.290000000000000E-002    1.665274925203467E-032
 -1.280000000000000E-002    3.089580460419330E-032
 -1.270000000000000E-002    4.493527052187596E-032
 -1.260000000000000E-002    5.623383346009335E-032
 -1.250000000000000E-002    6.186055430484434E-032
 -1.240000000000000E-002    5.889870024074784E-032
 -1.230000000000000E-002    4.499226888996988E-032
 -1.220000000000000E-002    1.897350348656152E-032
 -1.210000000000000E-002   -1.852124739181700E-032
 -1.200000000000000E-002   -6.456904407220008E-032
 -1.190000000000000E-002   -1.137469712637333E-031
 -1.180000000000000E-002   -1.583160090056301E-031
 -1.170000000000000E-002   -1.888950555268465E-031
 -1.160000000000000E-002   -1.956541129049115E-031
 -1.150000000000000E-002   -1.699653872460272E-031
 -1.140000000000000E-002   -1.063457490296293E-031
 -1.130000000000000E-002   -4.417849381689459E-033
 -1.120000000000000E-002    1.294676848704557E-031
 -1.110000000000000E-002    2.813490420048099E-031
 -1.100000000000000E-002    4.298858274359246E-031
 -1.090000000000000E-002    5.479862004148812E-031
 -1.080000000000000E-002    6.059241991205604E-031
 -1.070000000000000E-002    5.757967875033163E-031
 -1.060000000000000E-002    4.368764061047207E-031
 -1.050000000000000E-002    1.811409227133657E-031
 -1.040000000000000E-002   -1.819667614117534E-031
 -1.030000000000000E-002   -6.225887163439125E-031
 -1.020000000000000E-002   -1.090285861236662E-030
 -1.010000000000000E-002   -1.517347961403473E-030
 -1.000000000000000E-002   -1.825813096297634E-030
 -9.899999999999999E-003   -1.937795521931810E-030
 -9.800000000000000E-003   -1.788022590298274E-030
 -9.699999999999999E-003   -1.336847878293808E-030
 -9.599999999999999E-003   -5.815417375500850E-031
 -9.500000000000000E-003    4.364687674038619E-031
 -9.399999999999999E-003    1.630428739347236E-030
 -9.299999999999999E-003    2.874412699194489E-030
 -9.200000000000000E-003    4.016886836111665E-030
 -9.099999999999999E-003    4.900297670227050E-030
 -8.999999999999999E-003    5.383854062468741E-030
 -8.900000000000000E-003    5.365494018285168E-030
 -8.799999999999999E-003    4.798468355771338E-030
 -8.699999999999999E-003    3.698335101054870E-030
 -8.600000000000000E-003    2.137540720803992E-030
 -8.499999999999999E-003    2.271884509384469E-031
 -8.399999999999999E-003   -1.911328144226186E-030
 -8.300000000000000E-003   -4.178813736660693E-030
 -8.199999999999999E-003   -6.526100987364229E-030
 -8.100000000000000E-003   -8.967164149019901E-030
 -8.000000000000000E-003   -1.156794397264598E-029
 -7.899999999999999E-003   -1.440497788422391E-029
 -7.800000000000000E-003   -1.749361172972391E-029
 -7.699999999999999E-003   -2.069405699426880E-029
 -7.599999999999999E-003   -2.361250986114561E-029
 -7.499999999999999E-003   -2.552300416756822E-029
 -7.399999999999999E-003   -2.534095373470687E-029
 -7.299999999999999E-003   -2.167951743158644E-029
 -7.199999999999999E-003   -1.301317816084545E-029
 -7.100000000000000E-003    2.042246125130803E-030
 -6.999999999999999E-003    2.434559282398085E-029
 -6.899999999999999E-003    5.378280479089427E-029
 -6.800000000000000E-003    8.882460408079631E-029
 -6.699999999999999E-003    1.261829750911082E-028
 -6.599999999999999E-003    1.606733124986100E-028
 -6.499999999999999E-003    1.853872171867355E-028
 -6.399999999999999E-003    1.922562223624285E-028
 -6.299999999999999E-003    1.730393405312693E-028
 -6.199999999999999E-003    1.206991804668636E-028
 -6.100000000000000E-003    3.104765487981176E-029
 -5.999999999999999E-003   -9.554335137287113E-029
 -5.899999999999999E-003   -2.526476493576551E-028
 -5.800000000000000E-003   -4.268308865008335E-028
 -5.699999999999999E-003   -5.975668895341148E-028
 -5.599999999999999E-003   -7.382925512250684E-028
 -5.499999999999999E-003   -8.187577241557361E-028
 -5.399999999999999E-003   -8.086445943970990E-028
 -5.299999999999999E-003   -6.822175678762051E-028
 -5.199999999999999E-003   -4.235318353023465E-028
 -5.099999999999999E-003   -3.151876458144222E-029
 -4.999999999999999E-003    4.758794073787402E-028
 -4.899999999999999E-003    1.059402365985646E-027
 -4.799999999999999E-003    1.658775827339503E-027
 -4.699999999999999E-003    2.196188887550498E-027
 -4.599999999999999E-003    2.583128117135172E-027
 -4.499999999999999E-003    2.730284638368124E-027
 -4.399999999999999E-003    2.559727275089482E-027
 -4.299999999999999E-003    2.018031855717147E-027
 -4.199999999999999E-003    1.088686871447148E-027
 -4.099999999999999E-003   -1.981144447336080E-028
 -3.999999999999999E-003   -1.760111500485637E-027
 -3.899999999999999E-003   -3.463517576137245E-027
 -3.799999999999999E-003   -5.130344520912771E-027
 -3.699999999999999E-003   -6.552531372758891E-027
 -3.599999999999999E-003   -7.511987062667784E-027
 -3.499999999999999E-003   -7.804759799573442E-027
 -3.399999999999999E-003   -7.266784678988255E-027
 -3.299999999999999E-003   -5.798239246344500E-027
 -3.199999999999999E-003   -3.383522624377660E-027
 -3.099999999999999E-003   -1.042449049372883E-028
 -2.999999999999999E-003    3.856590159454695E-027
 -2.899999999999999E-003    8.219964063730562E-027
 -2.799999999999999E-003    1.262541681971364E-026
 -2.699999999999999E-003    1.665335174353012E-026
 -2.599999999999999E-003    1.985301109370332E-026
 -2.499999999999999E-003    2.177369771364749E-026
 -2.399999999999999E-003    2.199719563352718E-026
 -2.299999999999999E-003    2.016996477926620E-026
 -2.199999999999999E-003    1.603474234955311E-026
 -2.099999999999999E-003    9.462056524804515E-027
 -1.999999999999999E-003    4.825438983123966E-028
 -1.899999999999999E-003   -1.067913722029410E-026
 -1.799999999999999E-003   -2.356947649429528E-026
 -1.699999999999999E-003   -3.747303118061401E-026
 -1.599999999999999E-003   -5.138736100375062E-026
 -1.499999999999999E-003   -6.401465072143083E-026
 -1.399999999999999E-003   -7.378246317506213E-026
 -1.299999999999999E-003   -7.890637383336497E-026
 -1.199999999999999E-003   -7.750681984623189E-026
 -1.099999999999999E-003   -6.778757069506825E-026
 -9.999999999999989E-004   -4.827614541793398E-026
 -8.999999999999990E-004   -1.811478452295663E-026
 -7.999999999999990E-004    2.262162705261210E-026
 -6.999999999999989E-004    7.261907719520439E-026
 -5.999999999999990E-004    1.290781317932243E-025
 -4.999999999999989E-004    1.875846673154526E-025
 -3.999999999999989E-004    2.421548933629900E-025
 -2.999999999999989E-004    2.855016723990200E-025
 -1.999999999999989E-004    3.095527623870679E-025
 -9.999999999999892E-005    3.062201185379914E-025
  1.084202172485504E-018    2.683861547019921E-025
  1.000000000000011E-004    1.910317203824212E-025
  2.000000000000011E-004    7.239313648586658E-026
  3.000000000000011E-004   -8.499468558654184E-026
  4.000000000000011E-004   -2.735297163192294E-025
  5.000000000000011E-004   -4.802071584248906E-025
  6.000000000000011E-004   -6.868501100397725E-025
  7.000000000000011E-004   -8.710005989330573E-025
  8.000000000000011E-004   -1.007489195409938E-024
  9.000000000000012E-004   -1.070634740731365E-024
  1.000000000000001E-003   -1.036932996596200E-024
  1.100000000000001E-003   -8.880200257544688E-025
  1.200000000000001E-003   -6.136312148194957E-025
  1.300000000000001E-003   -2.142418046918152E-025
  1.400000000000001E-003    2.969323336177226E-025
  1.500000000000001E-003    8.928610908761156E-025
  1.600000000000001E-003    1.532789536633772E-024
  1.700000000000001E-003    2.163621307006866E-024
  1.800000000000001E-003    2.722644170435301E-024
  1.900000000000001E-003    3.141518078847737E-024
  2.000000000000001E-003    3.351357262676899E-024
  2.100000000000001E-003    3.288642968303665E-024
  2.200000000000001E-003    2.901646831897090E-024
  2.300000000000001E-003    2.156987323885774E-024
  2.400000000000001E-003    1.045915873786635E-024
  2.500000000000001E-003   -4.101030731961487E-025
  2.600000000000001E-003   -2.154963131030735E-024
  2.700000000000001E-003   -4.095182781266486E-024
  2.800000000000001E-003   -6.099342803070706E-024
  2.900000000000001E-003   -8.000372326251759E-024
  3.000000000000001E-003   -9.601208903335383E-024
  3.100000000000001E-003   -1.068442848110093E-023
  3.200000000000001E-003   -1.102625938623708E-023
  3.300000000000001E-003   -1.041511729867992E-023
  3.400000000000001E-003   -8.674358096689492E-024
  3.500000000000001E-003   -5.688386056849561E-024
  3.600000000000001E-003   -1.430453852473413E-024
  3.700000000000001E-003    4.010253657967488E-024
  3.800000000000001E-003    1.040552442349040E-023
  3.900000000000001E-003    1.737284422276805E-023
  4.000000000000001E-003    2.437215560524867E-023
  4.100000000000001E-003    3.071875548549874E-023
  4.200000000000001E-003    3.561557350984195E-023
  4.300000000000001E-003    3.820689347431044E-023
  4.400000000000001E-003    3.765329356325221E-023
  4.500000000000001E-003    3.322509218684657E-023
  4.600000000000002E-003    2.440840093256696E-023
  4.700000000000001E-003    1.101502464937213E-023
  4.800000000000001E-003   -6.715445299416280E-024
  4.900000000000002E-003   -2.803520435949269E-023
  5.000000000000001E-003   -5.164359074332906E-023
  5.100000000000001E-003   -7.569194715021143E-023
  5.200000000000001E-003   -9.784924642915745E-023
  5.300000000000002E-003   -1.154348855106148E-022
  5.400000000000001E-003   -1.256189434526355E-022
  5.500000000000001E-003   -1.256831425207178E-022
  5.600000000000002E-003   -1.133269153789884E-022
  5.700000000000001E-003   -8.699554789881189E-023
  5.800000000000001E-003   -4.620018763809035E-023
  5.900000000000002E-003    8.205714092617380E-024
  6.000000000000001E-003    7.383011039844378E-023
  6.100000000000001E-003    1.466624554264759E-022
  6.200000000000002E-003    2.211394532280517E-022
  6.300000000000002E-003    2.903779070841510E-022
  6.400000000000001E-003    3.465818777371292E-022
  6.500000000000001E-003    3.816162632059164E-022
  6.600000000000002E-003    3.877214726668105E-022
  6.700000000000001E-003    3.583265292011327E-022
  6.800000000000001E-003    2.889016116426253E-022
  6.900000000000002E-003    1.777780481014590E-022
  7.000000000000001E-003    2.685599200342856E-023
  7.100000000000001E-003   -1.578857622548325E-022
  7.200000000000002E-003   -3.661554123199349E-022
  7.300000000000002E-003   -5.834597760413113E-022
  7.400000000000001E-003   -7.916139684125203E-022
  7.500000000000001E-003   -9.696737861378425E-022
  7.600000000000002E-003   -1.095288099518510E-021
  7.700000000000001E-003   -1.146430375197082E-021
  7.800000000000001E-003   -1.103432085295836E-021
  7.900000000000001E-003   -9.511984119668176E-022
  8.000000000000002E-003   -6.814544684213974E-022
  8.100000000000001E-003   -2.948306245899349E-022
  8.200000000000001E-003    1.974218614821468E-022
  8.300000000000002E-003    7.723082750342217E-022
  8.400000000000001E-003    1.394779787595713E-021
  8.500000000000002E-003    2.018425510357228E-021
  8.600000000000002E-003    2.587320894710149E-021
  8.700000000000001E-003    3.039101758398955E-021
  8.800000000000002E-003    3.309253949319401E-021
  8.900000000000002E-003    3.336485047188485E-021
  9.000000000000001E-003    3.068919854168429E-021
  9.100000000000002E-003    2.470737682808462E-021
  9.200000000000002E-003    1.528715622564173E-021
  9.300000000000001E-003    2.580753571152145E-022
  9.400000000000002E-003   -1.293071298992435E-021
  9.500000000000001E-003   -3.041390829673242E-021
  9.600000000000001E-003   -4.868764409072640E-021
  9.700000000000002E-003   -6.626031241039723E-021
  9.800000000000001E-003   -8.140381725606886E-021
  9.900000000000001E-003   -9.226436993544966E-021
  1.000000000000000E-002   -9.700741342603333E-021
  1.010000000000000E-002   -9.398978507975791E-021
  1.020000000000000E-002   -8.194836477085812E-021
  1.030000000000000E-002   -6.019076772135226E-021
  1.040000000000000E-002   -2.877040577769636E-021
  1.050000000000000E-002    1.137314396445850E-021
  1.060000000000000E-002    5.832892171433977E-021
  1.070000000000000E-002    1.092020864994639E-020
  1.080000000000000E-002    1.601897185659026E-020
  1.090000000000000E-002    2.067539907298194E-020
  1.100000000000000E-002    2.438946587591016E-020
  1.110000000000000E-002    2.665140069103332E-020
  1.120000000000000E-002    2.698577363925143E-020
  1.130000000000000E-002    2.500049988340579E-020
  1.140000000000000E-002    2.043723329776291E-020
  1.150000000000000E-002    1.321878925067150E-020
  1.160000000000000E-002    3.488878829582175E-021
  1.170000000000000E-002   -8.360672141746754E-021
  1.180000000000000E-002   -2.168004327072364E-020
  1.190000000000000E-002   -3.557244755010519E-020
  1.200000000000000E-002   -4.892884401070325E-020
  1.210000000000000E-002   -6.048735129072781E-020
  1.220000000000000E-002   -6.891631766172540E-020
  1.230000000000000E-002   -7.291791436735507E-020
  1.240000000000000E-002   -7.134676021675864E-020
  1.250000000000000E-002   -6.333594563289620E-020
  1.260000000000000E-002   -4.842073816892333E-020
  1.270000000000000E-002   -2.664912143343849E-020
  1.280000000000000E-002    1.332551322331263E-021
  1.290000000000000E-002    3.423045938779197E-020
  1.300000000000000E-002    7.010121435385508E-020
  1.310000000000000E-002    1.064046343852080E-019
  1.320000000000000E-002    1.401169144400954E-019
  1.330000000000000E-002    1.679044933830277E-019
  1.340000000000000E-002    1.863543552291701E-019
  1.350000000000000E-002    1.922512073449041E-019
  1.360000000000000E-002    1.828857007437741E-019
  1.370000000000000E-002    1.563730020727790E-019
  1.380000000000000E-002    1.119564595739204E-019
  1.390000000000000E-002    5.026770470689611E-020
  1.400000000000000E-002   -2.648647586846094E-020
  1.410000000000000E-002   -1.144390572362122E-019
  1.420000000000000E-002   -2.081046070492204E-019
  1.430000000000000E-002   -3.005660966703339E-019
  1.440000000000000E-002   -3.838161914649539E-019
  1.450000000000000E-002   -4.492498392995254E-019
  1.460000000000000E-002   -4.882921644690707E-019
  1.470000000000000E-002   -4.931311110669288E-019
  1.480000000000000E-002   -4.575094229323078E-019
  1.490000000000000E-002   -3.775186221755258E-019
  1.500000000000000E-002   -2.523267429782107E-019
  1.510000000000000E-002   -8.476635120969995E-020
  1.520000000000000E-002    1.182903471965742E-019
  1.530000000000000E-002    3.458378317930683E-019
  1.540000000000000E-002    5.829779731846266E-019
  1.550000000000000E-002    8.115319386421931E-019
  1.560000000000000E-002    1.011028530810543E-018
  1.570000000000000E-002    1.160048678713724E-018
  1.580000000000000E-002    1.237867908036855E-018
  1.590000000000000E-002    1.226305363799652E-018
  1.600000000000000E-002    1.111655661971776E-018
  1.610000000000000E-002    8.865546158588995E-019
  1.620000000000000E-002    5.516089225888793E-019
  1.630000000000000E-002    1.166197789571614E-019
  1.640000000000000E-002   -3.987693680178847E-019
  1.650000000000000E-002   -9.651419476209375E-019
  1.660000000000000E-002   -1.544199705924619E-018
  1.670000000000000E-002   -2.090527010028808E-018
  1.680000000000000E-002   -2.554217078961587E-018
  1.690000000000000E-002   -2.884273167753531E-018
  1.700000000000000E-002   -3.032621965596707E-018
  1.710000000000000E-002   -2.958500727086034E-018
  1.720000000000000E-002   -2.632916347991389E-018
  1.730000000000000E-002   -2.042820978378232E-018
  1.740000000000000E-002   -1.194623455448489E-018
  1.750000000000000E-002   -1.166459171143631E-019
  1.760000000000000E-002    1.139822252192748E-018
  1.770000000000000E-002    2.501178257608926E-018
  1.780000000000000E-002    3.874060494069038E-018
  1.790000000000000E-002    5.149881829457741E-018
  1.800000000000000E-002    6.211273026573123E-018
  1.810000000000000E-002    6.940198118133503E-018
  1.820000000000000E-002    7.227338380609554E-018
  1.830000000000000E-002    6.982175023141724E-018
  1.840000000000000E-002    6.143070335974750E-018
  1.850000000000000E-002    4.686540528505302E-018
  1.860000000000000E-002    2.634841480146025E-018
  1.870000000000000E-002    6.104131062976297E-020