 -4.000000000000000E-002    0.000000000000000E+000
 -3.990000000000000E-002    0.000000000000000E+000
 -3.980000000000000E-002    0.000000000000000E+000
 -3.970000000000000E-002    3.446351710666776E-014
 -3.960000000000000E-002    2.211055211736844E-013
 -3.950000000000000E-002    7.879972036583429E-013
 -3.940000000000000E-002    2.039825082339547E-012
 -3.930000000000000E-002    4.236506761482260E-012
 -3.920000000000000E-002    7.383654676038858E-012
 -3.910000000000000E-002    1.096869106077412E-011
 -3.900000000000000E-002    1.370977459353811E-011
 -3.890000000000000E-002    1.340702987132633E-011
 -3.880000000000000E-002    6.988301937591411E-012
 -3.870000000000000E-002   -9.180040420280194E-012
 -3.860000000000000E-002   -3.869226186345353E-011
 -3.850000000000000E-002   -8.425010035626982E-011
 -3.840000000000000E-002   -1.466631844585949E-010
 -3.830000000000000E-002   -2.238677574224942E-010
 -3.820000000000000E-002   -3.101627624738726E-010
 -3.810000000000000E-002   -3.958610774373702E-010
 -3.800000000000000E-002   -4.675103634064895E-010
 -3.790000000000000E-002   -5.087575336094454E-010
 -3.780000000000000E-002   -5.018216963791439E-010
 -3.770000000000000E-002   -4.294251995952294E-010
 -3.760000000000000E-002   -2.769301755516030E-010
 -3.750000000000000E-002   -3.436470706786868E-011
 -3.740000000000000E-002    3.019857865990016E-010
 -3.730000000000000E-002    7.286901684306811E-010
 -3.720000000000000E-002    1.235139247131945E-009
 -3.710000000000000E-002    1.804360091302728E-009
 -3.700000000000000E-002    2.414494308782460E-009
 -3.690000000000000E-002    3.040594761067850E-009
 -3.680000000000000E-002    3.656296738014562E-009
 -3.670000000000000E-002    4.234892084370141E-009
 -3.660000000000000E-002    4.749422562904783E-009
 -3.650000000000000E-002    5.171585016995925E-009
 -3.640000000000000E-002    5.469502780965484E-009
 -3.630000000000000E-002    5.604721578936672E-009
 -3.620000000000000E-002    5.529081459827709E-009
 -3.610000000000000E-002    5.182331365955146E-009
 -3.600000000000000E-002    4.491463934430903E-009
 -3.590000000000000E-002    3.372667544245310E-009
 -3.580000000000000E-002    1.736563877457050E-009
 -3.570000000000000E-002   -5.030248408366096E-010
 -3.560000000000000E-002   -3.417067641553814E-009
 -3.550000000000000E-002   -7.046941835449275E-009
 -3.540000000000000E-002   -1.138911266342874E-008
 -3.530000000000000E-002   -1.638073113626749E-008
 -3.520000000000000E-002   -2.188822244188222E-008
 -3.510000000000000E-002   -2.770086491019899E-008
 -3.500000000000000E-002   -3.353106315978319E-008
 -3.490000000000000E-002   -3.902229369999870E-008
 -3.480000000000000E-002   -4.376498559239107E-008
 -3.470000000000000E-002   -4.731955481070652E-008
 -3.460000000000000E-002   -4.924494426508407E-008
 -3.450000000000000E-002   -4.913020197113814E-008
 -3.440000000000000E-002   -4.662619433239764E-008
 -3.430000000000000E-002   -4.147432837241237E-008
 -3.420000000000000E-002   -3.352951586639295E-008
 -3.410000000000000E-002   -2.277518024987527E-008
 -3.400000000000000E-002   -9.329126571822122E-009
 -3.390000000000000E-002    6.559838489495636E-009
 -3.380000000000000E-002    2.452339560920672E-008
 -3.370000000000000E-002    4.409131201170418E-008
 -3.360000000000000E-002    6.471231827961241E-008
 -3.350000000000000E-002    8.577533150875604E-008
 -3.340000000000000E-002    1.066281405808827E-007
 -3.330000000000000E-002    1.265915772434269E-007
 -3.320000000000000E-002    1.449681619225796E-007
 -3.310000000000000E-002    1.610454615469264E-007
 -3.300000000000000E-002    1.740958597375726E-007
 -3.290000000000000E-002    1.833755551371913E-007
 -3.280000000000000E-002    1.881261858668335E-007
 -3.270000000000000E-002    1.875828997457068E-007
 -3.260000000000000E-002    1.809921294969385E-007
 -3.250000000000000E-002    1.676413164369166E-007
 -3.240000000000000E-002    1.469012451244017E-007
 -3.230000000000000E-002    1.182798494314427E-007
 -3.220000000000000E-002    8.148416397305802E-008
 -3.210000000000000E-002    3.648551731427538E-008
 -3.200000000000000E-002   -1.641838835698768E-008
 -3.190000000000000E-002   -7.655161038962576E-008
 -3.180000000000000E-002   -1.428252034803863E-007
 -3.170000000000000E-002   -2.137256182416476E-007
 -3.160000000000000E-002   -2.873301996152372E-007
 -3.150000000000000E-002   -3.613521200824357E-007
 -3.140000000000000E-002   -4.332135970206964E-007
 -3.130000000000000E-002   -5.001440409456357E-007
 -3.120000000000000E-002   -5.592971129313215E-007
 -3.110000000000000E-002   -6.078786961098936E-007
 -3.100000000000000E-002   -6.432770403977758E-007
 -3.090000000000000E-002   -6.631856501518439E-007
 -3.080000000000000E-002   -6.657104676181948E-007
 -3.070000000000000E-002   -6.494543589603732E-007
 -3.060000000000000E-002   -6.135742018050176E-007
 -3.050000000000000E-002   -5.578081353150840E-007
 -3.040000000000000E-002   -4.824733382366070E-007
 -3.030000000000000E-002   -3.884372437756417E-007
 -3.020000000000000E-002   -2.770665953606931E-007
 -3.010000000000000E-002   -1.501603820086598E-007
 -3.000000000000000E-002   -9.873145425681917E-009
 -2.990000000000000E-002    1.413652384045235E-007
 -2.980000000000000E-002    3.009279219008543E-007
 -2.970000000000000E-002    4.660637001958345E-007
 -2.960000000000000E-002    6.339615967750232E-007
 -2.950000000000000E-002    8.018071112656737E-007
 -2.940000000000000E-002    9.668312232204262E-007
 -2.930000000000000E-002    1.126354423108395E-006
 -2.920000000000000E-002    1.277828791156704E-006
 -2.910000000000000E-002    1.418882066227663E-006
 -2.900000000000000E-002    1.547366124428749E-006
 -2.890000000000000E-002    1.661412268886414E-006
 -2.880000000000000E-002    1.759494042673778E-006
 -2.870000000000000E-002    1.840496721400161E-006
 -2.860000000000000E-002    1.903791752212986E-006
 -2.850000000000000E-002    1.949311683536378E-006
 -2.840000000000000E-002    1.977619915912576E-006
 -2.830000000000000E-002    1.989969432185361E-006
 -2.820000000000000E-002    1.988343804918357E-006
 -2.810000000000000E-002    1.975473688123317E-006
 -2.800000000000000E-002    1.954822459842798E-006
 -2.790000000000000E-002    1.930538462347646E-006
 -2.780000000000000E-002    1.907369632713041E-006
 -2.770000000000000E-002    1.890544674817395E-006
 -2.760000000000000E-002    1.885621221332322E-006
 -2.750000000000000E-002    1.898312349922795E-006
 -2.740000000000000E-002    1.934299349678333E-006
 -2.730000000000000E-002    1.999046430747348E-006
 -2.720000000000000E-002    2.097630016088532E-006
 -2.710000000000000E-002    2.234599966351965E-006
 -2.700000000000000E-002    2.413887180419679E-006
 -2.690000000000000E-002    2.638768129374067E-006
 -2.680000000000000E-002    2.911895238527417E-006
 -2.670000000000000E-002    3.235394379964888E-006
 -2.660000000000000E-002    3.611024982561032E-006
 -2.650000000000000E-002    4.040394941214039E-006
 -2.640000000000000E-002    4.525206766158037E-006
 -2.630000000000000E-002    5.067520480457570E-006
 -2.620000000000000E-002    5.670001390369513E-006
 -2.610000000000000E-002    6.336132617371725E-006
 -2.600000000000000E-002    7.070364694552881E-006
 -2.590000000000000E-002    7.878187159822967E-006
 -2.580000000000000E-002    8.766109539536110E-006
 -2.570000000000000E-002    9.741548176507768E-006
 -2.560000000000000E-002    1.081263253890970E-005
 -2.550000000000000E-002    1.198794728461431E-005
 -2.540000000000000E-002    1.327623366680349E-005
 -2.530000000000000E-002    1.468608949822620E-005
 -2.520000000000000E-002    1.622569085721550E-005
 -2.510000000000000E-002    1.790258173174782E-005
 -2.500000000000000E-002    1.972354947400550E-005
 -2.490000000000000E-002    2.169459651895281E-005
 -2.480000000000000E-002    2.382103434905036E-005
 -2.470000000000000E-002    2.610766736224636E-005
 -2.460000000000000E-002    2.855905825337242E-005
 -2.450000000000000E-002    3.117983967385986E-005
 -2.440000000000000E-002    3.397503186389852E-005
 -2.430000000000000E-002    3.695033556375665E-005
 -2.420000000000000E-002    4.011233881060273E-005
 -2.410000000000000E-002    4.346863085331508E-005
 -2.400000000000000E-002    4.702778728791579E-005
 -2.390000000000000E-002    5.079923392946460E-005
 -2.380000000000000E-002    5.479300440366814E-005
 -2.370000000000000E-002    5.901940539592683E-005
 -2.360000000000000E-002    6.348864109609007E-005
 -2.350000000000000E-002    6.821044684219080E-005
 -2.340000000000000E-002    7.319376573096602E-005
 -2.330000000000000E-002    7.844653728678506E-005
 -2.320000000000000E-002    8.397563864137647E-005
 -2.310000000000000E-002    8.978693540262839E-005
 -2.300000000000000E-002    9.588553836182277E-005
 -2.290000000000000E-002    1.022761832989371E-004
 -2.280000000000000E-002    1.089637322986808E-004
 -2.270000000000000E-002    1.159537125298222E-004
 -2.260000000000000E-002    1.232529073589541E-004
 -2.250000000000000E-002    1.308698804824901E-004
 -2.240000000000000E-002    1.388153714103401E-004
 -2.230000000000000E-002    1.471026669047197E-004
 -2.220000000000000E-002    1.557477197615093E-004
 -2.210000000000000E-002    1.647691502396373E-004
 -2.200000000000000E-002    1.741881165481917E-004
 -2.190000000000000E-002    1.840281241670985E-004
 -2.180000000000000E-002    1.943146822798064E-004
 -2.170000000000000E-002    2.050750184442873E-004
 -2.160000000000000E-002    2.163378359100323E-004
 -2.150000000000000E-002    2.281330961492705E-004
 -2.140000000000000E-002    2.404919486750266E-004
 -2.130000000000000E-002    2.534467269220399E-004
 -2.120000000000000E-002    2.670310450156084E-004
 -2.110000000000000E-002    2.812800453181349E-004
 -2.100000000000000E-002    2.962305977791023E-004
 -2.090000000000000E-002    3.119214801191185E-004
 -2.080000000000000E-002    3.283935964034193E-004
 -2.070000000000000E-002    3.456900617650777E-004
 -2.060000000000000E-002    3.638561573109478E-004
 -2.050000000000000E-002    3.829393144279725E-004
 -2.040000000000000E-002    4.029887909037608E-004
 -2.030000000000000E-002    4.240555417967093E-004
 -2.020000000000000E-002    4.461918142218829E-004
 -2.010000000000000E-002    4.694510013373878E-004
 -2.000000000000000E-002    4.938874274186706E-004
 -1.990000000000000E-002    5.195562828866995E-004
 -1.980000000000000E-002    5.465138160632607E-004
 -1.970000000000000E-002    5.748174106318680E-004
 -1.960000000000000E-002    6.045260266975915E-004
 -1.950000000000000E-002    6.357008082973381E-004
 -1.940000000000000E-002    6.684054191642167E-004
 -1.930000000000000E-002    7.027066610522533E-004
 -1.920000000000000E-002    7.386750536245765E-004
 -1.910000000000000E-002    7.763849343756195E-004
 -1.900000000000000E-002    8.159148789164887E-004
 -1.890000000000000E-002    8.573476864757758E-004
 -1.880000000000000E-002    9.007701938637346E-004
 -1.870000000000000E-002    9.462729232749466E-004
 -1.860000000000000E-002    9.939497321979232E-004
 -1.850000000000000E-002    1.043897645399008E-003
 -1.840000000000000E-002    1.096216123350666E-003
 -1.830000000000000E-002    1.151006878310695E-003
 -1.820000000000000E-002    1.208373593167362E-003
 -1.810000000000000E-002    1.268422071596508E-003
 -1.800000000000000E-002    1.331260384544157E-003
 -1.790000000000000E-002    1.396998894632828E-003
 -1.780000000000000E-002    1.465751098776949E-003
 -1.770000000000000E-002    1.537633764644200E-003
 -1.760000000000000E-002    1.612767747489885E-003
 -1.750000000000000E-002    1.691278063737380E-003
 -1.740000000000000E-002    1.773294537866817E-003
 -1.730000000000000E-002    1.858951973516066E-003
 -1.720000000000000E-002    1.948389907645531E-003
 -1.710000000000000E-002    2.041752683352738E-003
 -1.700000000000000E-002    2.139189126160755E-003
 -1.690000000000000E-002    2.240851926494719E-003
 -1.680000000000000E-002    2.346897662198671E-003
 -1.670000000000000E-002    2.457486097256907E-003
 -1.660000000000000E-002    2.572780071945176E-003
 -1.650000000000000E-002    2.692945411986192E-003
 -1.640000000000000E-002    2.818150991147912E-003
 -1.630000000000000E-002    2.948569266007975E-003
 -1.620000000000000E-002    3.084376073887155E-003
 -1.610000000000000E-002    3.225751933143296E-003
 -1.600000000000000E-002    3.372881613687749E-003
 -1.590000000000000E-002    3.525956213063396E-003
 -1.580000000000000E-002    3.685172229165621E-003
 -1.570000000000000E-002    3.850732455558107E-003
 -1.560000000000000E-002    4.022846420420591E-003
 -1.550000000000000E-002    4.201730379503959E-003
 -1.540000000000000E-002    4.387606333062154E-003
 -1.530000000000000E-002    4.580702885414565E-003
 -1.520000000000000E-002    4.781253992671823E-003
 -1.510000000000000E-002    4.989498286508375E-003
 -1.500000000000000E-002    5.205678987737970E-003
 -1.490000000000000E-002    5.430043726274858E-003
 -1.480000000000000E-002    5.662843619968119E-003
 -1.470000000000000E-002    5.904332700908689E-003
 -1.460000000000000E-002    6.154769172170312E-003
 -1.450000000000000E-002    6.414414571798810E-003
 -1.440000000000000E-002    6.683533875817566E-003
 -1.430000000000000E-002    6.962395308430799E-003
 -1.420000000000000E-002    7.251272250115572E-003
 -1.410000000000000E-002    7.550440927830872E-003
 -1.400000000000000E-002    7.860182734278820E-003
 -1.390000000000000E-002    8.180782570847311E-003
 -1.380000000000000E-002    8.512529074203953E-003
 -1.370000000000000E-002    8.855713409123812E-003
 -1.360000000000000E-002    9.210630149882163E-003
 -1.350000000000000E-002    9.577575277928196E-003
 -1.340000000000000E-002    9.956845817474618E-003
 -1.330000000000000E-002    1.034873963055131E-002
 -1.320000000000000E-002    1.075355356159875E-002
 -1.310000000000000E-002    1.117158493824751E-002
 -1.300000000000000E-002    1.160312850326384E-002
 -1.290000000000000E-002    1.204847762590493E-002
 -1.280000000000000E-002    1.250792457085536E-002
 -1.270000000000000E-002    1.298175805571540E-002
 -1.260000000000000E-002    1.347026612386438E-002
 -1.250000000000000E-002    1.397373455368909E-002
 -1.240000000000000E-002    1.449244752177754E-002
 -1.230000000000000E-002    1.502668416564527E-002
 -1.220000000000000E-002    1.557672286949806E-002
 -1.210000000000000E-002    1.614283845144015E-002
 -1.200000000000000E-002    1.672530315746233E-002
 -1.190000000000000E-002    1.732438298986240E-002
 -1.180000000000000E-002    1.794033896767023E-002
 -1.170000000000000E-002    1.857342621657681E-002
 -1.160000000000000E-002    1.922389128556562E-002
 -1.150000000000000E-002    1.989197330253956E-002
 -1.140000000000000E-002    2.057790144476922E-002
 -1.130000000000000E-002    2.128189337952267E-002
 -1.120000000000000E-002    2.200415307195320E-002
 -1.110000000000000E-002    2.274487388265870E-002
 -1.100000000000000E-002    2.350423361325192E-002
 -1.090000000000000E-002    2.428239647516971E-002
 -1.080000000000000E-002    2.507950779878777E-002
 -1.070000000000000E-002    2.589569770146290E-002
 -1.060000000000000E-002    2.673107715497846E-002
 -1.050000000000000E-002    2.758573886236376E-002
 -1.040000000000000E-002    2.845975475454524E-002
 -1.030000000000000E-002    2.935317457487784E-002
 -1.020000000000000E-002    3.026602791920012E-002
 -1.010000000000000E-002    3.119832206101301E-002
 -1.000000000000000E-002    3.215003409977731E-002
 -9.899999999999999E-003    3.312112231124602E-002
 -9.800000000000000E-003    3.411150977251846E-002
 -9.699999999999999E-003    3.512109401783429E-002
 -9.599999999999999E-003    3.614974038578796E-002
 -9.500000000000000E-003    3.719728071840568E-002
 -9.399999999999999E-003    3.826350527837932E-002
 -9.299999999999999E-003    3.934817680848781E-002
 -9.200000000000000E-003    4.045101362668998E-002
 -9.099999999999999E-003    4.157169293349552E-002
 -8.999999999999999E-003    4.270985230188152E-002
 -8.900000000000000E-003    4.386508499058692E-002
 -8.799999999999999E-003    4.503694007614438E-002
 -8.699999999999999E-003    4.622491913330287E-002
 -8.600000000000000E-003    4.742847520950812E-002
 -8.499999999999999E-003    4.864701642250074E-002
 -8.399999999999999E-003    4.987989674120682E-002
 -8.300000000000000E-003    5.112642336178279E-002
 -8.199999999999999E-003    5.238584422247605E-002
 -8.100000000000000E-003    5.365735829314387E-002
 -8.000000000000000E-003    5.494009921958126E-002
 -7.899999999999999E-003    5.623314179521973E-002
 -7.800000000000000E-003    5.753550292572406E-002
 -7.699999999999999E-003    5.884612552816745E-002
 -7.599999999999999E-003    6.016388910335425E-002
 -7.499999999999999E-003    6.148759632369911E-002
 -7.399999999999999E-003    6.281598300941516E-002
 -7.299999999999999E-003    6.414770337148203E-002
 -7.199999999999999E-003    6.548134278856731E-002
 -7.100000000000000E-003    6.681539363216309E-002
 -6.999999999999999E-003    6.814827614757753E-002
 -6.899999999999999E-003    6.947833122200216E-002
 -6.800000000000000E-003    7.080380432686760E-002
 -6.699999999999999E-003    7.212287529337190E-002
 -6.599999999999999E-003    7.343363217454650E-002
 -6.499999999999999E-003    7.473407194483156E-002
 -6.399999999999999E-003    7.602210543282789E-002
 -6.299999999999999E-003    7.729556136441394E-002
 -6.199999999999999E-003    7.855217471835256E-002
 -6.100000000000000E-003    7.978957787876000E-002
 -5.999999999999999E-003    8.100531045088988E-002
 -5.899999999999999E-003    8.219681314098157E-002
 -5.800000000000000E-003    8.336142522671483E-002
 -5.699999999999999E-003    8.449637815970555E-002
 -5.599999999999999E-003    8.559879996800106E-002
 -5.499999999999999E-003    8.666570620913142E-002
 -5.399999999999999E-003    8.769402033115645E-002
 -5.299999999999999E-003    8.868054297882047E-002
 -5.199999999999999E-003    8.962196682001738E-002
 -5.099999999999999E-003    9.051488490420877E-002
 -4.999999999999999E-003    9.135578422028250E-002
 -4.899999999999999E-003    9.214104208806048E-002
 -4.799999999999999E-003    9.286693405961269E-002
 -4.699999999999999E-003    9.352962898532141E-002
 -4.599999999999999E-003    9.412518554330974E-002
 -4.499999999999999E-003    9.464956951460664E-002
 -4.399999999999999E-003    9.509862549318950E-002
 -4.299999999999999E-003    9.546810564169221E-002
 -4.199999999999999E-003    9.575364114026261E-002
 -4.099999999999999E-003    9.595075792386783E-002
 -3.999999999999999E-003    9.605487654728982E-002
 -3.899999999999999E-003    9.606129842557951E-002
 -3.799999999999999E-003    9.596521903458161E-002
 -3.699999999999999E-003    9.576172998985710E-002
 -3.599999999999999E-003    9.544581679910158E-002
 -3.499999999999999E-003    9.501235673783189E-002
 -3.399999999999999E-003    9.445613259648444E-002
 -3.299999999999999E-003    9.377182821896148E-002
 -3.199999999999999E-003    9.295402972945886E-002
 -3.099999999999999E-003    9.199724312472246E-002
 -2.999999999999999E-003    9.089588659385857E-002
 -2.899999999999999E-003    8.964429625595975E-002
 -2.799999999999999E-003    8.823673087217045E-002
 -2.699999999999999E-003    8.666736882912733E-002
 -2.599999999999999E-003    8.493032050294816E-002
 -2.499999999999999E-003    8.301961997956644E-002
 -2.399999999999999E-003    8.092924198089274E-002
 -2.299999999999999E-003    7.865309438299922E-002
 -2.199999999999999E-003    7.618502010977227E-002
 -2.099999999999999E-003    7.351881331569106E-002
 -1.999999999999999E-003    7.064820833415712E-002
 -1.899999999999999E-003    6.756690241554102E-002
 -1.799999999999999E-003    6.426855026657964E-002
 -1.699999999999999E-003    6.074677488997308E-002
 -1.599999999999999E-003    5.699518074405481E-002
 -1.499999999999999E-003    5.300735435675036E-002
 -1.399999999999999E-003    4.877687822093250E-002
 -1.299999999999999E-003    4.429733584794483E-002
 -1.199999999999999E-003    3.956231780576203E-002
 -1.099999999999999E-003    3.456543898622811E-002
 -9.999999999999989E-004    2.930033340862546E-002
 -8.999999999999990E-004    2.376066833343745E-002
 -7.999999999999990E-004    1.794016041338911E-002
 -6.999999999999989E-004    1.183255572515929E-002
 -5.999999999999990E-004    5.431672665109106E-003
 -4.999999999999989E-004   -1.268613671551104E-003
 -3.999999999999989E-004   -8.274361942958382E-003
 -2.999999999999989E-004   -1.559154434659426E-002
 -1.999999999999989E-004   -2.322604436540071E-002
 -9.999999999999892E-005   -3.118364612345724E-002
  1.084202172485504E-018   -3.947001821795681E-002
  1.000000000000011E-004   -4.809069638412004E-002
  2.000000000000011E-004   -5.705111135907929E-002
  3.000000000000011E-004   -6.635650439476694E-002
  4.000000000000011E-004   -7.601197650924417E-002
  5.000000000000011E-004   -8.602245716969723E-002
  6.000000000000011E-004   -9.639268975985255E-002
  7.000000000000011E-004   -0.107127214044112     
  8.000000000000011E-004   -0.118230377030811     
  9.000000000000012E-004   -0.129706289507415     
  1.000000000000001E-003   -0.141558860564630     
  1.100000000000001E-003   -0.153791721111262     
  1.200000000000001E-003   -0.166408293930414     
  1.300000000000001E-003   -0.179411696501277     
  1.400000000000001E-003   -0.192804803795864     
  1.500000000000001E-003   -0.206590186445828     
  1.600000000000001E-003   -0.220770135587779     
  1.700000000000001E-003   -0.235346624616024     
  1.800000000000001E-003   -0.250321274493048     
  1.900000000000001E-003   -0.265695410902948     
  2.000000000000001E-003   -0.281469949914819     
  2.100000000000001E-003   -0.297645500552478     
  2.200000000000001E-003   -0.314222267918422     
  2.300000000000001E-003   -0.331200064348322     
  2.400000000000001E-003   -0.348578285022646     
  2.500000000000001E-003   -0.366355957353122     
  2.600000000000001E-003   -0.384531644148431     
  2.700000000000001E-003   -0.403103503913322     
  2.800000000000001E-003   -0.422069210606446     
  2.900000000000001E-003   -0.441426082828808     
  3.000000000000001E-003   -0.461170842309529     
  3.100000000000001E-003   -0.481299817178210     
  3.200000000000001E-003   -0.501808857001561     
  3.300000000000001E-003   -0.522693305096009     
  3.400000000000001E-003   -0.543947965369154     
  3.500000000000001E-003   -0.565567218645845     
  3.600000000000001E-003   -0.587544843914786     
  3.700000000000001E-003   -0.609874131440131     
  3.800000000000001E-003   -0.632547858312570     
  3.900000000000001E-003   -0.655558227934597     
  4.000000000000001E-003   -0.678896902154390     
  4.100000000000001E-003   -0.702555035468923     
  4.200000000000001E-003   -0.726523174477238     
  4.300000000000001E-003   -0.750791290203843     
  4.400000000000001E-003   -0.775348867993620     
  4.500000000000001E-003   -0.800184732215416     
  4.600000000000002E-003   -0.825287225720035     
  4.700000000000001E-003   -0.850643986630505     
  4.800000000000001E-003   -0.876242239720390     
  4.900000000000002E-003   -0.902068526068240     
  5.000000000000001E-003   -0.928108917479665     
  5.100000000000001E-003   -0.954348794778899     
  5.200000000000001E-003   -0.980772970172868     
  5.300000000000002E-003    -1.00736573075141     
  5.400000000000001E-003    -1.03411084984441     
  5.500000000000001E-003    -1.06099142015555     
  5.600000000000002E-003    -1.08799004849943     
  5.700000000000001E-003    -1.11508881392472     
  5.800000000000001E-003    -1.14226923595922     
  5.900000000000002E-003    -1.16951227491535     
  6.000000000000001E-003    -1.19679832341262     
  6.100000000000001E-003    -1.22410731789714     
  6.200000000000002E-003    -1.25141865686602     
  6.300000000000002E-003    -1.27871127826700     
  6.400000000000001E-003    -1.30596362071887     
  6.500000000000001E-003    -1.33315363219366     
  6.600000000000002E-003    -1.36025874068343     
  6.700000000000001E-003    -1.38725608412910     
  6.800000000000001E-003    -1.41412224099090     
  6.900000000000002E-003    -1.44083334162430     
  7.000000000000001E-003    -1.46736525541925     
  7.100000000000001E-003    -1.49369344481990     
  7.200000000000002E-003    -1.51979298456295     
  7.300000000000002E-003    -1.54563856030965     
  7.400000000000001E-003    -1.57120459996945     
  7.500000000000001E-003    -1.59646517404157     
  7.600000000000002E-003    -1.62139415287123     
  7.700000000000001E-003    -1.64596525581625     
  7.800000000000001E-003    -1.67015173818992     
  7.900000000000001E-003    -1.69392682138785     
  8.000000000000002E-003    -1.71726347478230     
  8.100000000000001E-003    -1.74013456748925     
  8.200000000000001E-003    -1.76251279785748     
  8.300000000000002E-003    -1.78437075698937     
  8.400000000000001E-003    -1.80568106971009     
  8.500000000000002E-003    -1.82641628293814     
  8.600000000000002E-003    -1.84654885991534     
  8.700000000000001E-003    -1.86605131272283     
  8.800000000000002E-003    -1.88489622934201     
  8.900000000000002E-003    -1.90305621884387     
  9.000000000000001E-003    -1.92050398100150     
  9.100000000000002E-003    -1.93721245003605     
  9.200000000000002E-003    -1.95315466606972     
  9.300000000000001E-003    -1.96830412918901     
  9.400000000000002E-003    -1.98263429862786     
  9.500000000000001E-003    -1.99611894444158     
  9.600000000000001E-003    -2.00873219080567     
  9.700000000000002E-003    -2.02044868077249     
  9.800000000000001E-003    -2.03124312830593     
  9.900000000000001E-003    -2.04109095031328     
  1.000000000000000E-002    -2.04996766326957     
  1.010000000000000E-002    -2.05784963656051     
  1.020000000000000E-002    -2.06471344244227     
  1.030000000000000E-002    -2.07053640560806     
  1.040000000000000E-002    -2.07529628154124     
  1.050000000000000E-002    -2.07897137802038     
  1.060000000000000E-002    -2.08154104310589     
  1.070000000000000E-002    -2.08298481179064     
  1.080000000000000E-002    -2.08328325310073     
  1.090000000000000E-002    -2.08241761689797     
  1.100000000000000E-002    -2.08036989744269     
  1.110000000000000E-002    -2.07712290919638     
  1.120000000000000E-002    -2.07266025030511     
  1.130000000000000E-002    -2.06696644900682     
  1.140000000000000E-002    -2.06002686218916     
  1.150000000000000E-002    -2.05182802910529     
  1.160000000000000E-002    -2.04235705950112     
  1.170000000000000E-002    -2.03160222897383     
  1.180000000000000E-002    -2.01955296889060     
  1.190000000000000E-002    -2.00619950187865     
  1.200000000000000E-002    -1.99153307315307     
  1.210000000000000E-002    -1.97554604326324     
  1.220000000000000E-002    -1.95823201897587     
  1.230000000000000E-002    -1.93958571404387     
  1.240000000000000E-002    -1.91960267418297     
  1.250000000000000E-002    -1.89827994869229     
  1.260000000000000E-002    -1.87561559810437     
  1.270000000000000E-002    -1.85160891175122     
  1.280000000000000E-002    -1.82626036568338     
  1.290000000000000E-002    -1.79957168746860     
  1.300000000000000E-002    -1.77154580158277     
  1.310000000000000E-002    -1.74218689475067     
  1.320000000000000E-002    -1.71150046572810     
  1.330000000000000E-002    -1.67949300351966     
  1.340000000000000E-002    -1.64617267270873     
  1.350000000000000E-002    -1.61154861677535     
  1.360000000000000E-002    -1.57563136202701     
  1.370000000000000E-002    -1.53843257642922     
  1.380000000000000E-002    -1.49996532668176     
  1.390000000000000E-002    -1.46024395474405     
  1.400000000000000E-002    -1.41928388749233     
  1.410000000000000E-002    -1.37710205584505     
  1.420000000000000E-002    -1.33371652702671     
  1.430000000000000E-002    -1.28914656635127     
  1.440000000000000E-002    -1.24341277546366     
  1.450000000000000E-002    -1.19653696329721     
  1.460000000000000E-002    -1.14854206035054     
  1.470000000000000E-002    -1.09945237678013     
  1.480000000000000E-002    -1.04929324631315     
  1.490000000000000E-002   -0.998091313646547     
  1.500000000000000E-002   -0.945874218253161     
  1.510000000000000E-002   -0.892670829321794     
  1.520000000000000E-002   -0.838511062936623     
  1.530000000000000E-002   -0.783425967071910     
  1.540000000000000E-002   -0.727447523392239     
  1.550000000000000E-002   -0.670608858331844     
  1.560000000000000E-002   -0.612944135343775     
  1.570000000000000E-002   -0.554488300098161     
  1.580000000000000E-002   -0.495277424332597     
  1.590000000000000E-002   -0.435348296244663     
  1.600000000000000E-002   -0.374738740429036     
  1.610000000000000E-002   -0.313487321452048     
  1.620000000000000E-002   -0.251633459067642     
  1.630000000000000E-002   -0.189217228561425     
  1.640000000000000E-002   -0.126279577089679     
  1.650000000000000E-002   -6.286201302935221E-002
  1.660000000000000E-002    9.932598006329673E-004
  1.670000000000000E-002    6.524344545727292E-002
  1.680000000000000E-002    0.129845169630584     
  1.690000000000000E-002    0.194754541550348     
  1.700000000000000E-002    0.259927264218577     
  1.710000000000000E-002    0.325318532175006     
  1.720000000000000E-002    0.390883220216912     
  1.730000000000000E-002    0.456575834488131     
  1.740000000000000E-002    0.522350670700363     
  1.750000000000000E-002    0.588161656693608     
  1.760000000000000E-002    0.653962609227851     
  1.770000000000000E-002    0.719707235426201     
  1.780000000000000E-002    0.785349036043953     
  1.790000000000000E-002    0.850841594403444     
  1.800000000000000E-002    0.916138527436365     
  1.810000000000000E-002    0.981193317991282     
  1.820000000000000E-002     1.04595979500196     
  1.830000000000000E-002     1.11039173543523     
  1.840000000000000E-002     1.17444332791479     
  1.850000000000000E-002     1.23806873308883     
  1.860000000000000E-002     1.30122264640685     
  1.870000000000000E-002     1.36386001580130     