 -4.000000000000000E-002    0.000000000000000E+000
 -3.990000000000000E-002    0.000000000000000E+000
 -3.980000000000000E-002    0.000000000000000E+000
 -3.970000000000000E-002    0.000000000000000E+000
 -3.960000000000000E-002    0.000000000000000E+000
 -3.950000000000000E-002    0.000000000000000E+000
 -3.940000000000000E-002    0.000000000000000E+000
 -3.930000000000000E-002    0.000000000000000E+000
 -3.920000000000000E-002    0.000000000000000E+000
 -3.910000000000000E-002    0.000000000000000E+000
 -3.900000000000000E-002    0.000000000000000E+000
 -3.890000000000000E-002   -2.346391875583286E-038
 -3.880000000000000E-002   -5.029124261323292E-037
 -3.870000000000000E-002   -5.574314053134584E-036
 -3.860000000000000E-002   -4.249893011065193E-035
 -3.850000000000000E-002   -2.501286471152173E-034
 -3.840000000000000E-002   -1.209304975994938E-033
 -3.830000000000000E-002   -4.990712630374021E-033
 -3.820000000000000E-002   -1.803719921843016E-032
 -3.810000000000000E-002   -5.811894090130220E-032
 -3.800000000000000E-002   -1.690905563499740E-031
 -3.790000000000000E-002   -4.481534222589215E-031
 -3.780000000000000E-002   -1.088235591352092E-030
 -3.770000000000000E-002   -2.427599017392830E-030
 -3.760000000000000E-002   -4.970867076239498E-030
 -3.750000000000000E-002   -9.288222990499011E-030
 -3.740000000000000E-002   -1.560117117730761E-029
 -3.730000000000000E-002   -2.272250072330711E-029
 -3.720000000000000E-002   -2.585974560792569E-029
 -3.710000000000000E-002   -1.268892219996196E-029
 -3.700000000000000E-002    4.279545309492107E-029
 -3.690000000000000E-002    1.886179519504116E-028
 -3.680000000000000E-002    5.040541896717201E-028
 -3.670000000000000E-002    1.106196614390920E-027
 -3.660000000000000E-002    2.146889891826037E-027
 -3.650000000000000E-002    3.788806562320783E-027
 -3.640000000000000E-002    6.145253889251467E-027
 -3.630000000000000E-002    9.166103503727957E-027
 -3.620000000000000E-002    1.245490991401401E-026
 -3.610000000000000E-002    1.501346163190159E-026
 -3.600000000000000E-002    1.493319713210714E-026
 -3.590000000000000E-002    9.089978451649204E-027
 -3.580000000000000E-002   -7.052375997999035E-027
 -3.570000000000000E-002   -3.937160330955588E-026
 -3.560000000000000E-002   -9.455071356382076E-026
 -3.550000000000000E-002   -1.788724977650223E-025
 -3.540000000000000E-002   -2.962011458083711E-025
 -3.530000000000000E-002   -4.451571254337525E-025
 -3.520000000000000E-002   -6.157416026513054E-025
 -3.510000000000000E-002   -7.859961494734845E-025
 -3.500000000000000E-002   -9.196252524694021E-025
 -3.490000000000000E-002   -9.657391736360465E-025
 -3.480000000000000E-002   -8.618147720560886E-025
 -3.470000000000000E-002   -5.404284251246317E-025
 -3.460000000000000E-002    6.088357803179493E-026
 -3.450000000000000E-002    9.891684642912380E-025
 -3.440000000000000E-002    2.269905556664006E-024
 -3.430000000000000E-002    3.912380883912753E-024
 -3.420000000000000E-002    5.935074037506689E-024
 -3.410000000000000E-002    8.418424157521924E-024
 -3.400000000000000E-002    1.158715784196514E-023
 -3.390000000000000E-002    1.591373246290492E-023
 -3.380000000000000E-002    2.221752464526278E-023
 -3.370000000000000E-002    3.171199803678351E-023
 -3.360000000000000E-002    4.592695087477677E-023
 -3.350000000000000E-002    6.641140153051470E-023
 -3.340000000000000E-002    9.411327265143728E-023
 -3.330000000000000E-002    1.283470769742240E-022
 -3.320000000000000E-002    1.653128337144716E-022
 -3.310000000000000E-002    1.962291443062834E-022
 -3.300000000000000E-002    2.052973779894801E-022
 -3.290000000000000E-002    1.679158578702740E-022
 -3.280000000000000E-002    4.979229378635792E-023
 -3.270000000000000E-002   -1.921780340875403E-022
 -3.260000000000000E-002   -6.062551801634722E-022
 -3.250000000000000E-002   -1.238400951060062E-021
 -3.240000000000000E-002   -2.120245583520509E-021
 -3.230000000000000E-002   -3.252217991428560E-021
 -3.220000000000000E-002   -4.582468960834631E-021
 -3.210000000000000E-002   -5.983445492816827E-021
 -3.200000000000000E-002   -7.229446679420473E-021
 -3.190000000000000E-002   -7.980074628619654E-021
 -3.180000000000000E-002   -7.775836993595623E-021
 -3.170000000000000E-002   -6.053007274529485E-021
 -3.160000000000000E-002   -2.184672926245607E-021
 -3.150000000000000E-002    4.446510621424265E-021
 -3.140000000000000E-002    1.434146700855736E-020
 -3.130000000000000E-002    2.774602734543209E-020
 -3.120000000000000E-002    4.448893631265029E-020
 -3.110000000000000E-002    6.381195759749939E-020
 -3.100000000000000E-002    8.421468841173121E-020
 -3.090000000000000E-002    1.033420121906234E-019
 -3.080000000000000E-002    1.179455276229291E-019
 -3.070000000000000E-002    1.239490526888159E-019
 -3.060000000000000E-002    1.166428081058270E-019
 -3.050000000000000E-002    9.102011087235580E-020
 -3.040000000000000E-002    4.225553584558804E-020
 -3.030000000000000E-002   -3.369416388358030E-020
 -3.020000000000000E-002   -1.394020223063544E-019
 -3.010000000000000E-002   -2.752457361799649E-019
 -3.000000000000000E-002   -4.387015669777920E-019
 -2.990000000000000E-002   -6.237131349796642E-019
 -2.980000000000000E-002   -8.201780518774332E-019
 -2.970000000000000E-002   -1.013577031071321E-018
 -2.960000000000000E-002   -1.184750585929853E-018
 -2.950000000000000E-002   -1.309812818168677E-018
 -2.940000000000000E-002   -1.360195412639273E-018
 -2.930000000000000E-002   -1.302844715199503E-018
 -2.920000000000000E-002   -1.100658636708135E-018
 -2.910000000000000E-002   -7.133520191859616E-019
 -2.900000000000000E-002   -9.906623425973214E-020
 -2.890000000000000E-002    7.828306090741283E-019
 -2.880000000000000E-002    1.967197514887921E-018
 -2.870000000000000E-002    3.476259465057712E-018
 -2.860000000000000E-002    5.309958636162596E-018
 -2.850000000000000E-002    7.433352047391099E-018
 -2.840000000000000E-002    9.761405798115953E-018
 -2.830000000000000E-002    1.214229494881309E-017
 -2.820000000000000E-002    1.434127039786515E-017
 -2.810000000000000E-002    1.602821790950009E-017
 -2.800000000000000E-002    1.677305358481754E-017
 -2.790000000000000E-002    1.605382686093473E-017
 -2.780000000000000E-002    1.328263660260801E-017
 -2.770000000000000E-002    7.853878883058462E-018
 -2.760000000000000E-002   -7.822775626988011E-019
 -2.750000000000000E-002   -1.302109765646188E-017
 -2.740000000000000E-002   -2.898302366340023E-017
 -2.730000000000000E-002   -4.838084093173219E-017
 -2.720000000000000E-002   -7.038851453846060E-017
 -2.710000000000000E-002   -9.353135854202436E-017
 -2.700000000000000E-002   -1.156212584800071E-016
 -2.690000000000000E-002   -1.337628051593586E-016
 -2.680000000000000E-002   -1.444549561509326E-016
 -2.670000000000000E-002   -1.438075846086728E-016
 -2.660000000000000E-002   -1.278823656404940E-016
 -2.650000000000000E-002   -9.315306773469049E-017
 -2.640000000000000E-002   -3.706200667965729E-017
 -2.630000000000000E-002    4.137089593778411E-017
 -2.620000000000000E-002    1.409500036469813E-016
 -2.610000000000000E-002    2.577975877391202E-016
 -2.600000000000000E-002    3.850294146198715E-016
 -2.590000000000000E-002    5.127032300459264E-016
 -2.580000000000000E-002    6.281181086866398E-016
 -2.570000000000000E-002    7.165155766433141E-016
 -2.560000000000000E-002    7.621940170263534E-016
 -2.550000000000000E-002    7.499942900366888E-016
 -2.540000000000000E-002    6.670577883828154E-016
 -2.530000000000000E-002    5.046992021797603E-016
 -2.520000000000000E-002    2.601879404421354E-016
 -2.510000000000000E-002   -6.179882221188780E-017
 -2.500000000000000E-002   -4.482926117983622E-016
 -2.490000000000000E-002   -8.779320770377889E-016
 -2.480000000000000E-002   -1.321790921236259E-015
 -2.470000000000000E-002   -1.745186266450952E-015
 -2.460000000000000E-002   -2.110392447476522E-015
 -2.450000000000000E-002   -2.380050218636708E-015
 -2.440000000000000E-002   -2.520932406326713E-015
 -2.430000000000000E-002   -2.507617986949668E-015
 -2.420000000000000E-002   -2.325576253030009E-015
 -2.410000000000000E-002   -1.973167400615727E-015
 -2.400000000000000E-002   -1.462156408883855E-015
 -2.390000000000000E-002   -8.165009932748246E-016
 -2.380000000000000E-002   -6.940959888514755E-017
 -2.370000000000000E-002    7.410555948317013E-016
 -2.360000000000000E-002    1.577269647920031E-015
 -2.350000000000000E-002    2.407416550295134E-015
 -2.340000000000000E-002    3.209965595713706E-015
 -2.330000000000000E-002    3.976238829269314E-015
 -2.320000000000000E-002    4.710188149915026E-015
 -2.310000000000000E-002    5.424802586306877E-015
 -2.300000000000000E-002    6.135049770550292E-015
 -2.290000000000000E-002    6.847846783172051E-015
 -2.280000000000000E-002    7.550223418157283E-015
 -2.270000000000000E-002    8.197449567604082E-015
 -2.260000000000000E-002    8.703380471339650E-015
 -2.250000000000000E-002    8.935489185188018E-015
 -2.240000000000000E-002    8.716920041285959E-015
 -2.230000000000000E-002    7.837367224751319E-015
 -2.220000000000000E-002    6.073633631051634E-015
 -2.210000000000000E-002    3.219416542836110E-015
 -2.200000000000000E-002   -8.776687735803761E-016
 -2.190000000000000E-002   -6.275408210363454E-015
 -2.180000000000000E-002   -1.289763154119887E-014
 -2.170000000000000E-002   -2.050216775774742E-014
 -2.160000000000000E-002   -2.866239284259527E-014
 -2.150000000000000E-002   -3.676814324676711E-014
 -2.140000000000000E-002   -4.405030203277431E-014
 -2.130000000000000E-002   -4.963101284870622E-014
 -2.120000000000000E-002   -5.259832638179998E-014
 -2.110000000000000E-002   -5.210055936106421E-014
 -2.100000000000000E-002   -4.745212689471687E-014
 -2.090000000000000E-002   -3.823944732062313E-014
 -2.080000000000000E-002   -2.441361377820403E-014
 -2.070000000000000E-002   -6.355870313335202E-015
 -2.060000000000000E-002    1.509674649777239E-014
 -2.050000000000000E-002    3.867500410689628E-014
 -2.040000000000000E-002    6.275467541141058E-014
 -2.030000000000000E-002    8.548530426676725E-014
 -2.020000000000000E-002    1.049611849582135E-013
 -2.010000000000000E-002    1.194183383140921E-013
 -2.000000000000000E-002    1.274353983844855E-013
 -1.990000000000000E-002    1.281126818172845E-013
 -1.980000000000000E-002    1.212032009561059E-013
 -1.970000000000000E-002    1.071724735192981E-013
 -1.960000000000000E-002    8.717055845269761E-014
 -1.950000000000000E-002    6.291009993517636E-014
 -1.940000000000000E-002    3.645635531533534E-014
 -1.930000000000000E-002    9.948745184390588E-015
 -1.920000000000000E-002   -1.471407586715918E-014
 -1.910000000000000E-002   -3.618369336577968E-014
 -1.900000000000000E-002   -5.391886180664743E-014
 -1.890000000000000E-002   -6.834342682608421E-014
 -1.880000000000000E-002   -8.086644545415504E-014
 -1.870000000000000E-002   -9.373972999672732E-014
 -1.860000000000000E-002   -1.097483676928991E-013
 -1.850000000000000E-002   -1.317530481772668E-013
 -1.840000000000000E-002   -1.621279328352946E-013
 -1.830000000000000E-002   -2.021597302545896E-013
 -1.820000000000000E-002   -2.514901954329048E-013
 -1.810000000000000E-002   -3.076910260370777E-013
 -1.800000000000000E-002   -3.660566241595370E-013
 -1.790000000000000E-002   -4.196831665138683E-013
 -1.780000000000000E-002   -4.598740498878423E-013
 -1.770000000000000E-002   -4.768741599055489E-013
 -1.760000000000000E-002   -4.608908745628454E-013
 -1.750000000000000E-002   -4.033158218107871E-013
 -1.740000000000000E-002   -2.980220425654356E-013
 -1.730000000000000E-002   -1.425831111449903E-013
 -1.720000000000000E-002    6.075004790713902E-014
 -1.710000000000000E-002    3.044705230551006E-013
 -1.700000000000000E-002    5.757608141893885E-013
 -1.690000000000000E-002    8.570378591022048E-013
 -1.680000000000000E-002    1.127106913501350E-012
 -1.670000000000000E-002    1.362859103395118E-012
 -1.660000000000000E-002    1.541372915880522E-012
 -1.650000000000000E-002    1.642213634379515E-012
 -1.640000000000000E-002    1.649680249729785E-012
 -1.630000000000000E-002    1.554729646789853E-012
 -1.620000000000000E-002    1.356323782142460E-012
 -1.610000000000000E-002    1.061992770496961E-012
 -1.600000000000000E-002    6.874867602572564E-013
 -1.590000000000000E-002    2.554939688118767E-013
 -1.580000000000000E-002   -2.064832175782797E-013
 -1.570000000000000E-002   -6.688868339946857E-013
 -1.560000000000000E-002   -1.103192114957060E-012
 -1.550000000000000E-002   -1.484955794796197E-012
 -1.540000000000000E-002   -1.796430454027854E-012
 -1.530000000000000E-002   -2.028375942798082E-012
 -1.520000000000000E-002   -2.180779464455825E-012
 -1.510000000000000E-002   -2.262317340916084E-012
 -1.500000000000000E-002   -2.288546059712449E-012
 -1.490000000000000E-002   -2.278983908929188E-012
 -1.480000000000000E-002   -2.253407208677106E-012
 -1.470000000000000E-002   -2.227822494110148E-012
 -1.460000000000000E-002   -2.210663622145838E-012
 -1.450000000000000E-002   -2.199784287131265E-012
 -1.440000000000000E-002   -2.180765299505518E-012
 -1.430000000000000E-002   -2.126929614240418E-012
 -1.420000000000000E-002   -2.001270991965549E-012
 -1.410000000000000E-002   -1.760266661640288E-012
 -1.400000000000000E-002   -1.359295858404686E-012
 -1.390000000000000E-002   -7.591458215972440E-013
 -1.380000000000000E-002    6.710632775608783E-014
 -1.370000000000000E-002    1.127664552742507E-012
 -1.360000000000000E-002    2.406899018580070E-012
 -1.350000000000000E-002    3.862317219276240E-012
 -1.340000000000000E-002    5.424223003834628E-012
 -1.330000000000000E-002    6.998382809215446E-012
 -1.320000000000000E-002    8.471701770622990E-012
 -1.310000000000000E-002    9.720548325114122E-012
 -1.300000000000000E-002    1.062103830555992E-011
 -1.290000000000000E-002    1.106030958270926E-011
 -1.280000000000000E-002    1.094765522428182E-011
 -1.270000000000000E-002    1.022431477692141E-011
 -1.260000000000000E-002    8.870828308991641E-012
 -1.250000000000000E-002    6.911067030945588E-012
 -1.240000000000000E-002    4.412390957267056E-012
 -1.230000000000000E-002    1.481800779388298E-012
 -1.220000000000000E-002   -1.741618292293850E-012
 -1.210000000000000E-002   -5.097227725456988E-012
 -1.200000000000000E-002   -8.415279560078023E-012
 -1.190000000000000E-002   -1.152996406435641E-011
 -1.180000000000000E-002   -1.429168970283890E-011
 -1.170000000000000E-002   -1.657729726612189E-011
 -1.160000000000000E-002   -1.829714159260659E-011
 -1.150000000000000E-002   -1.939836761502435E-011
 -1.140000000000000E-002   -1.986414651055982E-011
 -1.130000000000000E-002   -1.970913053481555E-011
 -1.120000000000000E-002   -1.897185470151144E-011
 -1.110000000000000E-002   -1.770519400451155E-011
 -1.100000000000000E-002   -1.596622673102224E-011
 -1.090000000000000E-002   -1.380693657699141E-011
 -1.080000000000000E-002   -1.126708533699587E-011
 -1.070000000000000E-002   -8.370330247246105E-012
 -1.060000000000000E-002   -5.124243196977271E-012
 -1.050000000000000E-002   -1.524393109412460E-012
 -1.040000000000000E-002    2.437875442720781E-012
 -1.030000000000000E-002    6.764826733736768E-012
 -1.020000000000000E-002    1.144017444596299E-011
 -1.010000000000000E-002    1.641690851638785E-011
 -1.000000000000000E-002    2.160676949699843E-011
 -9.899999999999999E-003    2.687290259816382E-011
 -9.800000000000000E-003    3.202700476339458E-011
 -9.699999999999999E-003    3.683184179599168E-011
 -9.599999999999999E-003    4.100949773714260E-011
 -9.500000000000000E-003    4.425516564682035E-011
 -9.399999999999999E-003    4.625574045309981E-011
 -9.299999999999999E-003    4.671197621588635E-011
 -9.200000000000000E-003    4.536257348193224E-011
 -9.099999999999999E-003    4.200838195562230E-011
 -8.999999999999999E-003    3.653472735622713E-011
 -8.900000000000000E-003    2.893002016398116E-011
 -8.799999999999999E-003    1.929896860484193E-011
 -8.699999999999999E-003    7.869079652640565E-012
 -8.600000000000000E-003   -5.010461331883394E-012
 -8.499999999999999E-003   -1.887795588616787E-011
 -8.399999999999999E-003   -3.317629458735141E-011
 -8.300000000000000E-003   -4.727740910618267E-011
 -8.199999999999999E-003   -6.051295409965879E-011
 -8.100000000000000E-003   -7.220966956396683E-011
 -8.000000000000000E-003   -8.172749445079667E-011
 -7.899999999999999E-003   -8.849814604692943E-011
 -7.800000000000000E-003   -9.206175969790734E-011
 -7.699999999999999E-003   -9.209901944606232E-011
 -7.599999999999999E-003   -8.845633385451863E-011
 -7.499999999999999E-003   -8.116192592901129E-011
 -7.399999999999999E-003   -7.043101274477115E-011
 -7.299999999999999E-003   -5.665906220902730E-011
 -7.199999999999999E-003   -4.040280519353632E-011
 -7.100000000000000E-003   -2.234964588898099E-011
 -6.999999999999999E-003   -3.277227792968547E-012
 -6.899999999999999E-003    1.599428101946325E-011
 -6.800000000000000E-003    3.465361783052113E-011
 -6.699999999999999E-003    5.194944921509604E-011
 -6.599999999999999E-003    6.723661045095611E-011
 -6.499999999999999E-003    8.001330248739211E-011
 -6.399999999999999E-003    8.994561653092986E-011
 -6.299999999999999E-003    9.687684485580327E-011
 -6.199999999999999E-003    1.008203900116907E-010
 -6.100000000000000E-003    1.019369090459311E-010
 -5.999999999999999E-003    1.004980738357459E-010
 -5.899999999999999E-003    9.684088339032231E-011
 -5.800000000000000E-003    9.131800951759858E-011
 -5.699999999999999E-003    8.425020705275774E-011
 -5.599999999999999E-003    7.588715167719165E-011
 -5.499999999999999E-003    6.638215568748156E-011
 -5.399999999999999E-003    5.578492661272376E-011
 -5.299999999999999E-003    4.405439858913320E-011
 -5.199999999999999E-003    3.109102727666381E-011
 -5.099999999999999E-003    1.678532338529444E-011
 -4.999999999999999E-003    1.076847547009220E-012
 -4.899999999999999E-003   -1.598426103653608E-011
 -4.799999999999999E-003   -3.418213556791869E-011
 -4.699999999999999E-003   -5.309564688667240E-011
 -4.599999999999999E-003   -7.208245719757272E-011
 -4.499999999999999E-003   -9.029245660456053E-011
 -4.399999999999999E-003   -1.067131292660982E-010
 -4.299999999999999E-003   -1.202454472883916E-010
 -4.199999999999999E-003   -1.298046317768104E-010
 -4.099999999999999E-003   -1.344364723228511E-010
 -3.999999999999999E-003   -1.334365983341409E-010
 -3.899999999999999E-003   -1.264585003616705E-010
 -3.799999999999999E-003   -1.135956744478392E-010
 -3.699999999999999E-003   -9.542510426618169E-011
 -3.599999999999999E-003   -7.300268482305240E-011
 -3.499999999999999E-003   -4.780575654584232E-011
 -3.399999999999999E-003   -2.162403023548432E-011
 -3.299999999999999E-003    3.593485348232606E-012
 -3.199999999999999E-003    2.592254228684510E-011
 -3.099999999999999E-003    4.366032954303944E-011
 -2.999999999999999E-003    5.551368731850458E-011
 -2.899999999999999E-003    6.075700719681574E-011
 -2.799999999999999E-003    5.933962629361977E-011
 -2.699999999999999E-003    5.192664449779267E-011
 -2.599999999999999E-003    3.986386543887754E-011
 -2.499999999999999E-003    2.506492922900860E-011
 -2.399999999999999E-003    9.827507260939378E-012
 -2.299999999999999E-003   -3.405916142465178E-012
 -2.199999999999999E-003   -1.232035551551907E-011
 -2.099999999999999E-003   -1.500638404567027E-011
 -1.999999999999999E-003   -1.021430438781346E-011
 -1.899999999999999E-003    2.444709550654952E-012
 -1.799999999999999E-003    2.237454928343713E-011
 -1.699999999999999E-003    4.796538190045553E-011
 -1.599999999999999E-003    7.666833125512004E-011
 -1.499999999999999E-003    1.051720299802175E-010
 -1.399999999999999E-003    1.296684390115565E-010
 -1.299999999999999E-003    1.461865630873759E-010
 -1.199999999999999E-003    1.509646230222870E-010
 -1.099999999999999E-003    1.408275979586772E-010
 -9.999999999999989E-004    1.135354350921020E-010
 -8.999999999999990E-004    6.806980437344103E-011
 -7.999999999999990E-004    4.834053441481698E-012
 -6.999999999999989E-004   -7.425228536959770E-011
 -5.999999999999990E-004   -1.657719449062536E-010
 -4.999999999999989E-004   -2.649386398310105E-010
 -3.999999999999989E-004   -3.658242014171551E-010
 -2.999999999999989E-004   -4.616638560678335E-010
 -1.999999999999989E-004   -5.452139270849755E-010
 -9.999999999999892E-005   -6.091350565266839E-010
  1.084202172485504E-018   -6.463741259781801E-010
  1.000000000000011E-004   -6.505221821366520E-010
  2.000000000000011E-004   -6.161317718302402E-010
  3.000000000000011E-004   -5.389844719714340E-010
  4.000000000000011E-004   -4.163068785306408E-010
  5.000000000000011E-004   -2.469387351990769E-010
  6.000000000000011E-004   -3.146333681107243E-011
  7.000000000000011E-004    2.276896993953412E-010
  8.000000000000011E-004    5.261596488165932E-010
  9.000000000000012E-004    8.575812651378551E-010
  1.000000000000001E-003    1.213523316697324E-009
  1.100000000000001E-003    1.583446672849850E-009
  1.200000000000001E-003    1.954696402481804E-009
  1.300000000000001E-003    2.312551400589931E-009
  1.400000000000001E-003    2.640355886257470E-009
  1.500000000000001E-003    2.919764496743069E-009
  1.600000000000001E-003    3.131122871584819E-009
  1.700000000000001E-003    3.254009212569525E-009
  1.800000000000001E-003    3.267943708219777E-009
  1.900000000000001E-003    3.153268721344376E-009
  2.000000000000001E-003    2.892181973879392E-009
  2.100000000000001E-003    2.469898640010736E-009
  2.200000000000001E-003    1.875897542672581E-009
  2.300000000000001E-003    1.105202365180499E-009
  2.400000000000001E-003    1.596392262245350E-010
  2.500000000000001E-003   -9.509874944609019E-010
  2.600000000000001E-003   -2.207858065782261E-009
  2.700000000000001E-003   -3.582289345232375E-009
  2.800000000000001E-003   -5.035109450327497E-009
  2.900000000000001E-003   -6.516275144422938E-009
  3.000000000000001E-003   -7.964742307259186E-009
  3.100000000000001E-003   -9.308564254963147E-009
  3.200000000000001E-003   -1.046519710480565E-008
  3.300000000000001E-003   -1.134195791569785E-008
  3.400000000000001E-003   -1.183657949310533E-008
  3.500000000000001E-003   -1.183780622917593E-008
  3.600000000000001E-003   -1.122594087520676E-008
  3.700000000000001E-003   -9.873304838589547E-009
  3.800000000000001E-003   -7.644542986143133E-009
  3.900000000000001E-003   -4.396708137459421E-009
  4.000000000000001E-003    2.088246221508341E-011
  4.100000000000001E-003    5.767030829042862E-009
  4.200000000000001E-003    1.300934127715423E-008
  4.300000000000001E-003    2.192508949969408E-008
  4.400000000000001E-003    3.270234657297792E-008
  4.500000000000001E-003    4.554124775065770E-008
  4.600000000000002E-003    6.065536039040889E-008
  4.700000000000001E-003    7.827308707273869E-008
  4.800000000000001E-003    9.863907008367688E-008
  4.900000000000002E-003    1.220154543067893E-007
  5.000000000000001E-003    1.486829749773846E-007
  5.100000000000001E-003    1.789418292200629E-007
  5.200000000000001E-003    2.131122259623082E-007
  5.300000000000002E-003    2.515346520575429E-007
  5.400000000000001E-003    2.945697730282898E-007
  5.500000000000001E-003    3.425978929128503E-007
  5.600000000000002E-003    3.960182491344628E-007
  5.700000000000001E-003    4.552478789107042E-007
  5.800000000000001E-003    5.207203318190337E-007
  5.900000000000002E-003    5.928841412455620E-007
  6.000000000000001E-003    6.722014312950788E-007
  6.100000000000001E-003    7.591462956311760E-007
  6.200000000000002E-003    8.542034482917545E-007
  6.300000000000002E-003    9.578673126459710E-007
  6.400000000000001E-003    1.070641157424040E-006
  6.500000000000001E-003    1.193036923859520E-006
  6.600000000000002E-003    1.325575315205455E-006
  6.700000000000001E-003    1.468786855544379E-006
  6.800000000000001E-003    1.623212956415999E-006
  6.900000000000002E-003    1.789408284809409E-006
  7.000000000000001E-003    1.967942916564711E-006
  7.100000000000001E-003    2.159405836791063E-006
  7.200000000000002E-003    2.364408496102474E-006
  7.300000000000002E-003    2.583589105690989E-006
  7.400000000000001E-003    2.817615963652347E-006
  7.500000000000001E-003    3.067193780944690E-006
  7.600000000000002E-003    3.333067231951898E-006
  7.700000000000001E-003    3.616026588392953E-006
  7.800000000000001E-003    3.916912507812498E-006
  7.900000000000001E-003    4.236621599577182E-006
  8.000000000000002E-003    4.576110311225554E-006
  8.100000000000001E-003    4.936400153844106E-006
  8.200000000000001E-003    5.318582416866475E-006
  8.300000000000002E-003    5.723821671634310E-006
  8.400000000000001E-003    6.153360231631259E-006
  8.500000000000002E-003    6.608521086339208E-006
  8.600000000000002E-003    7.090711775737321E-006
  8.700000000000001E-003    7.601425883137268E-006
  8.800000000000002E-003    8.142247441922801E-006
  8.900000000000002E-003    8.714850451195683E-006
  9.000000000000001E-003    9.321002730882211E-006
  9.100000000000002E-003    9.962568107662974E-006
  9.200000000000002E-003    1.064150640777191E-005
  9.300000000000001E-003    1.135987608635448E-005
  9.400000000000002E-003    1.211983870706003E-005
  9.500000000000001E-003    1.292365859407396E-005
  9.600000000000001E-003    1.377370883398953E-005
  9.700000000000002E-003    1.467247630826931E-005
  9.800000000000001E-003    1.562256587766925E-005
  9.900000000000001E-003    1.662670998780400E-005
  1.000000000000000E-002    1.768777203067949E-005
  1.010000000000000E-002    1.880875592061670E-005
  1.020000000000000E-002    1.999282108290083E-005
  1.030000000000000E-002    2.124328966030680E-005
  1.040000000000000E-002    2.256365845991153E-005
  1.050000000000000E-002    2.395760906590295E-005
  1.060000000000000E-002    2.542902577837441E-005
  1.070000000000000E-002    2.698200192673709E-005
  1.080000000000000E-002    2.862085345594288E-005
  1.090000000000000E-002    3.035012633575824E-005
  1.100000000000000E-002    3.217461836613826E-005
  1.110000000000000E-002    3.409937586390062E-005
  1.120000000000000E-002    3.612970149429185E-005
  1.130000000000000E-002    3.827117144722883E-005
  1.140000000000000E-002    4.052963282179109E-005
  1.150000000000000E-002    4.291121353924773E-005
  1.160000000000000E-002    4.542232336313512E-005
  1.170000000000000E-002    4.806966347279966E-005
  1.180000000000000E-002    5.086022502777887E-005
  1.190000000000000E-002    5.380130779087760E-005
  1.200000000000000E-002    5.690050946293565E-005
  1.210000000000000E-002    6.016574934136645E-005
  1.220000000000000E-002    6.360527135827316E-005
  1.230000000000000E-002    6.722765739830056E-005
  1.240000000000000E-002    7.104184295529102E-005
  1.250000000000000E-002    7.505713026066011E-005
  1.260000000000000E-002    7.928320394940049E-005
  1.270000000000000E-002    8.373015612379603E-005
  1.280000000000000E-002    8.840849996150945E-005
  1.290000000000000E-002    9.332919293002904E-005
  1.300000000000000E-002    9.850367018670544E-005
  1.310000000000000E-002    1.039438383179025E-004
  1.320000000000000E-002    1.096621152930339E-004
  1.330000000000000E-002    1.156714555734630E-004
  1.340000000000000E-002    1.219853335217534E-004
  1.350000000000000E-002    1.286178334751343E-004
  1.360000000000000E-002    1.355835949231033E-004
  1.370000000000000E-002    1.428978659014454E-004
  1.380000000000000E-002    1.505765149709888E-004
  1.390000000000000E-002    1.586360647378200E-004
  1.400000000000000E-002    1.670937115070210E-004
  1.410000000000000E-002    1.759673167017124E-004
  1.420000000000000E-002    1.852754494436720E-004
  1.430000000000000E-002    1.950374338665263E-004
  1.440000000000000E-002    2.052733331854685E-004
  1.450000000000000E-002    2.160039912452810E-004
  1.460000000000000E-002    2.272510871306603E-004
  1.470000000000000E-002    2.390371066972454E-004
  1.480000000000000E-002    2.513854248509695E-004
  1.490000000000000E-002    2.643202910866584E-004
  1.500000000000000E-002    2.778669067084166E-004
  1.510000000000000E-002    2.920514330519396E-004
  1.520000000000000E-002    3.069009411619652E-004
  1.530000000000000E-002    3.224435004258224E-004
  1.540000000000000E-002    3.387082498124588E-004
  1.550000000000000E-002    3.557253650556744E-004
  1.560000000000000E-002    3.735260205111368E-004
  1.570000000000000E-002    3.921424989366198E-004
  1.580000000000000E-002    4.116081714510721E-004
  1.590000000000000E-002    4.319575661532943E-004
  1.600000000000000E-002    4.532262998988262E-004
  1.610000000000000E-002    4.754512154125631E-004
  1.620000000000000E-002    4.986703225991488E-004
  1.630000000000000E-002    5.229228626818078E-004
  1.640000000000000E-002    5.482494057249381E-004
  1.650000000000000E-002    5.746917510909072E-004
  1.660000000000000E-002    6.022930633144595E-004
  1.670000000000000E-002    6.310978694448456E-004
  1.680000000000000E-002    6.611522309909939E-004
  1.690000000000000E-002    6.925035769079363E-004
  1.700000000000000E-002    7.252008305531476E-004
  1.710000000000000E-002    7.592944839354278E-004
  1.720000000000000E-002    7.948365968966363E-004
  1.730000000000000E-002    8.318808586186474E-004
  1.740000000000000E-002    8.704826082796466E-004
  1.750000000000000E-002    9.106987783697464E-004
  1.760000000000000E-002    9.525880350267285E-004
  1.770000000000000E-002    9.962107676635256E-004
  1.780000000000000E-002    1.041628994733797E-003
  1.790000000000000E-002    1.088906580065514E-003
  1.800000000000000E-002    1.138109056292379E-003
  1.810000000000000E-002    1.189303714043537E-003
  1.820000000000000E-002    1.242559671332537E-003
  1.830000000000000E-002    1.297947830962595E-003
  1.840000000000000E-002    1.355540929965916E-003
  1.850000000000000E-002    1.415413463158173E-003
  1.860000000000000E-002    1.477641876970575E-003
  1.870000000000000E-002    1.542304473187310E-003