 -4.000000000000000E-002    0.000000000000000E+000
 -3.990000000000000E-002    0.000000000000000E+000
 -3.980000000000000E-002    0.000000000000000E+000
 -3.970000000000000E-002    0.000000000000000E+000
 -3.960000000000000E-002    0.000000000000000E+000
 -3.950000000000000E-002    0.000000000000000E+000
 -3.940000000000000E-002    0.000000000000000E+000
 -3.930000000000000E-002    0.000000000000000E+000
 -3.920000000000000E-002    0.000000000000000E+000
 -3.910000000000000E-002    0.000000000000000E+000
 -3.900000000000000E-002    0.000000000000000E+000
 -3.890000000000000E-002    0.000000000000000E+000
 -3.880000000000000E-002    0.000000000000000E+000
 -3.870000000000000E-002    0.000000000000000E+000
 -3.860000000000000E-002    0.000000000000000E+000
 -3.850000000000000E-002    0.000000000000000E+000
 -3.840000000000000E-002    0.000000000000000E+000
 -3.830000000000000E-002    0.000000000000000E+000
 -3.820000000000000E-002    0.000000000000000E+000
 -3.810000000000000E-002    0.000000000000000E+000
 -3.800000000000000E-002    0.000000000000000E+000
 -3.790000000000000E-002    0.000000000000000E+000
 -3.780000000000000E-002    0.000000000000000E+000
 -3.770000000000000E-002    0.000000000000000E+000
 -3.760000000000000E-002    0.000000000000000E+000
 -3.750000000000000E-002    0.000000000000000E+000
 -3.740000000000000E-002    0.000000000000000E+000
 -3.730000000000000E-002    0.000000000000000E+000
 -3.720000000000000E-002    0.000000000000000E+000
 -3.710000000000000E-002    0.000000000000000E+000
 -3.700000000000000E-002    0.000000000000000E+000
 -3.690000000000000E-002    0.000000000000000E+000
 -3.680000000000000E-002    0.000000000000000E+000
 -3.670000000000000E-002    0.000000000000000E+000
 -3.660000000000000E-002    0.000000000000000E+000
 -3.650000000000000E-002    0.000000000000000E+000
 -3.640000000000000E-002    0.000000000000000E+000
 -3.630000000000000E-002    0.000000000000000E+000
 -3.620000000000000E-002    0.000000000000000E+000
 -3.610000000000000E-002    0.000000000000000E+000
 -3.600000000000000E-002    0.000000000000000E+000
 -3.590000000000000E-002    0.000000000000000E+000
 -3.580000000000000E-002    0.000000000000000E+000
 -3.570000000000000E-002    0.000000000000000E+000
 -3.560000000000000E-002    0.000000000000000E+000
 -3.550000000000000E-002    0.000000000000000E+000
 -3.540000000000000E-002    0.000000000000000E+000
 -3.530000000000000E-002    0.000000000000000E+000
 -3.520000000000000E-002    0.000000000000000E+000
 -3.510000000000000E-002    0.000000000000000E+000
 -3.500000000000000E-002    0.000000000000000E+000
 -3.490000000000000E-002    0.000000000000000E+000
 -3.480000000000000E-002    0.000000000000000E+000
 -3.470000000000000E-002    0.000000000000000E+000
 -3.460000000000000E-002    0.000000000000000E+000
 -3.450000000000000E-002    0.000000000000000E+000
 -3.440000000000000E-002    0.000000000000000E+000
 -3.430000000000000E-002    0.000000000000000E+000
 -3.420000000000000E-002    0.000000000000000E+000
 -3.410000000000000E-002    0.000000000000000E+000
 -3.400000000000000E-002    0.000000000000000E+000
 -3.390000000000000E-002    0.000000000000000E+000
 -3.380000000000000E-002    0.000000000000000E+000
 -3.370000000000000E-002    0.000000000000000E+000
 -3.360000000000000E-002    0.000000000000000E+000
 -3.350000000000000E-002    0.000000000000000E+000
 -3.340000000000000E-002    0.000000000000000E+000
 -3.330000000000000E-002    0.000000000000000E+000
 -3.320000000000000E-002    0.000000000000000E+000
 -3.310000000000000E-002    0.000000000000000E+000
 -3.300000000000000E-002    0.000000000000000E+000
 -3.290000000000000E-002    0.000000000000000E+000
 -3.280000000000000E-002    0.000000000000000E+000
 -3.270000000000000E-002    0.000000000000000E+000
 -3.260000000000000E-002    0.000000000000000E+000
 -3.250000000000000E-002    0.000000000000000E+000
 -3.240000000000000E-002    0.000000000000000E+000
 -3.230000000000000E-002    0.000000000000000E+000
 -3.220000000000000E-002    0.000000000000000E+000
 -3.210000000000000E-002    0.000000000000000E+000
 -3.200000000000000E-002    0.000000000000000E+000
 -3.190000000000000E-002    0.000000000000000E+000
 -3.180000000000000E-002    0.000000000000000E+000
 -3.170000000000000E-002    0.000000000000000E+000
 -3.160000000000000E-002    0.000000000000000E+000
 -3.150000000000000E-002    0.000000000000000E+000
 -3.140000000000000E-002    0.000000000000000E+000
 -3.130000000000000E-002    0.000000000000000E+000
 -3.120000000000000E-002    0.000000000000000E+000
 -3.110000000000000E-002    0.000000000000000E+000
 -3.100000000000000E-002    0.000000000000000E+000
 -3.090000000000000E-002    0.000000000000000E+000
 -3.080000000000000E-002    0.000000000000000E+000
 -3.070000000000000E-002    0.000000000000000E+000
 -3.060000000000000E-002    0.000000000000000E+000
 -3.050000000000000E-002    0.000000000000000E+000
 -3.040000000000000E-002    0.000000000000000E+000
 -3.030000000000000E-002    0.000000000000000E+000
 -3.020000000000000E-002    0.000000000000000E+000
 -3.010000000000000E-002    0.000000000000000E+000
 -3.000000000000000E-002    0.000000000000000E+000
 -2.990000000000000E-002    0.000000000000000E+000
 -2.980000000000000E-002    0.000000000000000E+000
 -2.970000000000000E-002    0.000000000000000E+000
 -2.960000000000000E-002    0.000000000000000E+000
 -2.950000000000000E-002    0.000000000000000E+000
 -2.940000000000000E-002    0.000000000000000E+000
 -2.930000000000000E-002    0.000000000000000E+000
 -2.920000000000000E-002    0.000000000000000E+000
 -2.910000000000000E-002    0.000000000000000E+000
 -2.900000000000000E-002    0.000000000000000E+000
 -2.890000000000000E-002    0.000000000000000E+000
 -2.880000000000000E-002    0.000000000000000E+000
 -2.870000000000000E-002    0.000000000000000E+000
 -2.860000000000000E-002    0.000000000000000E+000
 -2.850000000000000E-002    0.000000000000000E+000
 -2.840000000000000E-002    0.000000000000000E+000
 -2.830000000000000E-002    0.000000000000000E+000
 -2.820000000000000E-002    0.000000000000000E+000
 -2.810000000000000E-002    0.000000000000000E+000
 -2.800000000000000E-002    0.000000000000000E+000
 -2.790000000000000E-002    0.000000000000000E+000
 -2.780000000000000E-002    0.000000000000000E+000
 -2.770000000000000E-002    0.000000000000000E+000
 -2.760000000000000E-002    0.000000000000000E+000
 -2.750000000000000E-002    0.000000000000000E+000
 -2.740000000000000E-002    0.000000000000000E+000
 -2.730000000000000E-002    0.000000000000000E+000
 -2.720000000000000E-002    0.000000000000000E+000
 -2.710000000000000E-002    0.000000000000000E+000
 -2.700000000000000E-002    0.000000000000000E+000
 -2.690000000000000E-002    0.000000000000000E+000
 -2.680000000000000E-002    0.000000000000000E+000
 -2.670000000000000E-002    0.000000000000000E+000
 -2.660000000000000E-002    0.000000000000000E+000
 -2.650000000000000E-002    0.000000000000000E+000
 -2.640000000000000E-002    0.000000000000000E+000
 -2.630000000000000E-002    0.000000000000000E+000
 -2.620000000000000E-002    0.000000000000000E+000
 -2.610000000000000E-002    0.000000000000000E+000
 -2.600000000000000E-002    0.000000000000000E+000
 -2.590000000000000E-002    0.000000000000000E+000
 -2.580000000000000E-002    0.000000000000000E+000
 -2.570000000000000E-002    0.000000000000000E+000
 -2.560000000000000E-002    0.000000000000000E+000
 -2.550000000000000E-002    0.000000000000000E+000
 -2.540000000000000E-002    0.000000000000000E+000
 -2.530000000000000E-002    0.000000000000000E+000
 -2.520000000000000E-002    0.000000000000000E+000
 -2.510000000000000E-002    0.000000000000000E+000
 -2.500000000000000E-002    0.000000000000000E+000
 -2.490000000000000E-002    0.000000000000000E+000
 -2.480000000000000E-002    0.000000000000000E+000
 -2.470000000000000E-002    0.000000000000000E+000
 -2.460000000000000E-002    0.000000000000000E+000
 -2.450000000000000E-002    0.000000000000000E+000
 -2.440000000000000E-002    0.000000000000000E+000
 -2.430000000000000E-002    0.000000000000000E+000
 -2.420000000000000E-002    0.000000000000000E+000
 -2.410000000000000E-002    0.000000000000000E+000
 -2.400000000000000E-002    0.000000000000000E+000
 -2.390000000000000E-002    0.000000000000000E+000
 -2.380000000000000E-002    0.000000000000000E+000
 -2.370000000000000E-002    0.000000000000000E+000
 -2.360000000000000E-002    0.000000000000000E+000
 -2.350000000000000E-002    0.000000000000000E+000
 -2.340000000000000E-002    0.000000000000000E+000
 -2.330000000000000E-002    0.000000000000000E+000
 -2.320000000000000E-002    0.000000000000000E+000
 -2.310000000000000E-002    0.000000000000000E+000
 -2.300000000000000E-002    0.000000000000000E+000
 -2.290000000000000E-002    0.000000000000000E+000
 -2.280000000000000E-002    0.000000000000000E+000
 -2.270000000000000E-002    0.000000000000000E+000
 -2.260000000000000E-002    0.000000000000000E+000
 -2.250000000000000E-002    0.000000000000000E+000
 -2.240000000000000E-002    0.000000000000000E+000
 -2.230000000000000E-002    0.000000000000000E+000
 -2.220000000000000E-002    0.000000000000000E+000
 -2.210000000000000E-002    0.000000000000000E+000
 -2.200000000000000E-002    0.000000000000000E+000
 -2.190000000000000E-002    0.000000000000000E+000
 -2.180000000000000E-002    0.000000000000000E+000
 -2.170000000000000E-002    0.000000000000000E+000
 -2.160000000000000E-002    0.000000000000000E+000
 -2.150000000000000E-002   -2.187399346209049E-048
 -2.140000000000000E-002   -4.374798692418097E-048
 -2.130000000000000E-002   -8.749597384836194E-048
 -2.120000000000000E-002   -1.312439607725429E-047
 -2.110000000000000E-002   -8.670037639927350E-048
 -2.100000000000000E-002   -8.444651378225354E-048
 -2.090000000000000E-002   -2.237008890505138E-047
 -2.080000000000000E-002   -2.754592904704121E-047
 -2.070000000000000E-002    1.359788607757968E-047
 -2.060000000000000E-002    6.545331167154381E-047
 -2.050000000000000E-002    1.279023597149014E-046
 -2.040000000000000E-002    1.884589638868242E-046
 -2.030000000000000E-002    2.408283328887560E-046
 -2.020000000000000E-002    2.554591000151987E-046
 -2.010000000000000E-002    2.609747826453699E-046
 -2.000000000000000E-002    2.199264805794283E-046
 -1.990000000000000E-002    1.628780694532268E-046
 -1.980000000000000E-002   -2.717311363556584E-046
 -1.970000000000000E-002   -9.798258560923831E-046
 -1.960000000000000E-002   -1.255543755310179E-045
 -1.950000000000000E-002   -1.829246669900543E-045
 -1.940000000000000E-002   -2.420947161952120E-045
 -1.930000000000000E-002   -3.139473371326924E-045
 -1.920000000000000E-002   -3.790036374508992E-045
 -1.910000000000000E-002   -4.127412757595691E-045
 -1.900000000000000E-002   -3.472612966233690E-045
 -1.890000000000000E-002   -3.609198575567138E-046
 -1.880000000000000E-002    3.965121405925536E-045
 -1.870000000000000E-002    9.618393788935292E-045
 -1.860000000000000E-002    1.741054534690222E-044
 -1.850000000000000E-002    2.555173229886013E-044
 -1.840000000000000E-002    3.246941296200654E-044
 -1.830000000000000E-002    3.630289147611482E-044
 -1.820000000000000E-002    3.380970613108983E-044
 -1.810000000000000E-002    2.269177354658300E-044
 -1.800000000000000E-002   -5.177293750956805E-046
 -1.790000000000000E-002   -3.803930172341321E-044
 -1.780000000000000E-002   -8.896571428303252E-044
 -1.770000000000000E-002   -1.502889378819723E-043
 -1.760000000000000E-002   -2.142292717710480E-043
 -1.750000000000000E-002   -2.680810222379430E-043
 -1.740000000000000E-002   -2.948029215222296E-043
 -1.730000000000000E-002   -2.732306831900793E-043
 -1.720000000000000E-002   -1.795908550347003E-043
 -1.710000000000000E-002    6.631357303762735E-045
 -1.700000000000000E-002    2.985382691837914E-043
 -1.690000000000000E-002    6.949476794535716E-043
 -1.680000000000000E-002    1.170831160450075E-042
 -1.670000000000000E-002    1.673015036652792E-042
 -1.660000000000000E-002    2.111964505214129E-042
 -1.650000000000000E-002    2.362541484894134E-042
 -1.640000000000000E-002    2.272577246812842E-042
 -1.630000000000000E-002    1.673796712287252E-042
 -1.620000000000000E-002    4.090723590190691E-043
 -1.610000000000000E-002   -1.629775503592116E-042
 -1.600000000000000E-002   -4.456913533802994E-042
 -1.590000000000000E-002   -7.940132107869277E-042
 -1.580000000000000E-002   -1.174866248087903E-041
 -1.570000000000000E-002   -1.531747780383281E-041
 -1.560000000000000E-002   -1.783084234197664E-041
 -1.550000000000000E-002   -1.824902002030676E-041
 -1.540000000000000E-002   -1.538815954797212E-041
 -1.530000000000000E-002   -8.074805342618009E-042
 -1.520000000000000E-002    4.634808545758303E-042
 -1.510000000000000E-002    2.315473950689867E-041
 -1.500000000000000E-002    4.702557355344759E-041
 -1.490000000000000E-002    7.454648863233354E-041
 -1.480000000000000E-002    1.024589487940058E-040
 -1.470000000000000E-002    1.257563871956246E-040
 -1.460000000000000E-002    1.377187465968466E-040
 -1.450000000000000E-002    1.302865516680386E-040
 -1.440000000000000E-002    9.486849741066713E-041
 -1.430000000000000E-002    2.366856941585392E-041
 -1.420000000000000E-002   -8.846585083639107E-041
 -1.410000000000000E-002   -2.417359190171686E-040
 -1.400000000000000E-002   -4.288369484578803E-040
 -1.390000000000000E-002   -6.324961846065286E-040
 -1.380000000000000E-002   -8.236263883842463E-040
 -1.370000000000000E-002   -9.607446854295808E-040
 -1.360000000000000E-002   -9.914198422188404E-040
 -1.350000000000000E-002   -8.565010004335212E-040
 -1.340000000000000E-002   -4.977317007813109E-040
 -1.330000000000000E-002    1.309749785411829E-040
 -1.320000000000000E-002    1.048910692652672E-039
 -1.310000000000000E-002    2.231670983347152E-039
 -1.300000000000000E-002    3.594073408076759E-039
 -1.290000000000000E-002    4.976023846156592E-039
 -1.280000000000000E-002    6.135464599145215E-039
 -1.270000000000000E-002    6.753205107509838E-039
 -1.260000000000000E-002    6.454504591326121E-039
 -1.250000000000000E-002    4.851427102400004E-039
 -1.240000000000000E-002    1.607973826668775E-039
 -1.230000000000000E-002   -3.473419206819525E-039
 -1.220000000000000E-002   -1.035009324812042E-038
 -1.210000000000000E-002   -1.863399857345452E-038
 -1.200000000000000E-002   -2.750115953596131E-038
 -1.190000000000000E-002   -3.563943679905322E-038
 -1.180000000000000E-002   -4.126173196361719E-038
 -1.170000000000000E-002   -4.221219890318707E-038
 -1.160000000000000E-002   -3.618745821588214E-038
 -1.150000000000000E-002   -2.108409955719276E-038
 -1.140000000000000E-002    4.535531567753958E-039
 -1.130000000000000E-002    4.089174957460155E-038
 -1.120000000000000E-002    8.641311577702753E-038
 -1.110000000000000E-002    1.372326900526484E-037
 -1.100000000000000E-002    1.868760702250264E-037
 -1.090000000000000E-002    2.262777867523354E-037
 -1.080000000000000E-002    2.442608131505155E-037
 -1.070000000000000E-002    2.285870547187405E-037
 -1.060000000000000E-002    1.676274579737008E-037
 -1.050000000000000E-002    5.261260138074185E-038
 -1.040000000000000E-002   -1.196951666588924E-037
 -1.030000000000000E-002   -3.442023334582011E-037
 -1.020000000000000E-002   -6.049889533351176E-037
 -1.010000000000000E-002   -8.736623517680020E-037
 -1.000000000000000E-002   -1.109167885307673E-036
 -9.899999999999999E-003   -1.259644694142584E-036
 -9.800000000000000E-003   -1.266786379290989E-036
 -9.699999999999999E-003   -1.072918107570822E-036
 -9.599999999999999E-003   -6.306202134993326E-037
 -9.500000000000000E-003    8.574954104467178E-038
 -9.399999999999999E-003    1.067826031449106E-036
 -9.299999999999999E-003    2.262019862368584E-036
 -9.200000000000000E-003    3.561470352057378E-036
 -9.099999999999999E-003    4.803537437273779E-036
 -8.999999999999999E-003    5.775151383328954E-036
 -8.900000000000000E-003    6.227810045900823E-036
 -8.799999999999999E-003    5.903174176959934E-036
 -8.699999999999999E-003    4.568843724335581E-036
 -8.600000000000000E-003    2.062193411231714E-036
 -8.499999999999999E-003   -1.661657410205691E-036
 -8.399999999999999E-003   -6.483569660988643E-036
 -8.300000000000000E-003   -1.208306821503867E-035
 -8.199999999999999E-003   -1.791816270015148E-035
 -8.100000000000000E-003   -2.323045829299730E-035
 -8.000000000000000E-003   -2.708241649537457E-035
 -7.899999999999999E-003   -2.843119753480478E-035
 -7.800000000000000E-003   -2.623974410871145E-035
 -7.699999999999999E-003   -1.962103840574548E-035
 -7.599999999999999E-003   -8.005746119073588E-036
 -7.499999999999999E-003    8.681815538877477E-036
 -7.399999999999999E-003    2.985978179238891E-035
 -7.299999999999999E-003    5.416117839886891E-035
 -7.199999999999999E-003    7.936852182691275E-035
 -7.100000000000000E-003    1.024365901763574E-034
 -6.999999999999999E-003    1.196245127591408E-034
 -6.899999999999999E-003    1.267533410591994E-034
 -6.800000000000000E-003    1.195934661528121E-034
 -6.699999999999999E-003    9.437477026092175E-035
 -6.599999999999999E-003    4.839634805051924E-035
 -6.499999999999999E-003   -1.930436941701609E-035
 -6.399999999999999E-003   -1.072805904150089E-034
 -6.299999999999999E-003   -2.110798001844958E-034
 -6.199999999999999E-003   -3.228124731388513E-034
 -6.100000000000000E-003   -4.309887692567994E-034
 -5.999999999999999E-003   -5.207314260624156E-034
 -5.899999999999999E-003   -5.744661214166553E-034
 -5.800000000000000E-003   -5.731743204518832E-034
 -5.699999999999999E-003   -4.982554041434645E-034
 -5.599999999999999E-003   -3.339908219273270E-034
 -5.499999999999999E-003   -7.052073519786974E-035
 -5.399999999999999E-003    2.928522691708783E-034
 -5.299999999999999E-003    7.443360701651470E-034
 -5.199999999999999E-003    1.256725933786582E-033
 -5.099999999999999E-003    1.785421026268115E-033
 -4.999999999999999E-003    2.268007628274742E-033
 -4.899999999999999E-003    2.626047709437516E-033
 -4.799999999999999E-003    2.769664331931684E-033
 -4.699999999999999E-003    2.605336940862669E-033
 -4.599999999999999E-003    2.047020605484027E-033
 -4.499999999999999E-003    1.030279825574990E-033
 -4.399999999999999E-003   -4.714500716299800E-034
 -4.299999999999999E-003   -2.429943624485503E-033
 -4.199999999999999E-003   -4.746773852299591E-033
 -4.099999999999999E-003   -7.242057313094988E-033
 -3.999999999999999E-003   -9.650434283073251E-033
 -3.899999999999999E-003   -1.162732210721944E-032
 -3.799999999999999E-003   -1.276810428211147E-032
 -3.699999999999999E-003   -1.264199570905052E-032
 -3.599999999999999E-003   -1.084077497943536E-032
 -3.499999999999999E-003   -7.040660090239948E-033
 -3.399999999999999E-003   -1.073027418999893E-033
 -3.299999999999999E-003    7.002643964789133E-033
 -3.199999999999999E-003    1.683290513100083E-032
 -3.099999999999999E-003    2.772261216490185E-032
 -2.999999999999999E-003    3.861720666201692E-032
 -2.899999999999999E-003    4.812668449264746E-032
 -2.799999999999999E-003    5.460062741275103E-032
 -2.699999999999999E-003    5.625966242129412E-032
 -2.599999999999999E-003    5.138311019277936E-032
 -2.499999999999999E-003    3.854500797795258E-032
 -2.399999999999999E-003    1.688236674366086E-032
 -2.299999999999999E-003   -1.362873161366233E-032
 -2.199999999999999E-003   -5.192187506456572E-032
 -2.099999999999999E-003   -9.565118124313193E-032
 -1.999999999999999E-003   -1.411054073082961E-031
 -1.899999999999999E-003   -1.832634808723522E-031
 -1.799999999999999E-003   -2.160236657805118E-031
 -1.699999999999999E-003   -2.326259326715729E-031
 -1.599999999999999E-003   -2.262699070938599E-031
 -1.499999999999999E-003   -1.909092790390677E-031
 -1.399999999999999E-003   -1.221780780581320E-031
 -1.299999999999999E-003   -1.837771359281980E-032
 -1.199999999999999E-003    1.185696978312114E-031
 -1.099999999999999E-003    2.823193814408326E-031
 -9.999999999999989E-004    4.615826451608619E-031
 -8.999999999999990E-004    6.400207460275992E-031
 -7.999999999999990E-004    7.966775529922460E-031
 -6.999999999999989E-004    9.070523122920904E-031
 -5.999999999999990E-004    9.448699997947583E-031
 -4.999999999999989E-004    8.845492081981563E-031
 -3.999999999999989E-004    7.042942603472189E-031
 -2.999999999999989E-004    3.896489230286191E-031
 -1.999999999999989E-004   -6.275134402614655E-032
 -9.999999999999892E-005   -6.415765608573007E-031
  1.084202172485504E-018   -1.317805437561470E-030
  1.000000000000011E-004   -2.042832431863163E-030
  2.000000000000011E-004   -2.748232609076623E-030
  3.000000000000011E-004   -3.347693408991296E-030
  4.000000000000011E-004   -3.741555084423899E-030
  5.000000000000011E-004   -3.824228339402103E-030
  6.000000000000011E-004   -3.494500377129026E-030
  7.000000000000011E-004   -2.668424842228940E-030
  8.000000000000011E-004   -1.294092424538098E-030
  9.000000000000012E-004    6.328938073892181E-031
  1.000000000000001E-003    3.054808673680654E-030
  1.100000000000001E-003    5.840063899673070E-030
  1.200000000000001E-003    8.776561116359720E-030
  1.300000000000001E-003    1.157248919129508E-029
  1.400000000000001E-003    1.386667712688870E-029
  1.500000000000001E-003    1.525012368312544E-029
  1.600000000000001E-003    1.529946947794946E-029
  1.700000000000001E-003    1.362193674999493E-029
  1.800000000000001E-003    9.909749231148777E-030
  1.900000000000001E-003    4.000341077892349E-030
  2.000000000000001E-003   -4.063103764230650E-030
  2.100000000000001E-003   -1.397787861184376E-029
  2.200000000000001E-003   -2.514299650898048E-029
  2.300000000000001E-003   -3.664418822671385E-029
  2.400000000000001E-003   -4.727110272014155E-029
  2.500000000000001E-003   -5.557354467821563E-029
  2.600000000000001E-003   -5.996092808779222E-029
  2.700000000000001E-003   -5.884516530616967E-029
  2.800000000000001E-003   -5.082222821562272E-029
  2.900000000000001E-003   -3.488180634710129E-029
  3.000000000000001E-003   -1.062852600040160E-029
  3.100000000000001E-003    2.150720315040198E-029
  3.200000000000001E-003    6.009583856956003E-029
  3.300000000000001E-003    1.026015129691210E-028
  3.400000000000001E-003    1.453707400283582E-028
  3.500000000000001E-003    1.837427297953980E-028
  3.600000000000001E-003    2.123001934276277E-028
  3.700000000000001E-003    2.252689159206793E-028
  3.800000000000001E-003    2.170598343294163E-028
  3.900000000000001E-003    1.829303882740775E-028
  4.000000000000001E-003    1.197234576680925E-028
  4.100000000000001E-003    2.662221075814013E-029
  4.200000000000001E-003   -9.415511981575909E-029
  4.300000000000001E-003   -2.368118112700129E-028
  4.400000000000001E-003   -3.916766862814032E-028
  4.500000000000001E-003   -5.452488553117386E-028
  4.600000000000002E-003   -6.806648179343245E-028
  4.700000000000001E-003   -7.786437116814877E-028
  4.800000000000001E-003   -8.189308839929675E-028
  4.900000000000002E-003   -7.822118490295722E-028
  5.000000000000001E-003   -6.524127849187219E-028
  5.100000000000001E-003   -4.192413918730883E-028
  5.200000000000001E-003   -8.076063437013975E-029
  5.300000000000002E-003    3.542704876341564E-028
  5.400000000000001E-003    8.645933462783223E-028
  5.500000000000001E-003    1.415512998959641E-027
  5.600000000000002E-003    1.959145361364726E-027
  5.700000000000001E-003    2.436126655895464E-027
  5.800000000000001E-003    2.778973509660715E-027
  5.900000000000002E-003    2.917157558615635E-027
  6.000000000000001E-003    2.783796116149901E-027
  6.100000000000001E-003    2.323651195521825E-027
  6.200000000000002E-003    1.501925408677801E-027
  6.300000000000002E-003    3.131204186185257E-028
  6.400000000000001E-003   -1.210979918849585E-027
  6.500000000000001E-003   -2.995265279680252E-027
  6.600000000000002E-003   -4.918320862878386E-027
  6.700000000000001E-003   -6.813628670265805E-027
  6.800000000000001E-003   -8.475841640225213E-027
  6.900000000000002E-003   -9.672745276268327E-027
  7.000000000000001E-003   -1.016303470080944E-026
  7.100000000000001E-003   -9.719473992199506E-027
  7.200000000000002E-003   -8.156264249145683E-027
  7.300000000000002E-003   -5.358778370803764E-027
  7.400000000000001E-003   -1.313056691582250E-027
  7.500000000000001E-003    3.868115306678784E-027
  7.600000000000002E-003    9.926148049409324E-027
  7.700000000000001E-003    1.644831316696661E-026
  7.800000000000001E-003    2.287355989832229E-026
  7.900000000000001E-003    2.851526636788372E-026
  8.000000000000002E-003    3.260254379175117E-026
  8.100000000000001E-003    3.434013088342444E-026
  8.200000000000001E-003    3.298493870787393E-026
  8.300000000000002E-003    2.793521128013738E-026
  8.400000000000001E-003    1.882589968158420E-026
  8.500000000000002E-003    5.621771573292202E-027
  8.600000000000002E-003   -1.130183579744738E-026
  8.700000000000001E-003   -3.110182081241190E-026
  8.800000000000002E-003   -5.244498262095900E-026
  8.900000000000002E-003   -7.353064985255507E-026
  9.000000000000001E-003   -9.216618371219117E-026
  9.100000000000002E-003   -1.058995598832153E-025
  9.200000000000002E-003   -1.122083615992422E-025
  9.300000000000001E-003   -1.087386262481203E-025
  9.400000000000002E-003   -9.358044544996742E-026
  9.500000000000001E-003   -6.556084006357205E-026
  9.600000000000001E-003   -2.452810028324078E-026
  9.700000000000002E-003    2.840288930742976E-026
  9.800000000000001E-003    9.067705719010258E-026
  9.900000000000001E-003    1.582313739839026E-025
  1.000000000000000E-002    2.255619131318668E-025
  1.010000000000000E-002    2.859495053918312E-025
  1.020000000000000E-002    3.318559725273362E-025
  1.030000000000000E-002    3.554888330479732E-025
  1.040000000000000E-002    3.495158975836512E-025
  1.050000000000000E-002    3.078909799412213E-025
  1.060000000000000E-002    2.267343534819360E-025
  1.070000000000000E-002    1.051916956864535E-025
  1.080000000000000E-002   -5.381698071803908E-026
  1.090000000000000E-002   -2.430561005816021E-025
  1.100000000000000E-002   -4.507400669869075E-025
  1.110000000000000E-002   -6.606946444166065E-025
  1.120000000000000E-002   -8.529834684749237E-025
  1.130000000000000E-002   -1.005038989594693E-024
  1.140000000000000E-002   -1.093294754257864E-024
  1.150000000000000E-002   -1.095267350854400E-024
  1.160000000000000E-002   -9.919792645735465E-025
  1.170000000000000E-002   -7.705581166912104E-025
  1.180000000000000E-002   -4.267958475390343E-025
  1.190000000000000E-002    3.259234726880511E-026
  1.200000000000000E-002    5.882896539632898E-025
  1.210000000000000E-002    1.207572173478750E-024
  1.220000000000000E-002    1.844631922037994E-024
  1.230000000000000E-002    2.442237771810303E-024
  1.240000000000000E-002    2.934848329654276E-024
  1.250000000000000E-002    3.253176866150655E-024
  1.260000000000000E-002    3.330064202613613E-024
  1.270000000000000E-002    3.107363335774569E-024
  1.280000000000000E-002    2.543372968170251E-024
  1.290000000000000E-002    1.620216975757412E-024
  1.300000000000000E-002    3.504500800173930E-025
  1.310000000000000E-002   -1.217910138679893E-024
  1.320000000000000E-002   -2.998707730335808E-024
  1.330000000000000E-002   -4.868070002249256E-024
  1.340000000000000E-002   -6.668500502541554E-024
  1.350000000000000E-002   -8.216972515680955E-024
  1.360000000000000E-002   -9.317054340435285E-024
  1.370000000000000E-002   -9.774696750794443E-024
  1.380000000000000E-002   -9.416919469007082E-024
  1.390000000000000E-002   -8.112192923661078E-024
  1.400000000000000E-002   -5.790916139447813E-024
  1.410000000000000E-002   -2.464121467582682E-024
  1.420000000000000E-002    1.761715494861024E-024
  1.430000000000000E-002    6.675878019800077E-024
  1.440000000000000E-002    1.196256080176525E-023
  1.450000000000000E-002    1.720960641981131E-023
  1.460000000000000E-002    2.192779018293266E-023
  1.470000000000000E-002    2.558089330118053E-023
  1.480000000000000E-002    2.762581844041641E-023
  1.490000000000000E-002    2.756096166661488E-023
  1.500000000000000E-002    2.497993163794634E-023
  1.510000000000000E-002    1.962676554409710E-023
  1.520000000000000E-002    1.144782985503826E-023
  1.530000000000000E-002    6.351715562308314E-025
  1.540000000000000E-002   -1.234431335496714E-023
  1.550000000000000E-002   -2.673908067496447E-023
  1.560000000000000E-002   -4.152692098669512E-023
  1.570000000000000E-002   -5.545597909500348E-023
  1.580000000000000E-002   -6.711398531064009E-023
  1.590000000000000E-002   -7.502471637138063E-023
  1.600000000000000E-002   -7.776810164264175E-023
  1.610000000000000E-002   -7.411739374975115E-023
  1.620000000000000E-002   -6.318454802799306E-023
  1.630000000000000E-002   -4.456223003980736E-023
  1.640000000000000E-002   -1.844905160134219E-023
  1.650000000000000E-002    1.425572212169664E-023
  1.660000000000000E-002    5.190239931402982E-023
  1.670000000000000E-002    9.209816718403517E-023
  1.680000000000000E-002    1.317814632834480E-022
  1.690000000000000E-002    1.673688137488360E-022
  1.700000000000000E-002    1.949742879643050E-022
  1.710000000000000E-002    2.106953809107869E-022
  1.720000000000000E-002    2.109521093090204E-022
  1.730000000000000E-002    1.928590045527436E-022
  1.740000000000000E-002    1.546036200017785E-022
  1.750000000000000E-002    9.579925624102382E-023
  1.760000000000000E-002    1.777668094319412E-023
  1.770000000000000E-002   -7.622147241396022E-023
  1.780000000000000E-002   -1.809777152571005E-022
  1.790000000000000E-002   -2.893971279421222E-022
  1.800000000000000E-002   -3.927845089987186E-022
  1.810000000000000E-002   -4.813093983932436E-022
  1.820000000000000E-002   -5.446516553038937E-022
  1.830000000000000E-002   -5.728029521054663E-022
  1.840000000000000E-002   -5.569834004932508E-022
  1.850000000000000E-002   -4.906131098767457E-022
  1.860000000000000E-002   -3.702663121297900E-022
  1.870000000000000E-002   -1.965221462074291E-022