 -4.000000000000000E-002    0.000000000000000E+000
 -3.990000000000000E-002    0.000000000000000E+000
 -3.980000000000000E-002    0.000000000000000E+000
 -3.970000000000000E-002    0.000000000000000E+000
 -3.960000000000000E-002    0.000000000000000E+000
 -3.950000000000000E-002    0.000000000000000E+000
 -3.940000000000000E-002    0.000000000000000E+000
 -3.930000000000000E-002    0.000000000000000E+000
 -3.920000000000000E-002    0.000000000000000E+000
 -3.910000000000000E-002    0.000000000000000E+000
 -3.900000000000000E-002    0.000000000000000E+000
 -3.890000000000000E-002    0.000000000000000E+000
 -3.880000000000000E-002    0.000000000000000E+000
 -3.870000000000000E-002    0.000000000000000E+000
 -3.860000000000000E-002    0.000000000000000E+000
 -3.850000000000000E-002    0.000000000000000E+000
 -3.840000000000000E-002    0.000000000000000E+000
 -3.830000000000000E-002    0.000000000000000E+000
 -3.820000000000000E-002    0.000000000000000E+000
 -3.810000000000000E-002    0.000000000000000E+000
 -3.800000000000000E-002    0.000000000000000E+000
 -3.790000000000000E-002    0.000000000000000E+000
 -3.780000000000000E-002    0.000000000000000E+000
 -3.770000000000000E-002    0.000000000000000E+000
 -3.760000000000000E-002    0.000000000000000E+000
 -3.750000000000000E-002    0.000000000000000E+000
 -3.740000000000000E-002    0.000000000000000E+000
 -3.730000000000000E-002    0.000000000000000E+000
 -3.720000000000000E-002    0.000000000000000E+000
 -3.710000000000000E-002    0.000000000000000E+000
 -3.700000000000000E-002    0.000000000000000E+000
 -3.690000000000000E-002    0.000000000000000E+000
 -3.680000000000000E-002    0.000000000000000E+000
 -3.670000000000000E-002    0.000000000000000E+000
 -3.660000000000000E-002    0.000000000000000E+000
 -3.650000000000000E-002    0.000000000000000E+000
 -3.640000000000000E-002    0.000000000000000E+000
 -3.630000000000000E-002    0.000000000000000E+000
 -3.620000000000000E-002    0.000000000000000E+000
 -3.610000000000000E-002    0.000000000000000E+000
 -3.600000000000000E-002    0.000000000000000E+000
 -3.590000000000000E-002    0.000000000000000E+000
 -3.580000000000000E-002    0.000000000000000E+000
 -3.570000000000000E-002    0.000000000000000E+000
 -3.560000000000000E-002    0.000000000000000E+000
 -3.550000000000000E-002    0.000000000000000E+000
 -3.540000000000000E-002    0.000000000000000E+000
 -3.530000000000000E-002    0.000000000000000E+000
 -3.520000000000000E-002    0.000000000000000E+000
 -3.510000000000000E-002    0.000000000000000E+000
 -3.500000000000000E-002    0.000000000000000E+000
 -3.490000000000000E-002    0.000000000000000E+000
 -3.480000000000000E-002    0.000000000000000E+000
 -3.470000000000000E-002    0.000000000000000E+000
 -3.460000000000000E-002    0.000000000000000E+000
 -3.450000000000000E-002    0.000000000000000E+000
 -3.440000000000000E-002    0.000000000000000E+000
 -3.430000000000000E-002    0.000000000000000E+000
 -3.420000000000000E-002    0.000000000000000E+000
 -3.410000000000000E-002    0.000000000000000E+000
 -3.400000000000000E-002    0.000000000000000E+000
 -3.390000000000000E-002    0.000000000000000E+000
 -3.380000000000000E-002    0.000000000000000E+000
 -3.370000000000000E-002    0.000000000000000E+000
 -3.360000000000000E-002    0.000000000000000E+000
 -3.350000000000000E-002    0.000000000000000E+000
 -3.340000000000000E-002    0.000000000000000E+000
 -3.330000000000000E-002    0.000000000000000E+000
 -3.320000000000000E-002    0.000000000000000E+000
 -3.310000000000000E-002    0.000000000000000E+000
 -3.300000000000000E-002    0.000000000000000E+000
 -3.290000000000000E-002    0.000000000000000E+000
 -3.280000000000000E-002    0.000000000000000E+000
 -3.270000000000000E-002    0.000000000000000E+000
 -3.260000000000000E-002    0.000000000000000E+000
 -3.250000000000000E-002    0.000000000000000E+000
 -3.240000000000000E-002    0.000000000000000E+000
 -3.230000000000000E-002    0.000000000000000E+000
 -3.220000000000000E-002    0.000000000000000E+000
 -3.210000000000000E-002    0.000000000000000E+000
 -3.200000000000000E-002    0.000000000000000E+000
 -3.190000000000000E-002    0.000000000000000E+000
 -3.180000000000000E-002    0.000000000000000E+000
 -3.170000000000000E-002    0.000000000000000E+000
 -3.160000000000000E-002    0.000000000000000E+000
 -3.150000000000000E-002    0.000000000000000E+000
 -3.140000000000000E-002    0.000000000000000E+000
 -3.130000000000000E-002    0.000000000000000E+000
 -3.120000000000000E-002    0.000000000000000E+000
 -3.110000000000000E-002    0.000000000000000E+000
 -3.100000000000000E-002    0.000000000000000E+000
 -3.090000000000000E-002    0.000000000000000E+000
 -3.080000000000000E-002    0.000000000000000E+000
 -3.070000000000000E-002    0.000000000000000E+000
 -3.060000000000000E-002    0.000000000000000E+000
 -3.050000000000000E-002    0.000000000000000E+000
 -3.040000000000000E-002    0.000000000000000E+000
 -3.030000000000000E-002    0.000000000000000E+000
 -3.020000000000000E-002    0.000000000000000E+000
 -3.010000000000000E-002    0.000000000000000E+000
 -3.000000000000000E-002    0.000000000000000E+000
 -2.990000000000000E-002    0.000000000000000E+000
 -2.980000000000000E-002    0.000000000000000E+000
 -2.970000000000000E-002    0.000000000000000E+000
 -2.960000000000000E-002    0.000000000000000E+000
 -2.950000000000000E-002    0.000000000000000E+000
 -2.940000000000000E-002    0.000000000000000E+000
 -2.930000000000000E-002    0.000000000000000E+000
 -2.920000000000000E-002    0.000000000000000E+000
 -2.910000000000000E-002    0.000000000000000E+000
 -2.900000000000000E-002    0.000000000000000E+000
 -2.890000000000000E-002    0.000000000000000E+000
 -2.880000000000000E-002    0.000000000000000E+000
 -2.870000000000000E-002    0.000000000000000E+000
 -2.860000000000000E-002    0.000000000000000E+000
 -2.850000000000000E-002    0.000000000000000E+000
 -2.840000000000000E-002    0.000000000000000E+000
 -2.830000000000000E-002    0.000000000000000E+000
 -2.820000000000000E-002    0.000000000000000E+000
 -2.810000000000000E-002    0.000000000000000E+000
 -2.800000000000000E-002    0.000000000000000E+000
 -2.790000000000000E-002    0.000000000000000E+000
 -2.780000000000000E-002    0.000000000000000E+000
 -2.770000000000000E-002    0.000000000000000E+000
 -2.760000000000000E-002    0.000000000000000E+000
 -2.750000000000000E-002    0.000000000000000E+000
 -2.740000000000000E-002    0.000000000000000E+000
 -2.730000000000000E-002    0.000000000000000E+000
 -2.720000000000000E-002    0.000000000000000E+000
 -2.710000000000000E-002    0.000000000000000E+000
 -2.700000000000000E-002    0.000000000000000E+000
 -2.690000000000000E-002    0.000000000000000E+000
 -2.680000000000000E-002    0.000000000000000E+000
 -2.670000000000000E-002    0.000000000000000E+000
 -2.660000000000000E-002    0.000000000000000E+000
 -2.650000000000000E-002    0.000000000000000E+000
 -2.640000000000000E-002    0.000000000000000E+000
 -2.630000000000000E-002    0.000000000000000E+000
 -2.620000000000000E-002    0.000000000000000E+000
 -2.610000000000000E-002    0.000000000000000E+000
 -2.600000000000000E-002    0.000000000000000E+000
 -2.590000000000000E-002    0.000000000000000E+000
 -2.580000000000000E-002    0.000000000000000E+000
 -2.570000000000000E-002    0.000000000000000E+000
 -2.560000000000000E-002    0.000000000000000E+000
 -2.550000000000000E-002    0.000000000000000E+000
 -2.540000000000000E-002    0.000000000000000E+000
 -2.530000000000000E-002    0.000000000000000E+000
 -2.520000000000000E-002    0.000000000000000E+000
 -2.510000000000000E-002    0.000000000000000E+000
 -2.500000000000000E-002    0.000000000000000E+000
 -2.490000000000000E-002    0.000000000000000E+000
 -2.480000000000000E-002    0.000000000000000E+000
 -2.470000000000000E-002    0.000000000000000E+000
 -2.460000000000000E-002    0.000000000000000E+000
 -2.450000000000000E-002    0.000000000000000E+000
 -2.440000000000000E-002    0.000000000000000E+000
 -2.430000000000000E-002    0.000000000000000E+000
 -2.420000000000000E-002    0.000000000000000E+000
 -2.410000000000000E-002    0.000000000000000E+000
 -2.400000000000000E-002    0.000000000000000E+000
 -2.390000000000000E-002    0.000000000000000E+000
 -2.380000000000000E-002    0.000000000000000E+000
 -2.370000000000000E-002    0.000000000000000E+000
 -2.360000000000000E-002    0.000000000000000E+000
 -2.350000000000000E-002    0.000000000000000E+000
 -2.340000000000000E-002    0.000000000000000E+000
 -2.330000000000000E-002    0.000000000000000E+000
 -2.320000000000000E-002    0.000000000000000E+000
 -2.310000000000000E-002    0.000000000000000E+000
 -2.300000000000000E-002    0.000000000000000E+000
 -2.290000000000000E-002    0.000000000000000E+000
 -2.280000000000000E-002    0.000000000000000E+000
 -2.270000000000000E-002    0.000000000000000E+000
 -2.260000000000000E-002    0.000000000000000E+000
 -2.250000000000000E-002    0.000000000000000E+000
 -2.240000000000000E-002    0.000000000000000E+000
 -2.230000000000000E-002    0.000000000000000E+000
 -2.220000000000000E-002    0.000000000000000E+000
 -2.210000000000000E-002    0.000000000000000E+000
 -2.200000000000000E-002    0.000000000000000E+000
 -2.190000000000000E-002    0.000000000000000E+000
 -2.180000000000000E-002    0.000000000000000E+000
 -2.170000000000000E-002    0.000000000000000E+000
 -2.160000000000000E-002    0.000000000000000E+000
 -2.150000000000000E-002    0.000000000000000E+000
 -2.140000000000000E-002    0.000000000000000E+000
 -2.130000000000000E-002    0.000000000000000E+000
 -2.120000000000000E-002    0.000000000000000E+000
 -2.110000000000000E-002    0.000000000000000E+000
 -2.100000000000000E-002    0.000000000000000E+000
 -2.090000000000000E-002    0.000000000000000E+000
 -2.080000000000000E-002    0.000000000000000E+000
 -2.070000000000000E-002    0.000000000000000E+000
 -2.060000000000000E-002    0.000000000000000E+000
 -2.050000000000000E-002    0.000000000000000E+000
 -2.040000000000000E-002    0.000000000000000E+000
 -2.030000000000000E-002    0.000000000000000E+000
 -2.020000000000000E-002    0.000000000000000E+000
 -2.010000000000000E-002    0.000000000000000E+000
 -2.000000000000000E-002    0.000000000000000E+000
 -1.990000000000000E-002    0.000000000000000E+000
 -1.980000000000000E-002    0.000000000000000E+000
 -1.970000000000000E-002    0.000000000000000E+000
 -1.960000000000000E-002    0.000000000000000E+000
 -1.950000000000000E-002    0.000000000000000E+000
 -1.940000000000000E-002    0.000000000000000E+000
 -1.930000000000000E-002    0.000000000000000E+000
 -1.920000000000000E-002    0.000000000000000E+000
 -1.910000000000000E-002    0.000000000000000E+000
 -1.900000000000000E-002    0.000000000000000E+000
 -1.890000000000000E-002    0.000000000000000E+000
 -1.880000000000000E-002    0.000000000000000E+000
 -1.870000000000000E-002    0.000000000000000E+000
 -1.860000000000000E-002    0.000000000000000E+000
 -1.850000000000000E-002    0.000000000000000E+000
 -1.840000000000000E-002    0.000000000000000E+000
 -1.830000000000000E-002    0.000000000000000E+000
 -1.820000000000000E-002    0.000000000000000E+000
 -1.810000000000000E-002    0.000000000000000E+000
 -1.800000000000000E-002    0.000000000000000E+000
 -1.790000000000000E-002    0.000000000000000E+000
 -1.780000000000000E-002    0.000000000000000E+000
 -1.770000000000000E-002    0.000000000000000E+000
 -1.760000000000000E-002    0.000000000000000E+000
 -1.750000000000000E-002    0.000000000000000E+000
 -1.740000000000000E-002    0.000000000000000E+000
 -1.730000000000000E-002    1.389195164613927E-048
 -1.720000000000000E-002    2.778390329227854E-048
 -1.710000000000000E-002    4.167585493841781E-048
 -1.700000000000000E-002    5.556780658455708E-048
 -1.690000000000000E-002    6.945975823069635E-048
 -1.680000000000000E-002    6.802835291611829E-048
 -1.670000000000000E-002   -1.936681194434350E-049
 -1.660000000000000E-002   -2.259906029733313E-047
 -1.650000000000000E-002   -4.866658956483099E-047
 -1.640000000000000E-002   -8.297667687654024E-047
 -1.630000000000000E-002   -1.147934673637018E-046
 -1.620000000000000E-002   -1.310077009645856E-046
 -1.610000000000000E-002   -1.476298729811067E-046
 -1.600000000000000E-002   -1.268000719256795E-046
 -1.590000000000000E-002   -1.354198934572356E-046
 -1.580000000000000E-002   -7.113672232098251E-047
 -1.570000000000000E-002    6.098590121566216E-048
 -1.560000000000000E-002    1.794832401883849E-046
 -1.550000000000000E-002    4.634390659742560E-046
 -1.540000000000000E-002    7.974501117412848E-046
 -1.530000000000000E-002    1.268244205348381E-045
 -1.520000000000000E-002    2.497593109295846E-045
 -1.510000000000000E-002    3.654033439001784E-045
 -1.500000000000000E-002    4.146167062836946E-045
 -1.490000000000000E-002    4.451638477584733E-045
 -1.480000000000000E-002    4.330779623179027E-045
 -1.470000000000000E-002    4.013877600340816E-045
 -1.460000000000000E-002    1.874927865275150E-045
 -1.450000000000000E-002   -1.045463648198535E-045
 -1.440000000000000E-002   -5.927909827832950E-045
 -1.430000000000000E-002   -1.231161143047642E-044
 -1.420000000000000E-002   -1.928781112486258E-044
 -1.410000000000000E-002   -2.652706482591209E-044
 -1.400000000000000E-002   -3.304489212367986E-044
 -1.390000000000000E-002   -3.703004153080531E-044
 -1.380000000000000E-002   -3.455203479586080E-044
 -1.370000000000000E-002   -2.352145559119320E-044
 -1.360000000000000E-002   -1.834563668887684E-045
 -1.350000000000000E-002    3.303555995723382E-044
 -1.340000000000000E-002    8.255215048138050E-044
 -1.330000000000000E-002    1.439180349132530E-043
 -1.320000000000000E-002    2.099637090961309E-043
 -1.310000000000000E-002    2.717806321832268E-043
 -1.300000000000000E-002    3.122661250121031E-043
 -1.290000000000000E-002    3.114151635262153E-043
 -1.280000000000000E-002    2.467882291934369E-043
 -1.270000000000000E-002    9.491338861566750E-044
 -1.260000000000000E-002   -1.615226664923194E-043
 -1.250000000000000E-002   -5.285768686934708E-043
 -1.240000000000000E-002   -9.921821842926836E-043
 -1.230000000000000E-002   -1.510306188245023E-042
 -1.220000000000000E-002   -2.008411705819960E-042
 -1.210000000000000E-002   -2.374777186907723E-042
 -1.200000000000000E-002   -2.464409207309987E-042
 -1.190000000000000E-002   -2.109687570355271E-042
 -1.180000000000000E-002   -1.143919663011331E-042
 -1.170000000000000E-002    5.664447838442021E-043
 -1.160000000000000E-002    3.074504944449327E-042
 -1.150000000000000E-002    6.306176221203977E-042
 -1.140000000000000E-002    1.000134275125081E-041
 -1.130000000000000E-002    1.367379169863343E-041
 -1.120000000000000E-002    1.658928789456557E-041
 -1.110000000000000E-002    1.778664868316981E-041
 -1.100000000000000E-002    1.614759037982463E-041
 -1.090000000000000E-002    1.053981261373871E-041
 -1.080000000000000E-002    3.182215074212499E-044
 -1.070000000000000E-002   -1.582306836819729E-041
 -1.060000000000000E-002   -3.666207454740689E-041
 -1.050000000000000E-002   -6.097593127294229E-041
 -1.040000000000000E-002   -8.583985802938184E-041
 -1.030000000000000E-002   -1.067824452099748E-040
 -1.020000000000000E-002   -1.178943811861093E-040
 -1.010000000000000E-002   -1.122646429839254E-040
 -1.000000000000000E-002   -8.281578072283701E-041
 -9.899999999999999E-003   -2.357777103533087E-041
 -9.800000000000000E-003    6.865357903648503E-041
 -9.699999999999999E-003    1.924067220054335E-040
 -9.599999999999999E-003    3.396130165251077E-040
 -9.500000000000000E-003    4.940519937353149E-040
 -9.399999999999999E-003    6.305999379021664E-040
 -9.299999999999999E-003    7.158176106901535E-040
 -9.200000000000000E-003    7.103554327287291E-040
 -9.099999999999999E-003    5.735402683601363E-040
 -8.999999999999999E-003    2.702648820404306E-040
 -8.900000000000000E-003   -2.200814135071456E-040
 -8.799999999999999E-003   -8.934040371683075E-040
 -8.699999999999999E-003   -1.710746585978003E-039
 -8.600000000000000E-003   -2.590054774753274E-039
 -8.499999999999999E-003   -3.402218501302625E-039
 -8.399999999999999E-003   -3.973911419610090E-039
 -8.300000000000000E-003   -4.099600694104608E-039
 -8.199999999999999E-003   -3.564389375544418E-039
 -8.100000000000000E-003   -2.178106088014024E-039
 -8.000000000000000E-003    1.808182636448815E-040
 -7.899999999999999E-003    3.515499070274974E-039
 -7.800000000000000E-003    7.661158298329431E-039
 -7.699999999999999E-003    1.224498467386750E-038
 -7.599999999999999E-003    1.666603403430847E-038
 -7.499999999999999E-003    2.010659234073348E-038
 -7.399999999999999E-003    2.158537063881169E-038
 -7.299999999999999E-003    2.005957430619321E-038
 -7.199999999999999E-003    1.457716471577975E-038
 -7.100000000000000E-003    4.472437490376781E-039
 -6.999999999999999E-003   -1.041186367329944E-038
 -6.899999999999999E-003   -2.950347757351065E-038
 -6.800000000000000E-003   -5.131801567999001E-038
 -6.699999999999999E-003   -7.335938223217441E-038
 -6.599999999999999E-003   -9.214983081457600E-038
 -6.499999999999999E-003   -1.034313851413972E-037
 -6.399999999999999E-003   -1.025666361507154E-037
 -6.299999999999999E-003   -8.514416471325228E-038
 -6.199999999999999E-003   -4.776230737835084E-038
 -6.100000000000000E-003    1.107265581794764E-038
 -5.999999999999999E-003    9.003737160854981E-038
 -5.899999999999999E-003    1.842109406370303E-037
 -5.800000000000000E-003    2.845879023077960E-037
 -5.699999999999999E-003    3.780567960228393E-037
 -5.599999999999999E-003    4.479992465160265E-037
 -5.499999999999999E-003    4.756180530665124E-037
 -5.399999999999999E-003    4.420257741000572E-037
 -5.299999999999999E-003    3.310208373787412E-037
 -5.199999999999999E-003    1.323545314361252E-037
 -5.099999999999999E-003   -1.548391911209874E-037
 -4.999999999999999E-003   -5.188970182993430E-037
 -4.899999999999999E-003   -9.332976374023029E-037
 -4.799999999999999E-003   -1.355721285930652E-036
 -4.699999999999999E-003   -1.729034109925554E-036
 -4.599999999999999E-003   -1.984616277849692E-036
 -4.499999999999999E-003   -2.048251509503098E-036
 -4.399999999999999E-003   -1.848510542585391E-036
 -4.299999999999999E-003   -1.327222261172747E-036
 -4.199999999999999E-003   -4.512485910982896E-037
 -4.099999999999999E-003    7.755810618635885E-037
 -3.999999999999999E-003    2.301834449001840E-036
 -3.899999999999999E-003    4.020807708797566E-036
 -3.799999999999999E-003    5.767563896876946E-036
 -3.699999999999999E-003    7.322308622972250E-036
 -3.599999999999999E-003    8.421438124069304E-036
 -3.499999999999999E-003    8.777080713997965E-036
 -3.399999999999999E-003    8.105249058773713E-036
 -3.299999999999999E-003    6.161834559317229E-036
 -3.199999999999999E-003    2.784642897527591E-036
 -3.099999999999999E-003   -2.061471536226381E-036
 -2.999999999999999E-003   -8.240481561426833E-036
 -2.899999999999999E-003   -1.540734038313531E-035
 -2.799999999999999E-003   -2.298264530478512E-035
 -2.699999999999999E-003   -3.014677293759991E-035
 -2.599999999999999E-003   -3.586065296000456E-035
 -2.499999999999999E-003   -3.891984805099545E-035
 -2.399999999999999E-003   -3.804718190599097E-035
 -2.299999999999999E-003   -3.202639813093693E-035
 -2.199999999999999E-003   -1.987526559638509E-035
 -2.099999999999999E-003   -1.050831414445305E-036
 -1.999999999999999E-003    2.432756437489419E-035
 -1.899999999999999E-003    5.525993367205451E-035
 -1.799999999999999E-003    8.968268842213506E-035
 -1.699999999999999E-003    1.243590625089036E-034
 -1.599999999999999E-003    1.548856715918632E-034
 -1.499999999999999E-003    1.758580987693395E-034
 -1.399999999999999E-003    1.812324911234478E-034
 -1.299999999999999E-003    1.649058035620288E-034
 -1.199999999999999E-003    1.215145617154341E-034
 -1.099999999999999E-003    4.741962659165648E-035
 -9.999999999999989E-004   -5.819442870209603E-035
 -8.999999999999990E-004   -1.922200896792258E-034
 -7.999999999999990E-004   -3.466840967634723E-034
 -6.999999999999989E-004   -5.081500976527414E-034
 -5.999999999999990E-004   -6.576724306576108E-034
 -4.999999999999989E-004   -7.714971994224789E-034
 -3.999999999999989E-004   -8.226658357698406E-034
 -2.999999999999989E-004   -7.835977781093871E-034
 -1.999999999999989E-004   -6.296134342894774E-034
 -9.999999999999892E-005   -3.432115941700215E-034
  1.084202172485504E-018    8.125179513305901E-035
  1.000000000000011E-004    6.330039162043241E-034
  2.000000000000011E-004    1.281080042301953E-033
  3.000000000000011E-004    1.972091190920781E-033
  4.000000000000011E-004    2.630305965319454E-033
  5.000000000000011E-004    3.160726929829405E-033
  6.000000000000011E-004    3.455633376537075E-033
  7.000000000000011E-004    3.404723347314623E-033
  8.000000000000011E-004    2.908553666930913E-033
  9.000000000000012E-004    1.894449101128595E-033
  1.000000000000001E-003    3.335167532923289E-034
  1.100000000000001E-003   -1.743107826257593E-033
  1.200000000000001E-003   -4.231037966025821E-033
  1.300000000000001E-003   -6.944888400233944E-033
  1.400000000000001E-003   -9.618382293519371E-033
  1.500000000000001E-003   -1.191432467550869E-032
  1.600000000000001E-003   -1.344574541916271E-032
  1.700000000000001E-003   -1.380851434932310E-032
  1.800000000000001E-003   -1.262446338026297E-032
  1.900000000000001E-003   -9.592650660946465E-033
  2.000000000000001E-003   -4.544934849501180E-033
  2.100000000000001E-003    2.499262732368543E-033
  2.200000000000001E-003    1.128521610514879E-032
  2.300000000000001E-003    2.128899673793757E-032
  2.400000000000001E-003    3.170435099394820E-032
  2.500000000000001E-003    4.145674039229109E-032
  2.600000000000001E-003    4.924971801185064E-032
  2.700000000000001E-003    5.364686752955200E-032
  2.800000000000001E-003    5.318997973238886E-032
  2.900000000000001E-003    4.655081346937658E-032
  3.000000000000001E-003    3.271012186232289E-032
  3.100000000000001E-003    1.115332627833933E-032
  3.200000000000001E-003   -1.793209096043049E-032
  3.300000000000001E-003   -5.347686547200118E-032
  3.400000000000001E-003   -9.339126139750916E-032
  3.500000000000001E-003   -1.344938363778896E-031
  3.600000000000001E-003   -1.725356517262946E-031
  3.700000000000001E-003   -2.023470743171064E-031
  3.800000000000001E-003   -2.181302812352368E-031
  3.900000000000001E-003   -2.139123743698226E-031
  4.000000000000001E-003   -1.841610213018251E-031
  4.100000000000001E-003   -1.245463943983648E-031
  4.200000000000001E-003   -3.281000121882554E-032
  4.300000000000001E-003    9.032566330080285E-032
  4.400000000000001E-003    2.403014613478169E-031
  4.500000000000001E-003    4.080410140466785E-031
  4.600000000000002E-003    5.795872243143701E-031
  4.700000000000001E-003    7.362068947534253E-031
  4.800000000000001E-003    8.551066075701486E-031
  4.900000000000002E-003    9.108735011179679E-031
  5.000000000000001E-003    8.776994712982749E-031
  5.100000000000001E-003    7.323645972900093E-031
  5.200000000000001E-003    4.578498012150544E-031
  5.300000000000002E-003    4.732394451951931E-032
  5.400000000000001E-003   -4.918800828148524E-031
  5.500000000000001E-003   -1.134806966550201E-030
  5.600000000000002E-003   -1.836537137292291E-030
  5.700000000000001E-003   -2.531601025304773E-030
  5.800000000000001E-003   -3.135758515811809E-030
  5.900000000000002E-003   -3.550631326781573E-030
  6.000000000000001E-003   -3.671457372702567E-030
  6.100000000000001E-003   -3.397915026143099E-030
  6.200000000000002E-003   -2.647560960017885E-030
  6.300000000000002E-003   -1.370962945190817E-030
  6.400000000000001E-003    4.328619712202423E-031
  6.500000000000001E-003    2.702526409924661E-030
  6.600000000000002E-003    5.303998659173581E-030
  6.700000000000001E-003    8.026244612510140E-030
  6.800000000000001E-003    1.058493224192825E-029
  6.900000000000002E-003    1.263593841884675E-029
  7.000000000000001E-003    1.379966628116841E-029
  7.100000000000001E-003    1.369613079570397E-029
  7.200000000000002E-003    1.198948354214831E-029
  7.300000000000002E-003    8.439156470547213E-030
  7.400000000000001E-003    2.953321974047857E-030
  7.500000000000001E-003   -4.361011190935317E-030
  7.600000000000002E-003   -1.315797027065022E-029
  7.700000000000001E-003   -2.283006511226066E-029
  7.800000000000001E-003   -3.250970464142578E-029
  7.900000000000001E-003   -4.110092210943684E-029
  8.000000000000002E-003   -4.734522707754668E-029
  8.100000000000001E-003   -4.992261508049032E-029
  8.200000000000001E-003   -4.758502350618354E-029
  8.300000000000002E-003   -3.931521628053777E-029
  8.400000000000001E-003   -2.449955684972775E-029
  8.500000000000002E-003   -3.098775542900146E-030
  8.600000000000002E-003    2.420276903093143E-029
  8.700000000000001E-003    5.589113692275429E-029
  8.800000000000002E-003    8.958251548489086E-029
  8.900000000000002E-003    1.220690144821791E-028
  9.000000000000001E-003    1.494666316033928E-028
  9.100000000000002E-003    1.674740571663776E-028
  9.200000000000002E-003    1.717411042776669E-028
  9.300000000000001E-003    1.583332655874151E-028
  9.400000000000002E-003    1.242651947478678E-028
  9.500000000000001E-003    6.806190445475420E-029
  9.600000000000001E-003   -9.706797684209087E-030
  9.700000000000002E-003   -1.059831924448076E-028
  9.800000000000001E-003   -2.149404161148414E-028
  9.900000000000001E-003   -3.279332911113774E-028
  1.000000000000000E-002   -4.337432281794307E-028
  1.010000000000000E-002   -5.191625326518071E-028
  1.020000000000000E-002   -5.699374911055639E-028
  1.030000000000000E-002   -5.720551409018164E-028
  1.040000000000000E-002   -5.133176864335262E-028
  1.050000000000000E-002   -3.851035269662385E-028
  1.060000000000000E-002   -1.841682878030666E-028
  1.070000000000000E-002    8.569978187169701E-029
  1.080000000000000E-002    4.123858442424026E-028
  1.090000000000000E-002    7.747434468183348E-028
  1.100000000000000E-002    1.142697025081498E-027
  1.110000000000000E-002    1.478334121615029E-027
  1.120000000000000E-002    1.738105822827933E-027
  1.130000000000000E-002    1.876159319392155E-027
  1.140000000000000E-002    1.848709800530201E-027
  1.150000000000000E-002    1.619223513475921E-027
  1.160000000000000E-002    1.164040112052916E-027
  1.170000000000000E-002    4.779295302468117E-028
  1.180000000000000E-002   -4.210332097562457E-028
  1.190000000000000E-002   -1.487958993164693E-027
  1.200000000000000E-002   -2.649695758450697E-027
  1.210000000000000E-002   -3.806067483478724E-027
  1.220000000000000E-002   -4.834282580607733E-027
  1.230000000000000E-002   -5.596760881175984E-027
  1.240000000000000E-002   -5.952310323637217E-027
  1.250000000000000E-002   -5.770219247651485E-027
  1.260000000000000E-002   -4.946410255788416E-027
  1.270000000000000E-002   -3.420398185930775E-027
  1.280000000000000E-002   -1.191432204624878E-027
  1.290000000000000E-002    1.668068308697740E-027
  1.300000000000000E-002    5.003799109080935E-027
  1.310000000000000E-002    8.577523235464273E-027
  1.320000000000000E-002    1.207336295066871E-026
  1.330000000000000E-002    1.511357022545270E-026
  1.340000000000000E-002    1.728417538606039E-026
  1.350000000000000E-002    1.816995738293092E-026
  1.360000000000000E-002    1.739708275700811E-026
  1.370000000000000E-002    1.468062156464006E-026
  1.380000000000000E-002    9.873044641149055E-027
  1.390000000000000E-002    3.008888977878283E-027
  1.400000000000000E-002   -5.659815628297668E-027
  1.410000000000000E-002   -1.564296613508435E-026
  1.420000000000000E-002   -2.621186553911049E-026
  1.430000000000000E-002   -3.642299856432012E-026
  1.440000000000000E-002   -4.516872892807729E-026
  1.450000000000000E-002   -5.125529735693924E-026
  1.460000000000000E-002   -5.350582373921861E-026
  1.470000000000000E-002   -5.088293751203388E-026
  1.480000000000000E-002   -4.262259776636933E-026
  1.490000000000000E-002   -2.836780279596676E-026
  1.500000000000000E-002   -8.288585665763034E-027
  1.510000000000000E-002    1.682665518119072E-026
  1.520000000000000E-002    4.552351812896058E-026
  1.530000000000000E-002    7.569133327446708E-026
  1.540000000000000E-002    1.046408142304015E-025
  1.550000000000000E-002    1.292554230737043E-025
  1.560000000000000E-002    1.462159618708748E-025
  1.570000000000000E-002    1.522903404034023E-025
  1.580000000000000E-002    1.446723915764565E-025
  1.590000000000000E-002    1.213453722404394E-025
  1.600000000000000E-002    8.143862321038355E-026
  1.610000000000000E-002    2.554031266928168E-026
  1.620000000000000E-002   -4.407352354269095E-026
  1.630000000000000E-002   -1.233327484819939E-025
  1.640000000000000E-002   -2.064239730856765E-025
  1.650000000000000E-002   -2.860236037439121E-025
  1.660000000000000E-002   -3.537246411224785E-025
  1.670000000000000E-002   -4.006516953175292E-025
  1.680000000000000E-002   -4.182388356866680E-025
  1.690000000000000E-002   -3.991237559852872E-025
  1.700000000000000E-002   -3.380919617321249E-025
  1.710000000000000E-002   -2.329868456486824E-025
  1.720000000000000E-002   -8.549035499148407E-026
  1.730000000000000E-002    9.832639530095921E-026
  1.740000000000000E-002    3.077779738114700E-025
  1.750000000000000E-002    5.277456238653700E-025
  1.760000000000000E-002    7.393194219341283E-025
  1.770000000000000E-002    9.209212396974020E-025
  1.780000000000000E-002    1.049884239020989E-024
  1.790000000000000E-002    1.104416414978423E-024
  1.800000000000000E-002    1.065825588391853E-024
  1.810000000000000E-002    9.208369758253040E-025
  1.820000000000000E-002    6.637974828215945E-025
  1.830000000000000E-002    2.985372345203929E-025
  1.840000000000000E-002   -1.603467564852458E-025
  1.850000000000000E-002   -6.870023826319975E-025
  1.860000000000000E-002   -1.244807620697141E-024
  1.870000000000000E-002   -1.787942813371796E-024