 -4.000000000000000E-002    0.000000000000000E+000
 -3.990000000000000E-002    0.000000000000000E+000
 -3.980000000000000E-002    0.000000000000000E+000
 -3.970000000000000E-002    0.000000000000000E+000
 -3.960000000000000E-002    0.000000000000000E+000
 -3.950000000000000E-002    0.000000000000000E+000
 -3.940000000000000E-002    0.000000000000000E+000
 -3.930000000000000E-002    1.398793542628015E-026
 -3.920000000000000E-002    1.895914035288311E-025
 -3.910000000000000E-002    1.347206924220849E-024
 -3.900000000000000E-002    6.652562596290901E-024
 -3.890000000000000E-002    2.552606777259712E-023
 -3.880000000000000E-002    8.063218154064377E-023
 -3.870000000000000E-002    2.166579844178373E-022
 -3.860000000000000E-002    5.039533176297203E-022
 -3.850000000000000E-002    1.019680114320697E-021
 -3.840000000000000E-002    1.774404423214216E-021
 -3.830000000000000E-002    2.537307240916440E-021
 -3.820000000000000E-002    2.508295204718717E-021
 -3.810000000000000E-002   -1.933143170545304E-022
 -3.800000000000000E-002   -9.184904571564870E-021
 -3.790000000000000E-002   -3.044591106231285E-020
 -3.780000000000000E-002   -7.252190916922594E-020
 -3.770000000000000E-002   -1.456397999573987E-019
 -3.760000000000000E-002   -2.587825364112903E-019
 -3.750000000000000E-002   -4.135898082774273E-019
 -3.740000000000000E-002   -5.940379700941582E-019
 -3.730000000000000E-002   -7.514099538101370E-019
 -3.720000000000000E-002   -7.853012496009331E-019
 -3.710000000000000E-002   -5.234593453586814E-019
 -3.700000000000000E-002    2.938986471589398E-019
 -3.690000000000000E-002    2.016277104960016E-018
 -3.680000000000000E-002    5.059316299587833E-018
 -3.670000000000000E-002    9.840996308012370E-018
 -3.660000000000000E-002    1.666347303026843E-017
 -3.650000000000000E-002    2.553072494615437E-017
 -3.640000000000000E-002    3.590187536953612E-017
 -3.630000000000000E-002    4.639618786680638E-017
 -3.620000000000000E-002    5.448799935054931E-017
 -3.610000000000000E-002    5.625664125501771E-017
 -3.600000000000000E-002    4.628418836413933E-017
 -3.590000000000000E-002    1.781661201759768E-017
 -3.580000000000000E-002   -3.668588685061328E-017
 -3.570000000000000E-002   -1.244943613461414E-016
 -3.560000000000000E-002   -2.509782694150379E-016
 -3.550000000000000E-002   -4.173965789457821E-016
 -3.540000000000000E-002   -6.182289359491883E-016
 -3.530000000000000E-002   -8.383105723632320E-016
 -3.520000000000000E-002   -1.050199983782655E-015
 -3.510000000000000E-002   -1.212370993157762E-015
 -3.500000000000000E-002   -1.268947819809206E-015
 -3.490000000000000E-002   -1.151754870541938E-015
 -3.480000000000000E-002   -7.853949157406277E-016
 -3.470000000000000E-002   -9.585866000431972E-017
 -3.460000000000000E-002    9.772050034851728E-016
 -3.450000000000000E-002    2.464973769562467E-015
 -3.440000000000000E-002    4.351798610381003E-015
 -3.430000000000000E-002    6.557279553260224E-015
 -3.420000000000000E-002    8.920685348874047E-015
 -3.410000000000000E-002    1.119092923350813E-014
 -3.400000000000000E-002    1.302562664168704E-014
 -3.390000000000000E-002    1.400264561451787E-014
 -3.380000000000000E-002    1.364687339377887E-014
 -3.370000000000000E-002    1.147363761992695E-014
 -3.360000000000000E-002    7.048321328724551E-015
 -3.350000000000000E-002    5.926300874866012E-017
 -3.340000000000000E-002   -9.601678341303808E-015
 -3.330000000000000E-002   -2.175921766892170E-014
 -3.320000000000000E-002   -3.588609782624428E-014
 -3.310000000000000E-002   -5.105803819444050E-014
 -3.300000000000000E-002   -6.594453651946277E-014
 -3.290000000000000E-002   -7.884648732509641E-014
 -3.280000000000000E-002   -8.778828900520070E-014
 -3.270000000000000E-002   -9.066708236565841E-014
 -3.260000000000000E-002   -8.545507229740184E-014
 -3.250000000000000E-002   -7.044321790286597E-014
 -3.240000000000000E-002   -4.450662798667397E-014
 -3.230000000000000E-002   -7.365008133737732E-015
 -3.220000000000000E-002    4.019385648692741E-014
 -3.210000000000000E-002    9.616161434601313E-014
 -3.200000000000000E-002    1.572601657952907E-013
 -3.190000000000000E-002    2.190220693521895E-013
 -3.180000000000000E-002    2.760156969027587E-013
 -3.170000000000000E-002    3.222161373474267E-013
 -3.160000000000000E-002    3.515047331769973E-013
 -3.150000000000000E-002    3.582623471914546E-013
 -3.140000000000000E-002    3.380039549977834E-013
 -3.130000000000000E-002    2.879887252609400E-013
 -3.120000000000000E-002    2.077327323457709E-013
 -3.110000000000000E-002    9.935205238588768E-014
 -3.100000000000000E-002   -3.232575505394750E-014
 -3.090000000000000E-002   -1.799243649075705E-013
 -3.080000000000000E-002   -3.339699312202902E-013
 -3.070000000000000E-002   -4.836122274421415E-013
 -3.060000000000000E-002   -6.175605978831032E-013
 -3.050000000000000E-002   -7.251457929537463E-013
 -3.040000000000000E-002   -7.973933337439843E-013
 -3.030000000000000E-002   -8.279778280139959E-013
 -3.020000000000000E-002   -8.139292947570690E-013
 -3.010000000000000E-002   -7.559804472456137E-013
 -3.000000000000000E-002   -6.584795716584626E-013
 -2.990000000000000E-002   -5.288438985660110E-013
 -2.980000000000000E-002   -3.765894882249712E-013
 -2.970000000000000E-002   -2.120366956572068E-013
 -2.960000000000000E-002   -4.484883061584473E-014
 -2.950000000000000E-002    1.173960298914454E-013
 -2.940000000000000E-002    2.703787899526537E-013
 -2.930000000000000E-002    4.137467245883810E-013
 -2.920000000000000E-002    5.511837015704789E-013
 -2.910000000000000E-002    6.897438742565271E-013
 -2.900000000000000E-002    8.384459825946258E-013
 -2.890000000000000E-002    1.006239155667855E-012
 -2.880000000000000E-002    1.199562731490763E-012
 -2.870000000000000E-002    1.419819547495539E-012
 -2.860000000000000E-002    1.661152172912399E-012
 -2.850000000000000E-002    1.908927194581788E-012
 -2.840000000000000E-002    2.139299646791836E-012
 -2.830000000000000E-002    2.320136706709972E-012
 -2.820000000000000E-002    2.413423596515789E-012
 -2.810000000000000E-002    2.379089265135176E-012
 -2.800000000000000E-002    2.179969199300366E-012
 -2.790000000000000E-002    1.787420730452344E-012
 -2.780000000000000E-002    1.186925837217459E-012
 -2.770000000000000E-002    3.829175075962052E-013
 -2.760000000000000E-002   -5.979601763355871E-013
 -2.750000000000000E-002   -1.705853600723857E-012
 -2.740000000000000E-002   -2.869462014133351E-012
 -2.730000000000000E-002   -4.000766778298706E-012
 -2.720000000000000E-002   -5.002562617227950E-012
 -2.710000000000000E-002   -5.778228582770781E-012
 -2.700000000000000E-002   -6.242792557466231E-012
 -2.690000000000000E-002   -6.334047672878083E-012
 -2.680000000000000E-002   -6.022280202005496E-012
 -2.670000000000000E-002   -5.317170450356596E-012
 -2.660000000000000E-002   -4.270597318615354E-012
 -2.650000000000000E-002   -2.974454074808997E-012
 -2.640000000000000E-002   -1.553124106505495E-012
 -2.630000000000000E-002   -1.509318454979930E-013
 -2.620000000000000E-002    1.084415334427124E-012
 -2.610000000000000E-002    2.020703210820109E-012
 -2.600000000000000E-002    2.560197719468594E-012
 -2.590000000000000E-002    2.656231779876659E-012
 -2.580000000000000E-002    2.324881200534264E-012
 -2.570000000000000E-002    1.649565831110538E-012
 -2.560000000000000E-002    7.770523748970105E-013
 -2.550000000000000E-002   -9.567244916481305E-014
 -2.540000000000000E-002   -7.430718694896803E-013
 -2.530000000000000E-002   -9.394595097582717E-013
 -2.520000000000000E-002   -4.911869387515149E-013
 -2.510000000000000E-002    7.311937450535133E-013
 -2.500000000000000E-002    2.765075288030138E-012
 -2.490000000000000E-002    5.536524559953379E-012
 -2.480000000000000E-002    8.853235112232564E-012
 -2.470000000000000E-002    1.241223946635274E-011
 -2.460000000000000E-002    1.582323058216620E-011
 -2.450000000000000E-002    1.864644827506324E-011
 -2.440000000000000E-002    2.044202024909867E-011
 -2.430000000000000E-002    2.082578498612634E-011
 -2.420000000000000E-002    1.952515931157422E-011
 -2.410000000000000E-002    1.642782530523813E-011
 -2.400000000000000E-002    1.161608535908709E-011
 -2.390000000000000E-002    5.380684851223849E-012
 -2.380000000000000E-002   -1.790139532506330E-012
 -2.370000000000000E-002   -9.247990988919936E-012
 -2.360000000000000E-002   -1.624640109986530E-011
 -2.350000000000000E-002   -2.202270225432050E-011
 -2.340000000000000E-002   -2.589163042054749E-011
 -2.330000000000000E-002   -2.734009337724548E-011
 -2.320000000000000E-002   -2.611125241621010E-011
 -2.310000000000000E-002   -2.226598767784477E-011
 -2.300000000000000E-002   -1.621131392542117E-011
 -2.290000000000000E-002   -8.688280169622905E-012
 -2.280000000000000E-002   -7.161101965519435E-013
 -2.270000000000000E-002    6.505535123005345E-012
 -2.260000000000000E-002    1.172889169204805E-011
 -2.250000000000000E-002    1.381259175606355E-011
 -2.240000000000000E-002    1.188185450901741E-011
 -2.230000000000000E-002    5.475154697808751E-012
 -2.220000000000000E-002   -5.342017698107930E-012
 -2.210000000000000E-002   -1.991406217782024E-011
 -2.200000000000000E-002   -3.699623187293048E-011
 -2.190000000000000E-002   -5.482682020540745E-011
 -2.180000000000000E-002   -7.126990834659297E-011
 -2.170000000000000E-002   -8.401951086497170E-011
 -2.160000000000000E-002   -9.084774675528883E-011
 -2.150000000000000E-002   -8.987261100286956E-011
 -2.140000000000000E-002   -7.981621967142002E-011
 -2.130000000000000E-002   -6.022252939105812E-011
 -2.120000000000000E-002   -3.160533057570730E-011
 -2.110000000000000E-002    4.497469565689772E-012
 -2.100000000000000E-002    4.557867629061883E-011
 -2.090000000000000E-002    8.833003034097137E-011
 -2.080000000000000E-002    1.289155144496677E-010
 -2.070000000000000E-002    1.633286729739797E-010
 -2.060000000000000E-002    1.878014324529977E-010
 -2.050000000000000E-002    1.992234473377342E-010
 -2.040000000000000E-002    1.955261293017754E-010
 -2.030000000000000E-002    1.759859044267148E-010
 -2.020000000000000E-002    1.414066458349989E-010
 -2.010000000000000E-002    9.415144204546249E-011
 -2.000000000000000E-002    3.800868409128917E-011
 -1.990000000000000E-002   -2.210527301214927E-011
 -1.980000000000000E-002   -8.058626442909421E-011
 -1.970000000000000E-002   -1.316870221111978E-010
 -1.960000000000000E-002   -1.701141249374485E-010
 -1.950000000000000E-002   -1.916146174862393E-010
 -1.940000000000000E-002   -1.934876024452770E-010
 -1.930000000000000E-002   -1.749587635022847E-010
 -1.920000000000000E-002   -1.373677748880392E-010
 -1.910000000000000E-002   -8.413545076053306E-011
 -1.900000000000000E-002   -2.050014110518510E-011
 -1.890000000000000E-002    4.696230994306781E-011
 -1.880000000000000E-002    1.109955175740171E-010
 -1.870000000000000E-002    1.644344714542287E-010
 -1.860000000000000E-002    2.010138566675390E-010
 -1.850000000000000E-002    2.161240706988419E-010
 -1.840000000000000E-002    2.074270792724087E-010
 -1.830000000000000E-002    1.752535452447473E-010
 -1.820000000000000E-002    1.227216634196042E-010
 -1.810000000000000E-002    5.554482218259485E-011
 -1.800000000000000E-002   -1.847169244205074E-011
 -1.790000000000000E-002   -9.021093770978014E-011
 -1.780000000000000E-002   -1.502337023654679E-010
 -1.770000000000000E-002   -1.898819945029586E-010
 -1.760000000000000E-002   -2.023814400501828E-010
 -1.750000000000000E-002   -1.838192700883753E-010
 -1.740000000000000E-002   -1.338792146488619E-010
 -1.730000000000000E-002   -5.623214109200885E-011
 -1.720000000000000E-002    4.148932328342188E-011
 -1.710000000000000E-002    1.481644946248704E-010
 -1.700000000000000E-002    2.500937106727875E-010
 -1.690000000000000E-002    3.322826277262676E-010
 -1.680000000000000E-002    3.799981046263059E-010
 -1.670000000000000E-002    3.804557509398919E-010
 -1.660000000000000E-002    3.244758533270305E-010
 -1.650000000000000E-002    2.079353615412129E-010
 -1.640000000000000E-002    3.285316167437466E-011
 -1.630000000000000E-002   -1.920301823054867E-010
 -1.620000000000000E-002   -4.512733948074842E-010
 -1.610000000000000E-002   -7.234009327120233E-010
 -1.600000000000000E-002   -9.821972437210022E-010
 -1.590000000000000E-002   -1.198551351887356E-009
 -1.580000000000000E-002   -1.342714009113040E-009
 -1.570000000000000E-002   -1.386787903418826E-009
 -1.560000000000000E-002   -1.307236046355523E-009
 -1.550000000000000E-002   -1.087185394670869E-009
 -1.540000000000000E-002   -7.183137510665464E-010
 -1.530000000000000E-002   -2.021379482904106E-010
 -1.520000000000000E-002    4.494255736464028E-010
 -1.510000000000000E-002    1.214291863311891E-009
 -1.500000000000000E-002    2.061218435490339E-009
 -1.490000000000000E-002    2.951512268079958E-009
 -1.480000000000000E-002    3.841277779480444E-009
 -1.470000000000000E-002    4.683993449687701E-009
 -1.460000000000000E-002    5.433180775837159E-009
 -1.450000000000000E-002    6.044904213073589E-009
 -1.440000000000000E-002    6.479873995588810E-009
 -1.430000000000000E-002    6.704959691284358E-009
 -1.420000000000000E-002    6.693989026069531E-009
 -1.410000000000000E-002    6.427801003404895E-009
 -1.400000000000000E-002    5.893600364948479E-009
 -1.390000000000000E-002    5.083775345940989E-009
 -1.380000000000000E-002    3.994404344753140E-009
 -1.370000000000000E-002    2.623756371799882E-009
 -1.360000000000000E-002    9.711156375709308E-010
 -1.350000000000000E-002   -9.637243979897851E-010
 -1.340000000000000E-002   -3.180002817930977E-009
 -1.330000000000000E-002   -5.674322610874576E-009
 -1.320000000000000E-002   -8.437638570602932E-009
 -1.310000000000000E-002   -1.145089015514104E-008
 -1.300000000000000E-002   -1.467938962573583E-008
 -1.290000000000000E-002   -1.806622341699336E-008
 -1.280000000000000E-002   -2.152503222673417E-008
 -1.270000000000000E-002   -2.493264206763621E-008
 -1.260000000000000E-002   -2.812204775824722E-008
 -1.250000000000000E-002   -3.087629450060929E-008
 -1.240000000000000E-002   -3.292373287026069E-008
 -1.230000000000000E-002   -3.393504324374604E-008
 -1.220000000000000E-002   -3.352232019179509E-008
 -1.210000000000000E-002   -3.124030799485317E-008
 -1.200000000000000E-002   -2.658971649367457E-008
 -1.190000000000000E-002   -1.902237479435813E-008
 -1.180000000000000E-002   -7.947798289293813E-009
 -1.170000000000000E-002    7.259387191571508E-009
 -1.160000000000000E-002    2.725176718201411E-008
 -1.150000000000000E-002    5.270189367722301E-008
 -1.140000000000000E-002    8.429615565552981E-008
 -1.130000000000000E-002    1.227301180304733E-007
 -1.120000000000000E-002    1.687059772808796E-007
 -1.110000000000000E-002    2.229319851054311E-007
 -1.100000000000000E-002    2.861242122019101E-007
 -1.090000000000000E-002    3.590100734149707E-007
 -1.080000000000000E-002    4.423332252948795E-007
 -1.070000000000000E-002    5.368594650933638E-007
 -1.060000000000000E-002    6.433826405377441E-007
 -1.050000000000000E-002    7.627299649527950E-007
 -1.040000000000000E-002    8.957662604143431E-007
 -1.030000000000000E-002    1.043396027242175E-006
 -1.020000000000000E-002    1.206563683347594E-006
 -1.010000000000000E-002    1.386251453562286E-006
 -1.000000000000000E-002    1.583474727928286E-006
 -9.899999999999999E-003    1.799276442874748E-006
 -9.800000000000000E-003    2.034719641972156E-006
 -9.699999999999999E-003    2.290880015754837E-006
 -9.599999999999999E-003    2.568839352163930E-006
 -9.500000000000000E-003    2.869680430923489E-006
 -9.399999999999999E-003    3.194484202974615E-006
 -9.299999999999999E-003    3.544330414246144E-006
 -9.200000000000000E-003    3.920301888906489E-006
 -9.099999999999999E-003    4.323492226807413E-006
 -8.999999999999999E-003    4.755017169872886E-006
 -8.900000000000000E-003    5.216029004271984E-006
 -8.799999999999999E-003    5.707732753885732E-006
 -8.699999999999999E-003    6.231405056701445E-006
 -8.600000000000000E-003    6.788409752405471E-006
 -8.499999999999999E-003    7.380215325791212E-006
 -8.399999999999999E-003    8.008409064330503E-006
 -8.300000000000000E-003    8.674708133637034E-006
 -8.199999999999999E-003    9.380966211126366E-006
 -8.100000000000000E-003    1.012917787490348E-005
 -8.000000000000000E-003    1.092147948779532E-005
 -7.899999999999999E-003    1.176014510459187E-005
 -7.800000000000000E-003    1.264758273690073E-005
 -7.699999999999999E-003    1.358632956465442E-005
 -7.599999999999999E-003    1.457904767065336E-005
 -7.499999999999999E-003    1.562852195991535E-005
 -7.399999999999999E-003    1.673766004642721E-005
 -7.299999999999999E-003    1.790949830181376E-005
 -7.199999999999999E-003    1.914721246966749E-005
 -7.100000000000000E-003    2.045412723440003E-005
 -6.999999999999999E-003    2.183374139938898E-005
 -6.899999999999999E-003    2.328974282316358E-005
 -6.800000000000000E-003    2.482603703666426E-005
 -6.699999999999999E-003    2.644677225474063E-005
 -6.599999999999999E-003    2.815635741175986E-005
 -6.499999999999999E-003    2.995949171106799E-005
 -6.399999999999999E-003    3.186118035739796E-005
 -6.299999999999999E-003    3.386674541004012E-005
 -6.199999999999999E-003    3.598183798183612E-005
 -6.100000000000000E-003    3.821244439799707E-005
 -5.999999999999999E-003    4.056488134793736E-005
 -5.899999999999999E-003    4.304579641140452E-005
 -5.800000000000000E-003    4.566216703309435E-005
 -5.699999999999999E-003    4.842128750770848E-005
 -5.599999999999999E-003    5.133077945042696E-005
 -5.499999999999999E-003    5.439858335787138E-005
 -5.399999999999999E-003    5.763296875801075E-005
 -5.299999999999999E-003    6.104253920765931E-005
 -5.199999999999999E-003    6.463626275577850E-005
 -5.099999999999999E-003    6.842349098611626E-005
 -4.999999999999999E-003    7.241399194351256E-005
 -4.899999999999999E-003    7.661797692743646E-005
 -4.799999999999999E-003    8.104615785149541E-005
 -4.699999999999999E-003    8.570976075798381E-005
 -4.599999999999999E-003    9.062058292503053E-005
 -4.499999999999999E-003    9.579101413789469E-005
 -4.399999999999999E-003    1.012340894678156E-004
 -4.299999999999999E-003    1.069634928308026E-004
 -4.199999999999999E-003    1.129935838386481E-004
 -4.099999999999999E-003    1.193394193083418E-004
 -3.999999999999999E-003    1.260167527992360E-004
 -3.899999999999999E-003    1.330420537553641E-004
 -3.799999999999999E-003    1.404324981765636E-004
 -3.699999999999999E-003    1.482059874575650E-004
 -3.599999999999999E-003    1.563811451448467E-004
 -3.499999999999999E-003    1.649773377333506E-004
 -3.399999999999999E-003    1.740146638467449E-004
 -3.299999999999999E-003    1.835140216740051E-004
 -3.199999999999999E-003    1.934970978666642E-004
 -3.099999999999999E-003    2.039864149540346E-004
 -2.999999999999999E-003    2.150054037495031E-004
 -2.899999999999999E-003    2.265783950836547E-004
 -2.799999999999999E-003    2.387307115346146E-004
 -2.699999999999999E-003    2.514887061307809E-004
 -2.599999999999999E-003    2.648798119065486E-004
 -2.499999999999999E-003    2.789325774092764E-004
 -2.399999999999999E-003    2.936767226591435E-004
 -2.299999999999999E-003    3.091432010757809E-004
 -2.199999999999999E-003    3.253641853401548E-004
 -2.099999999999999E-003    3.423731360635473E-004
 -1.999999999999999E-003    3.602047767448384E-004
 -1.899999999999999E-003    3.788951811385459E-004
 -1.799999999999999E-003    3.984817862078731E-004
 -1.699999999999999E-003    4.190033136042162E-004
 -1.599999999999999E-003    4.404999251453563E-004
 -1.499999999999999E-003    4.630131957394112E-004
 -1.399999999999999E-003    4.865861142722936E-004
 -1.299999999999999E-003    5.112631861461714E-004
 -1.199999999999999E-003    5.370903544670516E-004
 -1.099999999999999E-003    5.641151990704890E-004
 -9.999999999999989E-004    5.923868614775953E-004
 -8.999999999999990E-004    6.219561696828773E-004
 -7.999999999999990E-004    6.528756459025740E-004
 -6.999999999999989E-004    6.851995466373174E-004
 -5.999999999999990E-004    7.189839976846304E-004
 -4.999999999999989E-004    7.542869957151165E-004
 -3.999999999999989E-004    7.911683502041238E-004
 -2.999999999999989E-004    8.296898787537731E-004
 -1.999999999999989E-004    8.699153205787817E-004
 -9.999999999999892E-005    9.119104410019532E-004
  1.084202172485504E-018    9.557430710414907E-004
  1.000000000000011E-004    1.001482994046426E-003
  2.000000000000011E-004    1.049202117768387E-003
  3.000000000000011E-004    1.098974540300945E-003
  4.000000000000011E-004    1.150876417272292E-003
  5.000000000000011E-004    1.204986083015173E-003
  6.000000000000011E-004    1.261384036759460E-003
  7.000000000000011E-004    1.320153183357093E-003
  8.000000000000011E-004    1.381378660904492E-003
  9.000000000000012E-004    1.445147938837959E-003
  1.000000000000001E-003    1.511551046409336E-003
  1.100000000000001E-003    1.580680386646659E-003
  1.200000000000001E-003    1.652631027740675E-003
  1.300000000000001E-003    1.727500344356444E-003
  1.400000000000001E-003    1.805388610387426E-003
  1.500000000000001E-003    1.886398454255712E-003
  1.600000000000001E-003    1.970635410285901E-003
  1.700000000000001E-003    2.058207402666951E-003
  1.800000000000001E-003    2.149225158776435E-003
  1.900000000000001E-003    2.243802011286936E-003
  2.000000000000001E-003    2.342053896806576E-003
  2.100000000000001E-003    2.444099033800650E-003
  2.200000000000001E-003    2.550058719521363E-003
  2.300000000000001E-003    2.660056439752180E-003
  2.400000000000001E-003    2.774218018529416E-003
  2.500000000000001E-003    2.892671691829107E-003
  2.600000000000001E-003    3.015548423819543E-003
  2.700000000000001E-003    3.142981567447949E-003
  2.800000000000001E-003    3.275106439782848E-003
  2.900000000000001E-003    3.412061209317404E-003
  3.000000000000001E-003    3.553986322778964E-003
  3.100000000000001E-003    3.701024773165772E-003
  3.200000000000001E-003    3.853321795496420E-003
  3.300000000000001E-003    4.011025095311818E-003
  3.400000000000001E-003    4.174284918910553E-003
  3.500000000000001E-003    4.343253700130174E-003
  3.600000000000001E-003    4.518085988660561E-003
  3.700000000000001E-003    4.698939407573259E-003
  3.800000000000001E-003    4.885973292442200E-003
  3.900000000000001E-003    5.079348710353298E-003
  4.000000000000001E-003    5.279229654361008E-003
  4.100000000000001E-003    5.485780813370166E-003
  4.200000000000001E-003    5.699169450943570E-003
  4.300000000000001E-003    5.919563550953118E-003
  4.400000000000001E-003    6.147133144690400E-003
  4.500000000000001E-003    6.382048674455743E-003
  4.600000000000002E-003    6.624482054706691E-003
  4.700000000000001E-003    6.874606232115043E-003
  4.800000000000001E-003    7.132594438893779E-003
  4.900000000000002E-003    7.398620019511517E-003
  5.000000000000001E-003    7.672857432464568E-003
  5.100000000000001E-003    7.955480727884771E-003
  5.200000000000001E-003    8.246663972502944E-003
  5.300000000000002E-003    8.546580830339844E-003
  5.400000000000001E-003    8.855406011898694E-003
  5.500000000000001E-003    9.173311525286878E-003
  5.600000000000002E-003    9.500470486646416E-003
  5.700000000000001E-003    9.837054349988623E-003
  5.800000000000001E-003    1.018323346321787E-002
  5.900000000000002E-003    1.053917708625916E-002
  6.000000000000001E-003    1.090505202777382E-002
  6.100000000000001E-003    1.128102299843106E-002
  6.200000000000002E-003    1.166725219016654E-002
  6.300000000000002E-003    1.206389949302172E-002
  6.400000000000001E-003    1.247112228138106E-002
  6.500000000000001E-003    1.288907331232945E-002
  6.600000000000002E-003    1.331790150185529E-002
  6.700000000000001E-003    1.375775223519988E-002
  6.800000000000001E-003    1.420876602690233E-002
  6.900000000000002E-003    1.467107739585584E-002
  7.000000000000001E-003    1.514481665426114E-002
  7.100000000000001E-003    1.563010810643320E-002
  7.200000000000002E-003    1.612706997820804E-002
  7.300000000000002E-003    1.663581235183165E-002
  7.400000000000001E-003    1.715644117277560E-002
  7.500000000000001E-003    1.768905259954964E-002
  7.600000000000002E-003    1.823373694517414E-002
  7.700000000000001E-003    1.879057377793465E-002
  7.800000000000001E-003    1.935963625003427E-002
  7.900000000000001E-003    1.994098730551504E-002
  8.000000000000002E-003    2.053467920028505E-002
  8.100000000000001E-003    2.114075610219588E-002
  8.200000000000001E-003    2.175924673030896E-002
  8.300000000000002E-003    2.239017320587069E-002
  8.400000000000001E-003    2.303354142640440E-002
  8.500000000000002E-003    2.368934574964164E-002
  8.600000000000002E-003    2.435756828104895E-002
  8.700000000000001E-003    2.503817611670040E-002
  8.800000000000002E-003    2.573112290977155E-002
  8.900000000000002E-003    2.643634505740332E-002
  9.000000000000001E-003    2.715376507568661E-002
  9.100000000000002E-003    2.788328856647887E-002
  9.200000000000002E-003    2.862480570402689E-002
  9.300000000000001E-003    2.937818680168495E-002
  9.400000000000002E-003    3.014328665137637E-002
  9.500000000000001E-003    3.091994011393236E-002
  9.600000000000001E-003    3.170796430705309E-002
  9.700000000000002E-003    3.250715466597455E-002
  9.800000000000001E-003    3.331729005341880E-002
  9.900000000000001E-003    3.413812384415409E-002
  1.000000000000000E-002    3.496939481023943E-002
  1.010000000000000E-002    3.581080871456849E-002
  1.020000000000000E-002    3.666205348074739E-002
  1.030000000000000E-002    3.752279618574297E-002
  1.040000000000000E-002    3.839267701753302E-002
  1.050000000000000E-002    3.927130816851317E-002
  1.060000000000000E-002    4.015828139070151E-002
  1.070000000000000E-002    4.105315464388713E-002
  1.080000000000000E-002    4.195546551403879E-002
  1.090000000000000E-002    4.286472172920767E-002
  1.100000000000000E-002    4.378039699527041E-002
  1.110000000000000E-002    4.470194476176914E-002
  1.120000000000000E-002    4.562878763400510E-002
  1.130000000000000E-002    4.656031264500091E-002
  1.140000000000000E-002    4.749588454217048E-002
  1.150000000000000E-002    4.843483179647626E-002
  1.160000000000000E-002    4.937645462157803E-002
  1.170000000000000E-002    5.032001978329666E-002
  1.180000000000000E-002    5.126476625281021E-002
  1.190000000000000E-002    5.220989735959483E-002
  1.200000000000000E-002    5.315458813387672E-002
  1.210000000000000E-002    5.409797173808924E-002
  1.220000000000000E-002    5.503915641406453E-002
  1.230000000000000E-002    5.597721605118033E-002
  1.240000000000000E-002    5.691118403791497E-002
  1.250000000000000E-002    5.784006586186059E-002
  1.260000000000000E-002    5.876282618952305E-002
  1.270000000000000E-002    5.967840230497728E-002
  1.280000000000000E-002    6.058568846722463E-002
  1.290000000000000E-002    6.148354805368376E-002
  1.300000000000000E-002    6.237080786019928E-002
  1.310000000000000E-002    6.324625797475392E-002
  1.320000000000000E-002    6.410865858369140E-002
  1.330000000000000E-002    6.495672417102979E-002
  1.340000000000000E-002    6.578914127081116E-002
  1.350000000000000E-002    6.660456519388484E-002
  1.360000000000000E-002    6.740160610500914E-002
  1.370000000000000E-002    6.817884629249296E-002
  1.380000000000000E-002    6.893483901943527E-002
  1.390000000000000E-002    6.966809047945677E-002
  1.400000000000000E-002    7.037708359157867E-002
  1.410000000000000E-002    7.106026701940114E-002
  1.420000000000000E-002    7.171605178247252E-002
  1.430000000000000E-002    7.234282312785098E-002
  1.440000000000000E-002    7.293893229579516E-002
  1.450000000000000E-002    7.350269745674813E-002
  1.460000000000000E-002    7.403241281513492E-002
  1.470000000000000E-002    7.452633817278360E-002
  1.480000000000000E-002    7.498270530506194E-002
  1.490000000000000E-002    7.539972134285183E-002
  1.500000000000000E-002    7.577556097700211E-002
  1.510000000000000E-002    7.610838272085825E-002
  1.520000000000000E-002    7.639631747548593E-002
  1.530000000000000E-002    7.663746448556291E-002
  1.540000000000000E-002    7.682991281374245E-002
  1.550000000000000E-002    7.697171671621648E-002
  1.560000000000000E-002    7.706093106930079E-002
  1.570000000000000E-002    7.709556968246746E-002
  1.580000000000000E-002    7.707364422915941E-002
  1.590000000000000E-002    7.699314437924390E-002
  1.600000000000000E-002    7.685205847535348E-002
  1.610000000000000E-002    7.664834785119236E-002
  1.620000000000000E-002    7.637996366843904E-002
  1.630000000000000E-002    7.604486130283511E-002
  1.640000000000000E-002    7.564097737061917E-002
  1.650000000000000E-002    7.516624877348541E-002
  1.660000000000000E-002    7.461861141642513E-002
  1.670000000000000E-002    7.399599682910964E-002
  1.680000000000000E-002    7.329633381923499E-002
  1.690000000000000E-002    7.251756774994085E-002
  1.700000000000000E-002    7.165763474878871E-002
  1.710000000000000E-002    7.071448676175784E-002
  1.720000000000000E-002    6.968608706808239E-002
  1.730000000000000E-002    6.857040575952071E-002
  1.740000000000000E-002    6.736543071446764E-002
  1.750000000000000E-002    6.606916512561344E-002
  1.760000000000000E-002    6.467964119409987E-002
  1.770000000000000E-002    6.319489835010306E-002
  1.780000000000000E-002    6.161301185219545E-002
  1.790000000000000E-002    5.993208170746664E-002
  1.800000000000000E-002    5.815023400683261E-002
  1.810000000000000E-002    5.626563374057605E-002
  1.820000000000000E-002    5.427647331376093E-002
  1.830000000000000E-002    5.218098611834714E-002
  1.840000000000000E-002    4.997744742865377E-002
  1.850000000000000E-002    4.766417484021707E-002
  1.860000000000000E-002    4.523952871472897E-002
  1.870000000000000E-002    4.270192352949489E-002