 -4.000000000000000E-002    0.000000000000000E+000
 -3.990000000000000E-002    0.000000000000000E+000
 -3.980000000000000E-002    0.000000000000000E+000
 -3.970000000000000E-002    0.000000000000000E+000
 -3.960000000000000E-002    0.000000000000000E+000
 -3.950000000000000E-002    0.000000000000000E+000
 -3.940000000000000E-002    0.000000000000000E+000
 -3.930000000000000E-002    0.000000000000000E+000
 -3.920000000000000E-002    0.000000000000000E+000
 -3.910000000000000E-002    0.000000000000000E+000
 -3.900000000000000E-002    0.000000000000000E+000
 -3.890000000000000E-002    0.000000000000000E+000
 -3.880000000000000E-002    3.283855691210377E-040
 -3.870000000000000E-002    7.181906554092236E-039
 -3.860000000000000E-002    8.039189079722489E-038
 -3.850000000000000E-002    6.119180458363571E-037
 -3.840000000000000E-002    3.548207477565901E-036
 -3.830000000000000E-002    1.663020340750593E-035
 -3.820000000000000E-002    6.516296215673835E-035
 -3.810000000000000E-002    2.172773971300980E-034
 -3.800000000000000E-002    6.186452701056845E-034
 -3.790000000000000E-002    1.478708101329064E-033
 -3.780000000000000E-002    2.774017834323894E-033
 -3.770000000000000E-002    2.976766419333229E-033
 -3.760000000000000E-002   -4.890035440623069E-033
 -3.750000000000000E-002   -4.349275170184258E-032
 -3.740000000000000E-002   -1.745356829637272E-031
 -3.730000000000000E-002   -5.465014782256230E-031
 -3.720000000000000E-002   -1.482857787253504E-030
 -3.710000000000000E-002   -3.628988423147020E-030
 -3.700000000000000E-002   -8.169540662703801E-030
 -3.690000000000000E-002   -1.710209180197697E-029
 -3.680000000000000E-002   -3.349315911960821E-029
 -3.670000000000000E-002   -6.153157681929088E-029
 -3.660000000000000E-002   -1.060193349171685E-028
 -3.650000000000000E-002   -1.707045730839317E-028
 -3.640000000000000E-002   -2.546037332540833E-028
 -3.630000000000000E-002   -3.452754255487053E-028
 -3.620000000000000E-002   -4.080730936957343E-028
 -3.610000000000000E-002   -3.709821607547677E-028
 -3.600000000000000E-002   -1.060769856750765E-028
 -3.590000000000000E-002    5.887394911014513E-028
 -3.580000000000000E-002    2.000008148422368E-027
 -3.570000000000000E-002    4.487944689315150E-027
 -3.560000000000000E-002    8.435634688051319E-027
 -3.550000000000000E-002    1.413428320953313E-026
 -3.540000000000000E-002    2.157943176469798E-026
 -3.530000000000000E-002    3.015949283688951E-026
 -3.520000000000000E-002    3.823663425262217E-026
 -3.510000000000000E-002    4.265549473720403E-026
 -3.500000000000000E-002    3.827019875447536E-026
 -3.490000000000000E-002    1.765356935693350E-026
 -3.480000000000000E-002   -2.876364343776045E-026
 -3.470000000000000E-002   -1.117982440538359E-025
 -3.460000000000000E-002   -2.414970233708261E-025
 -3.450000000000000E-002   -4.236594493385294E-025
 -3.440000000000000E-002   -6.547148228549824E-025
 -3.430000000000000E-002   -9.150839341481703E-025
 -3.420000000000000E-002   -1.161665605074771E-024
 -3.410000000000000E-002   -1.320792616199533E-024
 -3.400000000000000E-002   -1.283841664398845E-024
 -3.390000000000000E-002   -9.085303961632520E-025
 -3.380000000000000E-002   -2.957618004626578E-026
 -3.370000000000000E-002    1.517477102940240E-024
 -3.360000000000000E-002    3.856190286501571E-024
 -3.350000000000000E-002    7.011812002690720E-024
 -3.340000000000000E-002    1.083888618761250E-023
 -3.330000000000000E-002    1.494133970906549E-023
 -3.320000000000000E-002    1.859892410690565E-023
 -3.310000000000000E-002    2.072095520243476E-023
 -3.300000000000000E-002    1.985468814493447E-023
 -3.290000000000000E-002    1.427961588049520E-023
 -3.280000000000000E-002    2.218098363127510E-024
 -3.270000000000000E-002   -1.781537922707669E-023
 -3.260000000000000E-002   -4.652162020276424E-023
 -3.250000000000000E-002   -8.320441792706892E-023
 -3.240000000000000E-002   -1.251009202137271E-022
 -3.230000000000000E-002   -1.667633327637032E-022
 -3.220000000000000E-002   -1.996487678198882E-022
 -3.210000000000000E-002   -2.121148344644249E-022
 -3.200000000000000E-002   -1.900399335012333E-022
 -3.190000000000000E-002   -1.182752225944506E-022
 -3.180000000000000E-002    1.692438435566131E-023
 -3.170000000000000E-002    2.244611522276684E-022
 -3.160000000000000E-002    5.040999622354344E-022
 -3.150000000000000E-002    8.417110760036895E-022
 -3.140000000000000E-002    1.204722209674548E-021
 -3.130000000000000E-002    1.538735257868223E-021
 -3.120000000000000E-002    1.766499693934540E-021
 -3.110000000000000E-002    1.790558197371811E-021
 -3.100000000000000E-002    1.500820109489993E-021
 -3.090000000000000E-002    7.880038932140220E-022
 -3.080000000000000E-002   -4.367299291946088E-022
 -3.070000000000000E-002   -2.216579770706251E-021
 -3.060000000000000E-002   -4.520199418946461E-021
 -3.050000000000000E-002   -7.212390490227220E-021
 -3.040000000000000E-002   -1.002916086828042E-020
 -3.030000000000000E-002   -1.256317520652704E-020
 -3.020000000000000E-002   -1.426638673064235E-020
 -3.010000000000000E-002   -1.447657211885666E-020
 -3.000000000000000E-002   -1.247328897625319E-020
 -2.990000000000000E-002   -7.566234501619771E-021
 -2.980000000000000E-002    7.850337938348146E-022
 -2.970000000000000E-002    1.282637067996073E-020
 -2.960000000000000E-002    2.835196584313783E-020
 -2.950000000000000E-002    4.655414988018204E-020
 -2.940000000000000E-002    6.590529277547884E-020
 -2.930000000000000E-002    8.410116630109174E-020
 -2.920000000000000E-002    9.809636045542684E-020
 -2.910000000000000E-002    1.042591986854582E-019
 -2.900000000000000E-002    9.866552992786668E-020
 -2.890000000000000E-002    7.753699941599586E-020
 -2.880000000000000E-002    3.781036045095998E-020
 -2.870000000000000E-002   -2.219857154845032E-020
 -2.860000000000000E-002   -1.020978292543591E-019
 -2.850000000000000E-002   -1.987744092978123E-019
 -2.840000000000000E-002   -3.059058467156397E-019
 -2.830000000000000E-002   -4.137420886232410E-019
 -2.820000000000000E-002   -5.092684463352349E-019
 -2.810000000000000E-002   -5.768399195502192E-019
 -2.800000000000000E-002   -5.993398322803123E-019
 -2.790000000000000E-002   -5.598593245160824E-019
 -2.780000000000000E-002   -4.438244486861951E-019
 -2.770000000000000E-002   -2.414183029870656E-019
 -2.760000000000000E-002    4.993280771277307E-020
 -2.750000000000000E-002    4.233078138487938E-019
 -2.740000000000000E-002    8.606159261478017E-019
 -2.730000000000000E-002    1.331849485134829E-018
 -2.720000000000000E-002    1.795579544754068E-018
 -2.710000000000000E-002    2.200921638516966E-018
 -2.700000000000000E-002    2.491063387014832E-018
 -2.690000000000000E-002    2.608266007776799E-018
 -2.680000000000000E-002    2.500043171842732E-018
 -2.670000000000000E-002    2.126012484357409E-018
 -2.660000000000000E-002    1.464722812952119E-018
 -2.650000000000000E-002    5.196283748541550E-019
 -2.640000000000000E-002   -6.766699211729698E-019
 -2.630000000000000E-002   -2.060739583976644E-018
 -2.620000000000000E-002   -3.539833946529105E-018
 -2.610000000000000E-002   -4.996956512039720E-018
 -2.600000000000000E-002   -6.299422772477629E-018
 -2.590000000000000E-002   -7.310404194874344E-018
 -2.580000000000000E-002   -7.902469394295398E-018
 -2.570000000000000E-002   -7.971716010966418E-018
 -2.560000000000000E-002   -7.450802127828957E-018
 -2.550000000000000E-002   -6.319079835040092E-018
 -2.540000000000000E-002   -4.608177430533260E-018
 -2.530000000000000E-002   -2.401775553010404E-018
 -2.520000000000000E-002    1.710304834897588E-019
 -2.510000000000000E-002    2.948535573551308E-018
 -2.500000000000000E-002    5.754215557361904E-018
 -2.490000000000000E-002    8.417384777162372E-018
 -2.480000000000000E-002    1.079386236866143E-017
 -2.470000000000000E-002    1.278334893776254E-017
 -2.460000000000000E-002    1.434023480406638E-017
 -2.450000000000000E-002    1.547510720101289E-017
 -2.440000000000000E-002    1.624531229621649E-017
 -2.430000000000000E-002    1.673448618276997E-017
 -2.420000000000000E-002    1.702286730169746E-017
 -2.410000000000000E-002    1.715214619909250E-017
 -2.400000000000000E-002    1.709035191050316E-017
 -2.390000000000000E-002    1.670347169128812E-017
 -2.380000000000000E-002    1.574081841325187E-017
 -2.370000000000000E-002    1.384042452599193E-017
 -2.360000000000000E-002    1.055879690887649E-017
 -2.350000000000000E-002    5.426288817914132E-018
 -2.340000000000000E-002   -1.974605778153703E-018
 -2.330000000000000E-002   -1.191511449098668E-017
 -2.320000000000000E-002   -2.442151683276873E-017
 -2.310000000000000E-002   -3.918658968903755E-017
 -2.300000000000000E-002   -5.550760751868400E-017
 -2.290000000000000E-002   -7.226688910591235E-017
 -2.280000000000000E-002   -8.796791222475373E-017
 -2.270000000000000E-002   -1.008343324772165E-016
 -2.260000000000000E-002   -1.089712762718689E-016
 -2.250000000000000E-002   -1.105786989286728E-016
 -2.240000000000000E-002   -1.041965998199064E-016
 -2.230000000000000E-002   -8.895292377393080E-017
 -2.220000000000000E-002   -6.477852650226001E-017
 -2.210000000000000E-002   -3.255142397595790E-017
 -2.200000000000000E-002    5.864545499796385E-018
 -2.190000000000000E-002    4.771271841206452E-017
 -2.180000000000000E-002    8.957943108961632E-017
 -2.170000000000000E-002    1.277649629050689E-016
 -2.160000000000000E-002    1.587595763134645E-016
 -2.150000000000000E-002    1.797729961833658E-016
 -2.140000000000000E-002    1.892469485824594E-016
 -2.130000000000000E-002    1.872690354679636E-016
 -2.120000000000000E-002    1.758041385157755E-016
 -2.110000000000000E-002    1.586703616459625E-016
 -2.100000000000000E-002    1.412095882697128E-016
 -2.090000000000000E-002    1.296386446516245E-016
 -2.080000000000000E-002    1.301120209906475E-016
 -2.070000000000000E-002    1.475764924501884E-016
 -2.060000000000000E-002    1.845458043528685E-016
 -2.050000000000000E-002    2.399627000897021E-016
 -2.040000000000000E-002    3.083380105291573E-016
 -2.030000000000000E-002    3.793564292093594E-016
 -2.020000000000000E-002    4.381122270645810E-016
 -2.010000000000000E-002    4.660823627579762E-016
 -2.000000000000000E-002    4.428636479254978E-016
 -1.990000000000000E-002    3.486007776736659E-016
 -1.980000000000000E-002    1.669217969800670E-016
 -1.970000000000000E-002   -1.119069278065299E-016
 -1.960000000000000E-002   -4.879800528235809E-016
 -1.950000000000000E-002   -9.493322600455236E-016
 -1.940000000000000E-002   -1.470526216074175E-015
 -1.930000000000000E-002   -2.012626099659410E-015
 -1.920000000000000E-002   -2.524824248847976E-015
 -1.910000000000000E-002   -2.947822693699903E-015
 -1.900000000000000E-002   -3.218866102223374E-015
 -1.890000000000000E-002   -3.278099678956308E-015
 -1.880000000000000E-002   -3.075701267950942E-015
 -1.870000000000000E-002   -2.579055697130852E-015
 -1.860000000000000E-002   -1.779117768910331E-015
 -1.850000000000000E-002   -6.950793007146576E-016
 -1.840000000000000E-002    6.234658382864054E-016
 -1.830000000000000E-002    2.097474649561286E-015
 -1.820000000000000E-002    3.622847531565989E-015
 -1.810000000000000E-002    5.078201580665078E-015
 -1.800000000000000E-002    6.335544367189469E-015
 -1.790000000000000E-002    7.272944091929357E-015
 -1.780000000000000E-002    7.787931002905600E-015
 -1.770000000000000E-002    7.810105587483076E-015
 -1.760000000000000E-002    7.311342335023199E-015
 -1.750000000000000E-002    6.312067987903066E-015
 -1.740000000000000E-002    4.882400600923268E-015
 -1.730000000000000E-002    3.137435897565133E-015
 -1.720000000000000E-002    1.226617960516223E-015
 -1.710000000000000E-002   -6.821198187509616E-016
 -1.700000000000000E-002   -2.422001543244776E-015
 -1.690000000000000E-002   -3.848733066171154E-015
 -1.680000000000000E-002   -4.860910992171699E-015
 -1.670000000000000E-002   -5.416708529040418E-015
 -1.660000000000000E-002   -5.544167133980241E-015
 -1.650000000000000E-002   -5.342897808564995E-015
 -1.640000000000000E-002   -4.975852550290011E-015
 -1.630000000000000E-002   -4.650947778611625E-015
 -1.620000000000000E-002   -4.593639723241833E-015
 -1.610000000000000E-002   -5.012906003330614E-015
 -1.600000000000000E-002   -6.064307266898025E-015
 -1.590000000000000E-002   -7.814719165282952E-015
 -1.580000000000000E-002   -1.021378089169222E-014
 -1.570000000000000E-002   -1.307695901365331E-014
 -1.560000000000000E-002   -1.608434777861458E-014
 -1.550000000000000E-002   -1.879787751351120E-014
 -1.540000000000000E-002   -2.069763136921621E-014
 -1.530000000000000E-002   -2.123560605015746E-014
 -1.520000000000000E-002   -1.990275315513454E-014
 -1.510000000000000E-002   -1.630282767106724E-014
 -1.500000000000000E-002   -1.022470812979699E-014
 -1.490000000000000E-002   -1.703815910797577E-015
 -1.480000000000000E-002    8.936800528963820E-015
 -1.470000000000000E-002    2.107399047738446E-014
 -1.460000000000000E-002    3.380659854613711E-014
 -1.450000000000000E-002    4.601467196642879E-014
 -1.440000000000000E-002    5.645412190093081E-014
 -1.430000000000000E-002    6.388055769346891E-014
 -1.420000000000000E-002    6.719156756008624E-014
 -1.410000000000000E-002    6.557289179113418E-014
 -1.400000000000000E-002    5.863137485278189E-014
 -1.390000000000000E-002    4.649680216155765E-014
 -1.380000000000000E-002    2.987597613504582E-014
 -1.370000000000000E-002    1.004578632583223E-014
 -1.360000000000000E-002   -1.122236501518884E-014
 -1.350000000000000E-002   -3.180721715172471E-014
 -1.340000000000000E-002   -4.944360765222081E-014
 -1.330000000000000E-002   -6.197338716107927E-014
 -1.320000000000000E-002   -6.761744668219068E-014
 -1.310000000000000E-002   -6.523911549099763E-014
 -1.300000000000000E-002   -5.456620874392791E-014
 -1.290000000000000E-002   -3.633955036041494E-014
 -1.280000000000000E-002   -1.236024202604237E-014
 -1.270000000000000E-002    1.458380264548310E-014
 -1.260000000000000E-002    4.091967995785981E-014
 -1.250000000000000E-002    6.261318072024522E-014
 -1.240000000000000E-002    7.559251172696834E-014
 -1.230000000000000E-002    7.623568857671912E-014
 -1.220000000000000E-002    6.187288635103835E-014
 -1.210000000000000E-002    3.124712867735905E-014
 -1.200000000000000E-002   -1.512572089713284E-014
 -1.190000000000000E-002   -7.475238596711837E-014
 -1.180000000000000E-002   -1.431565656444373E-013
 -1.170000000000000E-002   -2.140980893683793E-013
 -1.160000000000000E-002   -2.800198449036968E-013
 -1.150000000000000E-002   -3.326996740352103E-013
 -1.140000000000000E-002   -3.640581431838868E-013
 -1.130000000000000E-002   -3.670495601114587E-013
 -1.120000000000000E-002   -3.365458682627898E-013
 -1.110000000000000E-002   -2.701137249802447E-013
 -1.100000000000000E-002   -1.685864272843551E-013
 -1.090000000000000E-002   -3.634504363051045E-014
 -1.080000000000000E-002    1.187525747805145E-013
 -1.070000000000000E-002    2.858226669659088E-013
 -1.060000000000000E-002    4.517733787381228E-013
 -1.050000000000000E-002    6.024335661096513E-013
 -1.040000000000000E-002    7.238955012529047E-013
 -1.030000000000000E-002    8.039409468855702E-013
 -1.020000000000000E-002    8.333981337883552E-013
 -1.010000000000000E-002    8.072712272928594E-013
 -1.000000000000000E-002    7.254960982247797E-013
 -9.899999999999999E-003    5.932066453994201E-013
 -9.800000000000000E-003    4.204428044777134E-013
 -9.699999999999999E-003    2.212912503610937E-013
 -9.599999999999999E-003    1.251561543358325E-014
 -9.500000000000000E-003   -1.882011840236806E-013
 -9.399999999999999E-003   -3.642226238588702E-013
 -9.299999999999999E-003   -5.019133302061051E-013
 -9.200000000000000E-003   -5.923447023306632E-013
 -9.099999999999999E-003   -6.325236235612556E-013
 -8.999999999999999E-003   -6.259550444279562E-013
 -8.900000000000000E-003   -5.824134974215205E-013
 -8.799999999999999E-003   -5.168854617251548E-013
 -8.699999999999999E-003   -4.477443027123650E-013
 -8.600000000000000E-003   -3.943206827727563E-013
 -8.499999999999999E-003   -3.741230840715891E-013
 -8.399999999999999E-003   -4.000320767607712E-013
 -8.300000000000000E-003   -4.778284383837173E-013
 -8.199999999999999E-003   -6.044100265656599E-013
 -8.100000000000000E-003   -7.670035737286842E-013
 -8.000000000000000E-003   -9.435856462381378E-013
 -7.899999999999999E-003   -1.104598946917511E-012
 -7.800000000000000E-003   -1.215897561547734E-012
 -7.699999999999999E-003   -1.242695608832681E-012
 -7.599999999999999E-003   -1.154142949556372E-012
 -7.499999999999999E-003   -9.280318495421982E-013
 -7.399999999999999E-003   -5.550656149933602E-013
 -7.299999999999999E-003   -4.210926631527717E-014
 -7.199999999999999E-003    5.861023893416319E-013
 -7.100000000000000E-003    1.287196489482550E-012
 -6.999999999999999E-003    2.003544580818136E-012
 -6.899999999999999E-003    2.666774659845362E-012
 -6.800000000000000E-003    3.204135171859840E-012
 -6.699999999999999E-003    3.546186226055480E-012
 -6.599999999999999E-003    3.635076799563217E-012
 -6.499999999999999E-003    3.432517776026180E-012
 -6.399999999999999E-003    2.926495651569640E-012
 -6.299999999999999E-003    2.135813457406708E-012
 -6.199999999999999E-003    1.111696925655996E-012
 -6.100000000000000E-003   -6.404570576245937E-014
 -5.999999999999999E-003   -1.284482859844869E-012
 -5.899999999999999E-003   -2.426421540125339E-012
 -5.800000000000000E-003   -3.362049796047842E-012
 -5.699999999999999E-003   -3.972364047773655E-012
 -5.599999999999999E-003   -4.161085180977300E-012
 -5.499999999999999E-003   -3.867587621916495E-012
 -5.399999999999999E-003   -3.077323657709019E-012
 -5.299999999999999E-003   -1.828359087412966E-012
 -5.199999999999999E-003   -2.129289684212824E-013
 -5.099999999999999E-003    1.626642053872270E-012
 -4.999999999999999E-003    3.507754872431043E-012
 -4.899999999999999E-003    5.222576783775509E-012
 -4.799999999999999E-003    6.557193440158380E-012
 -4.699999999999999E-003    7.313218521830862E-012
 -4.599999999999999E-003    7.329796786736570E-012
 -4.499999999999999E-003    6.503736143525590E-012
 -4.399999999999999E-003    4.805502491960724E-012
 -4.299999999999999E-003    2.289077021850531E-012
 -4.199999999999999E-003   -9.058327937648278E-013
 -4.099999999999999E-003   -4.560051097568509E-012
 -3.999999999999999E-003   -8.389644743380624E-012
 -3.899999999999999E-003   -1.206819090252843E-011
 -3.799999999999999E-003   -1.525484260060773E-011
 -3.699999999999999E-003   -1.762570881179442E-011
 -3.599999999999999E-003   -1.890555044815233E-011
 -3.499999999999999E-003   -1.889657201297393E-011
 -3.399999999999999E-003   -1.750119790263841E-011
 -3.299999999999999E-003   -1.473615640501375E-011
 -3.199999999999999E-003   -1.073597301454235E-011
 -3.099999999999999E-003   -5.744977443451120E-012
 -2.999999999999999E-003   -9.810413067656851E-014
 -2.899999999999999E-003    5.808008123124480E-012
 -2.799999999999999E-003    1.155101389787539E-011
 -2.699999999999999E-003    1.672242252435129E-011
 -2.599999999999999E-003    2.096664485970363E-011
 -2.499999999999999E-003    2.401527812786643E-011
 -2.399999999999999E-003    2.571270538525789E-011
 -2.299999999999999E-003    2.602985288237299E-011
 -2.199999999999999E-003    2.506411760782452E-011
 -2.099999999999999E-003    2.302493765823456E-011
 -1.999999999999999E-003    2.020610645008246E-011
 -1.899999999999999E-003    1.694753378183428E-011
 -1.799999999999999E-003    1.359051534354244E-011
 -1.699999999999999E-003    1.043164749681827E-011
 -1.599999999999999E-003    7.680968500951498E-012
 -1.499999999999999E-003    5.429834581809709E-012
 -1.399999999999999E-003    3.633253135866384E-012
 -1.299999999999999E-003    2.110053461400694E-012
 -1.199999999999999E-003    5.623774683664423E-013
 -1.099999999999999E-003   -1.386200386895234E-012
 -9.999999999999989E-004   -4.136938374540798E-012
 -8.999999999999990E-004   -8.051725658970043E-012
 -7.999999999999990E-004   -1.338533667835908E-011
 -6.999999999999989E-004   -2.022217821893894E-011
 -5.999999999999990E-004   -2.842586242322333E-011
 -4.999999999999989E-004   -3.760933275825085E-011
 -3.999999999999989E-004   -4.713172956485617E-011
 -2.999999999999989E-004   -5.612576766890352E-011
 -1.999999999999989E-004   -6.355640699409446E-011
 -9.999999999999892E-005   -6.830813420315208E-011
  1.084202172485504E-018   -6.929471613454352E-011
  1.000000000000011E-004   -6.558222446172376E-011
  2.000000000000011E-004   -5.651361364816454E-011
  3.000000000000011E-004   -4.182177712998707E-011
  4.000000000000011E-004   -2.171785134122379E-011
  5.000000000000011E-004    3.057281436135348E-012
  6.000000000000011E-004    3.122768381756979E-011
  7.000000000000011E-004    6.102896400010435E-011
  8.000000000000011E-004    9.030766253237982E-011
  9.000000000000012E-004    1.166692059536515E-010
  1.000000000000001E-003    1.376649205259818E-010
  1.100000000000001E-003    1.510039554716148E-010
  1.200000000000001E-003    1.547723215304435E-010
  1.300000000000001E-003    1.476390218239020E-010
  1.400000000000001E-003    1.290289910482148E-010
  1.500000000000001E-003    9.924404996174310E-011
  1.600000000000001E-003    5.951673958484119E-011
  1.700000000000001E-003    1.198702271490542E-011
  1.800000000000001E-003   -4.040150872542292E-011
  1.900000000000001E-003   -9.408205115688120E-011
  2.000000000000001E-003   -1.451104820811891E-010
  2.100000000000001E-003   -1.894588039159358E-010
  2.200000000000001E-003   -2.233330372896186E-010
  2.300000000000001E-003   -2.434890443055508E-010
  2.400000000000001E-003   -2.475185060411084E-010
  2.500000000000001E-003   -2.340793656665297E-010
  2.600000000000001E-003   -2.030485240868648E-010
  2.700000000000001E-003   -1.555813099539293E-010
  2.800000000000001E-003   -9.406995359343233E-011
  2.900000000000001E-003   -2.200250798578675E-011
  3.000000000000001E-003    5.626754749494796E-011
  3.100000000000001E-003    1.358221982029958E-010
  3.200000000000001E-003    2.115250967952181E-010
  3.300000000000001E-003    2.783832693862942E-010
  3.400000000000001E-003    3.318932186525292E-010
  3.500000000000001E-003    3.683418218759575E-010
  3.600000000000001E-003    3.850368562721422E-010
  3.700000000000001E-003    3.804491405083386E-010
  3.800000000000001E-003    3.542570693604076E-010
  3.900000000000001E-003    3.072943359735147E-010
  4.000000000000001E-003    2.414113201201260E-010
  4.100000000000001E-003    1.592693707358808E-010
  4.200000000000001E-003    6.409407773675237E-011
  4.300000000000001E-003   -4.058333238486364E-011
  4.400000000000001E-003   -1.511656837192119E-010
  4.500000000000001E-003   -2.641843980571786E-010
  4.600000000000002E-003   -3.764273662055954E-010
  4.700000000000001E-003   -4.849885088197016E-010
  4.800000000000001E-003   -5.872374464508889E-010
  4.900000000000002E-003   -6.807184147207879E-010
  5.000000000000001E-003   -7.629986212301542E-010
  5.100000000000001E-003   -8.314934662623079E-010
  5.200000000000001E-003   -8.833016506795053E-010
  5.300000000000002E-003   -9.150854160681646E-010
  5.400000000000001E-003   -9.230264550198711E-010
  5.500000000000001E-003   -9.028824804694198E-010
  5.600000000000002E-003   -8.501599243680946E-010
  5.700000000000001E-003   -7.604014253680836E-010
  5.800000000000001E-003   -6.295781489146533E-010
  5.900000000000002E-003   -4.545566292841775E-010
  6.000000000000001E-003   -2.336037163854827E-010
  6.100000000000001E-003    3.311927706526029E-011
  6.200000000000002E-003    3.431256123225464E-010
  6.300000000000002E-003    6.912833956534915E-010
  6.400000000000001E-003    1.069653693836401E-009
  6.500000000000001E-003    1.467513150446615E-009
  6.600000000000002E-003    1.871581243923019E-009
  6.700000000000001E-003    2.266443475408177E-009
  6.800000000000001E-003    2.635149469683158E-009
  6.900000000000002E-003    2.959943328131515E-009
  7.000000000000001E-003    3.223068258977358E-009
  7.100000000000001E-003    3.407579817868674E-009
  7.200000000000002E-003    3.498099567447706E-009
  7.300000000000002E-003    3.481445270746693E-009
  7.400000000000001E-003    3.347084872498954E-009
  7.500000000000001E-003    3.087384221073962E-009
  7.600000000000002E-003    2.697638750218147E-009
  7.700000000000001E-003    2.175915718431723E-009
  7.800000000000001E-003    1.522746065299762E-009
  7.900000000000001E-003    7.407443217457266E-010
  8.000000000000002E-003   -1.657458073048914E-010
  8.100000000000001E-003   -1.190894590085658E-009
  8.200000000000001E-003   -2.327384503320697E-009
  8.300000000000002E-003   -3.566095850064056E-009
  8.400000000000001E-003   -4.895386134787595E-009
  8.500000000000002E-003   -6.299927138834288E-009
  8.600000000000002E-003   -7.759085910209436E-009
  8.700000000000001E-003   -9.244874403904960E-009
  8.800000000000002E-003   -1.071958280635914E-008
  8.900000000000002E-003   -1.213313949811924E-008
  9.000000000000001E-003   -1.342041984639223E-008
  9.100000000000002E-003   -1.449861521329145E-008
  9.200000000000002E-003   -1.526487096175726E-008
  9.300000000000001E-003   -1.559434546303887E-008
  9.400000000000002E-003   -1.533883412032552E-008
  9.500000000000001E-003   -1.432608930196573E-008
  9.600000000000001E-003   -1.235987656538679E-008
  9.700000000000002E-003   -9.220786296895413E-009
  9.800000000000001E-003   -4.667777802044527E-009
  9.900000000000001E-003    1.559654944522582E-009
  1.000000000000000E-002    9.738857585298800E-009
  1.010000000000000E-002    2.016107464655930E-008
  1.020000000000000E-002    3.312845483346442E-008
  1.030000000000000E-002    4.895118527807400E-008
  1.040000000000000E-002    6.794480700813101E-008
  1.050000000000000E-002    9.042826701167666E-008
  1.060000000000000E-002    1.167223104255625E-007
  1.070000000000000E-002    1.471488168046439E-007
  1.080000000000000E-002    1.820307083096290E-007
  1.090000000000000E-002    2.216924689501236E-007
  1.100000000000000E-002    2.664615568154428E-007
  1.110000000000000E-002    3.166700633040063E-007
  1.120000000000000E-002    3.726567188395406E-007
  1.130000000000000E-002    4.347691640318702E-007
  1.140000000000000E-002    5.033663591435953E-007
  1.150000000000000E-002    5.788205636025404E-007
  1.160000000000000E-002    6.615194207934817E-007
  1.170000000000000E-002    7.518676567078908E-007
  1.180000000000000E-002    8.502884903001219E-007
  1.190000000000000E-002    9.572249056162022E-007
  1.200000000000000E-002    1.073140912209137E-006
  1.210000000000000E-002    1.198522158925553E-006
  1.220000000000000E-002    1.333877944823258E-006
  1.230000000000000E-002    1.479741138360907E-006
  1.240000000000000E-002    1.636670829844399E-006
  1.250000000000000E-002    1.805253835885403E-006
  1.260000000000000E-002    1.986106700174383E-006
  1.270000000000000E-002    2.179878631030743E-006
  1.280000000000000E-002    2.387254180752357E-006
  1.290000000000000E-002    2.608956129842778E-006
  1.300000000000000E-002    2.845748356357160E-006
  1.310000000000000E-002    3.098438856587394E-006
  1.320000000000000E-002    3.367882608810372E-006
  1.330000000000000E-002    3.654983590572742E-006
  1.340000000000000E-002    3.960696651276909E-006
  1.350000000000000E-002    4.286028893197339E-006
  1.360000000000000E-002    4.632041082351134E-006
  1.370000000000000E-002    4.999848853221962E-006
  1.380000000000000E-002    5.390623047329352E-006
  1.390000000000000E-002    5.805591297667982E-006
  1.400000000000000E-002    6.246040687436862E-006
  1.410000000000000E-002    6.713317321732558E-006
  1.420000000000000E-002    7.208833293317438E-006
  1.430000000000000E-002    7.734068860702804E-006
  1.440000000000000E-002    8.290579207501367E-006
  1.450000000000000E-002    8.880002274742577E-006
  1.460000000000000E-002    9.504066176110503E-006
  1.470000000000000E-002    1.016459915012376E-005
  1.480000000000000E-002    1.086353933012734E-005
  1.490000000000000E-002    1.160294513168761E-005
  1.500000000000000E-002    1.238500634083107E-005
  1.510000000000000E-002    1.321205487290715E-005
  1.520000000000000E-002    1.408657220159890E-005
  1.530000000000000E-002    1.501119783875797E-005
  1.540000000000000E-002    1.598873631280357E-005
  1.550000000000000E-002    1.702216180408943E-005
  1.560000000000000E-002    1.811462067290780E-005
  1.570000000000000E-002    1.926943553875775E-005
  1.580000000000000E-002    2.049010407520889E-005
  1.590000000000000E-002    2.178030004754881E-005
  1.600000000000000E-002    2.314387467744084E-005
  1.610000000000000E-002    2.458485603090071E-005
  1.620000000000000E-002    2.610744707846932E-005
  1.630000000000000E-002    2.771603742234581E-005
  1.640000000000000E-002    2.941519647619164E-005
  1.650000000000000E-002    3.120968758509261E-005
  1.660000000000000E-002    3.310447852850303E-005
  1.670000000000000E-002    3.510474679145992E-005
  1.680000000000000E-002    3.721589708903736E-005
  1.690000000000000E-002    3.944357497428087E-005
  1.700000000000000E-002    4.179368643202278E-005
  1.710000000000000E-002    4.427241564958122E-005
  1.720000000000000E-002    4.688623685942384E-005
  1.730000000000000E-002    4.964193524501069E-005
  1.740000000000000E-002    5.254662729171705E-005
  1.750000000000000E-002    5.560777246650188E-005
  1.760000000000000E-002    5.883318912230179E-005
  1.770000000000000E-002    6.223106346978650E-005
  1.780000000000000E-002    6.580997614084023E-005
  1.790000000000000E-002    6.957889016450220E-005
  1.800000000000000E-002    7.354717140329208E-005
  1.810000000000000E-002    7.772460895629530E-005
  1.820000000000000E-002    8.212141500793775E-005
  1.830000000000000E-002    8.674824248752323E-005
  1.840000000000000E-002    9.161618198642861E-005
  1.850000000000000E-002    9.673680921394312E-005
  1.860000000000000E-002    1.021221632960127E-004
  1.870000000000000E-002    1.077847819742847E-004