 -4.000000000000000E-002    0.000000000000000E+000
 -3.990000000000000E-002    0.000000000000000E+000
 -3.980000000000000E-002   -4.632023181386534E-012
 -3.970000000000000E-002   -2.246029581599651E-011
 -3.960000000000000E-002   -6.475059837649370E-011
 -3.950000000000000E-002   -1.445746886781219E-010
 -3.940000000000000E-002   -2.772560935848384E-010
 -3.930000000000000E-002   -4.829715517803472E-010
 -3.920000000000000E-002   -7.918029665023391E-010
 -3.910000000000000E-002   -1.250782620096079E-009
 -3.900000000000000E-002   -1.931646719324331E-009
 -3.890000000000000E-002   -2.937312218109438E-009
 -3.880000000000000E-002   -4.404707163414600E-009
 -3.870000000000000E-002   -6.501679113496177E-009
 -3.860000000000000E-002   -9.416329816861672E-009
 -3.850000000000000E-002   -1.333825363850923E-008
 -3.840000000000000E-002   -1.843262783655927E-008
 -3.830000000000000E-002   -2.480968474434862E-008
 -3.820000000000000E-002   -3.249349318352951E-008
 -3.810000000000000E-002   -4.139487485792740E-008
 -3.800000000000000E-002   -5.129345607865846E-008
 -3.790000000000000E-002   -6.183318394327943E-008
 -3.780000000000000E-002   -7.253405970814495E-008
 -3.770000000000000E-002   -8.282065999301412E-008
 -3.760000000000000E-002   -9.206532889747622E-008
 -3.750000000000000E-002   -9.964142505230495E-008
 -3.740000000000000E-002   -1.049798127038610E-007
 -3.730000000000000E-002   -1.076206894973667E-007
 -3.720000000000000E-002   -1.072526862101913E-007
 -3.710000000000000E-002   -1.037326497658962E-007
 -3.700000000000000E-002   -9.708194116211788E-008
 -3.690000000000000E-002   -8.745856502732944E-008
 -3.680000000000000E-002   -7.510847178738053E-008
 -3.670000000000000E-002   -6.030294918420001E-008
 -3.660000000000000E-002   -4.327208139245562E-008
 -3.650000000000000E-002   -2.414581785719623E-008
 -3.640000000000000E-002   -2.913972025884609E-009
 -3.630000000000000E-002    2.058558407379841E-008
 -3.620000000000000E-002    4.664483784165475E-008
 -3.610000000000000E-002    7.562931875569852E-008
 -3.600000000000000E-002    1.078923981012788E-007
 -3.590000000000000E-002    1.436706291252545E-007
 -3.580000000000000E-002    1.829745708692769E-007
 -3.570000000000000E-002    2.254917481270634E-007
 -3.560000000000000E-002    2.705185251264618E-007
 -3.550000000000000E-002    3.169345372061299E-007
 -3.540000000000000E-002    3.632287565876229E-007
 -3.530000000000000E-002    4.075791211074508E-007
 -3.520000000000000E-002    4.479802175067027E-007
 -3.510000000000000E-002    4.824062791816626E-007
 -3.500000000000000E-002    5.089908553121426E-007
 -3.490000000000000E-002    5.262005656950079E-007
 -3.480000000000000E-002    5.329810484789626E-007
 -3.470000000000000E-002    5.288549431019171E-007
 -3.460000000000000E-002    5.139587751527277E-007
 -3.450000000000000E-002    4.890138828766759E-007
 -3.440000000000000E-002    4.552355955018077E-007
 -3.430000000000000E-002    4.141952855936192E-007
 -3.420000000000000E-002    3.676571865053065E-007
 -3.410000000000000E-002    3.174168674282524E-007
 -3.400000000000000E-002    2.651692246434327E-007
 -3.390000000000000E-002    2.124311066616172E-007
 -3.380000000000000E-002    1.605354495170413E-007
 -3.370000000000000E-002    1.107044705831548E-007
 -3.360000000000000E-002    6.419648353233362E-008
 -3.350000000000000E-002    2.250844613256746E-008
 -3.340000000000000E-002   -1.239311523627429E-008
 -3.330000000000000E-002   -3.784835615106784E-008
 -3.320000000000000E-002   -5.032428410631546E-008
 -3.310000000000000E-002   -4.531313692270478E-008
 -3.300000000000000E-002   -1.733405584914302E-008
 -3.290000000000000E-002    3.994932396220553E-008
 -3.280000000000000E-002    1.334983113270412E-007
 -3.270000000000000E-002    2.705754835045870E-007
 -3.260000000000000E-002    4.583615426506504E-007
 -3.250000000000000E-002    7.035570394010810E-007
 -3.240000000000000E-002    1.012019318985365E-006
 -3.230000000000000E-002    1.388481930446487E-006
 -3.220000000000000E-002    1.836395754198535E-006
 -3.210000000000000E-002    2.357916338868595E-006
 -3.200000000000000E-002    2.954043728422928E-006
 -3.190000000000000E-002    3.624898771722510E-006
 -3.180000000000000E-002    4.370102713199895E-006
 -3.170000000000000E-002    5.189208902282502E-006
 -3.160000000000000E-002    6.082128190227389E-006
 -3.150000000000000E-002    7.049486748480119E-006
 -3.140000000000000E-002    8.092860639211124E-006
 -3.130000000000000E-002    9.214852569266918E-006
 -3.120000000000000E-002    1.041898983607557E-005
 -3.110000000000000E-002    1.170945108392103E-005
 -3.100000000000000E-002    1.309065595857927E-005
 -3.090000000000000E-002    1.456676483242373E-005
 -3.080000000000000E-002    1.614116732897438E-005
 -3.070000000000000E-002    1.781602105071022E-005
 -3.060000000000000E-002    1.959192259272767E-005
 -3.050000000000000E-002    2.146775980627647E-005
 -3.040000000000000E-002    2.344077850367698E-005
 -3.030000000000000E-002    2.550687969302496E-005
 -3.020000000000000E-002    2.766110508755069E-005
 -3.010000000000000E-002    2.989827838579477E-005
 -3.000000000000000E-002    3.221370597665156E-005
 -2.990000000000000E-002    3.460386755975903E-005
 -2.980000000000000E-002    3.706699451655742E-005
 -2.970000000000000E-002    3.960346584961268E-005
 -2.960000000000000E-002    4.221595844975670E-005
 -2.950000000000000E-002    4.490931943665411E-005
 -2.940000000000000E-002    4.769018496532989E-005
 -2.930000000000000E-002    5.056637992184448E-005
 -2.920000000000000E-002    5.354615460070882E-005
 -2.910000000000000E-002    5.663739400064586E-005
 -2.900000000000000E-002    5.984686027688964E-005
 -2.890000000000000E-002    6.317960503756557E-005
 -2.880000000000000E-002    6.663860963840632E-005
 -2.870000000000000E-002    7.022472792776178E-005
 -2.860000000000000E-002    7.393693816211888E-005
 -2.850000000000000E-002    7.777289173356038E-005
 -2.840000000000000E-002    8.172964603191766E-005
 -2.830000000000000E-002    8.580461513196287E-005
 -2.820000000000000E-002    8.999644367127590E-005
 -2.810000000000000E-002    9.430588646223981E-005
 -2.800000000000000E-002    9.873640015100349E-005
 -2.790000000000000E-002    1.032945182612154E-004
 -2.780000000000000E-002    1.079898703640972E-004
 -2.770000000000000E-002    1.128348775758943E-004
 -2.760000000000000E-002    1.178441721935907E-004
 -2.750000000000000E-002    1.230337884917246E-004
 -2.740000000000000E-002    1.284202926641668E-004
 -2.730000000000000E-002    1.340199030622189E-004
 -2.720000000000000E-002    1.398477755594466E-004
 -2.710000000000000E-002    1.459175403128037E-004
 -2.700000000000000E-002    1.522411558323545E-004
 -2.690000000000000E-002    1.588291474170869E-004
 -2.680000000000000E-002    1.656910895406840E-004
 -2.670000000000000E-002    1.728364728488772E-004
 -2.660000000000000E-002    1.802756078031832E-004
 -2.650000000000000E-002    1.880206754835188E-004
 -2.640000000000000E-002    1.960865639457714E-004
 -2.630000000000000E-002    2.044915618304423E-004
 -2.620000000000000E-002    2.132576914963184E-004
 -2.610000000000000E-002    2.224106521852063E-004
 -2.600000000000000E-002    2.319793879443077E-004
 -2.590000000000000E-002    2.419952828653782E-004
 -2.580000000000000E-002    2.524911144659397E-004
 -2.570000000000000E-002    2.634998863584231E-004
 -2.560000000000000E-002    2.750536576856823E-004
 -2.550000000000000E-002    2.871825441540564E-004
 -2.540000000000000E-002    2.999139559993358E-004
 -2.530000000000000E-002    3.132723284659449E-004
 -2.520000000000000E-002    3.272791080946879E-004
 -2.510000000000000E-002    3.419532460847022E-004
 -2.500000000000000E-002    3.573120550636818E-004
 -2.490000000000000E-002    3.733721723238801E-004
 -2.480000000000000E-002    3.901507241093409E-004
 -2.470000000000000E-002    4.076663088746909E-004
 -2.460000000000000E-002    4.259398870205925E-004
 -2.450000000000000E-002    4.449951630514376E-004
 -2.440000000000000E-002    4.648587475878923E-004
 -2.430000000000000E-002    4.855597840596456E-004
 -2.420000000000000E-002    5.071291276741351E-004
 -2.410000000000000E-002    5.295983141795571E-004
 -2.400000000000000E-002    5.529984607984184E-004
 -2.390000000000000E-002    5.773588820801015E-004
 -2.380000000000000E-002    6.027061405978497E-004
 -2.370000000000000E-002    6.290631873574673E-004
 -2.360000000000000E-002    6.564491377833770E-004
 -2.350000000000000E-002    6.848792537455058E-004
 -2.340000000000000E-002    7.143655420778019E-004
 -2.330000000000000E-002    7.449176299144905E-004
 -2.320000000000000E-002    7.765439520614529E-004
 -2.310000000000000E-002    8.092531120727138E-004
 -2.300000000000000E-002    8.430549484515726E-004
 -2.290000000000000E-002    8.779616033905219E-004
 -2.280000000000000E-002    9.139879531051609E-004
 -2.270000000000000E-002    9.511517196390888E-004
 -2.260000000000000E-002    9.894731273338297E-004
 -2.250000000000000E-002    1.028973846212323E-003
 -2.240000000000000E-002    1.069675762233851E-003
 -2.230000000000000E-002    1.111599462937200E-003
 -2.220000000000000E-002    1.154762611765309E-003
 -2.210000000000000E-002    1.199178454265572E-003
 -2.200000000000000E-002    1.244854714596859E-003
 -2.190000000000000E-002    1.291792773914096E-003
 -2.180000000000000E-002    1.339987590340108E-003
 -2.170000000000000E-002    1.389427849568866E-003
 -2.160000000000000E-002    1.440096837166867E-003
 -2.150000000000000E-002    1.491973386184294E-003
 -2.140000000000000E-002    1.545033396796703E-003
 -2.130000000000000E-002    1.599250824662825E-003
 -2.120000000000000E-002    1.654598953980740E-003
 -2.110000000000000E-002    1.711050829445905E-003
 -2.100000000000000E-002    1.768579316305929E-003
 -2.090000000000000E-002    1.827156854053486E-003
 -2.080000000000000E-002    1.886754396884816E-003
 -2.070000000000000E-002    1.947339743232882E-003
 -2.060000000000000E-002    2.008875874701263E-003
 -2.050000000000000E-002    2.071318755808226E-003
 -2.040000000000000E-002    2.134615837552302E-003
 -2.030000000000000E-002    2.198703812087263E-003
 -2.020000000000000E-002    2.263507532681893E-003
 -2.010000000000000E-002    2.328939774410967E-003
 -2.000000000000000E-002    2.394900233130536E-003
 -1.990000000000000E-002    2.461276736319322E-003
 -1.980000000000000E-002    2.527945723858504E-003
 -1.970000000000000E-002    2.594773399479581E-003
 -1.960000000000000E-002    2.661616807589859E-003
 -1.950000000000000E-002    2.728324975226762E-003
 -1.940000000000000E-002    2.794740148204851E-003
 -1.930000000000000E-002    2.860697111319969E-003
 -1.920000000000000E-002    2.926023307110684E-003
 -1.910000000000000E-002    2.990537797948302E-003
 -1.900000000000000E-002    3.054049217080686E-003
 -1.890000000000000E-002    3.116354237548735E-003
 -1.880000000000000E-002    3.177234437322861E-003
 -1.870000000000000E-002    3.236453979455207E-003
 -1.860000000000000E-002    3.293757164089448E-003
 -1.850000000000000E-002    3.348866362754352E-003
 -1.840000000000000E-002    3.401479847205573E-003
 -1.830000000000000E-002    3.451271705307342E-003
 -1.820000000000000E-002    3.497890526343084E-003
 -1.810000000000000E-002    3.540959439776925E-003
 -1.800000000000000E-002    3.580077397585475E-003
 -1.790000000000000E-002    3.614819212604707E-003
 -1.780000000000000E-002    3.644737393859209E-003
 -1.770000000000000E-002    3.669361827070046E-003
 -1.760000000000000E-002    3.688200957798194E-003
 -1.750000000000000E-002    3.700741336227483E-003
 -1.740000000000000E-002    3.706446744911348E-003
 -1.730000000000000E-002    3.704757455297720E-003
 -1.720000000000000E-002    3.695087569208817E-003
 -1.710000000000000E-002    3.676823138915634E-003
 -1.700000000000000E-002    3.649319268370699E-003
 -1.690000000000000E-002    3.611897523868134E-003
 -1.680000000000000E-002    3.563842902226748E-003
 -1.670000000000000E-002    3.504401821694613E-003
 -1.660000000000000E-002    3.432779966214261E-003
 -1.650000000000000E-002    3.348141138743025E-003
 -1.640000000000000E-002    3.249606137103819E-003
 -1.630000000000000E-002    3.136252602354536E-003
 -1.620000000000000E-002    3.007115513056155E-003
 -1.610000000000000E-002    2.861186730901131E-003
 -1.600000000000000E-002    2.697416428752805E-003
 -1.590000000000000E-002    2.514712816081290E-003
 -1.580000000000000E-002    2.311942790273748E-003
 -1.570000000000000E-002    2.087930773517453E-003
 -1.560000000000000E-002    1.841459228174914E-003
 -1.550000000000000E-002    1.571266030839642E-003
 -1.540000000000000E-002    1.276043309364812E-003
 -1.530000000000000E-002    9.544349253924362E-004
 -1.520000000000000E-002    6.050340583556227E-004
 -1.510000000000000E-002    2.263804901820013E-004
 -1.500000000000000E-002   -1.830426244097160E-004
 -1.490000000000000E-002   -6.248101178508707E-004
 -1.480000000000000E-002   -1.100558522649998E-003
 -1.470000000000000E-002   -1.611986268589329E-003
 -1.460000000000000E-002   -2.160855577009863E-003
 -1.450000000000000E-002   -2.748993340465367E-003
 -1.440000000000000E-002   -3.378291194279703E-003
 -1.430000000000000E-002   -4.050705240300288E-003
 -1.420000000000000E-002   -4.768256173075763E-003
 -1.410000000000000E-002   -5.533028438923504E-003
 -1.400000000000000E-002   -6.347170622841215E-003
 -1.390000000000000E-002   -7.212894395190960E-003
 -1.380000000000000E-002   -8.132475538054688E-003
 -1.370000000000000E-002   -9.108254159218308E-003
 -1.360000000000000E-002   -1.014263501185522E-002
 -1.350000000000000E-002   -1.123808902012511E-002
 -1.340000000000000E-002   -1.239715523561080E-002
 -1.330000000000000E-002   -1.362244357880954E-002
 -1.320000000000000E-002   -1.491663249773260E-002
 -1.310000000000000E-002   -1.628247450294273E-002
 -1.300000000000000E-002   -1.772279609350977E-002
 -1.290000000000000E-002   -1.924049935262520E-002
 -1.280000000000000E-002   -2.083855827242528E-002
 -1.270000000000000E-002   -2.252002829656527E-002
 -1.260000000000000E-002   -2.428803436733120E-002
 -1.250000000000000E-002   -2.614578288154346E-002
 -1.240000000000000E-002   -2.809654837526543E-002
 -1.230000000000000E-002   -3.014368064047422E-002
 -1.220000000000000E-002   -3.229059753927765E-002
 -1.210000000000000E-002   -3.454078697797437E-002
 -1.200000000000000E-002   -3.689780282661482E-002
 -1.190000000000000E-002   -3.936526283320098E-002
 -1.180000000000000E-002   -4.194685404472246E-002
 -1.170000000000000E-002   -4.464632008178789E-002
 -1.160000000000000E-002   -4.746746697556481E-002
 -1.150000000000000E-002   -5.041416147535241E-002
 -1.140000000000000E-002   -5.349033296296488E-002
 -1.130000000000000E-002   -5.669997113948667E-002
 -1.120000000000000E-002   -6.004712164754179E-002
 -1.110000000000000E-002   -6.353588716498294E-002
 -1.100000000000000E-002   -6.717043261445511E-002
 -1.090000000000000E-002   -7.095497377552823E-002
 -1.080000000000000E-002   -7.489377672861230E-002
 -1.070000000000000E-002   -7.899116329713633E-002
 -1.060000000000000E-002   -8.325150337007674E-002
 -1.050000000000000E-002   -8.767919972560671E-002
 -1.040000000000000E-002   -9.227870369499162E-002
 -1.030000000000000E-002   -9.705449196612193E-002
 -1.020000000000000E-002   -0.102011074404741     
 -1.010000000000000E-002   -0.107152976671700     
 -1.000000000000000E-002   -0.112484754148694     
 -9.899999999999999E-003   -0.118010958861489     
 -9.800000000000000E-003   -0.123736158818173     
 -9.699999999999999E-003   -0.129664937060006     
 -9.599999999999999E-003   -0.135801859817060     
 -9.500000000000000E-003   -0.142151496833434     
 -9.399999999999999E-003   -0.148718405383881     
 -9.299999999999999E-003   -0.155507137247200     
 -9.200000000000000E-003   -0.162522211360855     
 -9.099999999999999E-003   -0.169768150794649     
 -8.999999999999999E-003   -0.177249408706536     
 -8.900000000000000E-003   -0.184970450340973     
 -8.799999999999999E-003   -0.192935679981549     
 -8.699999999999999E-003   -0.201149435496107     
 -8.600000000000000E-003   -0.209616024147811     
 -8.499999999999999E-003   -0.218339683006539     
 -8.399999999999999E-003   -0.227324559395760     
 -8.300000000000000E-003   -0.236574733381984     
 -8.199999999999999E-003   -0.246094184191380     
 -8.100000000000000E-003   -0.255886794734953     
 -8.000000000000000E-003   -0.265956327773820     
 -7.899999999999999E-003   -0.276306431426914     
 -7.800000000000000E-003   -0.286940630223082     
 -7.699999999999999E-003   -0.297862303040648     
 -7.599999999999999E-003   -0.309074674806555     
 -7.499999999999999E-003   -0.320580863661231     
 -7.399999999999999E-003   -0.332383786254616     
 -7.299999999999999E-003   -0.344486225388847     
 -7.199999999999999E-003   -0.356890778652712     
 -7.100000000000000E-003   -0.369599856386892     
 -6.999999999999999E-003   -0.382615660271109     
 -6.899999999999999E-003   -0.395940216560655     
 -6.800000000000000E-003   -0.409575310112385     
 -6.699999999999999E-003   -0.423522515208267     
 -6.599999999999999E-003   -0.437783177099542     
 -6.499999999999999E-003   -0.452358380308422     
 -6.399999999999999E-003   -0.467248918894876     
 -6.299999999999999E-003   -0.482455381641431     
 -6.199999999999999E-003   -0.497978009518346     
 -6.100000000000000E-003   -0.513816783976733     
 -5.999999999999999E-003   -0.529971348931937     
 -5.899999999999999E-003   -0.546441072395512     
 -5.800000000000000E-003   -0.563224981382363     
 -5.699999999999999E-003   -0.580321760134502     
 -5.599999999999999E-003   -0.597729756606337     
 -5.499999999999999E-003   -0.615447026581069     
 -5.399999999999999E-003   -0.633471148317982     
 -5.299999999999999E-003   -0.651799464839704     
 -5.199999999999999E-003   -0.670428871603876     
 -5.099999999999999E-003   -0.689355931534667     
 -4.999999999999999E-003   -0.708576681322409     
 -4.899999999999999E-003   -0.728086892237831     
 -4.799999999999999E-003   -0.747881881567738     
 -4.699999999999999E-003   -0.767956483512198     
 -4.599999999999999E-003   -0.788305146598429     
 -4.499999999999999E-003   -0.808921907613536     
 -4.399999999999999E-003   -0.829800293479307     
 -4.299999999999999E-003   -0.850933397769577     
 -4.199999999999999E-003   -0.872313821751613     
 -4.099999999999999E-003   -0.893933706691643     
 -3.999999999999999E-003   -0.915784737646908     
 -3.899999999999999E-003   -0.937858077767063     
 -3.799999999999999E-003   -0.960144409964581     
 -3.699999999999999E-003   -0.982633964550504     
 -3.599999999999999E-003    -1.00531645042304     
 -3.499999999999999E-003    -1.02818107006623     
 -3.399999999999999E-003    -1.05121660152644     
 -3.299999999999999E-003    -1.07441119605869     
 -3.199999999999999E-003    -1.09775258171153     
 -3.099999999999999E-003    -1.12122801281542     
 -2.999999999999999E-003    -1.14482423027939     
 -2.899999999999999E-003    -1.16852734856809     
 -2.799999999999999E-003    -1.19232310091867     
 -2.699999999999999E-003    -1.21619663385800     
 -2.599999999999999E-003    -1.24013256138416     
 -2.499999999999999E-003    -1.26411503773734     
 -2.399999999999999E-003    -1.28812777567957     
 -2.299999999999999E-003    -1.31215395412837     
 -2.199999999999999E-003    -1.33617622037129     
 -2.099999999999999E-003    -1.36017661916093     
 -1.999999999999999E-003    -1.38413695933040     
 -1.899999999999999E-003    -1.40803845487785     
 -1.799999999999999E-003    -1.43186180323567     
 -1.699999999999999E-003    -1.45558727564052     
 -1.599999999999999E-003    -1.47919486331312     
 -1.499999999999999E-003    -1.50266384614792     
 -1.399999999999999E-003    -1.52597328561504     
 -1.299999999999999E-003    -1.54910170635659     
 -1.199999999999999E-003    -1.57202734462655     
 -1.099999999999999E-003    -1.59472796273733     
 -9.999999999999989E-004    -1.61718097755424     
 -8.999999999999990E-004    -1.63936357998431     
 -7.999999999999990E-004    -1.66125236623176     
 -6.999999999999989E-004    -1.68282367724695     
 -5.999999999999990E-004    -1.70405372284610     
 -4.999999999999989E-004    -1.72491820633457     
 -3.999999999999989E-004    -1.74539257987541     
 -2.999999999999989E-004    -1.76545225406939     
 -1.999999999999989E-004    -1.78507210017436     
 -9.999999999999892E-005    -1.80422701813258     
  1.084202172485504E-018    -1.82289159870225     
  1.000000000000011E-004    -1.84104039949688     
  2.000000000000011E-004    -1.85864773416634     
  3.000000000000011E-004    -1.87568778422686     
  4.000000000000011E-004    -1.89213482671232     
  5.000000000000011E-004    -1.90796277562973     
  6.000000000000011E-004    -1.92314586935040     
  7.000000000000011E-004    -1.93765807181182     
  8.000000000000011E-004    -1.95147347311914     
  9.000000000000012E-004    -1.96456632140836     
  1.000000000000001E-003    -1.97691073649870     
  1.100000000000001E-003    -1.98848108640503     
  1.200000000000001E-003    -1.99925184364952     
  1.300000000000001E-003    -2.00919761730722     
  1.400000000000001E-003    -2.01829322684732     
  1.500000000000001E-003    -2.02651383940941     
  1.600000000000001E-003    -2.03383466428231     
  1.700000000000001E-003    -2.04023139196805     
  1.800000000000001E-003    -2.04568016673918     
  1.900000000000001E-003    -2.05015709571437     
  2.000000000000001E-003    -2.05363887311752     
  2.100000000000001E-003    -2.05610270812756     
  2.200000000000001E-003    -2.05752631572157     
  2.300000000000001E-003    -2.05788767599346     
  2.400000000000001E-003    -2.05716561020270     
  2.500000000000001E-003    -2.05533915339103     
  2.600000000000001E-003    -2.05238826060432     
  2.700000000000001E-003    -2.04829329558160     
  2.800000000000001E-003    -2.04303560630137     
  2.900000000000001E-003    -2.03659684619127     
  3.000000000000001E-003    -2.02895954209263     
  3.100000000000001E-003    -2.02010691872382     
  3.200000000000001E-003    -2.01002327786394     
  3.300000000000001E-003    -1.99869345973872     
  3.400000000000001E-003    -1.98610329229277     
  3.500000000000001E-003    -1.97223945599299     
  3.600000000000001E-003    -1.95708938229588     
  3.700000000000001E-003    -1.94064162509082     
  3.800000000000001E-003    -1.92288559209234     
  3.900000000000001E-003    -1.90381181592688     
  4.000000000000001E-003    -1.88341176773640     
  4.100000000000001E-003    -1.86167789122183     
  4.200000000000001E-003    -1.83860395877472     
  4.300000000000001E-003    -1.81418461929080     
  4.400000000000001E-003    -1.78841577063711     
  4.500000000000001E-003    -1.76129439204157     
  4.600000000000002E-003    -1.73281853661353     
  4.700000000000001E-003    -1.70298777236091     
  4.800000000000001E-003    -1.67180253801122     
  4.900000000000002E-003    -1.63926462218762     
  5.000000000000001E-003    -1.60537695664564     
  5.100000000000001E-003    -1.57014388067376     
  5.200000000000001E-003    -1.53357085866431     
  5.300000000000002E-003    -1.49566475031936     
  5.400000000000001E-003    -1.45643356389158     
  5.500000000000001E-003    -1.41588657587537     
  5.600000000000002E-003    -1.37403448140459     
  5.700000000000001E-003    -1.33088908978663     
  5.800000000000001E-003    -1.28646380161170     
  5.900000000000002E-003    -1.24077306892955     
  6.000000000000001E-003    -1.19383287377994     
  6.100000000000001E-003    -1.14566033336911     
  6.200000000000002E-003    -1.09627397497437     
  6.300000000000002E-003    -1.04569354935169     
  6.400000000000001E-003   -0.993940264049558     
  6.500000000000001E-003   -0.941036586222127     
  6.600000000000002E-003   -0.887006076651244     
  6.700000000000001E-003   -0.831873744995854     
  6.800000000000001E-003   -0.775665883284709     
  6.900000000000002E-003   -0.718409914680732     
  7.000000000000001E-003   -0.660134545551572     
  7.100000000000001E-003   -0.600869706758216     
  7.200000000000002E-003   -0.540646414877253     
  7.300000000000002E-003   -0.479496948125454     
  7.400000000000001E-003   -0.417454669663924     
  7.500000000000001E-003   -0.354554107163676     
  7.600000000000002E-003   -0.290830869094933     
  7.700000000000001E-003   -0.226321615286377     
  7.800000000000001E-003   -0.161064107044147     
  7.900000000000001E-003   -9.509704732580269E-002
  8.000000000000002E-003   -2.846015419922684E-002
  8.100000000000001E-003    3.880587338606804E-002
  8.200000000000001E-003    0.106659463909399     
  8.300000000000002E-003    0.175058159905456     
  8.400000000000001E-003    0.243958659401128     
  8.500000000000002E-003    0.313316869704599     
  8.600000000000002E-003    0.383087965894768     
  8.700000000000001E-003    0.453226404457995     
  8.800000000000002E-003    0.523685958281796     
  8.900000000000002E-003    0.594419824402693     
  9.000000000000001E-003    0.665380563768183     
  9.100000000000002E-003    0.736520301493909     
  9.200000000000002E-003    0.807790634676571     
  9.300000000000001E-003    0.879142712788675     
  9.400000000000002E-003    0.950527298534590     
  9.500000000000001E-003     1.02189484858219     
  9.600000000000001E-003     1.09319550710221     
  9.700000000000002E-003     1.16437915918775     
  9.800000000000001E-003     1.23539553167149     
  9.900000000000001E-003     1.30619421681838     
  1.000000000000000E-002     1.37672473895026     
  1.010000000000000E-002     1.44693656554753     
  1.020000000000000E-002     1.51677919988862     
  1.030000000000000E-002     1.58620218081758     
  1.040000000000000E-002     1.65515525391283     
  1.050000000000000E-002     1.72358838563660     
  1.060000000000000E-002     1.79145182721635     
  1.070000000000000E-002     1.85869599347274     
  1.080000000000000E-002     1.92527163647556     
  1.090000000000000E-002     1.99113009247389     
  1.100000000000000E-002     2.05622296024062     
  1.110000000000000E-002     2.12050256974530     
  1.120000000000000E-002     2.18392177080510     
  1.130000000000000E-002     2.24643386419869     
  1.140000000000000E-002     2.30799283445077     
  1.150000000000000E-002     2.36855349828517     
  1.160000000000000E-002     2.42807124412349     
  1.170000000000000E-002     2.48650270154160     
  1.180000000000000E-002     2.54380486888223     
  1.190000000000000E-002     2.59993594115080     
  1.200000000000000E-002     2.65485510539595     
  1.210000000000000E-002     2.70852212498496     
  1.220000000000000E-002     2.76089838310917     
  1.230000000000000E-002     2.81194599086946     
  1.240000000000000E-002     2.86162824008529     
  1.250000000000000E-002     2.90990949388996     
  1.260000000000000E-002     2.95675560242333     
  1.270000000000000E-002     3.00213374430903     
  1.280000000000000E-002     3.04601182899771     
  1.290000000000000E-002     3.08835938728134     
  1.300000000000000E-002     3.12914753757988     
  1.310000000000000E-002     3.16834824412788     
  1.320000000000000E-002     3.20593525466172     
  1.330000000000000E-002     3.24188358084223     
  1.340000000000000E-002     3.27616982345179     
  1.350000000000000E-002     3.30877199075372     
  1.360000000000000E-002     3.33966946448680     
  1.370000000000000E-002     3.36884318556577     
  1.380000000000000E-002     3.39627568259676     
  1.390000000000000E-002     3.42195107160048     
  1.400000000000000E-002     3.44585492805561     
  1.410000000000000E-002     3.46797445652091     
  1.420000000000000E-002     3.48829835028764     
  1.430000000000000E-002     3.50681722799629     
  1.440000000000000E-002     3.52352276761271     
  1.450000000000000E-002     3.53840881034866     
  1.460000000000000E-002     3.55147046213236     
  1.470000000000000E-002     3.56270425727453     
  1.480000000000000E-002     3.57210880618421     
  1.490000000000000E-002     3.57968400102406     
  1.500000000000000E-002     3.58543131689948     
  1.510000000000000E-002     3.58935396630869     
  1.520000000000000E-002     3.59145667614449     
  1.530000000000000E-002     3.59174556743781     
  1.540000000000000E-002     3.59022834580576     
  1.550000000000000E-002     3.58691442953309     
  1.560000000000000E-002     3.58181488504452     
  1.570000000000000E-002     3.57494162870609     
  1.580000000000000E-002     3.56630861188736     
  1.590000000000000E-002     3.55593119462931     
  1.600000000000000E-002     3.54382572866249     
  1.610000000000000E-002     3.53001062280866     
  1.620000000000000E-002     3.51450502841691     
  1.630000000000000E-002     3.49732992834911     
  1.640000000000000E-002     3.47850725273238     
  1.650000000000000E-002     3.45806035807472     
  1.660000000000000E-002     3.43601394618347     
  1.670000000000000E-002     3.41239396032679     
  1.680000000000000E-002     3.38722723830894     
  1.690000000000000E-002     3.36054171510707     
  1.700000000000000E-002     3.33236678024636     
  1.710000000000000E-002     3.30273263222492     
  1.720000000000000E-002     3.27167058719220     
  1.730000000000000E-002     3.23921292081405     
  1.740000000000000E-002     3.20539285318464     
  1.750000000000000E-002     3.17024433167656     
  1.760000000000000E-002     3.13380251078231     
  1.770000000000000E-002     3.09610288982973     
  1.780000000000000E-002     3.05718227536573     
  1.790000000000000E-002     3.01707773866404     
  1.800000000000000E-002     2.97582744294481     
  1.810000000000000E-002     2.93346994491891     
  1.820000000000000E-002     2.89004409069184     
  1.830000000000000E-002     2.84558974000761     
  1.840000000000000E-002     2.80014693650163     
  1.850000000000000E-002     2.75375634637645     
  1.860000000000000E-002     2.70645878594208     
  1.870000000000000E-002     2.65829570451539     