 -4.000000000000000E-002    0.000000000000000E+000
 -3.990000000000000E-002    0.000000000000000E+000
 -3.980000000000000E-002    0.000000000000000E+000
 -3.970000000000000E-002    0.000000000000000E+000
 -3.960000000000000E-002    0.000000000000000E+000
 -3.950000000000000E-002    0.000000000000000E+000
 -3.940000000000000E-002    0.000000000000000E+000
 -3.930000000000000E-002    0.000000000000000E+000
 -3.920000000000000E-002    0.000000000000000E+000
 -3.910000000000000E-002    0.000000000000000E+000
 -3.900000000000000E-002    0.000000000000000E+000
 -3.890000000000000E-002    0.000000000000000E+000
 -3.880000000000000E-002    0.000000000000000E+000
 -3.870000000000000E-002    0.000000000000000E+000
 -3.860000000000000E-002    0.000000000000000E+000
 -3.850000000000000E-002    0.000000000000000E+000
 -3.840000000000000E-002    0.000000000000000E+000
 -3.830000000000000E-002    0.000000000000000E+000
 -3.820000000000000E-002    0.000000000000000E+000
 -3.810000000000000E-002    0.000000000000000E+000
 -3.800000000000000E-002    0.000000000000000E+000
 -3.790000000000000E-002    0.000000000000000E+000
 -3.780000000000000E-002    0.000000000000000E+000
 -3.770000000000000E-002    0.000000000000000E+000
 -3.760000000000000E-002    0.000000000000000E+000
 -3.750000000000000E-002    0.000000000000000E+000
 -3.740000000000000E-002    0.000000000000000E+000
 -3.730000000000000E-002    0.000000000000000E+000
 -3.720000000000000E-002    0.000000000000000E+000
 -3.710000000000000E-002    0.000000000000000E+000
 -3.700000000000000E-002    0.000000000000000E+000
 -3.690000000000000E-002    0.000000000000000E+000
 -3.680000000000000E-002    0.000000000000000E+000
 -3.670000000000000E-002    0.000000000000000E+000
 -3.660000000000000E-002    0.000000000000000E+000
 -3.650000000000000E-002    0.000000000000000E+000
 -3.640000000000000E-002    0.000000000000000E+000
 -3.630000000000000E-002    0.000000000000000E+000
 -3.620000000000000E-002    0.000000000000000E+000
 -3.610000000000000E-002    0.000000000000000E+000
 -3.600000000000000E-002    0.000000000000000E+000
 -3.590000000000000E-002    0.000000000000000E+000
 -3.580000000000000E-002    0.000000000000000E+000
 -3.570000000000000E-002    0.000000000000000E+000
 -3.560000000000000E-002    0.000000000000000E+000
 -3.550000000000000E-002    0.000000000000000E+000
 -3.540000000000000E-002    0.000000000000000E+000
 -3.530000000000000E-002    0.000000000000000E+000
 -3.520000000000000E-002    0.000000000000000E+000
 -3.510000000000000E-002    0.000000000000000E+000
 -3.500000000000000E-002    0.000000000000000E+000
 -3.490000000000000E-002    0.000000000000000E+000
 -3.480000000000000E-002    0.000000000000000E+000
 -3.470000000000000E-002    0.000000000000000E+000
 -3.460000000000000E-002    0.000000000000000E+000
 -3.450000000000000E-002    0.000000000000000E+000
 -3.440000000000000E-002    0.000000000000000E+000
 -3.430000000000000E-002    0.000000000000000E+000
 -3.420000000000000E-002    0.000000000000000E+000
 -3.410000000000000E-002    0.000000000000000E+000
 -3.400000000000000E-002    0.000000000000000E+000
 -3.390000000000000E-002    0.000000000000000E+000
 -3.380000000000000E-002    0.000000000000000E+000
 -3.370000000000000E-002    0.000000000000000E+000
 -3.360000000000000E-002    0.000000000000000E+000
 -3.350000000000000E-002    0.000000000000000E+000
 -3.340000000000000E-002    0.000000000000000E+000
 -3.330000000000000E-002    0.000000000000000E+000
 -3.320000000000000E-002    0.000000000000000E+000
 -3.310000000000000E-002    0.000000000000000E+000
 -3.300000000000000E-002    0.000000000000000E+000
 -3.290000000000000E-002    0.000000000000000E+000
 -3.280000000000000E-002    0.000000000000000E+000
 -3.270000000000000E-002    0.000000000000000E+000
 -3.260000000000000E-002    0.000000000000000E+000
 -3.250000000000000E-002    0.000000000000000E+000
 -3.240000000000000E-002    0.000000000000000E+000
 -3.230000000000000E-002    0.000000000000000E+000
 -3.220000000000000E-002    0.000000000000000E+000
 -3.210000000000000E-002    0.000000000000000E+000
 -3.200000000000000E-002    0.000000000000000E+000
 -3.190000000000000E-002    0.000000000000000E+000
 -3.180000000000000E-002    0.000000000000000E+000
 -3.170000000000000E-002    0.000000000000000E+000
 -3.160000000000000E-002    0.000000000000000E+000
 -3.150000000000000E-002    0.000000000000000E+000
 -3.140000000000000E-002    0.000000000000000E+000
 -3.130000000000000E-002    0.000000000000000E+000
 -3.120000000000000E-002    0.000000000000000E+000
 -3.110000000000000E-002    0.000000000000000E+000
 -3.100000000000000E-002    0.000000000000000E+000
 -3.090000000000000E-002    0.000000000000000E+000
 -3.080000000000000E-002    0.000000000000000E+000
 -3.070000000000000E-002    0.000000000000000E+000
 -3.060000000000000E-002    0.000000000000000E+000
 -3.050000000000000E-002    0.000000000000000E+000
 -3.040000000000000E-002    0.000000000000000E+000
 -3.030000000000000E-002    0.000000000000000E+000
 -3.020000000000000E-002    0.000000000000000E+000
 -3.010000000000000E-002    0.000000000000000E+000
 -3.000000000000000E-002    0.000000000000000E+000
 -2.990000000000000E-002    0.000000000000000E+000
 -2.980000000000000E-002    0.000000000000000E+000
 -2.970000000000000E-002    0.000000000000000E+000
 -2.960000000000000E-002    0.000000000000000E+000
 -2.950000000000000E-002    0.000000000000000E+000
 -2.940000000000000E-002    0.000000000000000E+000
 -2.930000000000000E-002    0.000000000000000E+000
 -2.920000000000000E-002    0.000000000000000E+000
 -2.910000000000000E-002    0.000000000000000E+000
 -2.900000000000000E-002    0.000000000000000E+000
 -2.890000000000000E-002    0.000000000000000E+000
 -2.880000000000000E-002    0.000000000000000E+000
 -2.870000000000000E-002    0.000000000000000E+000
 -2.860000000000000E-002    0.000000000000000E+000
 -2.850000000000000E-002    0.000000000000000E+000
 -2.840000000000000E-002    0.000000000000000E+000
 -2.830000000000000E-002    0.000000000000000E+000
 -2.820000000000000E-002    0.000000000000000E+000
 -2.810000000000000E-002    0.000000000000000E+000
 -2.800000000000000E-002    0.000000000000000E+000
 -2.790000000000000E-002    0.000000000000000E+000
 -2.780000000000000E-002    0.000000000000000E+000
 -2.770000000000000E-002    0.000000000000000E+000
 -2.760000000000000E-002    0.000000000000000E+000
 -2.750000000000000E-002    0.000000000000000E+000
 -2.740000000000000E-002    0.000000000000000E+000
 -2.730000000000000E-002    0.000000000000000E+000
 -2.720000000000000E-002    0.000000000000000E+000
 -2.710000000000000E-002    0.000000000000000E+000
 -2.700000000000000E-002    0.000000000000000E+000
 -2.690000000000000E-002    0.000000000000000E+000
 -2.680000000000000E-002    0.000000000000000E+000
 -2.670000000000000E-002    0.000000000000000E+000
 -2.660000000000000E-002    0.000000000000000E+000
 -2.650000000000000E-002    0.000000000000000E+000
 -2.640000000000000E-002    0.000000000000000E+000
 -2.630000000000000E-002    0.000000000000000E+000
 -2.620000000000000E-002    0.000000000000000E+000
 -2.610000000000000E-002    0.000000000000000E+000
 -2.600000000000000E-002    0.000000000000000E+000
 -2.590000000000000E-002    0.000000000000000E+000
 -2.580000000000000E-002    0.000000000000000E+000
 -2.570000000000000E-002    0.000000000000000E+000
 -2.560000000000000E-002    0.000000000000000E+000
 -2.550000000000000E-002    0.000000000000000E+000
 -2.540000000000000E-002    0.000000000000000E+000
 -2.530000000000000E-002    0.000000000000000E+000
 -2.520000000000000E-002    0.000000000000000E+000
 -2.510000000000000E-002    0.000000000000000E+000
 -2.500000000000000E-002    0.000000000000000E+000
 -2.490000000000000E-002    0.000000000000000E+000
 -2.480000000000000E-002    0.000000000000000E+000
 -2.470000000000000E-002    0.000000000000000E+000
 -2.460000000000000E-002    0.000000000000000E+000
 -2.450000000000000E-002    0.000000000000000E+000
 -2.440000000000000E-002    0.000000000000000E+000
 -2.430000000000000E-002    0.000000000000000E+000
 -2.420000000000000E-002    0.000000000000000E+000
 -2.410000000000000E-002    0.000000000000000E+000
 -2.400000000000000E-002    0.000000000000000E+000
 -2.390000000000000E-002    0.000000000000000E+000
 -2.380000000000000E-002    0.000000000000000E+000
 -2.370000000000000E-002    0.000000000000000E+000
 -2.360000000000000E-002    0.000000000000000E+000
 -2.350000000000000E-002    0.000000000000000E+000
 -2.340000000000000E-002    0.000000000000000E+000
 -2.330000000000000E-002    0.000000000000000E+000
 -2.320000000000000E-002    0.000000000000000E+000
 -2.310000000000000E-002    0.000000000000000E+000
 -2.300000000000000E-002    0.000000000000000E+000
 -2.290000000000000E-002    0.000000000000000E+000
 -2.280000000000000E-002    0.000000000000000E+000
 -2.270000000000000E-002    0.000000000000000E+000
 -2.260000000000000E-002    0.000000000000000E+000
 -2.250000000000000E-002    0.000000000000000E+000
 -2.240000000000000E-002    0.000000000000000E+000
 -2.230000000000000E-002    0.000000000000000E+000
 -2.220000000000000E-002    0.000000000000000E+000
 -2.210000000000000E-002    0.000000000000000E+000
 -2.200000000000000E-002    0.000000000000000E+000
 -2.190000000000000E-002    0.000000000000000E+000
 -2.180000000000000E-002    0.000000000000000E+000
 -2.170000000000000E-002    0.000000000000000E+000
 -2.160000000000000E-002    0.000000000000000E+000
 -2.150000000000000E-002    0.000000000000000E+000
 -2.140000000000000E-002    0.000000000000000E+000
 -2.130000000000000E-002    0.000000000000000E+000
 -2.120000000000000E-002    0.000000000000000E+000
 -2.110000000000000E-002    0.000000000000000E+000
 -2.100000000000000E-002    0.000000000000000E+000
 -2.090000000000000E-002    0.000000000000000E+000
 -2.080000000000000E-002    0.000000000000000E+000
 -2.070000000000000E-002    0.000000000000000E+000
 -2.060000000000000E-002    0.000000000000000E+000
 -2.050000000000000E-002    0.000000000000000E+000
 -2.040000000000000E-002    0.000000000000000E+000
 -2.030000000000000E-002    0.000000000000000E+000
 -2.020000000000000E-002    0.000000000000000E+000
 -2.010000000000000E-002    0.000000000000000E+000
 -2.000000000000000E-002    0.000000000000000E+000
 -1.990000000000000E-002    0.000000000000000E+000
 -1.980000000000000E-002    0.000000000000000E+000
 -1.970000000000000E-002    0.000000000000000E+000
 -1.960000000000000E-002    0.000000000000000E+000
 -1.950000000000000E-002    0.000000000000000E+000
 -1.940000000000000E-002    0.000000000000000E+000
 -1.930000000000000E-002    0.000000000000000E+000
 -1.920000000000000E-002    0.000000000000000E+000
 -1.910000000000000E-002    0.000000000000000E+000
 -1.900000000000000E-002    0.000000000000000E+000
 -1.890000000000000E-002    0.000000000000000E+000
 -1.880000000000000E-002    0.000000000000000E+000
 -1.870000000000000E-002    0.000000000000000E+000
 -1.860000000000000E-002    0.000000000000000E+000
 -1.850000000000000E-002    0.000000000000000E+000
 -1.840000000000000E-002    0.000000000000000E+000
 -1.830000000000000E-002    0.000000000000000E+000
 -1.820000000000000E-002    0.000000000000000E+000
 -1.810000000000000E-002    0.000000000000000E+000
 -1.800000000000000E-002    0.000000000000000E+000
 -1.790000000000000E-002    0.000000000000000E+000
 -1.780000000000000E-002    0.000000000000000E+000
 -1.770000000000000E-002    0.000000000000000E+000
 -1.760000000000000E-002    0.000000000000000E+000
 -1.750000000000000E-002    0.000000000000000E+000
 -1.740000000000000E-002    0.000000000000000E+000
 -1.730000000000000E-002    0.000000000000000E+000
 -1.720000000000000E-002    1.389195164613927E-048
 -1.710000000000000E-002    2.778390329227854E-048
 -1.700000000000000E-002    4.167585493841781E-048
 -1.690000000000000E-002    5.556780658455708E-048
 -1.680000000000000E-002    5.556780658455708E-048
 -1.670000000000000E-002   -1.439722752599556E-048
 -1.660000000000000E-002   -1.121461649288267E-047
 -1.650000000000000E-002   -2.376790056239365E-047
 -1.640000000000000E-002   -3.771037979651854E-047
 -1.630000000000000E-002   -5.428810882841349E-047
 -1.620000000000000E-002   -6.664772477848103E-047
 -1.610000000000000E-002   -7.469661470324898E-047
 -1.600000000000000E-002   -8.063095144896521E-047
 -1.590000000000000E-002   -6.049775892718358E-047
 -1.580000000000000E-002   -5.547878873818672E-047
 -1.570000000000000E-002   -2.132880544778395E-047
 -1.560000000000000E-002    7.199923593236011E-047
 -1.550000000000000E-002    1.994704258719842E-046
 -1.540000000000000E-002    4.052514696509940E-046
 -1.530000000000000E-002    7.658946418423346E-046
 -1.520000000000000E-002    1.190364465689312E-045
 -1.510000000000000E-002    1.554764817480589E-045
 -1.500000000000000E-002    1.813574365544582E-045
 -1.490000000000000E-002    2.048140144452904E-045
 -1.480000000000000E-002    1.848197590273821E-045
 -1.470000000000000E-002    1.163389111007461E-045
 -1.460000000000000E-002   -5.009891777883415E-046
 -1.450000000000000E-002   -1.871775873268839E-045
 -1.440000000000000E-002   -4.450745151739742E-045
 -1.430000000000000E-002   -8.007826055179575E-045
 -1.420000000000000E-002   -1.213005616585271E-044
 -1.410000000000000E-002   -1.624813729880795E-044
 -1.400000000000000E-002   -2.002334269884564E-044
 -1.390000000000000E-002   -2.183371651377407E-044
 -1.380000000000000E-002   -2.071179172337192E-044
 -1.370000000000000E-002   -1.572041045025289E-044
 -1.360000000000000E-002   -4.198152073842223E-045
 -1.350000000000000E-002    1.527983250798740E-044
 -1.340000000000000E-002    4.138637799233809E-044
 -1.330000000000000E-002    7.472906114272646E-044
 -1.320000000000000E-002    1.131616048442822E-043
 -1.310000000000000E-002    1.496063824746010E-043
 -1.300000000000000E-002    1.770497298200387E-043
 -1.290000000000000E-002    1.830215276405040E-043
 -1.280000000000000E-002    1.559697624348518E-043
 -1.270000000000000E-002    8.098473909408760E-044
 -1.260000000000000E-002   -5.130530381871576E-044
 -1.250000000000000E-002   -2.470908442020649E-043
 -1.240000000000000E-002   -4.997368245653508E-043
 -1.230000000000000E-002   -7.893045356236915E-043
 -1.220000000000000E-002   -1.078908589050839E-042
 -1.210000000000000E-002   -1.308483909672308E-042
 -1.200000000000000E-002   -1.400305812342659E-042
 -1.190000000000000E-002   -1.261154545787109E-042
 -1.180000000000000E-002   -7.977395355423685E-043
 -1.170000000000000E-002    6.938509020138637E-044
 -1.160000000000000E-002    1.379144248821503E-042
 -1.150000000000000E-002    3.104208738147912E-042
 -1.140000000000000E-002    5.118671257581662E-042
 -1.130000000000000E-002    7.176378696349149E-042
 -1.120000000000000E-002    8.896319028712006E-042
 -1.110000000000000E-002    9.770157705183600E-042
 -1.100000000000000E-002    9.198788591197974E-042
 -1.090000000000000E-002    6.565440540740369E-042
 -1.080000000000000E-002    1.344457101191478E-042
 -1.070000000000000E-002   -6.746508922040891E-042
 -1.060000000000000E-002   -1.757634636216159E-041
 -1.050000000000000E-002   -3.042320580150394E-041
 -1.040000000000000E-002   -4.382789077390460E-041
 -1.030000000000000E-002   -5.551983765311815E-041
 -1.020000000000000E-002   -6.246541191641292E-041
 -1.010000000000000E-002   -6.108378242472700E-041
 -1.000000000000000E-002   -4.767118481910425E-041
 -9.899999999999999E-003   -1.904084045710232E-041
 -9.800000000000000E-003    2.663596193664086E-041
 -9.699999999999999E-003    8.885720437931482E-041
 -9.599999999999999E-003    1.638248897538250E-040
 -9.500000000000000E-003    2.436523309033138E-040
 -9.399999999999999E-003    3.159837945689375E-040
 -9.299999999999999E-003    3.642792940921107E-040
 -9.200000000000000E-003    3.689916205055384E-040
 -9.099999999999999E-003    3.098155653736751E-040
 -8.999999999999999E-003    1.690500738299419E-040
 -8.900000000000000E-003   -6.407316634128651E-041
 -8.799999999999999E-003   -3.884789236058981E-040
 -8.699999999999999E-003   -7.863980877316672E-040
 -8.600000000000000E-003   -1.219500699263629E-039
 -8.499999999999999E-003   -1.627095767587794E-039
 -8.399999999999999E-003   -1.927574745777619E-039
 -8.300000000000000E-003   -2.024137917393203E-039
 -8.199999999999999E-003   -1.815502099817612E-039
 -8.100000000000000E-003   -1.211658759181632E-039
 -8.000000000000000E-003   -1.538935320906654E-040
 -7.899999999999999E-003    1.362786418566353E-039
 -7.800000000000000E-003    3.267794572319127E-039
 -7.699999999999999E-003    5.397650000396545E-039
 -7.599999999999999E-003    7.487880348022344E-039
 -7.499999999999999E-003    9.178910526031573E-039
 -7.399999999999999E-003    1.004005147015194E-038
 -7.299999999999999E-003    9.614046453073259E-039
 -7.199999999999999E-003    7.482070837220265E-039
 -7.100000000000000E-003    3.345561958812202E-039
 -6.999999999999999E-003   -2.882721703272036E-039
 -6.899999999999999E-003   -1.099011862139086E-038
 -6.800000000000000E-003   -2.039307268002167E-038
 -6.699999999999999E-003   -3.010088152878459E-038
 -6.599999999999999E-003   -3.873120623255058E-038
 -6.499999999999999E-003   -4.459134004203992E-038
 -6.399999999999999E-003   -4.583319864676545E-038
 -6.299999999999999E-003   -4.068080239624277E-038
 -6.199999999999999E-003   -2.771753962408836E-038
 -6.100000000000000E-003   -6.207700726392615E-039
 -5.999999999999999E-003    2.358531348358102E-038
 -5.899999999999999E-003    6.013136614288304E-038
 -5.800000000000000E-003    1.004686284692154E-037
 -5.699999999999999E-003    1.401917856499751E-037
 -5.599999999999999E-003    1.736342297563326E-037
 -5.499999999999999E-003    1.942680703313445E-037
 -5.399999999999999E-003    1.953214746815500E-037
 -5.299999999999999E-003    1.705842822780859E-037
 -5.199999999999999E-003    1.153432478458492E-037
 -5.099999999999999E-003    2.736193572529207E-038
 -4.999999999999999E-003   -9.219890421732551E-038
 -4.899999999999999E-003   -2.380339912261413E-037
 -4.799999999999999E-003   -4.002286997573510E-037
 -4.699999999999999E-003   -5.641716252569245E-037
 -4.599999999999999E-003   -7.109152413717142E-037
 -4.499999999999999E-003   -8.180269240324326E-037
 -4.399999999999999E-003   -8.609446884109099E-037
 -4.299999999999999E-003   -8.148305855137056E-037
 -4.199999999999999E-003   -6.569004710356807E-037
 -4.099999999999999E-003   -3.692006210374521E-037
 -3.999999999999999E-003    5.820675690751795E-038
 -3.899999999999999E-003    6.237121921920353E-037
 -3.799999999999999E-003    1.310396662840069E-036
 -3.699999999999999E-003    2.082255639762265E-036
 -3.599999999999999E-003    2.880783691030042E-036
 -3.499999999999999E-003    3.622510789750067E-036
 -3.399999999999999E-003    4.198333353279764E-036
 -3.299999999999999E-003    4.475733212351862E-036
 -3.199999999999999E-003    4.305154409936838E-036
 -3.099999999999999E-003    3.531824392597096E-036
 -2.999999999999999E-003    2.014060815820559E-036
 -2.899999999999999E-003   -3.514913715059020E-037
 -2.799999999999999E-003   -3.598264768895610E-036
 -2.699999999999999E-003   -7.653827771460358E-036
 -2.599999999999999E-003   -1.230338821209184E-035
 -2.499999999999999E-003   -1.715847839887749E-035
 -2.399999999999999E-003   -2.163836342261808E-035
 -2.299999999999999E-003   -2.497298001944633E-035
 -2.199999999999999E-003   -2.623648210033819E-035
 -2.099999999999999E-003   -2.441926259345257E-035
 -1.999999999999999E-003   -1.854324975543892E-035
 -1.899999999999999E-003   -7.820133801609117E-036
 -1.799999999999999E-003    8.154950271085336E-036
 -1.699999999999999E-003    2.919047543580408E-035
 -1.599999999999999E-003    5.429184456580682E-035
 -1.499999999999999E-003    8.149529911729884E-035
 -1.399999999999999E-003    1.077832430354430E-034
 -1.299999999999999E-003    1.291241792207222E-034
 -1.199999999999999E-003    1.406771316978101E-034
 -1.099999999999999E-003    1.371894782484043E-034
 -9.999999999999989E-004    1.135985691514662E-034
 -8.999999999999990E-004    6.582065382722818E-035
 -7.999999999999990E-004   -8.322133562482080E-036
 -6.999999999999989E-004   -1.081224914195526E-034
 -5.999999999999990E-004   -2.290777310369188E-034
 -4.999999999999989E-004   -3.621994925521623E-034
 -3.999999999999989E-004   -4.937118980410962E-034
 -2.999999999999989E-004   -6.053063321355648E-034
 -1.999999999999989E-004   -6.750973891120615E-034
 -9.999999999999892E-005   -6.793750279205298E-034
  1.084202172485504E-018   -5.951705645958232E-034
  1.000000000000011E-004   -4.035528261946300E-034
  2.000000000000011E-004   -9.345023439222657E-035
  3.000000000000011E-004    3.343347832280833E-034
  4.000000000000011E-004    8.633763797854248E-034
  5.000000000000011E-004    1.458701647759167E-033
  6.000000000000011E-004    2.065316607983456E-033
  7.000000000000011E-004    2.608814503374792E-033
  8.000000000000011E-004    2.998629104189550E-033
  9.000000000000012E-004    3.134345936680926E-033
  1.000000000000001E-003    2.915234334656097E-033
  1.100000000000001E-003    2.252826637613094E-033
  1.200000000000001E-003    1.085951133274344E-033
  1.300000000000001E-003   -6.028574669019789E-034
  1.400000000000001E-003   -2.771141715240835E-033
  1.500000000000001E-003   -5.302546955894817E-033
  1.600000000000001E-003   -7.997515756256305E-033
  1.700000000000001E-003   -1.057129508893308E-032
  1.800000000000001E-003   -1.266186446264459E-032
  1.900000000000001E-003   -1.385003232730669E-032
  2.000000000000001E-003   -1.369319038163825E-032
  2.100000000000001E-003   -1.177301199037061E-032
  2.200000000000001E-003   -7.755725521151307E-033
  2.300000000000001E-003   -1.461554689320733E-033
  2.400000000000001E-003    7.062414102429342E-033
  2.500000000000001E-003    1.747403249268821E-032
  2.600000000000001E-003    2.908283528653913E-032
  2.700000000000001E-003    4.082351650450031E-032
  2.800000000000001E-003    5.126845542621149E-032
  2.900000000000001E-003    5.869063714945728E-032
  3.000000000000001E-003    6.118555306368741E-032
  3.100000000000001E-003    5.685567568867101E-032
  3.200000000000001E-003    4.405417191145862E-032
  3.300000000000001E-003    2.167538270017008E-032
  3.400000000000001E-003   -1.053054436860682E-032
  3.500000000000001E-003   -5.165217802358723E-032
  3.600000000000001E-003   -9.936336654663823E-032
  3.700000000000001E-003   -1.497715491607706E-031
  3.800000000000001E-003   -1.974199638515293E-031
  3.900000000000001E-003   -2.354918887216562E-031
  4.000000000000001E-003   -2.562534717192569E-031
  4.100000000000001E-003   -2.517515589220547E-031
  4.200000000000001E-003   -2.147543339070139E-031
  4.300000000000001E-003   -1.398870079930432E-031
  4.400000000000001E-003   -2.487492209394358E-032
  4.500000000000001E-003    1.282337422993696E-031
  4.600000000000002E-003    3.120285416945847E-031
  4.700000000000001E-003    5.130677173082844E-031
  4.800000000000001E-003    7.117728244128172E-031
  4.900000000000002E-003    8.830636228682141E-031
  5.000000000000001E-003    9.978660838286066E-031
  5.100000000000001E-003    1.025552203375290E-030
  5.200000000000001E-003    9.372697925840266E-031
  5.300000000000002E-003    7.099969849760715E-031
  5.400000000000001E-003    3.310202223062919E-031
  5.500000000000001E-003   -1.976000284910795E-031
  5.600000000000002E-003   -8.551271909041665E-031
  5.700000000000001E-003   -1.599439316657508E-030
  5.800000000000001E-003   -2.366166320329414E-030
  5.900000000000002E-003   -3.070271366281509E-030
  6.000000000000001E-003   -3.610541078943164E-030
  6.100000000000001E-003   -3.877218233772491E-030
  6.200000000000002E-003   -3.762698873092998E-030
  6.300000000000002E-003   -3.174832871808506E-030
  6.400000000000001E-003   -2.051940143711812E-030
  6.500000000000001E-003   -3.782306664426475E-031
  6.600000000000002E-003    1.802069563037122E-030
  6.700000000000001E-003    4.373863064766063E-030
  6.800000000000001E-003    7.145695426233970E-030
  6.900000000000002E-003    9.851659330237552E-030
  7.000000000000001E-003    1.216236649383623E-029
  7.100000000000001E-003    1.370606309262907E-029
  7.200000000000002E-003    1.410007760543910E-029
  7.300000000000002E-003    1.299167859651509E-029
  7.400000000000001E-003    1.010611023637112E-029
  7.500000000000001E-003    5.298208846796262E-030
  7.600000000000002E-003   -1.397306838623986E-030
  7.700000000000001E-003   -9.722893161605163E-030
  7.800000000000001E-003   -1.916929341440119E-029
  7.900000000000001E-003   -2.896755496151879E-029
  8.000000000000002E-003   -3.810820165687665E-029
  8.100000000000001E-003   -4.539237205133250E-029
  8.200000000000001E-003   -4.951736298105282E-029
  8.300000000000002E-003   -4.919582184997560E-029
  8.400000000000001E-003   -4.330381994618983E-029
  8.500000000000002E-003   -3.104862997114603E-029
  8.600000000000002E-003   -1.214245829057618E-029
  8.700000000000001E-003    1.303583671341573E-029
  8.800000000000002E-003    4.331216635246745E-029
  8.900000000000002E-003    7.664465656451989E-029
  9.000000000000001E-003    1.101294173133305E-028
  9.100000000000002E-003    1.401039334168562E-028
  9.200000000000002E-003    1.623611356115100E-028
  9.300000000000001E-003    1.724782089981996E-028
  9.400000000000002E-003    1.662521949393084E-028
  9.500000000000001E-003    1.402205541525412E-028
  9.600000000000001E-003    9.222982441136607E-029
  9.700000000000002E-003    2.200088358827540E-029
  9.800000000000001E-003   -6.837285087082090E-029
  9.900000000000001E-003   -1.740664169708625E-028
  1.000000000000000E-002   -2.873774679390660E-028
  1.010000000000000E-002   -3.978620114730102E-028
  1.020000000000000E-002   -4.928052762646984E-028
  1.030000000000000E-002   -5.580570225976023E-028
  1.040000000000000E-002   -5.792269200395874E-028
  1.050000000000000E-002   -5.431951962368724E-028
  1.060000000000000E-002   -4.398478074753246E-028
  1.070000000000000E-002   -2.638995558493082E-028
  1.080000000000000E-002   -1.662645060457258E-029
  1.090000000000000E-002    2.927027829512752E-028
  1.100000000000000E-002    6.459225431830054E-028
  1.110000000000000E-002    1.015815011060968E-027
  1.120000000000000E-002    1.366894412406755E-027
  1.130000000000000E-002    1.657264386453308E-027
  1.140000000000000E-002    1.841596041321465E-027
  1.150000000000000E-002    1.875164244973333E-027
  1.160000000000000E-002    1.718753367768645E-027
  1.170000000000000E-002    1.344105279102473E-027
  1.180000000000000E-002    7.394537214328882E-028
  1.190000000000000E-002   -8.542369553145323E-029
  1.200000000000000E-002   -1.095282116917610E-027
  1.210000000000000E-002   -2.227283058853320E-027
  1.220000000000000E-002   -3.391294404995073E-027
  1.230000000000000E-002   -4.473128906114207E-027
  1.240000000000000E-002   -5.341039678093573E-027
  1.250000000000000E-002   -5.855517302294666E-027
  1.260000000000000E-002   -5.882097510499046E-027
  1.270000000000000E-002   -5.306510991567292E-027
  1.280000000000000E-002   -4.051111099952177E-027
  1.290000000000000E-002   -2.091152496491471E-027
  1.300000000000000E-002    5.308108014222525E-028
  1.310000000000000E-002    3.694316955430100E-027
  1.320000000000000E-002    7.196112618027240E-027
  1.330000000000000E-002    1.075276077409678E-026
  1.340000000000000E-002    1.401210800327733E-026
  1.350000000000000E-002    1.657436010479684E-026
  1.360000000000000E-002    1.802268744592446E-026
  1.370000000000000E-002    1.796226263807633E-026
  1.380000000000000E-002    1.606553635422906E-026
  1.390000000000000E-002    1.212043110505285E-026
  1.400000000000000E-002    6.077120537745584E-027
  1.410000000000000E-002   -1.911724584310372E-027
  1.420000000000000E-002   -1.146276326042578E-026
  1.430000000000000E-002   -2.195134536490788E-026
  1.440000000000000E-002   -3.252323103982632E-026
  1.450000000000000E-002   -4.213220331081588E-026
  1.460000000000000E-002   -4.960519087834865E-026
  1.470000000000000E-002   -5.373402607495337E-026
  1.480000000000000E-002   -5.339004469055638E-026
  1.490000000000000E-002   -4.765462263361027E-026
  1.500000000000000E-002   -3.595568065805579E-026
  1.510000000000000E-002   -1.819749814014252E-026
  1.520000000000000E-002    5.130643923070074E-027
  1.530000000000000E-002    3.288234111688186E-026
  1.540000000000000E-002    6.323317451726188E-026
  1.550000000000000E-002    9.372349557368010E-026
  1.560000000000000E-002    1.213734258233379E-025
  1.570000000000000E-002    1.428729791356859E-025
  1.580000000000000E-002    1.548432658154973E-025
  1.590000000000000E-002    1.541567767839205E-025
  1.600000000000000E-002    1.382964520651916E-025
  1.610000000000000E-002    1.057255552662904E-025
  1.620000000000000E-002    5.623368220037955E-026
  1.630000000000000E-002   -8.779842494013790E-027
  1.640000000000000E-002   -8.612529135321510E-026
  1.650000000000000E-002   -1.707821103534115E-025
  1.660000000000000E-002   -2.560294963846594E-025
  1.670000000000000E-002   -3.337678523056631E-025
  1.680000000000000E-002   -3.950359030370211E-025
  1.690000000000000E-002   -4.307100276771188E-025
  1.700000000000000E-002   -4.323523203832620E-025
  1.710000000000000E-002   -3.931529717831683E-025
  1.720000000000000E-002   -3.088936191592369E-025
  1.730000000000000E-002   -1.788428237923514E-025
  1.740000000000000E-002   -6.485166391221045E-027
  1.750000000000000E-002    2.000164311428080E-025
  1.760000000000000E-002    4.277180904577579E-025
  1.770000000000000E-002    6.592276264339432E-025
  1.780000000000000E-002    8.735196059315461E-025
  1.790000000000000E-002    1.047243138992992E-024
  1.800000000000000E-002    1.156487491331561E-024
  1.810000000000000E-002    1.178920813917140E-024
  1.820000000000000E-002    1.096168363473416E-024
  1.830000000000000E-002    8.962490656018420E-025
  1.840000000000000E-002    5.758531583745103E-025
  1.850000000000000E-002    1.422204538642743E-025
  1.860000000000000E-002   -3.856264498241150E-025
  1.870000000000000E-002   -9.765206249735946E-025