 -4.000000000000000E-002    0.000000000000000E+000
 -3.990000000000000E-002    0.000000000000000E+000
 -3.980000000000000E-002    0.000000000000000E+000
 -3.970000000000000E-002    0.000000000000000E+000
 -3.960000000000000E-002    3.382856599724901E-019
 -3.950000000000000E-002    2.646039111901348E-018
 -3.940000000000000E-002    1.102427979945066E-017
 -3.930000000000000E-002    3.192202499864940E-017
 -3.920000000000000E-002    7.016409507056204E-017
 -3.910000000000000E-002    1.184463119381348E-016
 -3.900000000000000E-002    1.391598892419992E-016
 -3.890000000000000E-002    4.102362940727391E-017
 -3.880000000000000E-002   -3.416121421052279E-016
 -3.870000000000000E-002   -1.252916570477179E-015
 -3.860000000000000E-002   -2.984641324353951E-015
 -3.850000000000000E-002   -5.790590914217774E-015
 -3.840000000000000E-002   -9.732071308075979E-015
 -3.830000000000000E-002   -1.445240589788126E-014
 -3.820000000000000E-002   -1.889857564325292E-014
 -3.810000000000000E-002   -2.103331569316401E-014
 -3.800000000000000E-002   -1.760764650881160E-014
 -3.790000000000000E-002   -4.085592965683587E-015
 -3.780000000000000E-002    2.517672580015961E-014
 -3.770000000000000E-002    7.640284172471110E-014
 -3.760000000000000E-002    1.554542721597641E-013
 -3.750000000000000E-002    2.664647172706487E-013
 -3.740000000000000E-002    4.101150834048378E-013
 -3.730000000000000E-002    5.817027646644964E-013
 -3.720000000000000E-002    7.692483450128427E-013
 -3.710000000000000E-002    9.519603503694871E-013
 -3.700000000000000E-002    1.099423444423555E-012
 -3.690000000000000E-002    1.171880145709727E-012
 -3.680000000000000E-002    1.121919702521887E-012
 -3.670000000000000E-002    8.977809975832252E-013
 -3.660000000000000E-002    4.483020343788961E-013
 -3.650000000000000E-002   -2.706481882895724E-013
 -3.640000000000000E-002   -1.288659082306010E-012
 -3.630000000000000E-002   -2.612803871573411E-012
 -3.620000000000000E-002   -4.220007521478249E-012
 -3.610000000000000E-002   -6.050677281220773E-012
 -3.600000000000000E-002   -8.004548734289842E-012
 -3.590000000000000E-002   -9.939629556107589E-012
 -3.580000000000000E-002   -1.167494260294986E-011
 -3.570000000000000E-002   -1.299750149901660E-011
 -3.560000000000000E-002   -1.367358755114169E-011
 -3.550000000000000E-002   -1.346403500323015E-011
 -3.540000000000000E-002   -1.214278884902270E-011
 -3.530000000000000E-002   -9.517671996742859E-012
 -3.520000000000000E-002   -5.451970851141158E-012
 -3.510000000000000E-002    1.147464788647094E-013
 -3.500000000000000E-002    7.148259576923226E-012
 -3.490000000000000E-002    1.550542304348490E-011
 -3.480000000000000E-002    2.492547631188911E-011
 -3.470000000000000E-002    3.502819662942378E-011
 -3.460000000000000E-002    4.531974869622972E-011
 -3.450000000000000E-002    5.520674395181205E-011
 -3.440000000000000E-002    6.401847810159709E-011
 -3.430000000000000E-002    7.103689670586952E-011
 -3.420000000000000E-002    7.553328739388003E-011
 -3.410000000000000E-002    7.681020968951411E-011
 -3.400000000000000E-002    7.424673433431563E-011
 -3.390000000000000E-002    6.734457603783099E-011
 -3.380000000000000E-002    5.577239930284287E-011
 -3.370000000000000E-002    3.940523486716804E-011
 -3.360000000000000E-002    1.835595154770486E-011
 -3.350000000000000E-002   -7.004316582764802E-012
 -3.340000000000000E-002   -3.603945916784979E-011
 -3.330000000000000E-002   -6.785747700230422E-011
 -3.320000000000000E-002   -1.013365414658288E-010
 -3.310000000000000E-002   -1.351679079581355E-010
 -3.300000000000000E-002   -1.679142797803329E-010
 -3.290000000000000E-002   -1.980803552844928E-010
 -3.280000000000000E-002   -2.241909652533552E-010
 -3.270000000000000E-002   -2.448706956920979E-010
 -3.260000000000000E-002   -2.589178783376982E-010
 -3.250000000000000E-002   -2.653656703695778E-010
 -3.240000000000000E-002   -2.635232029078156E-010
 -3.230000000000000E-002   -2.529913147635676E-010
 -3.220000000000000E-002   -2.336497904916664E-010
 -3.210000000000000E-002   -2.056159876879488E-010
 -3.200000000000000E-002   -1.691789110410703E-010
 -3.190000000000000E-002   -1.247164225212570E-010
 -3.180000000000000E-002   -7.260749985137365E-011
 -3.170000000000000E-002   -1.315411046014993E-011
 -3.160000000000000E-002    5.347099007904410E-011
 -3.150000000000000E-002    1.272347210198319E-010
 -3.140000000000000E-002    2.081988645544619E-010
 -3.130000000000000E-002    2.964121539109690E-010
 -3.120000000000000E-002    3.917376130192702E-010
 -3.110000000000000E-002    4.936241396827649E-010
 -3.100000000000000E-002    6.008394315995843E-010
 -3.090000000000000E-002    7.111931346642539E-010
 -3.080000000000000E-002    8.212860753591559E-010
 -3.070000000000000E-002    9.263275377668228E-010
 -3.060000000000000E-002    1.020063944165533E-009
 -3.050000000000000E-002    1.094858597200092E-009
 -3.040000000000000E-002    1.141952531005683E-009
 -3.030000000000000E-002    1.151921898573774E-009
 -3.020000000000000E-002    1.115327260785980E-009
 -3.010000000000000E-002    1.023527848906775E-009
 -3.000000000000000E-002    8.696087233157699E-010
 -2.990000000000000E-002    6.493472781767566E-010
 -2.980000000000000E-002    3.621273857958414E-010
 -2.970000000000000E-002    1.169917647196135E-011
 -2.960000000000000E-002   -3.933202345996470E-010
 -2.950000000000000E-002   -8.392953646138363E-010
 -2.940000000000000E-002   -1.307842745561742E-009
 -2.930000000000000E-002   -1.776558048124982E-009
 -2.920000000000000E-002   -2.220198188162679E-009
 -2.910000000000000E-002   -2.612260847147899E-009
 -2.900000000000000E-002   -2.926867489832684E-009
 -2.890000000000000E-002   -3.140802815102589E-009
 -2.880000000000000E-002   -3.235535746318894E-009
 -2.870000000000000E-002   -3.199029275882644E-009
 -2.860000000000000E-002   -3.027144551400547E-009
 -2.850000000000000E-002   -2.724468151403963E-009
 -2.840000000000000E-002   -2.304431920423892E-009
 -2.830000000000000E-002   -1.788654226911009E-009
 -2.820000000000000E-002   -1.205506403898703E-009
 -2.810000000000000E-002   -5.879812002574836E-010
 -2.800000000000000E-002    2.897175729024503E-011
 -2.790000000000000E-002    6.114244866171230E-010
 -2.780000000000000E-002    1.129481471083786E-009
 -2.770000000000000E-002    1.560030051878178E-009
 -2.760000000000000E-002    1.888932529187391E-009
 -2.750000000000000E-002    2.112407674092303E-009
 -2.740000000000000E-002    2.237411720017254E-009
 -2.730000000000000E-002    2.280920884684098E-009
 -2.720000000000000E-002    2.268127399780763E-009
 -2.710000000000000E-002    2.229670932674820E-009
 -2.700000000000000E-002    2.198137119731879E-009
 -2.690000000000000E-002    2.204145141336032E-009
 -2.680000000000000E-002    2.272403278759749E-009
 -2.670000000000000E-002    2.418142406440682E-009
 -2.660000000000000E-002    2.644317616630113E-009
 -2.650000000000000E-002    2.939911790200108E-009
 -2.640000000000000E-002    3.279581049090422E-009
 -2.630000000000000E-002    3.624760904494916E-009
 -2.620000000000000E-002    3.926207712569674E-009
 -2.610000000000000E-002    4.127811707835512E-009
 -2.600000000000000E-002    4.171378333536020E-009
 -2.590000000000000E-002    4.001973680457501E-009
 -2.580000000000000E-002    3.573355309561038E-009
 -2.570000000000000E-002    2.852981329471395E-009
 -2.560000000000000E-002    1.826116084066511E-009
 -2.550000000000000E-002    4.986200061230855E-010
 -2.540000000000000E-002   -1.101883318833322E-009
 -2.530000000000000E-002   -2.926617355036340E-009
 -2.520000000000000E-002   -4.908048770693908E-009
 -2.510000000000000E-002   -6.963900008218012E-009
 -2.500000000000000E-002   -9.002472386127260E-009
 -2.490000000000000E-002   -1.092884227661339E-008
 -2.480000000000000E-002   -1.265140925124611E-008
 -2.470000000000000E-002   -1.408824204719937E-008
 -2.460000000000000E-002   -1.517267597367428E-008
 -2.450000000000000E-002   -1.585767901574007E-008
 -2.440000000000000E-002   -1.611860691590927E-008
 -2.430000000000000E-002   -1.595411571847644E-008
 -2.420000000000000E-002   -1.538514438504404E-008
 -2.410000000000000E-002   -1.445207845191580E-008
 -2.400000000000000E-002   -1.321033216515670E-008
 -2.390000000000000E-002   -1.172477898181273E-008
 -2.380000000000000E-002   -1.006352585593265E-008
 -2.370000000000000E-002   -8.291638962266305E-009
 -2.360000000000000E-002   -6.465426078371108E-009
 -2.350000000000000E-002   -4.627872869581559E-009
 -2.340000000000000E-002   -2.805773812874688E-009
 -2.330000000000000E-002   -1.008934563329334E-009
 -2.320000000000000E-002    7.682463570527722E-010
 -2.310000000000000E-002    2.542756433254302E-009
 -2.300000000000000E-002    4.336581832610674E-009
 -2.290000000000000E-002    6.168239347413740E-009
 -2.280000000000000E-002    8.042617969631043E-009
 -2.270000000000000E-002    9.939773273974515E-009
 -2.260000000000000E-002    1.180331838626943E-008
 -2.250000000000000E-002    1.352907396932193E-008
 -2.240000000000000E-002    1.495476872823666E-008
 -2.230000000000000E-002    1.585142159650807E-008
 -2.220000000000000E-002    1.591693824066441E-008
 -2.210000000000000E-002    1.477225515110285E-008
 -2.200000000000000E-002    1.196039243439016E-008
 -2.190000000000000E-002    6.948251028146893E-009
 -2.180000000000000E-002   -8.691145594834351E-010
 -2.170000000000000E-002   -1.216171837084993E-008
 -2.160000000000000E-002   -2.765664318034563E-008
 -2.150000000000000E-002   -4.812850159816807E-008
 -2.140000000000000E-002   -7.439014430495448E-008
 -2.130000000000000E-002   -1.072831529123109E-007
 -2.120000000000000E-002   -1.476694151119933E-007
 -2.110000000000000E-002   -1.964241343799960E-007
 -2.100000000000000E-002   -2.544300986425754E-007
 -2.090000000000000E-002   -3.225734285090876E-007
 -2.080000000000000E-002   -4.017413325714686E-007
 -2.070000000000000E-002   -4.928203625427066E-007
 -2.060000000000000E-002   -5.966959002927389E-007
 -2.050000000000000E-002   -7.142514741943911E-007
 -2.040000000000000E-002   -8.463687065222398E-007
 -2.030000000000000E-002   -9.939263278277143E-007
 -2.020000000000000E-002   -1.157798437911440E-006
 -2.010000000000000E-002   -1.338853285731206E-006
 -2.000000000000000E-002   -1.537950129582498E-006
 -1.990000000000000E-002   -1.755938200111410E-006
 -1.980000000000000E-002   -1.993654121887981E-006
 -1.970000000000000E-002   -2.251921684775664E-006
 -1.960000000000000E-002   -2.531553983438008E-006
 -1.950000000000000E-002   -2.833355560718379E-006
 -1.940000000000000E-002   -3.158128746944187E-006
 -1.930000000000000E-002   -3.506681569521245E-006
 -1.920000000000000E-002   -3.879837506448088E-006
 -1.910000000000000E-002   -4.278446750117357E-006
 -1.900000000000000E-002   -4.703398152995856E-006
 -1.890000000000000E-002   -5.155629427829896E-006
 -1.880000000000000E-002   -5.636138596005200E-006
 -1.870000000000000E-002   -6.145990295860415E-006
 -1.860000000000000E-002   -6.686320457817416E-006
 -1.850000000000000E-002   -7.258337429196204E-006
 -1.840000000000000E-002   -7.863320360581010E-006
 -1.830000000000000E-002   -8.502615524750424E-006
 -1.820000000000000E-002   -9.177631545622673E-006
 -1.810000000000000E-002   -9.889831635296811E-006
 -1.800000000000000E-002   -1.064073492397938E-005
 -1.790000000000000E-002   -1.143191456915439E-005
 -1.780000000000000E-002   -1.226500574779709E-005
 -1.770000000000000E-002   -1.314171767839734E-005
 -1.760000000000000E-002   -1.406385615553932E-005
 -1.750000000000000E-002   -1.503335390895599E-005
 -1.740000000000000E-002   -1.605230268431927E-005
 -1.730000000000000E-002   -1.712299328241845E-005
 -1.720000000000000E-002   -1.824796607733646E-005
 -1.710000000000000E-002   -1.943004480362495E-005
 -1.700000000000000E-002   -2.067238266745771E-005
 -1.690000000000000E-002   -2.197849194765342E-005
 -1.680000000000000E-002   -2.335227025114121E-005
 -1.670000000000000E-002   -2.479800688418821E-005
 -1.660000000000000E-002   -2.632038301957633E-005
 -1.650000000000000E-002   -2.792445207255477E-005
 -1.640000000000000E-002   -2.961561026580592E-005
 -1.630000000000000E-002   -3.139954995742405E-005
 -1.620000000000000E-002   -3.328221400146380E-005
 -1.610000000000000E-002   -3.526973426724488E-005
 -1.600000000000000E-002   -3.736837377332332E-005
 -1.590000000000000E-002   -3.958448619868891E-005
 -1.580000000000000E-002   -4.192446116823952E-005
 -1.570000000000000E-002   -4.439471942692784E-005
 -1.560000000000000E-002   -4.700167592119204E-005
 -1.550000000000000E-002   -4.975178369874308E-005
 -1.540000000000000E-002   -5.265154335623296E-005
 -1.530000000000000E-002   -5.570756503134568E-005
 -1.520000000000000E-002   -5.892664195145425E-005
 -1.510000000000000E-002   -6.231582712602089E-005
 -1.500000000000000E-002   -6.588252430845176E-005
 -1.490000000000000E-002   -6.963459388309231E-005
 -1.480000000000000E-002   -7.358042323059893E-005
 -1.470000000000000E-002   -7.772902772387630E-005
 -1.460000000000000E-002   -8.209010748811094E-005
 -1.450000000000000E-002   -8.667409717654736E-005
 -1.440000000000000E-002   -9.149218254762853E-005
 -1.430000000000000E-002   -9.655631612587888E-005
 -1.420000000000000E-002   -1.018791903213683E-004
 -1.410000000000000E-002   -1.074741958498656E-004
 -1.400000000000000E-002   -1.133553780154485E-004
 -1.390000000000000E-002   -1.195373575782158E-004
 -1.380000000000000E-002   -1.260352704457201E-004
 -1.370000000000000E-002   -1.328647134356776E-004
 -1.360000000000000E-002   -1.400416688637038E-004
 -1.350000000000000E-002   -1.475824830821363E-004
 -1.340000000000000E-002   -1.555038256448874E-004
 -1.330000000000000E-002   -1.638227357852148E-004
 -1.320000000000000E-002   -1.725565981845536E-004
 -1.310000000000000E-002   -1.817232337691886E-004
 -1.300000000000000E-002   -1.913409492999663E-004
 -1.290000000000000E-002   -2.014286444906373E-004
 -1.280000000000000E-002   -2.120059100375347E-004
 -1.270000000000000E-002   -2.230931088000646E-004
 -1.260000000000000E-002   -2.347114867251991E-004
 -1.250000000000000E-002   -2.468833012822272E-004
 -1.240000000000000E-002   -2.596318428193795E-004
 -1.230000000000000E-002   -2.729814972151463E-004
 -1.220000000000000E-002   -2.869578222501907E-004
 -1.210000000000000E-002   -3.015875154772933E-004
 -1.200000000000000E-002   -3.168984048419913E-004
 -1.190000000000000E-002   -3.329194436948093E-004
 -1.180000000000000E-002   -3.496806341565293E-004
 -1.170000000000000E-002   -3.672129999927377E-004
 -1.160000000000000E-002   -3.855485668816142E-004
 -1.150000000000000E-002   -4.047202565577546E-004
 -1.140000000000000E-002   -4.247619176097759E-004
 -1.130000000000000E-002   -4.457082755538507E-004
 -1.120000000000000E-002   -4.675949105119400E-004
 -1.110000000000000E-002   -4.904583662327436E-004
 -1.100000000000000E-002   -5.143361242031460E-004
 -1.090000000000000E-002   -5.392667185251100E-004
 -1.080000000000000E-002   -5.652896943509033E-004
 -1.070000000000000E-002   -5.924458626063277E-004
 -1.060000000000000E-002   -6.207771806748373E-004
 -1.050000000000000E-002   -6.503269698975186E-004
 -1.040000000000000E-002   -6.811399754708191E-004
 -1.030000000000000E-002   -7.132622902213147E-004
 -1.020000000000000E-002   -7.467414296022863E-004
 -1.010000000000000E-002   -7.816264728668191E-004
 -1.000000000000000E-002   -8.179679279282778E-004
 -9.899999999999999E-003   -8.558177814395241E-004
 -9.800000000000000E-003   -8.952295224039990E-004
 -9.699999999999999E-003   -9.362580515917991E-004
 -9.599999999999999E-003   -9.789597082504300E-004
 -9.500000000000000E-003   -1.023392188771786E-003
 -9.399999999999999E-003   -1.069614731099031E-003
 -9.299999999999999E-003   -1.117687896387822E-003
 -9.200000000000000E-003   -1.167673718980298E-003
 -9.099999999999999E-003   -1.219635578543217E-003
 -8.999999999999999E-003   -1.273638250702859E-003
 -8.900000000000000E-003   -1.329748185564860E-003
 -8.799999999999999E-003   -1.388032941866860E-003
 -8.699999999999999E-003   -1.448561784959695E-003
 -8.600000000000000E-003   -1.511405149565961E-003
 -8.499999999999999E-003   -1.576634880393571E-003
 -8.399999999999999E-003   -1.644324020070511E-003
 -8.300000000000000E-003   -1.714547059980905E-003
 -8.199999999999999E-003   -1.787379214386173E-003
 -8.100000000000000E-003   -1.862896878605085E-003
 -8.000000000000000E-003   -1.941177561667354E-003
 -7.899999999999999E-003   -2.022299213521402E-003
 -7.800000000000000E-003   -2.106340829958403E-003
 -7.699999999999999E-003   -2.193381957182301E-003
 -7.599999999999999E-003   -2.283502582303874E-003
 -7.499999999999999E-003   -2.376783801124968E-003
 -7.399999999999999E-003   -2.473306749530982E-003
 -7.299999999999999E-003   -2.573153338477776E-003
 -7.199999999999999E-003   -2.676406242889998E-003
 -7.100000000000000E-003   -2.783148454264082E-003
 -6.999999999999999E-003   -2.893463420129127E-003
 -6.899999999999999E-003   -3.007435182493140E-003
 -6.800000000000000E-003   -3.125148544659729E-003
 -6.699999999999999E-003   -3.246688278810074E-003
 -6.599999999999999E-003   -3.372139730234565E-003
 -6.499999999999999E-003   -3.501587929514183E-003
 -6.399999999999999E-003   -3.635118331784733E-003
 -6.299999999999999E-003   -3.772815577236543E-003
 -6.199999999999999E-003   -3.914764516071830E-003
 -6.100000000000000E-003   -4.061048826306364E-003
 -5.999999999999999E-003   -4.211751576911065E-003
 -5.899999999999999E-003   -4.366954634236052E-003
 -5.800000000000000E-003   -4.526737654115785E-003
 -5.699999999999999E-003   -4.691179997940148E-003
 -5.599999999999999E-003   -4.860357834540353E-003
 -5.499999999999999E-003   -5.034345929593105E-003
 -5.399999999999999E-003   -5.213216171408908E-003
 -5.299999999999999E-003   -5.397038366741313E-003
 -5.199999999999999E-003   -5.585878979129006E-003
 -5.099999999999999E-003   -5.779801887079208E-003
 -4.999999999999999E-003   -5.978868068083584E-003
 -4.899999999999999E-003   -6.183134078715988E-003
 -4.799999999999999E-003   -6.392653476785007E-003
 -4.699999999999999E-003   -6.607476162934547E-003
 -4.599999999999999E-003   -6.827646893416617E-003
 -4.499999999999999E-003   -7.053207182667429E-003
 -4.399999999999999E-003   -7.284192878944116E-003
 -4.299999999999999E-003   -7.520635016840472E-003
 -4.199999999999999E-003   -7.762559856686817E-003
 -4.099999999999999E-003   -8.009986827956297E-003
 -3.999999999999999E-003   -8.262928759703938E-003
 -3.899999999999999E-003   -8.521393819685219E-003
 -3.799999999999999E-003   -8.785382119920634E-003
 -3.699999999999999E-003   -9.054885853103061E-003
 -3.599999999999999E-003   -9.329889980831216E-003
 -3.499999999999999E-003   -9.610371216908376E-003
 -3.399999999999999E-003   -9.896297051674361E-003
 -3.299999999999999E-003   -1.018762625612784E-002
 -3.199999999999999E-003   -1.048430781153027E-002
 -3.099999999999999E-003   -1.078627966557295E-002
 -2.999999999999999E-003   -1.109347052390506E-002
 -2.899999999999999E-003   -1.140579660161646E-002
 -2.799999999999999E-003   -1.172316180374728E-002
 -2.699999999999999E-003   -1.204545958676922E-002
 -2.599999999999999E-003   -1.237256949722871E-002
 -2.499999999999999E-003   -1.270435740812436E-002
 -2.399999999999999E-003   -1.304067586067373E-002
 -2.299999999999999E-003   -1.338136153583887E-002
 -2.199999999999999E-003   -1.372623727956349E-002
 -2.099999999999999E-003   -1.407510998086194E-002
 -1.999999999999999E-003   -1.442776879882392E-002
 -1.899999999999999E-003   -1.478398753835458E-002
 -1.799999999999999E-003   -1.514352196283340E-002
 -1.699999999999999E-003   -1.550610849125536E-002
 -1.599999999999999E-003   -1.587146643978905E-002
 -1.499999999999999E-003   -1.623929410880596E-002
 -1.399999999999999E-003   -1.660926952226459E-002
 -1.299999999999999E-003   -1.698105221719170E-002
 -1.199999999999999E-003   -1.735427817529156E-002
 -1.099999999999999E-003   -1.772856285665053E-002
 -9.999999999999989E-004   -1.810349856346929E-002
 -8.999999999999990E-004   -1.847865455755743E-002
 -7.999999999999990E-004   -1.885357752152684E-002
 -6.999999999999989E-004   -1.922778853715169E-002
 -5.999999999999990E-004   -1.960078414825476E-002
 -4.999999999999989E-004   -1.997203340715933E-002
 -3.999999999999989E-004   -2.034098355773921E-002
 -2.999999999999989E-004   -2.070705022363055E-002
 -1.999999999999989E-004   -2.106962325428913E-002
 -9.999999999999892E-005   -2.142806315055040E-002
  1.084202172485504E-018   -2.178170199181893E-002
  1.000000000000011E-004   -2.212984273428402E-002
  2.000000000000011E-004   -2.247175472424751E-002
  3.000000000000011E-004   -2.280667995248996E-002
  4.000000000000011E-004   -2.313382668808831E-002
  5.000000000000011E-004   -2.345237056044863E-002
  6.000000000000011E-004   -2.376145401249632E-002
  7.000000000000011E-004   -2.406018695691460E-002
  8.000000000000011E-004   -2.434764523099340E-002
  9.000000000000012E-004   -2.462287259604617E-002
  1.000000000000001E-003   -2.488487292523071E-002
  1.100000000000001E-003   -2.513262074092916E-002
  1.200000000000001E-003   -2.536505321027726E-002
  1.300000000000001E-003   -2.558107063219470E-002
  1.400000000000001E-003   -2.577953928568874E-002
  1.500000000000001E-003   -2.595928779366681E-002
  1.600000000000001E-003   -2.611910844205876E-002
  1.700000000000001E-003   -2.625775735595284E-002
  1.800000000000001E-003   -2.637395339989739E-002
  1.900000000000001E-003   -2.646637691696220E-002
  2.000000000000001E-003   -2.653367038498319E-002
  2.100000000000001E-003   -2.657444015172379E-002
  2.200000000000001E-003   -2.658725187986518E-002
  2.300000000000001E-003   -2.657063340572016E-002
  2.400000000000001E-003   -2.652307396848644E-002
  2.500000000000001E-003   -2.644302540975399E-002
  2.600000000000001E-003   -2.632890051738025E-002
  2.700000000000001E-003   -2.617907259020718E-002
  2.800000000000001E-003   -2.599187934834607E-002
  2.900000000000001E-003   -2.576561812884530E-002
  3.000000000000001E-003   -2.549855072180141E-002
  3.100000000000001E-003   -2.518890474869449E-002
  3.200000000000001E-003   -2.483486780498122E-002
  3.300000000000001E-003   -2.443459228698473E-002
  3.400000000000001E-003   -2.398619915145399E-002
  3.500000000000001E-003   -2.348777218241966E-002
  3.600000000000001E-003   -2.293736036974173E-002
  3.700000000000001E-003   -2.233298331057607E-002
  3.800000000000001E-003   -2.167262367750420E-002
  3.900000000000001E-003   -2.095424028485056E-002
  4.000000000000001E-003   -2.017575417531978E-002
  4.100000000000001E-003   -1.933505986767248E-002
  4.200000000000001E-003   -1.843002210103327E-002
  4.300000000000001E-003   -1.745848004137162E-002
  4.400000000000001E-003   -1.641824266586448E-002
  4.500000000000001E-003   -1.530709878847992E-002
  4.600000000000002E-003   -1.412280915018916E-002
  4.700000000000001E-003   -1.286311582998221E-002
  4.800000000000001E-003   -1.152573796647969E-002
  4.900000000000002E-003   -1.010837931879339E-002
  5.000000000000001E-003   -8.608722621873966E-003
  5.100000000000001E-003   -7.024437936017503E-003
  5.200000000000001E-003   -5.353180529803497E-003
  5.300000000000002E-003   -3.592598117462994E-003
  5.400000000000001E-003   -1.740326857335358E-003
  5.500000000000001E-003    2.060037051697105E-004
  5.600000000000002E-003    2.248768268477685E-003
  5.700000000000001E-003    4.390342947286367E-003
  5.800000000000001E-003    6.633105751833780E-003
  5.900000000000002E-003    8.979431907565441E-003
  6.000000000000001E-003    1.143168768799957E-002
  6.100000000000001E-003    1.399223521271544E-002
  6.200000000000002E-003    1.666342577179665E-002
  6.300000000000002E-003    1.944760020564729E-002
  6.400000000000001E-003    2.234707643725444E-002
  6.500000000000001E-003    2.536415952767944E-002
  6.600000000000002E-003    2.850112830887458E-002
  6.700000000000001E-003    3.176024002413764E-002
  6.800000000000001E-003    3.514371747925002E-002
  6.900000000000002E-003    3.865376133983441E-002
  7.000000000000001E-003    4.229252225910229E-002
  7.100000000000001E-003    4.606212506275783E-002
  7.200000000000002E-003    4.996464761684201E-002
  7.300000000000002E-003    5.400211773893896E-002
  7.400000000000001E-003    5.817651914586935E-002
  7.500000000000001E-003    6.248978507792209E-002
  7.600000000000002E-003    6.694377755983369E-002
  7.700000000000001E-003    7.154031347305620E-002
  7.800000000000001E-003    7.628113492694032E-002
  7.900000000000001E-003    8.116792373958638E-002
  8.000000000000002E-003    8.620228481423083E-002
  8.100000000000001E-003    9.138575457248818E-002
  8.200000000000001E-003    9.671977722413816E-002
  8.300000000000002E-003    0.102205712798371     
  8.400000000000001E-003    0.107844846537453     
  8.500000000000002E-003    0.113638364166155     
  8.600000000000002E-003    0.119587353741043     
  8.700000000000001E-003    0.125692807840786     
  8.800000000000002E-003    0.131955612824906     
  8.900000000000002E-003    0.138376538820113     
  9.000000000000001E-003    0.144956246446118     
  9.100000000000002E-003    0.151695290396380     
  9.200000000000002E-003    0.158594100789464     
  9.300000000000001E-003    0.165652975172598     
  9.400000000000002E-003    0.172872075232672     
  9.500000000000001E-003    0.180251448537671     
  9.600000000000001E-003    0.187791001957365     
  9.700000000000002E-003    0.195490502492752     
  9.800000000000001E-003    0.203349553025446     
  9.900000000000001E-003    0.211367632975991     
  1.000000000000000E-002    0.219544063743642     
  1.010000000000000E-002    0.227877994429147     
  1.020000000000000E-002    0.236368431471527     
  1.030000000000000E-002    0.245014223023066     
  1.040000000000000E-002    0.253814043417689     
  1.050000000000000E-002    0.262766391890615     
  1.060000000000000E-002    0.271869584154235     
  1.070000000000000E-002    0.281121792366085     
  1.080000000000000E-002    0.290520997424923     
  1.090000000000000E-002    0.300064973243099     
  1.100000000000000E-002    0.309751332772728     
  1.110000000000000E-002    0.319577510438986     
  1.120000000000000E-002    0.329540741567994     
  1.130000000000000E-002    0.339638055326495     
  1.140000000000000E-002    0.349866334474640     
  1.150000000000000E-002    0.360222200199781     
  1.160000000000000E-002    0.370702106020973     
  1.170000000000000E-002    0.381302332851968     
  1.180000000000000E-002    0.392018914811255     
  1.190000000000000E-002    0.402847721830438     
  1.200000000000000E-002    0.413784397920613     
  1.210000000000000E-002    0.424824374090011     
  1.220000000000000E-002    0.435962907217028     
  1.230000000000000E-002    0.447195037732570     
  1.240000000000000E-002    0.458515584410076     
  1.250000000000000E-002    0.469919179270063     
  1.260000000000000E-002    0.481400255289778     
  1.270000000000000E-002    0.492952982019810     
  1.280000000000000E-002    0.504571406064182     
  1.290000000000000E-002    0.516249313745301     
  1.300000000000000E-002    0.527980333622170     
  1.310000000000000E-002    0.539757870241096     
  1.320000000000000E-002    0.551575090283920     
  1.330000000000000E-002    0.563425015139395     
  1.340000000000000E-002    0.575300463643134     
  1.350000000000000E-002    0.587194041276867     
  1.360000000000000E-002    0.599098182009403     
  1.370000000000000E-002    0.611005159218862     
  1.380000000000000E-002    0.622906958409630     
  1.390000000000000E-002    0.634795505813209     
  1.400000000000000E-002    0.646662495368571     
  1.410000000000000E-002    0.658499424098139     
  1.420000000000000E-002    0.670297639213700     
  1.430000000000000E-002    0.682048364109989     
  1.440000000000000E-002    0.693742577148292     
  1.450000000000000E-002    0.705371181530614     
  1.460000000000000E-002    0.716924837540926     
  1.470000000000000E-002    0.728394190502372     
  1.480000000000000E-002    0.739769667399586     
  1.490000000000000E-002    0.751041607426511     
  1.500000000000000E-002    0.762200163276442     
  1.510000000000000E-002    0.773235397587592     
  1.520000000000000E-002    0.784137291934696     
  1.530000000000000E-002    0.794895677365134     
  1.540000000000000E-002    0.805500299576017     
  1.550000000000000E-002    0.815940820195079     
  1.560000000000000E-002    0.826206831834961     
  1.570000000000000E-002    0.836287821294221     
  1.580000000000000E-002    0.846173175261767     
  1.590000000000000E-002    0.855852346786277     
  1.600000000000000E-002    0.865314643786998     
  1.610000000000000E-002    0.874549306328329     
  1.620000000000000E-002    0.883545652875484     
  1.630000000000000E-002    0.892292852034387     
  1.640000000000000E-002    0.900780201652860     
  1.650000000000000E-002    0.908996875039512     
  1.660000000000000E-002    0.916932129755620     
  1.670000000000000E-002    0.924575176023839     
  1.680000000000000E-002    0.931915325155147     
  1.690000000000000E-002    0.938941879382951     
  1.700000000000000E-002    0.945644187447393     
  1.710000000000000E-002    0.952011650858535     
  1.720000000000000E-002    0.958033813473078     
  1.730000000000000E-002    0.963700155415021     
  1.740000000000000E-002    0.969000460255805     
  1.750000000000000E-002    0.973924332547474     
  1.760000000000000E-002    0.978461738139900     
  1.770000000000000E-002    0.982602673822359     
  1.780000000000000E-002    0.986337193784203     
  1.790000000000000E-002    0.989655657845668     
  1.800000000000000E-002    0.992548439716017     
  1.810000000000000E-002    0.995006199843872     
  1.820000000000000E-002    0.997019622899808     
  1.830000000000000E-002    0.998579783250827     
  1.840000000000000E-002    0.999677748817533     
  1.850000000000000E-002     1.00030500628627     
  1.860000000000000E-002     1.00045306157960     
  1.870000000000000E-002     1.00011380667031     