 -4.000000000000000E-002    0.000000000000000E+000
 -3.990000000000000E-002    0.000000000000000E+000
 -3.980000000000000E-002    0.000000000000000E+000
 -3.970000000000000E-002    0.000000000000000E+000
 -3.960000000000000E-002    0.000000000000000E+000
 -3.950000000000000E-002   -7.738236096066242E-022
 -3.940000000000000E-002   -7.952643127810843E-021
 -3.930000000000000E-002   -4.395708841999396E-020
 -3.920000000000000E-002   -1.728428900887191E-019
 -3.910000000000000E-002   -5.399404909716840E-019
 -3.900000000000000E-002   -1.419370808324660E-018
 -3.890000000000000E-002   -3.247573011019243E-018
 -3.880000000000000E-002   -6.601661370362892E-018
 -3.870000000000000E-002   -1.206237041016951E-017
 -3.860000000000000E-002   -1.988993537700273E-017
 -3.850000000000000E-002   -2.944669123159264E-017
 -3.840000000000000E-002   -3.833176850787856E-017
 -3.830000000000000E-002   -4.125797601642394E-017
 -3.820000000000000E-002   -2.880035367316098E-017
 -3.810000000000000E-002    1.372600936546918E-017
 -3.800000000000000E-002    1.068617977087875E-016
 -3.790000000000000E-002    2.765520864833317E-016
 -3.780000000000000E-002    5.520575167816008E-016
 -3.770000000000000E-002    9.616663517157458E-016
 -3.760000000000000E-002    1.525815411629566E-015
 -3.750000000000000E-002    2.247570446654785E-015
 -3.740000000000000E-002    3.100937733343263E-015
 -3.730000000000000E-002    4.018151705821822E-015
 -3.720000000000000E-002    4.877826840687623E-015
 -3.710000000000000E-002    5.496550426733805E-015
 -3.700000000000000E-002    5.626961191485370E-015
 -3.690000000000000E-002    4.965388475063176E-015
 -3.680000000000000E-002    3.171572455929306E-015
 -3.670000000000000E-002   -9.831234035809886E-017
 -3.660000000000000E-002   -5.146133883925762E-015
 -3.650000000000000E-002   -1.217717244874023E-014
 -3.640000000000000E-002   -2.124263848425306E-014
 -3.630000000000000E-002   -3.218806592916608E-014
 -3.620000000000000E-002   -4.461786269160455E-014
 -3.610000000000000E-002   -5.788606531434692E-014
 -3.600000000000000E-002   -7.112080637551537E-014
 -3.590000000000000E-002   -8.328490134526930E-014
 -3.580000000000000E-002   -9.326724175703442E-014
 -3.570000000000000E-002   -9.999059770947466E-014
 -3.560000000000000E-002   -1.025119341264969E-013
 -3.550000000000000E-002   -1.000842892905782E-013
 -3.540000000000000E-002   -9.214606725336253E-014
 -3.530000000000000E-002   -7.820838540398903E-014
 -3.520000000000000E-002   -5.762349217708867E-014
 -3.510000000000000E-002   -2.924068292943305E-014
 -3.500000000000000E-002    9.013438717941916E-015
 -3.490000000000000E-002    6.055710084004089E-014
 -3.480000000000000E-002    1.304683442955149E-013
 -3.470000000000000E-002    2.255560562526714E-013
 -3.460000000000000E-002    3.540376200389509E-013
 -3.450000000000000E-002    5.246871964921348E-013
 -3.440000000000000E-002    7.453617738819285E-013
 -3.430000000000000E-002    1.020890532482308E-012
 -3.420000000000000E-002    1.350419704743536E-012
 -3.410000000000000E-002    1.724437053612501E-012
 -3.400000000000000E-002    2.121837362228516E-012
 -3.390000000000000E-002    2.507505433535562E-012
 -3.380000000000000E-002    2.830985694648697E-012
 -3.370000000000000E-002    3.026810795346036E-012
 -3.360000000000000E-002    3.017003258018363E-012
 -3.350000000000000E-002    2.716087844777025E-012
 -3.340000000000000E-002    2.038692017546903E-012
 -3.330000000000000E-002    9.094729432214333E-013
 -3.320000000000000E-002   -7.252932862463195E-013
 -3.310000000000000E-002   -2.885494978345722E-012
 -3.300000000000000E-002   -5.545712896901208E-012
 -3.290000000000000E-002   -8.626056630224929E-012
 -3.280000000000000E-002   -1.198688664970579E-011
 -3.270000000000000E-002   -1.542881098313477E-011
 -3.260000000000000E-002   -1.869889841013420E-011
 -3.250000000000000E-002   -2.150340969311521E-011
 -3.240000000000000E-002   -2.352656977967228E-011
 -3.230000000000000E-002   -2.445404028069911E-011
 -3.220000000000000E-002   -2.399895817169027E-011
 -3.210000000000000E-002   -2.192785451823676E-011
 -3.200000000000000E-002   -1.808342631892759E-011
 -3.190000000000000E-002   -1.240134943175523E-011
 -3.180000000000000E-002   -4.918835605324600E-012
 -3.170000000000000E-002    4.226291670047418E-012
 -3.160000000000000E-002    1.480589629774676E-011
 -3.150000000000000E-002    2.651955538747378E-011
 -3.140000000000000E-002    3.901722242701809E-011
 -3.130000000000000E-002    5.192224100615207E-011
 -3.120000000000000E-002    6.484989578534620E-011
 -3.110000000000000E-002    7.741673073342632E-011
 -3.100000000000000E-002    8.923713456563000E-011
 -3.090000000000000E-002    9.990539760776689E-011
 -3.080000000000000E-002    1.089642118605273E-010
 -3.070000000000000E-002    1.158636641508553E-010
 -3.060000000000000E-002    1.199179753430834E-010
 -3.050000000000000E-002    1.202695879173419E-010
 -3.040000000000000E-002    1.158720194627386E-010
 -3.030000000000000E-002    1.055030500152746E-010
 -3.020000000000000E-002    8.781799580280704E-011
 -3.010000000000000E-002    6.144942320422359E-011
 -3.000000000000000E-002    2.515415683279112E-011
 -2.990000000000000E-002   -2.199796056029435E-011
 -2.980000000000000E-002   -8.040668633158662E-011
 -2.970000000000000E-002   -1.497152188117212E-010
 -2.960000000000000E-002   -2.286010151856374E-010
 -2.950000000000000E-002   -3.146127732434520E-010
 -2.940000000000000E-002   -4.040829459035945E-010
 -2.930000000000000E-002   -4.921420601553919E-010
 -2.920000000000000E-002   -5.728535640851613E-010
 -2.910000000000000E-002   -6.394780345169138E-010
 -2.900000000000000E-002   -6.848617784488268E-010
 -2.890000000000000E-002   -7.019309825067144E-010
 -2.880000000000000E-002   -6.842580234173857E-010
 -2.870000000000000E-002   -6.266549338407478E-010
 -2.860000000000000E-002   -5.257410058634856E-010
 -2.850000000000000E-002   -3.804279218119771E-010
 -2.840000000000000E-002   -1.922698891177944E-010
 -2.830000000000000E-002    3.436536681205852E-011
 -2.820000000000000E-002    2.923331968919281E-010
 -2.810000000000000E-002    5.719655072650234E-010
 -2.800000000000000E-002    8.615286766573298E-010
 -2.790000000000000E-002    1.147852513119852E-009
 -2.780000000000000E-002    1.417077498564434E-009
 -2.770000000000000E-002    1.655454019763768E-009
 -2.760000000000000E-002    1.850122705244170E-009
 -2.750000000000000E-002    1.989803696937193E-009
 -2.740000000000000E-002    2.065338294044735E-009
 -2.730000000000000E-002    2.070038312090029E-009
 -2.720000000000000E-002    1.999828526392674E-009
 -2.710000000000000E-002    1.853188799183097E-009
 -2.700000000000000E-002    1.630930405126412E-009
 -2.690000000000000E-002    1.335863457500503E-009
 -2.680000000000000E-002    9.724230612473113E-010
 -2.670000000000000E-002    5.463301317960724E-010
 -2.660000000000000E-002    6.435405316179584E-011
 -2.650000000000000E-002   -4.657716606762360E-010
 -2.640000000000000E-002   -1.035256205786224E-009
 -2.630000000000000E-002   -1.633986202109430E-009
 -2.620000000000000E-002   -2.250129225073303E-009
 -2.610000000000000E-002   -2.869676733282766E-009
 -2.600000000000000E-002   -3.476020740363044E-009
 -2.590000000000000E-002   -4.049672526221746E-009
 -2.580000000000000E-002   -4.568228007039972E-009
 -2.570000000000000E-002   -5.006671343632700E-009
 -2.560000000000000E-002   -5.338074780503235E-009
 -2.550000000000000E-002   -5.534716149498203E-009
 -2.540000000000000E-002   -5.569582531235579E-009
 -2.530000000000000E-002   -5.418179410984283E-009
 -2.520000000000000E-002   -5.060520721186262E-009
 -2.510000000000000E-002   -4.483139093674240E-009
 -2.500000000000000E-002   -3.680931154080028E-009
 -2.490000000000000E-002   -2.658654525759548E-009
 -2.480000000000000E-002   -1.431910975172770E-009
 -2.470000000000000E-002   -2.748225797399426E-011
 -2.460000000000000E-002    1.517059105022405E-009
 -2.450000000000000E-002    3.154480565389102E-009
 -2.440000000000000E-002    4.829714155174733E-009
 -2.430000000000000E-002    6.482260974668180E-009
 -2.420000000000000E-002    8.049012839067501E-009
 -2.410000000000000E-002    9.467285048650191E-009
 -2.400000000000000E-002    1.067784394761595E-008
 -2.390000000000000E-002    1.162771134270861E-008
 -2.380000000000000E-002    1.227255789188744E-008
 -2.370000000000000E-002    1.257853808617996E-008
 -2.360000000000000E-002    1.252347334112350E-008
 -2.350000000000000E-002    1.209735886193019E-008
 -2.340000000000000E-002    1.130222709644884E-008
 -2.330000000000000E-002    1.015146009727714E-008
 -2.320000000000000E-002    8.668668341915814E-009
 -2.310000000000000E-002    6.886301222155271E-009
 -2.300000000000000E-002    4.844138701475417E-009
 -2.290000000000000E-002    2.587811256989269E-009
 -2.280000000000000E-002    1.674504216881038E-010
 -2.270000000000000E-002   -2.363451491784762E-009
 -2.260000000000000E-002   -4.948956514758792E-009
 -2.250000000000000E-002   -7.531397532429810E-009
 -2.240000000000000E-002   -1.005195528480846E-008
 -2.230000000000000E-002   -1.245119604987180E-008
 -2.220000000000000E-002   -1.466966520154901E-008
 -2.210000000000000E-002   -1.664865053343534E-008
 -2.200000000000000E-002   -1.833117154263362E-008
 -2.190000000000000E-002   -1.966325899155975E-008
 -2.180000000000000E-002   -2.059551122313417E-008
 -2.170000000000000E-002   -2.108489013013455E-008
 -2.160000000000000E-002   -2.109664755967584E-008
 -2.150000000000000E-002   -2.060627926159045E-008
 -2.140000000000000E-002   -1.960133286398620E-008
 -2.130000000000000E-002   -1.808291774184329E-008
 -2.120000000000000E-002   -1.606676254707666E-008
 -2.110000000000000E-002   -1.358369714340509E-008
 -2.100000000000000E-002   -1.067946319045577E-008
 -2.090000000000000E-002   -7.413827031145241E-009
 -2.080000000000000E-002   -3.858986178716164E-009
 -2.070000000000000E-002   -9.736081093372625E-011
 -2.060000000000000E-002    3.781130867192819E-009
 -2.050000000000000E-002    7.682159212589060E-009
 -2.040000000000000E-002    1.151025717300236E-008
 -2.030000000000000E-002    1.517209991814167E-008
 -2.020000000000000E-002    1.857961858519660E-008
 -2.010000000000000E-002    2.165279796914987E-008
 -2.000000000000000E-002    2.432205140799417E-008
 -1.990000000000000E-002    2.653008417116376E-008
 -1.980000000000000E-002    2.823323226530165E-008
 -1.970000000000000E-002    2.940228695013141E-008
 -1.960000000000000E-002    3.002285838507927E-008
 -1.950000000000000E-002    3.009534125207543E-008
 -1.940000000000000E-002    2.963458480246702E-008
 -1.930000000000000E-002    2.866933114318073E-008
 -1.920000000000000E-002    2.724151841135113E-008
 -1.910000000000000E-002    2.540544482943359E-008
 -1.900000000000000E-002    2.322686315294204E-008
 -1.890000000000000E-002    2.078191596530472E-008
 -1.880000000000000E-002    1.815594290761471E-008
 -1.870000000000000E-002    1.544203334453384E-008
 -1.860000000000000E-002    1.273931326582678E-008
 -1.850000000000000E-002    1.015092382857285E-008
 -1.840000000000000E-002    7.781699011362144E-009
 -1.830000000000000E-002    5.735628959773209E-009
 -1.820000000000000E-002    4.113240805822728E-009
 -1.810000000000000E-002    3.009129258059840E-009
 -1.800000000000000E-002    2.509922531334038E-009
 -1.790000000000000E-002    2.693013546994519E-009
 -1.780000000000000E-002    3.626432913677170E-009
 -1.770000000000000E-002    5.370176731995531E-009
 -1.760000000000000E-002    7.979271217242223E-009
 -1.750000000000000E-002    1.150872476468540E-008
 -1.740000000000000E-002    1.602036639060959E-008
 -1.730000000000000E-002    2.159139543372244E-008
 -1.720000000000000E-002    2.832422689112571E-008
 -1.710000000000000E-002    3.635706216246560E-008
 -1.700000000000000E-002    4.587437249037029E-008
 -1.690000000000000E-002    5.711649803277473E-008
 -1.680000000000000E-002    7.038731076654833E-008
 -1.670000000000000E-002    8.605911375387731E-008
 -1.660000000000000E-002    1.045739749692478E-007
 -1.650000000000000E-002    1.264409396962223E-007
 -1.640000000000000E-002    1.522289368526264E-007
 -1.630000000000000E-002    1.825554031723855E-007
 -1.620000000000000E-002    2.180712232746087E-007
 -1.610000000000000E-002    2.594428498990174E-007
 -1.600000000000000E-002    3.073328829987894E-007
 -1.590000000000000E-002    3.623803484190026E-007
 -1.580000000000000E-002    4.251827402604062E-007
 -1.570000000000000E-002    4.962807761017289E-007
 -1.560000000000000E-002    5.761476189047139E-007
 -1.550000000000000E-002    6.651836460862030E-007
 -1.540000000000000E-002    7.637169804087235E-007
 -1.530000000000000E-002    8.720102348954550E-007
 -1.520000000000000E-002    9.902726888114918E-007
 -1.510000000000000E-002    1.118676920579816E-006
 -1.500000000000000E-002    1.257378537483879E-006
 -1.490000000000000E-002    1.406537169194518E-006
 -1.480000000000000E-002    1.566335800246884E-006
 -1.470000000000000E-002    1.736998282440937E-006
 -1.460000000000000E-002    1.918801963880928E-006
 -1.450000000000000E-002    2.112084467561913E-006
 -1.440000000000000E-002    2.317244235288773E-006
 -1.430000000000000E-002    2.534735191671016E-006
 -1.420000000000000E-002    2.765055909772348E-006
 -1.410000000000000E-002    3.008734633146995E-006
 -1.400000000000000E-002    3.266311887731138E-006
 -1.390000000000000E-002    3.538325240878171E-006
 -1.380000000000000E-002    3.825295192651810E-006
 -1.370000000000000E-002    4.127718014273287E-006
 -1.360000000000000E-002    4.446064383362824E-006
 -1.350000000000000E-002    4.780788256060175E-006
 -1.340000000000000E-002    5.132344657716708E-006
 -1.330000000000000E-002    5.501215954822624E-006
 -1.320000000000000E-002    5.887947775012619E-006
 -1.310000000000000E-002    6.293188941244990E-006
 -1.300000000000000E-002    6.717735752066114E-006
 -1.290000000000000E-002    7.162575290132879E-006
 -1.280000000000000E-002    7.628928074832128E-006
 -1.270000000000000E-002    8.118280852442517E-006
 -1.260000000000000E-002    8.632412583697724E-006
 -1.250000000000000E-002    9.173408886521111E-006
 -1.240000000000000E-002    9.743661062165216E-006
 -1.230000000000000E-002    1.034585528272506E-005
 -1.220000000000000E-002    1.098294961156890E-005
 -1.210000000000000E-002    1.165813618250512E-005
 -1.200000000000000E-002    1.237480138613965E-005
 -1.190000000000000E-002    1.313647780475605E-005
 -1.180000000000000E-002    1.394679575581090E-005
 -1.170000000000000E-002    1.480943909763933E-005
 -1.160000000000000E-002    1.572810487216202E-005
 -1.150000000000000E-002    1.670647738756746E-005
 -1.140000000000000E-002    1.774820980558257E-005
 -1.130000000000000E-002    1.885691888455583E-005
 -1.120000000000000E-002    2.003620067395268E-005
 -1.110000000000000E-002    2.128964753355412E-005
 -1.100000000000000E-002    2.262088726669527E-005
 -1.090000000000000E-002    2.403363011200290E-005
 -1.080000000000000E-002    2.553171776589017E-005
 -1.070000000000000E-002    2.711917646296268E-005
 -1.060000000000000E-002    2.880027519666706E-005
 -1.050000000000000E-002    3.057956821250378E-005
 -1.040000000000000E-002    3.246193946636423E-005
 -1.030000000000000E-002    3.445263835662345E-005
 -1.020000000000000E-002    3.655728792640507E-005
 -1.010000000000000E-002    3.878190088370519E-005
 -1.000000000000000E-002    4.113286907112822E-005
 -9.899999999999999E-003    4.361694206007150E-005
 -9.800000000000000E-003    4.624120344782280E-005
 -9.699999999999999E-003    4.901302838455866E-005
 -9.599999999999999E-003    5.194004137284654E-005
 -9.500000000000000E-003    5.503008406232807E-005
 -9.399999999999999E-003    5.829116332917907E-005
 -9.299999999999999E-003    6.173143530372184E-005
 -9.200000000000000E-003    6.535915988977515E-005
 -9.099999999999999E-003    6.918271887397459E-005
 -8.999999999999999E-003    7.321060023886618E-005
 -8.900000000000000E-003    7.745142448336996E-005
 -8.799999999999999E-003    8.191398113276130E-005
 -8.699999999999999E-003    8.660727009757378E-005
 -8.600000000000000E-003    9.154057287819975E-005
 -8.499999999999999E-003    9.672350788765560E-005
 -8.399999999999999E-003    1.021661273204159E-004
 -8.300000000000000E-003    1.078789775961750E-004
 -8.199999999999999E-003    1.138731949162700E-004
 -8.100000000000000E-003    1.201605454884300E-004
 -8.000000000000000E-003    1.267535338930420E-004
 -7.899999999999999E-003    1.336654003257207E-004
 -7.800000000000000E-003    1.409102195863050E-004
 -7.699999999999999E-003    1.485028738225698E-004
 -7.599999999999999E-003    1.564591267695381E-004
 -7.499999999999999E-003    1.647955797438730E-004
 -7.399999999999999E-003    1.735296974342870E-004
 -7.299999999999999E-003    1.826798046785633E-004
 -7.199999999999999E-003    1.922650607109563E-004
 -7.100000000000000E-003    2.023054863305624E-004
 -6.999999999999999E-003    2.128219323249049E-004
 -6.899999999999999E-003    2.238361236903398E-004
 -6.800000000000000E-003    2.353706797820903E-004
 -6.699999999999999E-003    2.474491519972861E-004
 -6.599999999999999E-003    2.600960508217014E-004
 -6.499999999999999E-003    2.733369890771033E-004
 -6.399999999999999E-003    2.871986830533117E-004
 -6.299999999999999E-003    3.017090842528950E-004
 -6.199999999999999E-003    3.168974610244904E-004
 -6.100000000000000E-003    3.327944428324341E-004
 -5.999999999999999E-003    3.494321652633477E-004
 -5.899999999999999E-003    3.668443479337191E-004
 -5.800000000000000E-003    3.850662746480122E-004
 -5.699999999999999E-003    4.041349211112480E-004
 -5.599999999999999E-003    4.240889425733892E-004
 -5.499999999999999E-003    4.449686856038676E-004
 -5.399999999999999E-003    4.668161423731868E-004
 -5.299999999999999E-003    4.896750050595677E-004
 -5.199999999999999E-003    5.135905504535922E-004
 -5.099999999999999E-003    5.386096358829238E-004
 -4.999999999999999E-003    5.647806081770592E-004
 -4.899999999999999E-003    5.921532264307800E-004
 -4.799999999999999E-003    6.207787640873489E-004
 -4.699999999999999E-003    6.507098327118277E-004
 -4.599999999999999E-003    6.820003814186695E-004
 -4.499999999999999E-003    7.147057935963620E-004
 -4.399999999999999E-003    7.488827649034700E-004
 -4.299999999999999E-003    7.845895308978162E-004
 -4.199999999999999E-003    8.218856465888146E-004
 -4.099999999999999E-003    8.608323107815331E-004
 -3.999999999999999E-003    9.014922870851200E-004
 -3.899999999999999E-003    9.439300375799446E-004
 -3.799999999999999E-003    9.882118379243394E-004
 -3.699999999999999E-003    1.034405836736700E-003
 -3.599999999999999E-003    1.082582098748363E-003
 -3.499999999999999E-003    1.132812577316258E-003
 -3.399999999999999E-003    1.185171467888563E-003
 -3.299999999999999E-003    1.239734978636318E-003
 -3.199999999999999E-003    1.296581467623124E-003
 -3.099999999999999E-003    1.355791532390895E-003
 -2.999999999999999E-003    1.417447975843174E-003
 -2.899999999999999E-003    1.481635786217046E-003
 -2.799999999999999E-003    1.548442185188953E-003
 -2.699999999999999E-003    1.617956634692662E-003
 -2.599999999999999E-003    1.690270898482971E-003
 -2.499999999999999E-003    1.765478886337986E-003
 -2.399999999999999E-003    1.843676976832150E-003
 -2.299999999999999E-003    1.924963795130700E-003
 -2.199999999999999E-003    2.009440395778643E-003
 -2.099999999999999E-003    2.097210343249824E-003
 -1.999999999999999E-003    2.188379541465503E-003
 -1.899999999999999E-003    2.283056340585552E-003
 -1.799999999999999E-003    2.381352036439022E-003
 -1.699999999999999E-003    2.483380184440727E-003
 -1.599999999999999E-003    2.589257263023819E-003
 -1.499999999999999E-003    2.699102560830040E-003
 -1.399999999999999E-003    2.813038495916533E-003
 -1.299999999999999E-003    2.931189889592341E-003
 -1.199999999999999E-003    3.053685119651442E-003
 -1.099999999999999E-003    3.180655770379182E-003
 -9.999999999999989E-004    3.312236493364479E-003
 -8.999999999999990E-004    3.448565630464053E-003
 -7.999999999999990E-004    3.589784552619734E-003
 -6.999999999999989E-004    3.736038876811184E-003
 -5.999999999999990E-004    3.887477792939597E-003
 -4.999999999999989E-004    4.044253660625705E-003
 -3.999999999999989E-004    4.206523526685178E-003
 -2.999999999999989E-004    4.374448301597686E-003
 -1.999999999999989E-004    4.548192337623627E-003
 -9.999999999999892E-005    4.727924169756354E-003
  1.084202172485504E-018    4.913816546381456E-003
  1.000000000000011E-004    5.106046375644097E-003
  2.000000000000011E-004    5.304794649952401E-003
  3.000000000000011E-004    5.510246014612412E-003
  4.000000000000011E-004    5.722589483125882E-003
  5.000000000000011E-004    5.942018353526846E-003
  6.000000000000011E-004    6.168729565789689E-003
  7.000000000000011E-004    6.402924680552001E-003
  8.000000000000011E-004    6.644808727896756E-003
  9.000000000000012E-004    6.894591268020338E-003
  1.000000000000001E-003    7.152485478039661E-003
  1.100000000000001E-003    7.418709338854867E-003
  1.200000000000001E-003    7.693484022592613E-003
  1.300000000000001E-003    7.977034988486400E-003
  1.400000000000001E-003    8.269591536616333E-003
  1.500000000000001E-003    8.571386999078435E-003
  1.600000000000001E-003    8.882657293280924E-003
  1.700000000000001E-003    9.203643651462621E-003
  1.800000000000001E-003    9.534590091212549E-003
  1.900000000000001E-003    9.875744536453436E-003
  2.000000000000001E-003    1.022735802971599E-002
  2.100000000000001E-003    1.058968475469388E-002
  2.200000000000001E-003    1.096298301174880E-002
  2.300000000000001E-003    1.134751391489325E-002
  2.400000000000001E-003    1.174354189790869E-002
  2.500000000000001E-003    1.215133395310495E-002
  2.600000000000001E-003    1.257116277444906E-002
  2.700000000000001E-003    1.300330175383685E-002
  2.800000000000001E-003    1.344802869923008E-002
  2.900000000000001E-003    1.390562449290934E-002
  3.000000000000001E-003    1.437637319439562E-002
  3.100000000000001E-003    1.486056121538373E-002
  3.200000000000001E-003    1.535847797215118E-002
  3.300000000000001E-003    1.587041654631367E-002
  3.400000000000001E-003    1.639666971132283E-002
  3.500000000000001E-003    1.693753605602076E-002
  3.600000000000001E-003    1.749331375959209E-002
  3.700000000000001E-003    1.806430279978861E-002
  3.800000000000001E-003    1.865080761516789E-002
  3.900000000000001E-003    1.925313258028911E-002
  4.000000000000001E-003    1.987158541287731E-002
  4.100000000000001E-003    2.050647208310347E-002
  4.200000000000001E-003    2.115810371228985E-002
  4.300000000000001E-003    2.182679104407705E-002
  4.400000000000001E-003    2.251284920083415E-002
  4.500000000000001E-003    2.321659122129333E-002
  4.600000000000002E-003    2.393833317189388E-002
  4.700000000000001E-003    2.467839448367955E-002
  4.800000000000001E-003    2.543709468557679E-002
  4.900000000000002E-003    2.621475629366000E-002
  5.000000000000001E-003    2.701170157848724E-002
  5.100000000000001E-003    2.782825384636958E-002
  5.200000000000001E-003    2.866473850852430E-002
  5.300000000000002E-003    2.952148074913206E-002
  5.400000000000001E-003    3.039880583133885E-002
  5.500000000000001E-003    3.129703972298765E-002
  5.600000000000002E-003    3.221650833642311E-002
  5.700000000000001E-003    3.315753608202753E-002
  5.800000000000001E-003    3.412044622262808E-002
  5.900000000000002E-003    3.510556291775286E-002
  6.000000000000001E-003    3.611320545330936E-002
  6.100000000000001E-003    3.714369360669865E-002
  6.200000000000002E-003    3.819734467415339E-002
  6.300000000000002E-003    3.927447325678009E-002
  6.400000000000001E-003    4.037539550745840E-002
  6.500000000000001E-003    4.150042094092727E-002
  6.600000000000002E-003    4.264986215472242E-002
  6.700000000000001E-003    4.382402338800809E-002
  6.800000000000001E-003    4.502320925182716E-002
  6.900000000000002E-003    4.624772490372885E-002
  7.000000000000001E-003    4.749786389229276E-002
  7.100000000000001E-003    4.877392458886562E-002
  7.200000000000002E-003    5.007620207095970E-002
  7.300000000000002E-003    5.140497946223516E-002
  7.400000000000001E-003    5.276054460110222E-002
  7.500000000000001E-003    5.414317789285805E-002
  7.600000000000002E-003    5.555315295776679E-002
  7.700000000000001E-003    5.699074071458587E-002
  7.800000000000001E-003    5.845620291889882E-002
  7.900000000000001E-003    5.994979838154012E-002
  8.000000000000002E-003    6.147177200320370E-002
  8.100000000000001E-003    6.302237198574340E-002
  8.200000000000001E-003    6.460182863564355E-002
  8.300000000000002E-003    6.621035984041804E-002
  8.400000000000001E-003    6.784818713661103E-002
  8.500000000000002E-003    6.951551896668787E-002
  8.600000000000002E-003    7.121254685033872E-002
  8.700000000000001E-003    7.293946045502910E-002
  8.800000000000002E-003    7.469643410016004E-002
  8.900000000000002E-003    7.648362602399751E-002
  9.000000000000001E-003    7.830118869234635E-002
  9.100000000000002E-003    8.014926099470551E-002
  9.200000000000002E-003    8.202796696466844E-002
  9.300000000000001E-003    8.393741502123848E-002
  9.400000000000002E-003    8.587771150066986E-002
  9.500000000000001E-003    8.784893998174365E-002
  9.600000000000001E-003    8.985116728822612E-002
  9.700000000000002E-003    9.188445214884566E-002
  9.800000000000001E-003    9.394884118346059E-002
  9.900000000000001E-003    9.604435070408583E-002
  1.000000000000000E-002    9.817098717266332E-002
  1.010000000000000E-002    0.100328742499943     
  1.020000000000000E-002    0.102517582590256     
  1.030000000000000E-002    0.104737458202655     
  1.040000000000000E-002    0.106988298529368     
  1.050000000000000E-002    0.109270017464029     
  1.060000000000000E-002    0.111582498726283     
  1.070000000000000E-002    0.113925608655412     
  1.080000000000000E-002    0.116299191719865     
  1.090000000000000E-002    0.118703067095969     
  1.100000000000000E-002    0.121137020804156     
  1.110000000000000E-002    0.123600824126843     
  1.120000000000000E-002    0.126094210331043     
  1.130000000000000E-002    0.128616900002114     
  1.140000000000000E-002    0.131168569707422     
  1.150000000000000E-002    0.133748889652033     
  1.160000000000000E-002    0.136357481358970     
  1.170000000000000E-002    0.138993937656294     
  1.180000000000000E-002    0.141657815950961     
  1.190000000000000E-002    0.144348634479423     
  1.200000000000000E-002    0.147065900790096     
  1.210000000000000E-002    0.149809070717211     
  1.220000000000000E-002    0.152577566305093     
  1.230000000000000E-002    0.155370763012943     
  1.240000000000000E-002    0.158188001740314     
  1.250000000000000E-002    0.161028570850859     
  1.260000000000000E-002    0.163891744997963     
  1.270000000000000E-002    0.166776721806952     
  1.280000000000000E-002    0.169682677546064     
  1.290000000000000E-002    0.172608735362386     
  1.300000000000000E-002    0.175553960485794     
  1.310000000000000E-002    0.178517387461620     
  1.320000000000000E-002    0.181497990013162     
  1.330000000000000E-002    0.184494690803266     
  1.340000000000000E-002    0.187506357033475     
  1.350000000000000E-002    0.190531810348363     
  1.360000000000000E-002    0.193569805886835     
  1.370000000000000E-002    0.196619036339790     
  1.380000000000000E-002    0.199678154315995     
  1.390000000000000E-002    0.202745732212296     
  1.400000000000000E-002    0.205820292784087     
  1.410000000000000E-002    0.208900287978824     
  1.420000000000000E-002    0.211984108721075     
  1.430000000000000E-002    0.215070068707527     
  1.440000000000000E-002    0.218156437812642     
  1.450000000000000E-002    0.221241380257684     
  1.460000000000000E-002    0.224323004021077     
  1.470000000000000E-002    0.227399347499997     
  1.480000000000000E-002    0.230468358940984     
  1.490000000000000E-002    0.233527919089970     
  1.500000000000000E-002    0.236575841540163     
  1.510000000000000E-002    0.239609843578132     
  1.520000000000000E-002    0.242627548292597     
  1.530000000000000E-002    0.245626527850356     
  1.540000000000000E-002    0.248604243963673     
  1.550000000000000E-002    0.251558082969651     
  1.560000000000000E-002    0.254485327470539     
  1.570000000000000E-002    0.257383187719094     
  1.580000000000000E-002    0.260248790572072     
  1.590000000000000E-002    0.263079148059399     
  1.600000000000000E-002    0.265871167222573     
  1.610000000000000E-002    0.268621712260655     
  1.620000000000000E-002    0.271327496794099     
  1.630000000000000E-002    0.273985134840566     
  1.640000000000000E-002    0.276591190302508     
  1.650000000000000E-002    0.279142100041706     
  1.660000000000000E-002    0.281634190619206     
  1.670000000000000E-002    0.284063696972974     
  1.680000000000000E-002    0.286426744416427     
  1.690000000000000E-002    0.288719377861939     
  1.700000000000000E-002    0.290937500510131     
  1.710000000000000E-002    0.293076965777897     
  1.720000000000000E-002    0.295133472283648     
  1.730000000000000E-002    0.297102619536287     
  1.740000000000000E-002    0.298979918671308     
  1.750000000000000E-002    0.300760800208173     
  1.760000000000000E-002    0.302440541192669     
  1.770000000000000E-002    0.304014361788974     
  1.780000000000000E-002    0.305477337086673     
  1.790000000000000E-002    0.306824418282717     
  1.800000000000000E-002    0.308050532141338     
  1.810000000000000E-002    0.309150435464673     
  1.820000000000000E-002    0.310118802006801     
  1.830000000000000E-002    0.310950200249167     
  1.840000000000000E-002    0.311639138608424     
  1.850000000000000E-002    0.312179931846762     
  1.860000000000000E-002    0.312566901382810     
  1.870000000000000E-002    0.312794204873271     