 -4.000000000000000E-002    0.000000000000000E+000
 -3.990000000000000E-002    0.000000000000000E+000
 -3.980000000000000E-002    0.000000000000000E+000
 -3.970000000000000E-002    0.000000000000000E+000
 -3.960000000000000E-002    0.000000000000000E+000
 -3.950000000000000E-002    0.000000000000000E+000
 -3.940000000000000E-002    0.000000000000000E+000
 -3.930000000000000E-002    0.000000000000000E+000
 -3.920000000000000E-002    0.000000000000000E+000
 -3.910000000000000E-002    8.030039913752863E-033
 -3.900000000000000E-002    1.660420643711285E-031
 -3.890000000000000E-002    1.768383606773300E-030
 -3.880000000000000E-002    1.290802877026720E-029
 -3.870000000000000E-002    7.250369427498471E-029
 -3.860000000000000E-002    3.335911374461529E-028
 -3.850000000000000E-002    1.306755909834466E-027
 -3.840000000000000E-002    4.471690463323826E-027
 -3.830000000000000E-002    1.360745592328895E-026
 -3.820000000000000E-002    3.728036610354984E-026
 -3.810000000000000E-002    9.270999066408543E-026
 -3.800000000000000E-002    2.101916430344203E-025
 -3.790000000000000E-002    4.345375455027169E-025
 -3.780000000000000E-002    8.144882994584060E-025
 -3.770000000000000E-002    1.361692436299256E-024
 -3.760000000000000E-002    1.947438525208856E-024
 -3.750000000000000E-002    2.089787871254532E-024
 -3.740000000000000E-002    5.719032856746142E-025
 -3.730000000000000E-002   -5.164279087146352E-024
 -3.720000000000000E-002   -1.986798010807350E-023
 -3.710000000000000E-002   -5.149730635537929E-023
 -3.700000000000000E-002   -1.121506325068801E-022
 -3.690000000000000E-002   -2.183769477424215E-022
 -3.680000000000000E-002   -3.899524626657695E-022
 -3.670000000000000E-002   -6.457811443935878E-022
 -3.660000000000000E-002   -9.952052303782938E-022
 -3.650000000000000E-002   -1.422886695933372E-021
 -3.640000000000000E-002   -1.865813393776074E-021
 -3.630000000000000E-002   -2.182221709427996E-021
 -3.620000000000000E-002   -2.114642177570004E-021
 -3.610000000000000E-002   -1.253089491903959E-021
 -3.600000000000000E-002    9.903792856783234E-022
 -3.590000000000000E-002    5.378361621750805E-021
 -3.580000000000000E-002    1.279257837445233E-020
 -3.570000000000000E-002    2.409828467288265E-020
 -3.560000000000000E-002    3.990053505509632E-020
 -3.550000000000000E-002    6.017099379378419E-020
 -3.540000000000000E-002    8.374065162179108E-020
 -3.530000000000000E-002    1.076827640974480E-019
 -3.520000000000000E-002    1.266523727921777E-019
 -3.510000000000000E-002    1.323022465278257E-019
 -3.500000000000000E-002    1.129546767219292E-019
 -3.490000000000000E-002    5.376467186560663E-020
 -3.480000000000000E-002   -6.235066075169253E-020
 -3.470000000000000E-002   -2.527375160940019E-019
 -3.460000000000000E-002   -5.317553332677416E-019
 -3.450000000000000E-002   -9.061419696664865E-019
 -3.440000000000000E-002   -1.369087831033907E-018
 -3.430000000000000E-002   -1.893401952190060E-018
 -3.420000000000000E-002   -2.424512101903957E-018
 -3.410000000000000E-002   -2.874441977823634E-018
 -3.400000000000000E-002   -3.118290763062895E-018
 -3.390000000000000E-002   -2.995039654395334E-018
 -3.380000000000000E-002   -2.314635146687777E-018
 -3.370000000000000E-002   -8.731576721574071E-019
 -3.360000000000000E-002    1.522597963837573E-018
 -3.350000000000000E-002    5.020692725364247E-018
 -3.340000000000000E-002    9.680620123795318E-018
 -3.330000000000000E-002    1.542341471193837E-017
 -3.320000000000000E-002    2.197971867839599E-017
 -3.310000000000000E-002    2.884222192918724E-017
 -3.300000000000000E-002    3.523065002182020E-017
 -3.290000000000000E-002    4.007876315582059E-017
 -3.280000000000000E-002    4.205330330972476E-017
 -3.270000000000000E-002    3.961416044068391E-017
 -3.260000000000000E-002    3.112306111938519E-017
 -3.250000000000000E-002    1.500462000337429E-017
 -3.240000000000000E-002   -1.004134097897260E-017
 -3.230000000000000E-002   -4.478347306684624E-017
 -3.220000000000000E-002   -8.917299586332774E-017
 -3.210000000000000E-002   -1.420501148657049E-016
 -3.200000000000000E-002   -2.008720958928726E-016
 -3.190000000000000E-002   -2.614985312410863E-016
 -3.180000000000000E-002   -3.180741296406347E-016
 -3.170000000000000E-002   -3.630511886802590E-016
 -3.160000000000000E-002   -3.873928898889191E-016
 -3.150000000000000E-002   -3.809930278274079E-016
 -3.140000000000000E-002   -3.333384475009508E-016
 -3.130000000000000E-002   -2.344248382544161E-016
 -3.120000000000000E-002   -7.591714695683761E-017
 -3.110000000000000E-002    1.474800958732369E-016
 -3.100000000000000E-002    4.365074597605503E-016
 -3.090000000000000E-002    7.857893328183830E-016
 -3.080000000000000E-002    1.182362070616961E-015
 -3.070000000000000E-002    1.604462335303909E-015
 -3.060000000000000E-002    2.020777973830226E-015
 -3.050000000000000E-002    2.390384217977932E-015
 -3.040000000000000E-002    2.663593824768654E-015
 -3.030000000000000E-002    2.783932771078178E-015
 -3.020000000000000E-002    2.691406216234795E-015
 -3.010000000000000E-002    2.327137470761429E-015
 -3.000000000000000E-002    1.639346736383657E-015
 -2.990000000000000E-002    5.904757541788867E-016
 -2.980000000000000E-002   -8.349169724423291E-016
 -2.970000000000000E-002   -2.622074293048012E-015
 -2.960000000000000E-002   -4.718554901091526E-015
 -2.950000000000000E-002   -7.028304215451020E-015
 -2.940000000000000E-002   -9.408357579639489E-015
 -2.930000000000000E-002   -1.166927692003957E-014
 -2.920000000000000E-002   -1.358032063776567E-014
 -2.910000000000000E-002   -1.488010918213682E-014
 -2.900000000000000E-002   -1.529314312540422E-014
 -2.890000000000000E-002   -1.455197965702717E-014
 -2.880000000000000E-002   -1.242419890129575E-014
 -2.870000000000000E-002   -8.742547744529032E-015
 -2.860000000000000E-002   -3.435900408854984E-015
 -2.850000000000000E-002    3.441956141759129E-015
 -2.840000000000000E-002    1.168917064755204E-014
 -2.830000000000000E-002    2.094189919176580E-014
 -2.820000000000000E-002    3.067295672507779E-014
 -2.810000000000000E-002    4.020574268624966E-014
 -2.800000000000000E-002    4.874499576454056E-014
 -2.790000000000000E-002    5.542441129628556E-014
 -2.780000000000000E-002    5.936938029679477E-014
 -2.770000000000000E-002    5.977109678867737E-014
 -2.760000000000000E-002    5.596653796389776E-014
 -2.750000000000000E-002    4.751718281099625E-014
 -2.740000000000000E-002    3.427853917812244E-014
 -2.730000000000000E-002    1.645224021316918E-014
 -2.720000000000000E-002   -5.386613594726073E-015
 -2.710000000000000E-002   -3.029252372331935E-014
 -2.700000000000000E-002   -5.698606312842288E-014
 -2.690000000000000E-002   -8.392341755549405E-014
 -2.680000000000000E-002   -1.093948809039612E-013
 -2.670000000000000E-002   -1.316446710867382E-013
 -2.660000000000000E-002   -1.490012500022530E-013
 -2.650000000000000E-002   -1.600052084757222E-013
 -2.640000000000000E-002   -1.635212259398571E-013
 -2.630000000000000E-002   -1.588214807905189E-013
 -2.620000000000000E-002   -1.456307812657648E-013
 -2.610000000000000E-002   -1.241279760471308E-013
 -2.600000000000000E-002   -9.490364059679340E-014
 -2.590000000000000E-002   -5.888023428010150E-014
 -2.580000000000000E-002   -1.720660699256029E-014
 -2.570000000000000E-002    2.885665038663275E-014
 -2.560000000000000E-002    7.804170183307298E-014
 -2.550000000000000E-002    1.291486661317928E-013
 -2.540000000000000E-002    1.810752787637688E-013
 -2.530000000000000E-002    2.327906077422558E-013
 -2.520000000000000E-002    2.832511665057731E-013
 -2.510000000000000E-002    3.312678532280265E-013
 -2.500000000000000E-002    3.753425394700340E-013
 -2.490000000000000E-002    4.135028022063335E-013
 -2.480000000000000E-002    4.431698157218899E-013
 -2.470000000000000E-002    4.610966981224902E-013
 -2.460000000000000E-002    4.634124199986087E-013
 -2.450000000000000E-002    4.457971397273006E-013
 -2.440000000000000E-002    4.038015398548784E-013
 -2.430000000000000E-002    3.333038176351465E-013
 -2.420000000000000E-002    2.310776033542482E-013
 -2.410000000000000E-002    9.542231830568338E-014
 -2.400000000000000E-002   -7.321008616425175E-014
 -2.390000000000000E-002   -2.716711600918862E-013
 -2.380000000000000E-002   -4.937380195263778E-013
 -2.370000000000000E-002   -7.299794710764093E-013
 -2.360000000000000E-002   -9.679271253836925E-013
 -2.350000000000000E-002   -1.192586867263750E-012
 -2.340000000000000E-002   -1.387289922952793E-012
 -2.330000000000000E-002   -1.534844356102787E-012
 -2.320000000000000E-002   -1.618906977952995E-012
 -2.310000000000000E-002   -1.625459852839289E-012
 -2.300000000000000E-002   -1.544249608961677E-012
 -2.290000000000000E-002   -1.370035020283940E-012
 -2.280000000000000E-002   -1.103493758905425E-012
 -2.270000000000000E-002   -7.516608386843335E-013
 -2.260000000000000E-002   -3.278127491910632E-013
 -2.250000000000000E-002    1.492342774839717E-013
 -2.240000000000000E-002    6.563795477998240E-013
 -2.230000000000000E-002    1.167949014004056E-012
 -2.220000000000000E-002    1.657702038958188E-012
 -2.210000000000000E-002    2.100931134787927E-012
 -2.200000000000000E-002    2.476422101183599E-012
 -2.190000000000000E-002    2.768045294819782E-012
 -2.180000000000000E-002    2.965778448477264E-012
 -2.170000000000000E-002    3.066013927274467E-012
 -2.160000000000000E-002    3.071087350749517E-012
 -2.150000000000000E-002    2.988056384279613E-012
 -2.140000000000000E-002    2.826861297688542E-012
 -2.130000000000000E-002    2.598086710663959E-012
 -2.120000000000000E-002    2.310622768171384E-012
 -2.110000000000000E-002    1.969563718045746E-012
 -2.100000000000000E-002    1.574684925261706E-012
 -2.090000000000000E-002    1.119803314100350E-012
 -2.080000000000000E-002    5.932399069373789E-013
 -2.070000000000000E-002   -2.051555641992072E-014
 -2.060000000000000E-002   -7.379831114350295E-013
 -2.050000000000000E-002   -1.572921670783460E-012
 -2.040000000000000E-002   -2.531965470484318E-012
 -2.030000000000000E-002   -3.610154910771437E-012
 -2.020000000000000E-002   -4.786933404961466E-012
 -2.010000000000000E-002   -6.023208502305324E-012
 -2.000000000000000E-002   -7.260036574335903E-012
 -1.990000000000000E-002   -8.419383752428353E-012
 -1.980000000000000E-002   -9.407236004314162E-012
 -1.970000000000000E-002   -1.011910704223228E-011
 -1.960000000000000E-002   -1.044773517710390E-011
 -1.950000000000000E-002   -1.029248189614633E-011
 -1.940000000000000E-002   -9.569716481518708E-012
 -1.930000000000000E-002   -8.223247554775528E-012
 -1.920000000000000E-002   -6.233762136064087E-012
 -1.910000000000000E-002   -3.626201977158603E-012
 -1.900000000000000E-002   -4.740873236959687E-013
 -1.890000000000000E-002    3.099998866639947E-012
 -1.880000000000000E-002    6.928253516122918E-012
 -1.870000000000000E-002    1.080592831370484E-011
 -1.860000000000000E-002    1.450371725009340E-011
 -1.850000000000000E-002    1.778349798724773E-011
 -1.840000000000000E-002    2.041624695882440E-011
 -1.830000000000000E-002    2.220065144737580E-011
 -1.820000000000000E-002    2.298073010450987E-011
 -1.810000000000000E-002    2.266071767642592E-011
 -1.800000000000000E-002    2.121561384086287E-011
 -1.790000000000000E-002    1.869609830395860E-011
 -1.780000000000000E-002    1.522696642582438E-011
 -1.770000000000000E-002    1.099886495878450E-011
 -1.760000000000000E-002    6.253723419889528E-012
 -1.750000000000000E-002    1.265010422666892E-012
 -1.740000000000000E-002   -3.685484218382654E-012
 -1.730000000000000E-002   -8.332127756546423E-012
 -1.720000000000000E-002   -1.244871882850216E-011
 -1.710000000000000E-002   -1.586801470394598E-011
 -1.700000000000000E-002   -1.849525315495305E-011
 -1.690000000000000E-002   -2.031389345599631E-011
 -1.680000000000000E-002   -2.138258295673239E-011
 -1.670000000000000E-002   -2.182326135531908E-011
 -1.660000000000000E-002   -2.180134177066292E-011
 -1.650000000000000E-002   -2.149995406771806E-011
 -1.640000000000000E-002   -2.109102666998259E-011
 -1.630000000000000E-002   -2.070665208002970E-011
 -1.620000000000000E-002   -2.041440742930151E-011
 -1.610000000000000E-002   -2.020015502313506E-011
 -1.600000000000000E-002   -1.996124896857129E-011
 -1.590000000000000E-002   -1.951204734118501E-011
 -1.580000000000000E-002   -1.860231524095271E-011
 -1.570000000000000E-002   -1.694748936084060E-011
 -1.560000000000000E-002   -1.426823007641161E-011
 -1.550000000000000E-002   -1.033518414731143E-011
 -1.540000000000000E-002   -5.013796521276721E-012
 -1.530000000000000E-002    1.696586365084802E-012
 -1.520000000000000E-002    9.635104112054992E-012
 -1.510000000000000E-002    1.846818430120224E-011
 -1.500000000000000E-002    2.769832306872549E-011
 -1.490000000000000E-002    3.669438106613285E-011
 -1.480000000000000E-002    4.474232180421242E-011
 -1.470000000000000E-002    5.111291933802212E-011
 -1.460000000000000E-002    5.514029185572337E-011
 -1.450000000000000E-002    5.630316536666197E-011
 -1.440000000000000E-002    5.429951111287143E-011
 -1.430000000000000E-002    4.910483777796255E-011
 -1.420000000000000E-002    4.100534460474790E-011
 -1.410000000000000E-002    3.059901660041067E-011
 -1.400000000000000E-002    1.876090384021815E-011
 -1.390000000000000E-002    6.572501733397447E-012
 -1.380000000000000E-002   -4.780582285755529E-012
 -1.370000000000000E-002   -1.413426544852742E-011
 -1.360000000000000E-002   -2.048300474039716E-011
 -1.350000000000000E-002   -2.311360534648397E-011
 -1.340000000000000E-002   -2.172009179544040E-011
 -1.330000000000000E-002   -1.648449150411981E-011
 -1.320000000000000E-002   -8.110695965878652E-012
 -1.310000000000000E-002    2.197282565044141E-012
 -1.300000000000000E-002    1.281596294828908E-011
 -1.290000000000000E-002    2.183899852220144E-011
 -1.280000000000000E-002    2.726002733115268E-011
 -1.270000000000000E-002    2.718632012984529E-011
 -1.260000000000000E-002    2.006278695702402E-011
 -1.250000000000000E-002    4.883268839189834E-012
 -1.240000000000000E-002   -1.863454321690932E-011
 -1.230000000000000E-002   -4.993213246909001E-011
 -1.220000000000000E-002   -8.756776751281433E-011
 -1.210000000000000E-002   -1.292586583624168E-010
 -1.200000000000000E-002   -1.720090353251105E-010
 -1.190000000000000E-002   -2.123164242499885E-010
 -1.180000000000000E-002   -2.464395979108807E-010
 -1.170000000000000E-002   -2.707042536256033E-010
 -1.160000000000000E-002   -2.818172385497565E-010
 -1.150000000000000E-002   -2.771582164902046E-010
 -1.140000000000000E-002   -2.550187014668576E-010
 -1.130000000000000E-002   -2.147635923415137E-010
 -1.120000000000000E-002   -1.568978170392086E-010
 -1.110000000000000E-002   -8.303113561411091E-011
 -1.100000000000000E-002    4.254400118622747E-012
 -1.090000000000000E-002    1.016190483197715E-010
 -1.080000000000000E-002    2.052359949421772E-010
 -1.070000000000000E-002    3.110858213228599E-010
 -1.060000000000000E-002    4.152387230928179E-010
 -1.050000000000000E-002    5.140894540990646E-010
 -1.040000000000000E-002    6.045157515691069E-010
 -1.030000000000000E-002    6.839401656547251E-010
 -1.020000000000000E-002    7.502880865633362E-010
 -1.010000000000000E-002    8.018488279937076E-010
 -1.000000000000000E-002    8.370616096832549E-010
 -9.899999999999999E-003    8.542600860289136E-010
 -9.800000000000000E-003    8.514191271816726E-010
 -9.699999999999999E-003    8.259511294364180E-010
 -9.599999999999999E-003    7.745987053706342E-010
 -9.500000000000000E-003    6.934625332455328E-010
 -9.399999999999999E-003    5.781907312265895E-010
 -9.299999999999999E-003    4.243387699530546E-010
 -9.200000000000000E-003    2.278884837713716E-010
 -9.099999999999999E-003   -1.410490476606069E-011
 -8.999999999999999E-003   -3.027888882183569E-010
 -8.900000000000000E-003   -6.367787418358941E-010
 -8.799999999999999E-003   -1.011486516412181E-009
 -8.699999999999999E-003   -1.418590338563190E-009
 -8.600000000000000E-003   -1.845716335997650E-009
 -8.499999999999999E-003   -2.276389672589839E-009
 -8.399999999999999E-003   -2.690293247929549E-009
 -8.300000000000000E-003   -3.063846683663634E-009
 -8.199999999999999E-003   -3.371091467101687E-009
 -8.100000000000000E-003   -3.584841785817334E-009
 -8.000000000000000E-003   -3.678036319031404E-009
 -7.899999999999999E-003   -3.625208337525087E-009
 -7.800000000000000E-003   -3.403982290461423E-009
 -7.699999999999999E-003   -2.996501854119204E-009
 -7.599999999999999E-003   -2.390698494723443E-009
 -7.499999999999999E-003   -1.581330396375983E-009
 -7.399999999999999E-003   -5.707366578346873E-010
 -7.299999999999999E-003    6.307217222537788E-010
 -7.199999999999999E-003    2.004536326278217E-009
 -7.100000000000000E-003    3.524221494263575E-009
 -6.999999999999999E-003    5.155737344225133E-009
 -6.899999999999999E-003    6.858116167992624E-009
 -6.800000000000000E-003    8.584235397732231E-009
 -6.699999999999999E-003    1.028167813150695E-008
 -6.599999999999999E-003    1.189364733230121E-008
 -6.499999999999999E-003    1.335989921594547E-008
 -6.399999999999999E-003    1.461770558796658E-008
 -6.299999999999999E-003    1.560285069595613E-008
 -6.199999999999999E-003    1.625071776703859E-008
 -6.100000000000000E-003    1.649750750911640E-008
 -5.999999999999999E-003    1.628166295291305E-008
 -5.899999999999999E-003    1.554556771401286E-008
 -5.800000000000000E-003    1.423756843097186E-008
 -5.699999999999999E-003    1.231437292316784E-008
 -5.599999999999999E-003    9.743837675459064E-009
 -5.499999999999999E-003    6.508135825706279E-009
 -5.399999999999999E-003    2.607273323046394E-009
 -5.299999999999999E-003   -1.937117544908516E-009
 -5.199999999999999E-003   -7.077799041805333E-009
 -5.099999999999999E-003   -1.273785839140900E-008
 -4.999999999999999E-003   -1.880668546339561E-008
 -4.899999999999999E-003   -2.513610796302534E-008
 -4.799999999999999E-003   -3.153678776387859E-008
 -4.699999999999999E-003   -3.777499092588665E-008
 -4.599999999999999E-003   -4.356980307664955E-008
 -4.499999999999999E-003   -4.859084088223129E-008
 -4.399999999999999E-003   -5.245651415376596E-008
 -4.299999999999999E-003   -5.473280286331651E-008
 -4.199999999999999E-003   -5.493257759335510E-008
 -4.099999999999999E-003   -5.251544397742261E-008
 -3.999999999999999E-003   -4.688803120212151E-008
 -3.899999999999999E-003   -3.740474018076995E-008
 -3.799999999999999E-003   -2.336891571003788E-008
 -3.699999999999999E-003   -4.034349856956020E-009
 -3.599999999999999E-003    2.139286171472394E-008
 -3.499999999999999E-003    5.375205267008489E-008
 -3.399999999999999E-003    9.392549912177099E-008
 -3.299999999999999E-003    1.428356748877847E-007
 -3.199999999999999E-003    2.014421004446912E-007
 -3.099999999999999E-003    2.707380774669714E-007
 -2.999999999999999E-003    3.517471166032809E-007
 -2.899999999999999E-003    4.455195464981672E-007
 -2.799999999999999E-003    5.531285807498240E-007
 -2.699999999999999E-003    6.756668770824205E-007
 -2.599999999999999E-003    8.142429545722009E-007
 -2.499999999999999E-003    9.699779170771046E-007
 -2.399999999999999E-003    1.144002885728994E-006
 -2.299999999999999E-003    1.337455811632501E-006
 -2.199999999999999E-003    1.551480515011813E-006
 -2.099999999999999E-003    1.787224723401119E-006
 -1.999999999999999E-003    2.045839806735296E-006
 -1.899999999999999E-003    2.328480533721911E-006
 -1.799999999999999E-003    2.636307221096431E-006
 -1.699999999999999E-003    2.970486386903273E-006
 -1.599999999999999E-003    3.332193702755135E-006
 -1.499999999999999E-003    3.722618182601867E-006
 -1.399999999999999E-003    4.142966102350643E-006
 -1.299999999999999E-003    4.594467471666966E-006
 -1.199999999999999E-003    5.078380660932583E-006
 -1.099999999999999E-003    5.596001893024292E-006
 -9.999999999999989E-004    6.148671675091900E-006
 -8.999999999999990E-004    6.737786591919641E-006
 -7.999999999999990E-004    7.364807633652212E-006
 -6.999999999999989E-004    8.031272155458163E-006
 -5.999999999999990E-004    8.738806247548874E-006
 -4.999999999999989E-004    9.489139104573175E-006
 -3.999999999999989E-004    1.028411443868937E-005
 -2.999999999999989E-004    1.112570795629178E-005
 -1.999999999999989E-004    1.201603935138380E-005
 -9.999999999999892E-005    1.295738812296656E-005
  1.084202172485504E-018    1.395221191037796E-005
  1.000000000000011E-004    1.500315724757243E-005
  2.000000000000011E-004    1.611307791576111E-005
  3.000000000000011E-004    1.728504789580718E-005
  4.000000000000011E-004    1.852237376014625E-005
  5.000000000000011E-004    1.982861147320800E-005
  6.000000000000011E-004    2.120757520429154E-005
  7.000000000000011E-004    2.266334673505481E-005
  8.000000000000011E-004    2.420029289579445E-005
  9.000000000000012E-004    2.582306557896266E-005
  1.000000000000001E-003    2.753662045240525E-005
  1.100000000000001E-003    2.934621629530139E-005
  1.200000000000001E-003    3.125742445638781E-005
  1.300000000000001E-003    3.327614204261566E-005
  1.400000000000001E-003    3.540859326633249E-005
  1.500000000000001E-003    3.766133822976943E-005
  1.600000000000001E-003    4.004128203232692E-005
  1.700000000000001E-003    4.255568308090472E-005
  1.800000000000001E-003    4.521216831783904E-005
  1.900000000000001E-003    4.801872957893673E-005
  2.000000000000001E-003    5.098375760278340E-005
  2.100000000000001E-003    5.411603767554490E-005
  2.200000000000001E-003    5.742476838697901E-005
  2.300000000000001E-003    6.091958831366043E-005
  2.400000000000001E-003    6.461058068267251E-005
  2.500000000000001E-003    6.850829635560636E-005
  2.600000000000001E-003    7.262378103511476E-005
  2.700000000000001E-003    7.696858034690740E-005
  2.800000000000001E-003    8.155477807772116E-005
  2.900000000000001E-003    8.639500563252486E-005
  3.000000000000001E-003    9.150246024888527E-005
  3.100000000000001E-003    9.689093549626039E-005
  3.200000000000001E-003    1.025748367434223E-004
  3.300000000000001E-003    1.085692109248782E-004
  3.400000000000001E-003    1.148897546548236E-004
  3.500000000000001E-003    1.215528486602911E-004
  3.600000000000001E-003    1.285755952004371E-004
  3.700000000000001E-003    1.359758115831083E-004
  3.800000000000001E-003    1.437720792850880E-004
  3.900000000000001E-003    1.519837970352070E-004
  4.000000000000001E-003    1.606311740040814E-004
  4.100000000000001E-003    1.697353077563144E-004
  4.200000000000001E-003    1.793182063192758E-004
  4.300000000000001E-003    1.894028405871172E-004
  4.400000000000001E-003    2.000131749059913E-004
  4.500000000000001E-003    2.111742449901848E-004
  4.600000000000002E-003    2.229122155506760E-004
  4.700000000000001E-003    2.352543921227022E-004
  4.800000000000001E-003    2.482292883238005E-004
  4.900000000000002E-003    2.618666697877130E-004
  5.000000000000001E-003    2.761976218748164E-004
  5.100000000000001E-003    2.912545729663476E-004
  5.200000000000001E-003    3.070713414907365E-004
  5.300000000000002E-003    3.236831366600757E-004
  5.400000000000001E-003    3.411266277044301E-004
  5.500000000000001E-003    3.594400030618211E-004
  5.600000000000002E-003    3.786629555057626E-004
  5.700000000000001E-003    3.988366706608478E-004
  5.800000000000001E-003    4.200039807471020E-004
  5.900000000000002E-003    4.422092605933092E-004
  6.000000000000001E-003    4.654985873254941E-004
  6.100000000000001E-003    4.899196667599406E-004
  6.200000000000002E-003    5.155220345489172E-004
  6.300000000000002E-003    5.423569640110371E-004
  6.400000000000001E-003    5.704776205281487E-004
  6.500000000000001E-003    5.999391171188767E-004
  6.600000000000002E-003    6.307985641178705E-004
  6.700000000000001E-003    6.631151914924750E-004
  6.800000000000001E-003    6.969504101601607E-004
  6.900000000000002E-003    7.323678739656494E-004
  7.000000000000001E-003    7.694335928032429E-004
  7.100000000000001E-003    8.082159526418030E-004
  7.200000000000002E-003    8.487858943401979E-004
  7.300000000000002E-003    8.912168950466526E-004
  7.400000000000001E-003    9.355850758280196E-004
  7.500000000000001E-003    9.819691497317813E-004
  7.600000000000002E-003    1.030450580615548E-003
  7.700000000000001E-003    1.081113669181063E-003
  7.800000000000001E-003    1.134045459274421E-003
  7.900000000000001E-003    1.189335688844080E-003
  8.000000000000002E-003    1.247077204291173E-003
  8.100000000000001E-003    1.307365668948994E-003
  8.200000000000001E-003    1.370299672652073E-003
  8.300000000000002E-003    1.435980845441063E-003
  8.400000000000001E-003    1.504513962949193E-003
  8.500000000000002E-003    1.576006933300233E-003
  8.600000000000002E-003    1.650570884941095E-003
  8.700000000000001E-003    1.728320192565545E-003
  8.800000000000002E-003    1.809372733579707E-003
  8.900000000000002E-003    1.893849743951332E-003
  9.000000000000001E-003    1.981876323732768E-003
  9.100000000000002E-003    2.073581007625191E-003
  9.200000000000002E-003    2.169096032576454E-003
  9.300000000000001E-003    2.268557763636169E-003
  9.400000000000002E-003    2.372106045574158E-003
  9.500000000000001E-003    2.479885156679077E-003
  9.600000000000001E-003    2.592042876876651E-003
  9.700000000000002E-003    2.708731519071450E-003
  9.800000000000001E-003    2.830107095497727E-003
  9.900000000000001E-003    2.956329728626108E-003
  1.000000000000000E-002    3.087563862085362E-003
  1.010000000000000E-002    3.223977527530853E-003
  1.020000000000000E-002    3.365743544046576E-003
  1.030000000000000E-002    3.513038073197235E-003
  1.040000000000000E-002    3.666041749139493E-003
  1.050000000000000E-002    3.824939419783828E-003
  1.060000000000000E-002    3.989919824101872E-003
  1.070000000000000E-002    4.161175514642620E-003
  1.080000000000000E-002    4.338903958577386E-003
  1.090000000000000E-002    4.523306529711048E-003
  1.100000000000000E-002    4.714588962279169E-003
  1.110000000000000E-002    4.912960895334108E-003
  1.120000000000000E-002    5.118636361312420E-003
  1.130000000000000E-002    5.331834395326898E-003
  1.140000000000000E-002    5.552777626513447E-003
  1.150000000000000E-002    5.781693821457760E-003
  1.160000000000000E-002    6.018814342053152E-003
  1.170000000000000E-002    6.264375920235669E-003
  1.180000000000000E-002    6.518618124139643E-003
  1.190000000000000E-002    6.781786448874219E-003
  1.200000000000000E-002    7.054129013409531E-003
  1.210000000000000E-002    7.335899446552327E-003
  1.220000000000000E-002    7.627354283524548E-003
  1.230000000000000E-002    7.928754195462297E-003
  1.240000000000000E-002    8.240362932577830E-003
  1.250000000000000E-002    8.562448146592251E-003
  1.260000000000000E-002    8.895281528507236E-003
  1.270000000000000E-002    9.239136272628514E-003
  1.280000000000000E-002    9.594289856508627E-003
  1.290000000000000E-002    9.961021678224671E-003
  1.300000000000000E-002    1.033961461342429E-002
  1.310000000000000E-002    1.073035433159910E-002
  1.320000000000000E-002    1.113352813776220E-002
  1.330000000000000E-002    1.154942587704375E-002
  1.340000000000000E-002    1.197834057340261E-002
  1.350000000000000E-002    1.242056546705816E-002
  1.360000000000000E-002    1.287639686349717E-002
  1.370000000000000E-002    1.334613235127081E-002
  1.380000000000000E-002    1.383007210693139E-002
  1.390000000000000E-002    1.432851645930889E-002
  1.400000000000000E-002    1.484176639988158E-002
  1.410000000000000E-002    1.537012540701018E-002
  1.420000000000000E-002    1.591389559264763E-002
  1.430000000000000E-002    1.647338112043631E-002
  1.440000000000000E-002    1.704888307905097E-002
  1.450000000000000E-002    1.764070465792409E-002
  1.460000000000000E-002    1.824914742640832E-002
  1.470000000000000E-002    1.887450974249813E-002
  1.480000000000000E-002    1.951709115792679E-002
  1.490000000000000E-002    2.017718550007043E-002
  1.500000000000000E-002    2.085508513223199E-002
  1.510000000000000E-002    2.155108016044620E-002
  1.520000000000000E-002    2.226545625501215E-002
  1.530000000000000E-002    2.299849404989707E-002
  1.540000000000000E-002    2.375046956963048E-002
  1.550000000000000E-002    2.452165549120651E-002
  1.560000000000000E-002    2.531231810780981E-002
  1.570000000000000E-002    2.612271698183206E-002
  1.580000000000000E-002    2.695310750158114E-002
  1.590000000000000E-002    2.780373553645320E-002
  1.600000000000000E-002    2.867484151494006E-002
  1.610000000000000E-002    2.956665904945573E-002
  1.620000000000000E-002    3.047941063338125E-002
  1.630000000000000E-002    3.141330946453543E-002
  1.640000000000000E-002    3.236856101497569E-002
  1.650000000000000E-002    3.334536085941320E-002
  1.660000000000000E-002    3.434389133825731E-002
  1.670000000000000E-002    3.536432767567713E-002
  1.680000000000000E-002    3.640682590634010E-002
  1.690000000000000E-002    3.747153461890135E-002
  1.700000000000000E-002    3.855858479101258E-002
  1.710000000000000E-002    3.966809834526033E-002
  1.720000000000000E-002    4.080017255160875E-002
  1.730000000000000E-002    4.195489664541591E-002
  1.740000000000000E-002    4.313234180424944E-002
  1.750000000000000E-002    4.433255644949358E-002
  1.760000000000000E-002    4.555557614754614E-002
  1.770000000000000E-002    4.680141398587440E-002
  1.780000000000000E-002    4.807006656257333E-002
  1.790000000000000E-002    4.936150615685431E-002
  1.800000000000000E-002    5.067568562699264E-002
  1.810000000000000E-002    5.201253939649313E-002
  1.820000000000000E-002    5.337197494561087E-002
  1.830000000000000E-002    5.475387805313146E-002
  1.840000000000000E-002    5.615811399320387E-002
  1.850000000000000E-002    5.758451760032479E-002
  1.860000000000000E-002    5.903290603798556E-002
  1.870000000000000E-002    6.050306440852331E-002