 -4.000000000000000E-002    0.000000000000000E+000
 -3.990000000000000E-002    0.000000000000000E+000
 -3.980000000000000E-002    0.000000000000000E+000
 -3.970000000000000E-002    0.000000000000000E+000
 -3.960000000000000E-002    0.000000000000000E+000
 -3.950000000000000E-002   -2.398141726021987E-021
 -3.940000000000000E-002   -2.700780952237367E-020
 -3.930000000000000E-002   -1.651806542799962E-019
 -3.920000000000000E-002   -7.248549666998217E-019
 -3.910000000000000E-002   -2.547133238368969E-018
 -3.900000000000000E-002   -7.591470192648414E-018
 -3.890000000000000E-002   -1.986318366751629E-017
 -3.880000000000000E-002   -4.665753141306355E-017
 -3.870000000000000E-002   -9.988403747518820E-017
 -3.860000000000000E-002   -1.968961732033774E-016
 -3.850000000000000E-002   -3.598072826548803E-016
 -3.840000000000000E-002   -6.118077518851968E-016
 -3.830000000000000E-002   -9.686671044423634E-016
 -3.820000000000000E-002   -1.423634092761582E-015
 -3.810000000000000E-002   -1.924604927676344E-015
 -3.800000000000000E-002   -2.343960561732106E-015
 -3.790000000000000E-002   -2.444019477832697E-015
 -3.780000000000000E-002   -1.844555260574241E-015
 -3.770000000000000E-002   -2.919579813997800E-018
 -3.760000000000000E-002    3.778729111175207E-015
 -3.750000000000000E-002    1.030184856174739E-014
 -3.740000000000000E-002    2.035817576460838E-014
 -3.730000000000000E-002    3.454103243760893E-014
 -3.720000000000000E-002    5.297665140195510E-014
 -3.710000000000000E-002    7.498560185441717E-014
 -3.700000000000000E-002    9.870438593117897E-014
 -3.690000000000000E-002    1.207208219207034E-013
 -3.680000000000000E-002    1.358005566078979E-013
 -3.670000000000000E-002    1.368017029961372E-013
 -3.660000000000000E-002    1.148840893475901E-013
 -3.650000000000000E-002    6.011365727173868E-014
 -3.640000000000000E-002   -3.746395406990759E-014
 -3.630000000000000E-002   -1.862564856112738E-013
 -3.620000000000000E-002   -3.911130658145577E-013
 -3.610000000000000E-002   -6.510067393641895E-013
 -3.600000000000000E-002   -9.566497267570395E-013
 -3.590000000000000E-002   -1.288374738131282E-012
 -3.580000000000000E-002   -1.614686885351788E-012
 -3.570000000000000E-002   -1.891923400789516E-012
 -3.560000000000000E-002   -2.065432617787987E-012
 -3.550000000000000E-002   -2.072590143490868E-012
 -3.540000000000000E-002   -1.847804128196697E-012
 -3.530000000000000E-002   -1.329430662858544E-012
 -3.520000000000000E-002   -4.682404642890934E-013
 -3.510000000000000E-002    7.632147943774961E-013
 -3.500000000000000E-002    2.361264035099974E-012
 -3.490000000000000E-002    4.282937953479559E-012
 -3.480000000000000E-002    6.440181185077274E-012
 -3.470000000000000E-002    8.697640908848716E-012
 -3.460000000000000E-002    1.087501034222685E-011
 -3.450000000000000E-002    1.275453250436355E-011
 -3.440000000000000E-002    1.409376184853591E-011
 -3.430000000000000E-002    1.464309225919418E-011
 -3.420000000000000E-002    1.416692267609256E-011
 -3.410000000000000E-002    1.246679887924775E-011
 -3.400000000000000E-002    9.404429972495247E-012
 -3.390000000000000E-002    4.922303842482994E-012
 -3.380000000000000E-002   -9.403298908699252E-013
 -3.370000000000000E-002   -8.037975286144220E-012
 -3.360000000000000E-002   -1.611718127134687E-011
 -3.350000000000000E-002   -2.482307784406161E-011
 -3.340000000000000E-002   -3.371374213855810E-011
 -3.330000000000000E-002   -4.228114312156815E-011
 -3.320000000000000E-002   -4.997668220966775E-011
 -3.310000000000000E-002   -5.623895885625230E-011
 -3.300000000000000E-002   -6.052135945689559E-011
 -3.290000000000000E-002   -6.231730354065789E-011
 -3.280000000000000E-002   -6.118175904734011E-011
 -3.270000000000000E-002   -5.674853376236844E-011
 -3.260000000000000E-002   -4.874383483920956E-011
 -3.250000000000000E-002   -3.699759444909857E-011
 -3.240000000000000E-002   -2.145465598645050E-011
 -3.230000000000000E-002   -2.188145626249217E-012
 -3.220000000000000E-002    2.058307429092854E-011
 -3.210000000000000E-002    4.647200205401740E-011
 -3.200000000000000E-002    7.489664695389713E-011
 -3.190000000000000E-002    1.050513951546264E-010
 -3.180000000000000E-002    1.358809251461135E-010
 -3.170000000000000E-002    1.660629023201198E-010
 -3.160000000000000E-002    1.940068377212249E-010
 -3.150000000000000E-002    2.178764737058214E-010
 -3.140000000000000E-002    2.356423089647012E-010
 -3.130000000000000E-002    2.451686900593346E-010
 -3.120000000000000E-002    2.443363581456508E-010
 -3.110000000000000E-002    2.311974172543506E-010
 -3.100000000000000E-002    2.041546355856663E-010
 -3.090000000000000E-002    1.621526957732830E-010
 -3.080000000000000E-002    1.048647919039373E-010
 -3.070000000000000E-002    3.285557728594769E-011
 -3.060000000000000E-002   -5.229952247807188E-011
 -3.050000000000000E-002   -1.479571443770145E-010
 -3.040000000000000E-002   -2.504259586772733E-010
 -3.030000000000000E-002   -3.550731346104295E-010
 -3.020000000000000E-002   -4.565191306174182E-010
 -3.010000000000000E-002   -5.489145905411408E-010
 -3.000000000000000E-002   -6.262840041250038E-010
 -2.990000000000000E-002   -6.829143623041976E-010
 -2.980000000000000E-002   -7.137591248799673E-010
 -2.970000000000000E-002   -7.148258254922827E-010
 -2.960000000000000E-002   -6.835138442408358E-010
 -2.950000000000000E-002   -6.188714672494439E-010
 -2.940000000000000E-002   -5.217471757311657E-010
 -2.930000000000000E-002   -3.948176084906880E-010
 -2.920000000000000E-002   -2.424849400287497E-010
 -2.910000000000000E-002   -7.064770496283730E-011
 -2.900000000000000E-002    1.136413920679401E-010
 -2.890000000000000E-002    3.026044790446082E-010
 -2.880000000000000E-002    4.882230999615312E-010
 -2.870000000000000E-002    6.627395207261024E-010
 -2.860000000000000E-002    8.191346664985323E-010
 -2.850000000000000E-002    9.515444239092558E-010
 -2.840000000000000E-002    1.055577913677448E-009
 -2.830000000000000E-002    1.128512489300999E-009
 -2.820000000000000E-002    1.169346432906961E-009
 -2.810000000000000E-002    1.178704550951257E-009
 -2.800000000000000E-002    1.158602576155408E-009
 -2.790000000000000E-002    1.112090124209474E-009
 -2.780000000000000E-002    1.042803059419127E-009
 -2.770000000000000E-002    9.544660787160093E-010
 -2.760000000000000E-002    8.503937574571077E-010
 -2.750000000000000E-002    7.330426977559080E-010
 -2.740000000000000E-002    6.036664495921395E-010
 -2.730000000000000E-002    4.621195883867831E-010
 -2.720000000000000E-002    3.068496868056522E-010
 -2.710000000000000E-002    1.350979082286151E-010
 -2.700000000000000E-002   -5.668552569761543E-011
 -2.690000000000000E-002   -2.722305821270303E-010
 -2.680000000000000E-002   -5.146816999825868E-010
 -2.670000000000000E-002   -7.857404507890093E-010
 -2.660000000000000E-002   -1.084801670142498E-009
 -2.650000000000000E-002   -1.408175010872648E-009
 -2.640000000000000E-002   -1.748500642874931E-009
 -2.630000000000000E-002   -2.094451537849862E-009
 -2.620000000000000E-002   -2.430805693112122E-009
 -2.610000000000000E-002   -2.738939809352784E-009
 -2.600000000000000E-002   -2.997762225614003E-009
 -2.590000000000000E-002   -3.185052919020413E-009
 -2.580000000000000E-002   -3.279132510362345E-009
 -2.570000000000000E-002   -3.260733536941913E-009
 -2.560000000000000E-002   -3.114909640875254E-009
 -2.550000000000000E-002   -2.832793304076420E-009
 -2.540000000000000E-002   -2.412997197013362E-009
 -2.530000000000000E-002   -1.862481893908897E-009
 -2.520000000000000E-002   -1.196734380930761E-009
 -2.510000000000000E-002   -4.391725562498556E-010
 -2.500000000000000E-002    3.802424496260894E-010
 -2.490000000000000E-002    1.227113649733880E-009
 -2.480000000000000E-002    2.065278574605812E-009
 -2.470000000000000E-002    2.859800196162157E-009
 -2.460000000000000E-002    3.579989959011084E-009
 -2.450000000000000E-002    4.202123308646406E-009
 -2.440000000000000E-002    4.711531596991107E-009
 -2.430000000000000E-002    5.103776561915263E-009
 -2.420000000000000E-002    5.384705413006924E-009
 -2.410000000000000E-002    5.569286317180576E-009
 -2.400000000000000E-002    5.679256884346666E-009
 -2.390000000000000E-002    5.739759025294631E-009
 -2.380000000000000E-002    5.775264264310154E-009
 -2.370000000000000E-002    5.805203926486977E-009
 -2.360000000000000E-002    5.839790079568963E-009
 -2.350000000000000E-002    5.876533878558824E-009
 -2.340000000000000E-002    5.897941949214344E-009
 -2.330000000000000E-002    5.870777827314661E-009
 -2.320000000000000E-002    5.747138010839753E-009
 -2.310000000000000E-002    5.467420409290943E-009
 -2.300000000000000E-002    4.965070136463600E-009
 -2.290000000000000E-002    4.172784371963109E-009
 -2.280000000000000E-002    3.029691621694279E-009
 -2.270000000000000E-002    1.488887964516017E-009
 -2.260000000000000E-002   -4.753665202253562E-010
 -2.250000000000000E-002   -2.861485535579803E-009
 -2.240000000000000E-002   -5.636061004930699E-009
 -2.230000000000000E-002   -8.731541486050963E-009
 -2.220000000000000E-002   -1.204640233942878E-008
 -2.210000000000000E-002   -1.544790317977125E-008
 -2.200000000000000E-002   -1.877731598395485E-008
 -2.190000000000000E-002   -2.185727618400135E-008
 -2.180000000000000E-002   -2.450074402615734E-008
 -2.170000000000000E-002   -2.652093827587907E-008
 -2.160000000000000E-002   -2.774155865522672E-008
 -2.150000000000000E-002   -2.800664488256451E-008
 -2.140000000000000E-002   -2.718949202229728E-008
 -2.130000000000000E-002   -2.520022183624987E-008
 -2.120000000000000E-002   -2.199175039989217E-008
 -2.110000000000000E-002   -1.756416412358271E-008
 -2.100000000000000E-002   -1.196759944858603E-008
 -2.090000000000000E-002   -5.303960569403751E-009
 -2.080000000000000E-002    2.272168419036545E-009
 -2.070000000000000E-002    1.055294503246755E-008
 -2.060000000000000E-002    1.927678329452449E-008
 -2.050000000000000E-002    2.812754094649333E-008
 -2.040000000000000E-002    3.673343536329506E-008
 -2.030000000000000E-002    4.466559510284776E-008
 -2.020000000000000E-002    5.143663896326421E-008
 -2.010000000000000E-002    5.649948558372101E-008
 -2.000000000000000E-002    5.924697032596562E-008
 -1.990000000000000E-002    5.901275090053425E-008
 -1.980000000000000E-002    5.507373453650590E-008
 -1.970000000000000E-002    4.665432274488436E-008
 -1.960000000000000E-002    3.293268458356647E-008
 -1.950000000000000E-002    1.304879423092598E-008
 -1.940000000000000E-002   -1.388649473433714E-008
 -1.930000000000000E-002   -4.878137625616598E-008
 -1.920000000000000E-002   -9.255337751715479E-008
 -1.910000000000000E-002   -1.461205398657436E-007
 -1.900000000000000E-002   -2.103943720230458E-007
 -1.890000000000000E-002   -2.862751226944442E-007
 -1.880000000000000E-002   -3.746499389302779E-007
 -1.870000000000000E-002   -4.763937596455116E-007
 -1.860000000000000E-002   -5.923725583751585E-007
 -1.850000000000000E-002   -7.234486668028397E-007
 -1.840000000000000E-002   -8.704870566436286E-007
 -1.830000000000000E-002   -1.034359861103632E-006
 -1.820000000000000E-002   -1.215951562408331E-006
 -1.810000000000000E-002   -1.416159238387238E-006
 -1.800000000000000E-002   -1.635890297994846E-006
 -1.790000000000000E-002   -1.876055712688965E-006
 -1.780000000000000E-002   -2.137558807869445E-006
 -1.770000000000000E-002   -2.421281187143225E-006
 -1.760000000000000E-002   -2.728066771197974E-006
 -1.750000000000000E-002   -3.058703961516034E-006
 -1.740000000000000E-002   -3.413912824468368E-006
 -1.730000000000000E-002   -3.794333685847989E-006
 -1.720000000000000E-002   -4.200523949482229E-006
 -1.710000000000000E-002   -4.632964603188891E-006
 -1.700000000000000E-002   -5.092075218126383E-006
 -1.690000000000000E-002   -5.578241548228751E-006
 -1.680000000000000E-002   -6.091852435314798E-006
 -1.670000000000000E-002   -6.633345297364628E-006
 -1.660000000000000E-002   -7.203259223541590E-006
 -1.650000000000000E-002   -7.802291126963227E-006
 -1.640000000000000E-002   -8.431349265869060E-006
 -1.630000000000000E-002   -9.091599598984385E-006
 -1.620000000000000E-002   -9.784508547150845E-006
 -1.610000000000000E-002   -1.051186495039554E-005
 -1.600000000000000E-002   -1.127578853514089E-005
 -1.590000000000000E-002   -1.207872213725877E-005
 -1.580000000000000E-002   -1.292340165965151E-005
 -1.570000000000000E-002   -1.381281864751461E-005
 -1.560000000000000E-002   -1.475016195351786E-005
 -1.550000000000000E-002   -1.573875660135402E-005
 -1.540000000000000E-002   -1.678200186365471E-005
 -1.530000000000000E-002   -1.788331742804108E-005
 -1.520000000000000E-002   -1.904609399708406E-005
 -1.510000000000000E-002   -2.027367332048351E-005
 -1.500000000000000E-002   -2.156933929923441E-005
 -1.490000000000000E-002   -2.293634236498553E-005
 -1.480000000000000E-002   -2.437794542827862E-005
 -1.470000000000000E-002   -2.589749746882869E-005
 -1.460000000000000E-002   -2.749851806426005E-005
 -1.450000000000000E-002   -2.918480231459698E-005
 -1.440000000000000E-002   -3.096052490361049E-005
 -1.430000000000000E-002   -3.283033878886693E-005
 -1.420000000000000E-002   -3.479946641037110E-005
 -1.410000000000000E-002   -3.687376331910840E-005
 -1.400000000000000E-002   -3.905975179157411E-005
 -1.390000000000000E-002   -4.136461640734488E-005
 -1.380000000000000E-002   -4.379618202789949E-005
 -1.370000000000000E-002   -4.636284178705809E-005
 -1.360000000000000E-002   -4.907346666199745E-005
 -1.350000000000000E-002   -5.193729250328142E-005
 -1.340000000000000E-002   -5.496380263075003E-005
 -1.330000000000000E-002   -5.816261189341125E-005
 -1.320000000000000E-002   -6.154335228077483E-005
 -1.310000000000000E-002   -6.511560571216654E-005
 -1.300000000000000E-002   -6.888885206093060E-005
 -1.290000000000000E-002   -7.287247601816147E-005
 -1.280000000000000E-002   -7.707580110719388E-005
 -1.270000000000000E-002   -8.150817994794850E-005
 -1.260000000000000E-002   -8.617911466320866E-005
 -1.250000000000000E-002   -9.109841259349186E-005
 -1.240000000000000E-002   -9.627636473926848E-005
 -1.230000000000000E-002   -1.017239221526962E-004
 -1.220000000000000E-002   -1.074528546241169E-004
 -1.210000000000000E-002   -1.134759173532077E-004
 -1.200000000000000E-002   -1.198069532669931E-004
 -1.190000000000000E-002   -1.264609721563640E-004
 -1.180000000000000E-002   -1.334541680812899E-004
 -1.170000000000000E-002   -1.408039199064182E-004
 -1.160000000000000E-002   -1.485287003545611E-004
 -1.150000000000000E-002   -1.566479598656996E-004
 -1.140000000000000E-002   -1.651820464850079E-004
 -1.130000000000000E-002   -1.741520308259059E-004
 -1.120000000000000E-002   -1.835795421768208E-004
 -1.110000000000000E-002   -1.934867054340250E-004
 -1.100000000000000E-002   -2.038959649861068E-004
 -1.090000000000000E-002   -2.148300973418145E-004
 -1.080000000000000E-002   -2.263121684915195E-004
 -1.070000000000000E-002   -2.383655864684894E-004
 -1.060000000000000E-002   -2.510141679300918E-004
 -1.050000000000000E-002   -2.642823009068416E-004
 -1.040000000000000E-002   -2.781950775991626E-004
 -1.030000000000000E-002   -2.927784799854373E-004
 -1.020000000000000E-002   -3.080596472298354E-004
 -1.010000000000000E-002   -3.240669257052179E-004
 -1.000000000000000E-002   -3.408301558869226E-004
 -9.899999999999999E-003   -3.583807842788129E-004
 -9.800000000000000E-003   -3.767518995580160E-004
 -9.699999999999999E-003   -3.959783546809537E-004
 -9.599999999999999E-003   -4.160967535361700E-004
 -9.500000000000000E-003   -4.371453857137320E-004
 -9.399999999999999E-003   -4.591642241963914E-004
 -9.299999999999999E-003   -4.821947862003655E-004
 -9.200000000000000E-003   -5.062800456981574E-004
 -9.099999999999999E-003   -5.314641982575325E-004
 -8.999999999999999E-003   -5.577927692372961E-004
 -8.900000000000000E-003   -5.853122876865096E-004
 -8.799999999999999E-003   -6.140703606421913E-004
 -8.699999999999999E-003   -6.441156174931223E-004
 -8.600000000000000E-003   -6.754976798435250E-004
 -8.499999999999999E-003   -7.082671493669714E-004
 -8.399999999999999E-003   -7.424758155824762E-004
 -8.300000000000000E-003   -7.781766617290898E-004
 -8.199999999999999E-003   -8.154240761132300E-004
 -8.100000000000000E-003   -8.542739266958505E-004
 -8.000000000000000E-003   -8.947837206742917E-004
 -7.899999999999999E-003   -9.370127901485579E-004
 -7.800000000000000E-003   -9.810224466909887E-004
 -7.699999999999999E-003   -1.026876210959371E-003
 -7.599999999999999E-003   -1.074639700113481E-003
 -7.499999999999999E-003   -1.124380997536168E-003
 -7.399999999999999E-003   -1.176170573370724E-003
 -7.299999999999999E-003   -1.230081256125380E-003
 -7.199999999999999E-003   -1.286188509415379E-003
 -7.100000000000000E-003   -1.344570020315897E-003
 -6.999999999999999E-003   -1.405306023741187E-003
 -6.899999999999999E-003   -1.468479084794854E-003
 -6.800000000000000E-003   -1.534173811523669E-003
 -6.699999999999999E-003   -1.602477262573105E-003
 -6.599999999999999E-003   -1.673478240681467E-003
 -6.499999999999999E-003   -1.747267516993253E-003
 -6.399999999999999E-003   -1.823937665910984E-003
 -6.299999999999999E-003   -1.903582763920326E-003
 -6.199999999999999E-003   -1.986298524153089E-003
 -6.100000000000000E-003   -2.072182054756458E-003
 -5.999999999999999E-003   -2.161331725035400E-003
 -5.899999999999999E-003   -2.253847375070194E-003
 -5.800000000000000E-003   -2.349830231681461E-003
 -5.699999999999999E-003   -2.449382371621000E-003
 -5.599999999999999E-003   -2.552607953446436E-003
 -5.499999999999999E-003   -2.659612294539233E-003
 -5.399999999999999E-003   -2.770502323847229E-003
 -5.299999999999999E-003   -2.885386860399422E-003
 -5.199999999999999E-003   -3.004376252701030E-003
 -5.099999999999999E-003   -3.127583410453747E-003
 -4.999999999999999E-003   -3.255123008531452E-003
 -4.899999999999999E-003   -3.387112085380880E-003
 -4.799999999999999E-003   -3.523669447453484E-003
 -4.699999999999999E-003   -3.664916617595791E-003
 -4.599999999999999E-003   -3.810976782071413E-003
 -4.499999999999999E-003   -3.961975388711911E-003
 -4.399999999999999E-003   -4.118039462006439E-003
 -4.299999999999999E-003   -4.279297395982498E-003
 -4.199999999999999E-003   -4.445879182857070E-003
 -4.099999999999999E-003   -4.617915137399148E-003
 -3.999999999999999E-003   -4.795536908542957E-003
 -3.899999999999999E-003   -4.978875428513191E-003
 -3.799999999999999E-003   -5.168062970227927E-003
 -3.699999999999999E-003   -5.363230330785498E-003
 -3.599999999999999E-003   -5.564508250349071E-003
 -3.499999999999999E-003   -5.772027137480628E-003
 -3.399999999999999E-003   -5.985915852904330E-003
 -3.299999999999999E-003   -6.206303552965452E-003
 -3.199999999999999E-003   -6.433317932647608E-003
 -3.099999999999999E-003   -6.667085367053930E-003
 -2.999999999999999E-003   -6.907732440848325E-003
 -2.899999999999999E-003   -7.155384328342029E-003
 -2.799999999999999E-003   -7.410165293139408E-003
 -2.699999999999999E-003   -7.672198378071878E-003
 -2.599999999999999E-003   -7.941606089044926E-003
 -2.499999999999999E-003   -8.218509381280407E-003
 -2.399999999999999E-003   -8.503027248129199E-003
 -2.299999999999999E-003   -8.795278010792364E-003
 -2.199999999999999E-003   -9.095376726214367E-003
 -2.099999999999999E-003   -9.403435968554707E-003
 -1.999999999999999E-003   -9.719565424890352E-003
 -1.899999999999999E-003   -1.004387132566079E-002
 -1.799999999999999E-003   -1.037645584656112E-002
 -1.699999999999999E-003   -1.071741612610392E-002
 -1.599999999999999E-003   -1.106684543685695E-002
 -1.499999999999999E-003   -1.142483018578774E-002
 -1.399999999999999E-003   -1.179145286547243E-002
 -1.299999999999999E-003   -1.216678822440521E-002
 -1.199999999999999E-003   -1.255090447119723E-002
 -1.099999999999999E-003   -1.294386428164116E-002
 -9.999999999999989E-004   -1.334572094663324E-002
 -8.999999999999990E-004   -1.375652283445060E-002
 -7.999999999999990E-004   -1.417630845029899E-002
 -6.999999999999989E-004   -1.460510962229823E-002
 -5.999999999999990E-004   -1.504294820155518E-002
 -4.999999999999989E-004   -1.548983921551599E-002
 -3.999999999999989E-004   -1.594578592103588E-002
 -2.999999999999989E-004   -1.641078337577213E-002
 -1.999999999999989E-004   -1.688481723559353E-002
 -9.999999999999892E-005   -1.736785859505274E-002
  1.084202172485504E-018   -1.785987274550469E-002
  1.000000000000011E-004   -1.836080813413218E-002
  2.000000000000011E-004   -1.887060320482356E-002
  3.000000000000011E-004   -1.938918320784184E-002
  4.000000000000011E-004   -1.991645795912369E-002
  5.000000000000011E-004   -2.045232368095858E-002
  6.000000000000011E-004   -2.099666210941762E-002
  7.000000000000011E-004   -2.154933675684631E-002
  8.000000000000011E-004   -2.211019781650988E-002
  9.000000000000012E-004   -2.267907667376648E-002
  1.000000000000001E-003   -2.325578723554560E-002
  1.100000000000001E-003   -2.384012781202880E-002
  1.200000000000001E-003   -2.443187529504729E-002
  1.300000000000001E-003   -2.503078862495024E-002
  1.400000000000001E-003   -2.563660681238179E-002
  1.500000000000001E-003   -2.624904921479061E-002
  1.600000000000001E-003   -2.686781623714132E-002
  1.700000000000001E-003   -2.749258556220446E-002
  1.800000000000001E-003   -2.812301065745364E-002
  1.900000000000001E-003   -2.875872841572481E-002
  2.000000000000001E-003   -2.939934707121689E-002
  2.100000000000001E-003   -3.004445287772026E-002
  2.200000000000001E-003   -3.069360916907964E-002
  2.300000000000001E-003   -3.134635366557328E-002
  2.400000000000001E-003   -3.200219463730673E-002
  2.500000000000001E-003   -3.266061738507948E-002
  2.600000000000001E-003   -3.332107710560930E-002
  2.700000000000001E-003   -3.398300281641328E-002
  2.800000000000001E-003   -3.464579739934920E-002
  2.900000000000001E-003   -3.530882900442488E-002
  3.000000000000001E-003   -3.597144305737889E-002
  3.100000000000001E-003   -3.663295320335692E-002
  3.200000000000001E-003   -3.729264374984266E-002
  3.300000000000001E-003   -3.794976757708908E-002
  3.400000000000001E-003   -3.860354910545286E-002
  3.500000000000001E-003   -3.925318174162897E-002
  3.600000000000001E-003   -3.989782660537264E-002
  3.700000000000001E-003   -4.053661625231180E-002
  3.800000000000001E-003   -4.116864696471198E-002
  3.900000000000001E-003   -4.179298824455345E-002
  4.000000000000001E-003   -4.240867410433277E-002
  4.100000000000001E-003   -4.301470368828842E-002
  4.200000000000001E-003   -4.361004741153172E-002
  4.300000000000001E-003   -4.419363319591110E-002
  4.400000000000001E-003   -4.476435979115685E-002
  4.500000000000001E-003   -4.532108692345185E-002
  4.600000000000002E-003   -4.586263973703276E-002
  4.700000000000001E-003   -4.638780618855175E-002
  4.800000000000001E-003   -4.689534006317025E-002
  4.900000000000002E-003   -4.738396255802433E-002
  5.000000000000001E-003   -4.785235173517963E-002
  5.100000000000001E-003   -4.829915538020051E-002
  5.200000000000001E-003   -4.872298363115760E-002
  5.300000000000002E-003   -4.912241210258344E-002
  5.400000000000001E-003   -4.949598528431221E-002
  5.500000000000001E-003   -4.984221077258073E-002
  5.600000000000002E-003   -5.015956811423122E-002
  5.700000000000001E-003   -5.044649893069642E-002
  5.800000000000001E-003   -5.070141732289395E-002
  5.900000000000002E-003   -5.092270312860851E-002
  6.000000000000001E-003   -5.110870593226948E-002
  6.100000000000001E-003   -5.125774472032806E-002
  6.200000000000002E-003   -5.136810828773836E-002
  6.300000000000002E-003   -5.143805117381110E-002
  6.400000000000001E-003   -5.146580086730577E-002
  6.500000000000001E-003   -5.144955323685228E-002
  6.600000000000002E-003   -5.138747888420912E-002
  6.700000000000001E-003   -5.127771628041310E-002
  6.800000000000001E-003   -5.111837828627756E-002
  6.900000000000002E-003   -5.090755024303654E-002
  7.000000000000001E-003   -5.064328861325144E-002
  7.100000000000001E-003   -5.032363144314003E-002
  7.200000000000002E-003   -4.994659109194240E-002
  7.300000000000002E-003   -4.951016023812688E-002
  7.400000000000001E-003   -4.901230634890949E-002
  7.500000000000001E-003   -4.845098693350988E-002
  7.600000000000002E-003   -4.782413771506743E-002
  7.700000000000001E-003   -4.712968165248832E-002
  7.800000000000001E-003   -4.636552810382485E-002
  7.900000000000001E-003   -4.552957719448408E-002
  8.000000000000002E-003   -4.461971576742114E-002
  8.100000000000001E-003   -4.363382171103011E-002
  8.200000000000001E-003   -4.256977106517604E-002
  8.300000000000002E-003   -4.142543400539425E-002
  8.400000000000001E-003   -4.019867410102129E-002
  8.500000000000002E-003   -3.888736100708589E-002
  8.600000000000002E-003   -3.748935906800060E-002
  8.700000000000001E-003   -3.600253533797295E-002
  8.800000000000002E-003   -3.442476772332732E-002
  8.900000000000002E-003   -3.275394105934326E-002
  9.000000000000001E-003   -3.098794563399579E-002
  9.100000000000002E-003   -2.912469218244721E-002
  9.200000000000002E-003   -2.716209769586739E-002
  9.300000000000001E-003   -2.509809966098946E-002
  9.400000000000002E-003   -2.293066135219642E-002
  9.500000000000001E-003   -2.065776710173851E-002
  9.600000000000001E-003   -1.827742404161715E-002
  9.700000000000002E-003   -1.578767139002672E-002
  9.800000000000001E-003   -1.318658041233043E-002
  9.900000000000001E-003   -1.047225173906405E-002
  1.000000000000000E-002   -7.642825272167243E-003
  1.010000000000000E-002   -4.696483437319954E-003
  1.020000000000000E-002   -1.631449022920171E-003
  1.030000000000000E-002    1.554011083999754E-003
  1.040000000000000E-002    4.861581605259008E-003
  1.050000000000000E-002    8.292894424905529E-003
  1.060000000000000E-002    1.184952868211478E-002
  1.070000000000000E-002    1.553300495624558E-002
  1.080000000000000E-002    1.934478559289182E-002
  1.090000000000000E-002    2.328626637205112E-002
  1.100000000000000E-002    2.735877802351618E-002
  1.110000000000000E-002    3.156358137061716E-002
  1.120000000000000E-002    3.590186258387922E-002
  1.130000000000000E-002    4.037473512806392E-002
  1.140000000000000E-002    4.498322616966692E-002
  1.150000000000000E-002    4.972827852029946E-002
  1.160000000000000E-002    5.461076006082675E-002
  1.170000000000000E-002    5.963144032506619E-002
  1.180000000000000E-002    6.479100270323321E-002
  1.190000000000000E-002    7.009002644736341E-002
  1.200000000000000E-002    7.552899588849886E-002
  1.210000000000000E-002    8.110829767420419E-002
  1.220000000000000E-002    8.682821907518887E-002
  1.230000000000000E-002    9.268892385923598E-002
  1.240000000000000E-002    9.869048189437359E-002
  1.250000000000000E-002    0.104832834883451     
  1.260000000000000E-002    0.111115828483767     
  1.270000000000000E-002    0.117539170917392     
  1.280000000000000E-002    0.124102459436297     
  1.290000000000000E-002    0.130805168675437     
  1.300000000000000E-002    0.137646648036582     
  1.310000000000000E-002    0.144626111292336     
  1.320000000000000E-002    0.151742641990294     
  1.330000000000000E-002    0.158995192429964     
  1.340000000000000E-002    0.166382579386112     
  1.350000000000000E-002    0.173903473056694     
  1.360000000000000E-002    0.181556425088492     
  1.370000000000000E-002    0.189339811391422     
  1.380000000000000E-002    0.197251896563225     
  1.390000000000000E-002    0.205290784330084     
  1.400000000000000E-002    0.213454433273121     
  1.410000000000000E-002    0.221740659819862     
  1.420000000000000E-002    0.230147112508268     
  1.430000000000000E-002    0.238671280696592     
  1.440000000000000E-002    0.247310541242935     
  1.450000000000000E-002    0.256062071044284     
  1.460000000000000E-002    0.264922926462049     
  1.470000000000000E-002    0.273889998246596     
  1.480000000000000E-002    0.282960022081233     
  1.490000000000000E-002    0.292129572689357     
  1.500000000000000E-002    0.301395081376240     
  1.510000000000000E-002    0.310752789935743     
  1.520000000000000E-002    0.320198837402603     
  1.530000000000000E-002    0.329729144350390     
  1.540000000000000E-002    0.339339498536154     
  1.550000000000000E-002    0.349025565198939     
  1.560000000000000E-002    0.358782795297072     
  1.570000000000000E-002    0.368606551974043     
  1.580000000000000E-002    0.378492005116056     
  1.590000000000000E-002    0.388434173031732     
  1.600000000000000E-002    0.398427888769851     
  1.610000000000000E-002    0.408467910089588     
  1.620000000000000E-002    0.418548812422225     
  1.630000000000000E-002    0.428665010312594     
  1.640000000000000E-002    0.438810802602429     
  1.650000000000000E-002    0.448980337725015     
  1.660000000000000E-002    0.459167609585943     
  1.670000000000000E-002    0.469366462237016     
  1.680000000000000E-002    0.479570673945350     
  1.690000000000000E-002    0.489773824671986     
  1.700000000000000E-002    0.499969404114210     
  1.710000000000000E-002    0.510150732918979     
  1.720000000000000E-002    0.520311083796211     
  1.730000000000000E-002    0.530443538927528     
  1.740000000000000E-002    0.540541081164268     
  1.750000000000000E-002    0.550596610638278     
  1.760000000000000E-002    0.560602886496943     
  1.770000000000000E-002    0.570552608412202     
  1.780000000000000E-002    0.580438390373422     
  1.790000000000000E-002    0.590252650078745     
  1.800000000000000E-002    0.599987847479020     
  1.810000000000000E-002    0.609636294779468     
  1.820000000000000E-002    0.619190237311044     
  1.830000000000000E-002    0.628641845445984     
  1.840000000000000E-002    0.637983253651584     
  1.850000000000000E-002    0.647206534599082     
  1.860000000000000E-002    0.656303672967893     
  1.870000000000000E-002    0.665266615601352     