 -4.000000000000000E-002    0.000000000000000E+000
 -3.990000000000000E-002    0.000000000000000E+000
 -3.980000000000000E-002    0.000000000000000E+000
 -3.970000000000000E-002    0.000000000000000E+000
 -3.960000000000000E-002    0.000000000000000E+000
 -3.950000000000000E-002    1.644845599856561E-020
 -3.940000000000000E-002    1.636577047651671E-019
 -3.930000000000000E-002    8.689856490257943E-019
 -3.920000000000000E-002    3.251617675334559E-018
 -3.910000000000000E-002    9.551938766574233E-018
 -3.900000000000000E-002    2.324235477194114E-017
 -3.890000000000000E-002    4.813622728688757E-017
 -3.880000000000000E-002    8.557083766624566E-017
 -3.870000000000000E-002    1.287634004638979E-016
 -3.860000000000000E-002    1.539244501127947E-016
 -3.850000000000000E-002    1.087896898595913E-016
 -3.840000000000000E-002   -9.912431758748356E-017
 -3.830000000000000E-002   -6.102694991335088E-016
 -3.820000000000000E-002   -1.610747504011604E-015
 -3.810000000000000E-002   -3.312888647878268E-015
 -3.800000000000000E-002   -5.912322181503329E-015
 -3.790000000000000E-002   -9.517963284397766E-015
 -3.780000000000000E-002   -1.405665951077462E-014
 -3.770000000000000E-002   -1.916175795757426E-014
 -3.760000000000000E-002   -2.406361540985642E-014
 -3.750000000000000E-002   -2.750845172381889E-014
 -3.740000000000000E-002   -2.773779617370448E-014
 -3.730000000000000E-002   -2.256179818640301E-014
 -3.720000000000000E-002   -9.553862386275963E-015
 -3.710000000000000E-002    1.361963194525288E-014
 -3.700000000000000E-002    4.874227218933236E-014
 -3.690000000000000E-002    9.649825242301166E-014
 -3.680000000000000E-002    1.558951833741308E-013
 -3.670000000000000E-002    2.237503508118813E-013
 -3.660000000000000E-002    2.943493701458834E-013
 -3.650000000000000E-002    3.593898015472851E-013
 -3.640000000000000E-002    4.083066680527625E-013
 -3.630000000000000E-002    4.290407122401810E-013
 -3.620000000000000E-002    4.092539128900208E-013
 -3.610000000000000E-002    3.379260401080658E-013
 -3.600000000000000E-002    2.071901029178707E-013
 -3.590000000000000E-002    1.419210455837187E-014
 -3.580000000000000E-002   -2.372913391633580E-013
 -3.570000000000000E-002   -5.357680312062730E-013
 -3.560000000000000E-002   -8.617505227425771E-013
 -3.550000000000000E-002   -1.188493099654006E-012
 -3.540000000000000E-002   -1.483853484060648E-012
 -3.530000000000000E-002   -1.713246151186678E-012
 -3.520000000000000E-002   -1.843497837247369E-012
 -3.510000000000000E-002   -1.847254683901781E-012
 -3.500000000000000E-002   -1.707453464708159E-012
 -3.490000000000000E-002   -1.421281241811121E-012
 -3.480000000000000E-002   -1.003012094786149E-012
 -3.470000000000000E-002   -4.851640005677127E-013
 -3.460000000000000E-002    8.246634123283328E-014
 -3.450000000000000E-002    6.361315094468520E-013
 -3.440000000000000E-002    1.103821044364632E-012
 -3.430000000000000E-002    1.413025375793284E-012
 -3.420000000000000E-002    1.500014941047664E-012
 -3.410000000000000E-002    1.319828688057224E-012
 -3.400000000000000E-002    8.559726685758728E-013
 -3.390000000000000E-002    1.287322367891423E-013
 -3.380000000000000E-002   -7.990154466055743E-013
 -3.370000000000000E-002   -1.819500122333984E-012
 -3.360000000000000E-002   -2.782085199652841E-012
 -3.350000000000000E-002   -3.500162929691154E-012
 -3.340000000000000E-002   -3.763085286459336E-012
 -3.330000000000000E-002   -3.352900507806925E-012
 -3.320000000000000E-002   -2.065219197496191E-012
 -3.310000000000000E-002    2.669127562649654E-013
 -3.300000000000000E-002    3.747706190799372E-012
 -3.290000000000000E-002    8.393811887674511E-012
 -3.280000000000000E-002    1.411227112259066E-011
 -3.270000000000000E-002    2.068366098209240E-011
 -3.260000000000000E-002    2.775295660858366E-011
 -3.250000000000000E-002    3.483041286138304E-011
 -3.240000000000000E-002    4.130440973418088E-011
 -3.230000000000000E-002    4.646747898813716E-011
 -3.220000000000000E-002    4.955583364946553E-011
 -3.210000000000000E-002    4.980143382968779E-011
 -3.200000000000000E-002    4.649428366776853E-011
 -3.190000000000000E-002    3.905110377818546E-011
 -3.180000000000000E-002    2.708517040692071E-011
 -3.170000000000000E-002    1.047093972491716E-011
 -3.160000000000000E-002   -1.060353524609977E-011
 -3.150000000000000E-002   -3.560347494696400E-011
 -3.140000000000000E-002   -6.363958027630451E-011
 -3.130000000000000E-002   -9.349013178412037E-011
 -3.120000000000000E-002   -1.236546702380087E-010
 -3.110000000000000E-002   -1.524378276605609E-010
 -3.100000000000000E-002   -1.780580897919407E-010
 -3.090000000000000E-002   -1.987726075027425E-010
 -3.080000000000000E-002   -2.130061132659550E-010
 -3.070000000000000E-002   -2.194696580635501E-010
 -3.060000000000000E-002   -2.172548526250310E-010
 -3.050000000000000E-002   -2.058903096581492E-010
 -3.040000000000000E-002   -1.853505462097741E-010
 -3.030000000000000E-002   -1.560129405137744E-010
 -3.020000000000000E-002   -1.185656298929648E-010
 -3.010000000000000E-002   -7.387638652552280E-011
 -3.000000000000000E-002   -2.284035551586417E-011
 -2.990000000000000E-002    3.376940040801912E-011
 -2.980000000000000E-002    9.542125734229432E-011
 -2.970000000000000E-002    1.618861252172439E-010
 -2.960000000000000E-002    2.332170526600457E-010
 -2.950000000000000E-002    3.096317827321216E-010
 -2.940000000000000E-002    3.912952899924522E-010
 -2.930000000000000E-002    4.780146121696939E-010
 -2.920000000000000E-002    5.688745489512825E-010
 -2.910000000000000E-002    6.618588005373852E-010
 -2.900000000000000E-002    7.535129626212411E-010
 -2.890000000000000E-002    8.387132166463612E-010
 -2.880000000000000E-002    9.106029626702850E-010
 -2.870000000000000E-002    9.607509844125888E-010
 -2.860000000000000E-002    9.795651886586998E-010
 -2.850000000000000E-002    9.569690611854431E-010
 -2.840000000000000E-002    8.833163833341175E-010
 -2.830000000000000E-002    7.504819066032466E-010
 -2.820000000000000E-002    5.530346638393198E-010
 -2.810000000000000E-002    2.893693952850161E-010
 -2.800000000000000E-002   -3.734139085165757E-011
 -2.790000000000000E-002   -4.185172058984082E-010
 -2.780000000000000E-002   -8.399872964725127E-010
 -2.770000000000000E-002   -1.282348110718256E-009
 -2.760000000000000E-002   -1.721905313407049E-009
 -2.750000000000000E-002   -2.132179626169476E-009
 -2.740000000000000E-002   -2.485890228974531E-009
 -2.730000000000000E-002   -2.757258828149577E-009
 -2.720000000000000E-002   -2.924422504566955E-009
 -2.710000000000000E-002   -2.971700350664737E-009
 -2.700000000000000E-002   -2.891447163072629E-009
 -2.690000000000000E-002   -2.685241814635347E-009
 -2.680000000000000E-002   -2.364206098481444E-009
 -2.670000000000000E-002   -1.948329307447867E-009
 -2.660000000000000E-002   -1.464775307590428E-009
 -2.650000000000000E-002   -9.452693778237866E-010
 -2.640000000000000E-002   -4.227764210682396E-010
 -2.630000000000000E-002    7.220120459959613E-011
 -2.620000000000000E-002    5.153069183360856E-010
 -2.610000000000000E-002    8.915465279087577E-010
 -2.600000000000000E-002    1.197597776397349E-009
 -2.590000000000000E-002    1.442842465170370E-009
 -2.580000000000000E-002    1.648848210511926E-009
 -2.570000000000000E-002    1.847202866937349E-009
 -2.560000000000000E-002    2.075774532665291E-009
 -2.550000000000000E-002    2.373681409519323E-009
 -2.540000000000000E-002    2.775431188795307E-009
 -2.530000000000000E-002    3.304850507817019E-009
 -2.520000000000000E-002    3.969507047918982E-009
 -2.510000000000000E-002    4.756360167473708E-009
 -2.500000000000000E-002    5.629297495628068E-009
 -2.490000000000000E-002    6.529080193643721E-009
 -2.480000000000000E-002    7.375990203604813E-009
 -2.470000000000000E-002    8.075187885912767E-009
 -2.460000000000000E-002    8.524495343145782E-009
 -2.450000000000000E-002    8.624000893680810E-009
 -2.440000000000000E-002    8.286620916635178E-009
 -2.430000000000000E-002    7.448572120333957E-009
 -2.420000000000000E-002    6.078603979973094E-009
 -2.410000000000000E-002    4.184888229035488E-009
 -2.400000000000000E-002    1.818615702049509E-009
 -2.390000000000000E-002   -9.263690678972847E-010
 -2.380000000000000E-002   -3.918187809341052E-009
 -2.370000000000000E-002   -6.995650946062062E-009
 -2.360000000000000E-002   -9.980478512856775E-009
 -2.350000000000000E-002   -1.269199322475473E-008
 -2.340000000000000E-002   -1.496291442079572E-008
 -2.330000000000000E-002   -1.665467708347542E-008
 -2.320000000000000E-002   -1.767064680716632E-008
 -2.310000000000000E-002   -1.796573299940315E-008
 -2.300000000000000E-002   -1.755119789791297E-008
 -2.290000000000000E-002   -1.649392457064932E-008
 -2.280000000000000E-002   -1.490996125635954E-008
 -2.270000000000000E-002   -1.295279263683911E-008
 -2.260000000000000E-002   -1.079737965343048E-008
 -2.250000000000000E-002   -8.621540214086722E-009
 -2.240000000000000E-002   -6.586625877736993E-009
 -2.230000000000000E-002   -4.819608534184508E-009
 -2.220000000000000E-002   -3.398669392838463E-009
 -2.210000000000000E-002   -2.344050588289809E-009
 -2.200000000000000E-002   -1.615488044598646E-009
 -2.190000000000000E-002   -1.116778965862164E-009
 -2.180000000000000E-002   -7.073400558880301E-010
 -2.170000000000000E-002   -2.197391685571615E-010
 -2.160000000000000E-002    5.185187606195301E-010
 -2.150000000000000E-002    1.661272924297001E-009
 -2.140000000000000E-002    3.320718278040653E-009
 -2.130000000000000E-002    5.547904052477233E-009
 -2.120000000000000E-002    8.319222003755305E-009
 -2.110000000000000E-002    1.153086920861890E-008
 -2.100000000000000E-002    1.500251033848192E-008
 -2.090000000000000E-002    1.849037988142964E-008
 -2.080000000000000E-002    2.170907144293179E-008
 -2.070000000000000E-002    2.436023169402740E-008
 -2.060000000000000E-002    2.616554885053590E-008
 -2.050000000000000E-002    2.690081232046975E-008
 -2.040000000000000E-002    2.642753176611018E-008
 -2.030000000000000E-002    2.471871975411345E-008
 -2.020000000000000E-002    2.187589441637850E-008
 -2.010000000000000E-002    1.813514643976750E-008
 -2.000000000000000E-002    1.386127131769906E-008
 -1.990000000000000E-002    9.530074492220230E-009
 -1.980000000000000E-002    5.700358837118905E-009
 -1.970000000000000E-002    2.978141602541851E-009
 -1.960000000000000E-002    1.976627947340064E-009
 -1.950000000000000E-002    3.276036014568207E-009
 -1.940000000000000E-002    7.387455147097407E-009
 -1.930000000000000E-002    1.472470170749528E-008
 -1.920000000000000E-002    2.558732267591048E-008
 -1.910000000000000E-002    4.015679631601285E-008
 -1.900000000000000E-002    5.850671671623910E-008
 -1.890000000000000E-002    8.062610073030145E-008
 -1.880000000000000E-002    1.064536892970370E-007
 -1.870000000000000E-002    1.359197653745305E-007
 -1.860000000000000E-002    1.689911630427127E-007
 -1.850000000000000E-002    2.057146718005543E-007
 -1.840000000000000E-002    2.462541425900735E-007
 -1.830000000000000E-002    2.909170525281670E-007
 -1.820000000000000E-002    3.401674699939064E-007
 -1.810000000000000E-002    3.946236194399353E-007
 -1.800000000000000E-002    4.550400261962057E-007
 -1.790000000000000E-002    5.222756692929952E-007
 -1.780000000000000E-002    5.972512080800258E-007
 -1.770000000000000E-002    6.808998944718531E-007
 -1.760000000000000E-002    7.741168950914830E-007
 -1.750000000000000E-002    8.777126978412015E-007
 -1.740000000000000E-002    9.923758483112423E-007
 -1.730000000000000E-002    1.118649013937998E-006
 -1.720000000000000E-002    1.256921261289873E-006
 -1.710000000000000E-002    1.407438368495799E-006
 -1.700000000000000E-002    1.570329968703117E-006
 -1.690000000000000E-002    1.745652069003290E-006
 -1.680000000000000E-002    1.933439619588738E-006
 -1.670000000000000E-002    2.133765578751284E-006
 -1.660000000000000E-002    2.346799356750013E-006
 -1.650000000000000E-002    2.572859828466213E-006
 -1.640000000000000E-002    2.812456157576194E-006
 -1.630000000000000E-002    3.066312934284817E-006
 -1.620000000000000E-002    3.335377828324228E-006
 -1.610000000000000E-002    3.620808224284096E-006
 -1.600000000000000E-002    3.923940567947387E-006
 -1.590000000000000E-002    4.246244302686689E-006
 -1.580000000000000E-002    4.589265246062784E-006
 -1.570000000000000E-002    4.954563201850058E-006
 -1.560000000000000E-002    5.343652154713753E-006
 -1.550000000000000E-002    5.757948761909711E-006
 -1.540000000000000E-002    6.198733883277351E-006
 -1.530000000000000E-002    6.667132538829002E-006
 -1.520000000000000E-002    7.164115270022957E-006
 -1.510000000000000E-002    7.690522072092706E-006
 -1.500000000000000E-002    8.247104894644974E-006
 -1.490000000000000E-002    8.834588842869364E-006
 -1.480000000000000E-002    9.453744645700068E-006
 -1.470000000000000E-002    1.010546872374011E-005
 -1.460000000000000E-002    1.079086014982525E-005
 -1.450000000000000E-002    1.151129030416406E-005
 -1.440000000000000E-002    1.226846057364454E-005
 -1.430000000000000E-002    1.306443902383210E-005
 -1.420000000000000E-002    1.390167508545504E-005
 -1.410000000000000E-002    1.478299555530416E-005
 -1.400000000000000E-002    1.571157601693216E-005
 -1.390000000000000E-002    1.669089202447929E-005
 -1.380000000000000E-002    1.772466617416569E-005
 -1.370000000000000E-002    1.881679468432171E-005
 -1.360000000000000E-002    1.997129336745819E-005
 -1.350000000000000E-002    2.119222872645105E-005
 -1.340000000000000E-002    2.248368671914934E-005
 -1.330000000000000E-002    2.384974363082350E-005
 -1.320000000000000E-002    2.529446439191571E-005
 -1.310000000000000E-002    2.682192951865843E-005
 -1.300000000000000E-002    2.843627757700701E-005
 -1.290000000000000E-002    3.014176937228457E-005
 -1.280000000000000E-002    3.194286880469339E-005
 -1.270000000000000E-002    3.384432645102420E-005
 -1.260000000000000E-002    3.585126764201906E-005
 -1.250000000000000E-002    3.796925765518380E-005
 -1.240000000000000E-002    4.020438269724448E-005
 -1.230000000000000E-002    4.256327449273043E-005
 -1.220000000000000E-002    4.505313272762599E-005
 -1.210000000000000E-002    4.768170601021146E-005
 -1.200000000000000E-002    5.045727344290885E-005
 -1.190000000000000E-002    5.338856685040692E-005
 -1.180000000000000E-002    5.648471351243334E-005
 -1.170000000000000E-002    5.975514717406768E-005
 -1.160000000000000E-002    6.320953348109999E-005
 -1.150000000000000E-002    6.685768904018689E-005
 -1.140000000000000E-002    7.070953381401407E-005
 -1.130000000000000E-002    7.477506915057179E-005
 -1.120000000000000E-002    7.906435514987052E-005
 -1.110000000000000E-002    8.358755753055353E-005
 -1.100000000000000E-002    8.835499334492097E-005
 -1.090000000000000E-002    9.337723508235018E-005
 -1.080000000000000E-002    9.866519154638267E-005
 -1.070000000000000E-002    1.042302358942720E-004
 -1.060000000000000E-002    1.100843302814194E-004
 -1.050000000000000E-002    1.162401271767854E-004
 -1.040000000000000E-002    1.227110832622037E-004
 -1.030000000000000E-002    1.295115139861589E-004
 -1.020000000000000E-002    1.366566523621145E-004
 -1.010000000000000E-002    1.441626685338622E-004
 -1.000000000000000E-002    1.520466332626032E-004
 -9.899999999999999E-003    1.603265160644843E-004
 -9.800000000000000E-003    1.690211126629664E-004
 -9.699999999999999E-003    1.781499657631875E-004
 -9.599999999999999E-003    1.877333299764081E-004
 -9.500000000000000E-003    1.977920844509102E-004
 -9.399999999999999E-003    2.083477353034635E-004
 -9.299999999999999E-003    2.194223636439086E-004
 -9.200000000000000E-003    2.310386916353126E-004
 -9.099999999999999E-003    2.432200968864890E-004
 -8.999999999999999E-003    2.559907323548715E-004
 -8.900000000000000E-003    2.693756420685341E-004
 -8.799999999999999E-003    2.834008550542043E-004
 -8.699999999999999E-003    2.980935822722261E-004
 -8.600000000000000E-003    3.134822734042141E-004
 -8.499999999999999E-003    3.295967955927298E-004
 -8.399999999999999E-003    3.464685850959794E-004
 -8.300000000000000E-003    3.641305955913183E-004
 -8.199999999999999E-003    3.826174717441064E-004
 -8.100000000000000E-003    4.019654974888343E-004
 -8.000000000000000E-003    4.222125906055467E-004
 -7.899999999999999E-003    4.433982463448325E-004
 -7.800000000000000E-003    4.655634960481697E-004
 -7.699999999999999E-003    4.887508646089335E-004
 -7.599999999999999E-003    5.130042615535871E-004
 -7.499999999999999E-003    5.383689599654804E-004
 -7.399999999999999E-003    5.648916263829826E-004
 -7.299999999999999E-003    5.926201970449886E-004
 -7.199999999999999E-003    6.216039960024819E-004
 -7.100000000000000E-003    6.518938473499513E-004
 -6.999999999999999E-003    6.835421310677390E-004
 -6.899999999999999E-003    7.166027643301434E-004
 -6.800000000000000E-003    7.511315305014384E-004
 -6.699999999999999E-003    7.871861181189859E-004
 -6.599999999999999E-003    8.248262240190035E-004
 -6.499999999999999E-003    8.641137079964686E-004
 -6.399999999999999E-003    9.051126435331139E-004
 -6.299999999999999E-003    9.478893913562670E-004
 -6.199999999999999E-003    9.925126981278000E-004
 -6.100000000000000E-003    1.039053658724149E-003
 -5.999999999999999E-003    1.087585684261416E-003
 -5.899999999999999E-003    1.138184389957394E-003
 -5.800000000000000E-003    1.190927863726759E-003
 -5.699999999999999E-003    1.245896254037549E-003
 -5.599999999999999E-003    1.303171907303500E-003
 -5.499999999999999E-003    1.362839463578219E-003
 -5.399999999999999E-003    1.424985423407900E-003
 -5.299999999999999E-003    1.489698787604322E-003
 -5.199999999999999E-003    1.557070365364084E-003
 -5.099999999999999E-003    1.627193253283727E-003
 -4.999999999999999E-003    1.700162803648746E-003
 -4.899999999999999E-003    1.776076720651305E-003
 -4.799999999999999E-003    1.855034924658734E-003
 -4.699999999999999E-003    1.937139937899630E-003
 -4.599999999999999E-003    2.022496754275477E-003
 -4.499999999999999E-003    2.111212939882044E-003
 -4.399999999999999E-003    2.203398932539764E-003
 -4.299999999999999E-003    2.299167764168363E-003
 -4.199999999999999E-003    2.398635232522046E-003
 -4.099999999999999E-003    2.501920390511533E-003
 -3.999999999999999E-003    2.609145063851272E-003
 -3.899999999999999E-003    2.720434056659963E-003
 -3.799999999999999E-003    2.835915038418194E-003
 -3.699999999999999E-003    2.955719107074052E-003
 -3.599999999999999E-003    3.079980380530557E-003
 -3.499999999999999E-003    3.208835582969401E-003
 -3.399999999999999E-003    3.342425017695699E-003
 -3.299999999999999E-003    3.480891918890217E-003
 -3.199999999999999E-003    3.624382252320891E-003
 -3.099999999999999E-003    3.773045462801972E-003
 -2.999999999999999E-003    3.927033814404347E-003
 -2.899999999999999E-003    4.086502695012083E-003
 -2.799999999999999E-003    4.251610481242831E-003
 -2.699999999999999E-003    4.422519391866599E-003
 -2.599999999999999E-003    4.599394642922131E-003
 -2.499999999999999E-003    4.782404935312050E-003
 -2.399999999999999E-003    4.971722641697697E-003
 -2.299999999999999E-003    5.167524088239128E-003
 -2.199999999999999E-003    5.369989141683412E-003
 -2.099999999999999E-003    5.579302532992329E-003
 -1.999999999999999E-003    5.795652384650633E-003
 -1.899999999999999E-003    6.019231811722541E-003
 -1.799999999999999E-003    6.250238104404781E-003
 -1.699999999999999E-003    6.488873233362224E-003
 -1.599999999999999E-003    6.735343196996314E-003
 -1.499999999999999E-003    6.989858116982170E-003
 -1.399999999999999E-003    7.252632198929219E-003
 -1.299999999999999E-003    7.523884162644701E-003
 -1.199999999999999E-003    7.803835716802001E-003
 -1.099999999999999E-003    8.092711954690333E-003
 -9.999999999999989E-004    8.390741749238121E-003
 -8.999999999999990E-004    8.698157382067778E-003
 -7.999999999999990E-004    9.015193806311664E-003
 -6.999999999999989E-004    9.342089647109263E-003
 -5.999999999999990E-004    9.679085971232241E-003
 -4.999999999999989E-004    1.002642763429618E-002
 -3.999999999999989E-004    1.038436341685602E-002
 -2.999999999999989E-004    1.075314399842204E-002
 -1.999999999999989E-004    1.113302539380402E-002
 -9.999999999999892E-005    1.152426706398698E-002
  1.084202172485504E-018    1.192713180841411E-002
  1.000000000000011E-004    1.234188621405959E-002
  2.000000000000011E-004    1.276880120920290E-002
  3.000000000000011E-004    1.320815071405682E-002
  4.000000000000011E-004    1.366021273000315E-002
  5.000000000000011E-004    1.412526690923906E-002
  6.000000000000011E-004    1.460359639778060E-002
  7.000000000000011E-004    1.509548607932469E-002
  8.000000000000011E-004    1.560122238116854E-002
  9.000000000000012E-004    1.612109353013970E-002
  1.000000000000001E-003    1.665538807449479E-002
  1.100000000000001E-003    1.720439718254755E-002
  1.200000000000001E-003    1.776841055100585E-002
  1.300000000000001E-003    1.834772081010898E-002
  1.400000000000001E-003    1.894261914308282E-002
  1.500000000000001E-003    1.955339898748467E-002
  1.600000000000001E-003    2.018035538506236E-002
  1.700000000000001E-003    2.082378370660018E-002
  1.800000000000001E-003    2.148397877348560E-002
  1.900000000000001E-003    2.216123994291473E-002
  2.000000000000001E-003    2.285586458312500E-002
  2.100000000000001E-003    2.356815138723504E-002
  2.200000000000001E-003    2.429839992339624E-002
  2.300000000000001E-003    2.504690992458786E-002
  2.400000000000001E-003    2.581398002099761E-002
  2.500000000000001E-003    2.659990586821049E-002
  2.600000000000001E-003    2.740498191536538E-002
  2.700000000000001E-003    2.822950236588415E-002
  2.800000000000001E-003    2.907375522044981E-002
  2.900000000000001E-003    2.993802655208134E-002
  3.000000000000001E-003    3.082259914349302E-002
  3.100000000000001E-003    3.172775074889113E-002
  3.200000000000001E-003    3.265375658624417E-002
  3.300000000000001E-003    3.360088659745877E-002
  3.400000000000001E-003    3.456940693045087E-002
  3.500000000000001E-003    3.555958226688867E-002
  3.600000000000001E-003    3.657167265752359E-002
  3.700000000000001E-003    3.760593066941739E-002
  3.800000000000001E-003    3.866260463912936E-002
  3.900000000000001E-003    3.974194440697208E-002
  4.000000000000001E-003    4.084418983111593E-002
  4.100000000000001E-003    4.196957911487747E-002
  4.200000000000001E-003    4.311833927661698E-002
  4.300000000000001E-003    4.429069668524541E-002
  4.400000000000001E-003    4.548686163712488E-002
  4.500000000000001E-003    4.670704256887252E-002
  4.600000000000002E-003    4.795143846535317E-002
  4.700000000000001E-003    4.922023958948329E-002
  4.800000000000001E-003    5.051362224892230E-002
  4.900000000000002E-003    5.183175490464792E-002
  5.000000000000001E-003    5.317479798590789E-002
  5.100000000000001E-003    5.454289399395536E-002
  5.200000000000001E-003    5.593618002586178E-002
  5.300000000000002E-003    5.735478174193727E-002
  5.400000000000001E-003    5.879881125043800E-002
  5.500000000000001E-003    6.026836869911249E-002
  5.600000000000002E-003    6.176354544704648E-002
  5.700000000000001E-003    6.328441369200832E-002
  5.800000000000001E-003    6.483103838868663E-002
  5.900000000000002E-003    6.640346869925105E-002
  6.000000000000001E-003    6.800173275316956E-002
  6.100000000000001E-003    6.962585020625608E-002
  6.200000000000002E-003    7.127582260385973E-002
  6.300000000000002E-003    7.295163391724849E-002
  6.400000000000001E-003    7.465324383584407E-002
  6.500000000000001E-003    7.638059633204550E-002
  6.600000000000002E-003    7.813361151585546E-002
  6.700000000000001E-003    7.991219283260331E-002
  6.800000000000001E-003    8.171621816982116E-002
  6.900000000000002E-003    8.354554952640010E-002
  7.000000000000001E-003    8.540001714715220E-002
  7.100000000000001E-003    8.727943212548944E-002
  7.200000000000002E-003    8.918358615624332E-002
  7.300000000000002E-003    9.111223652041073E-002
  7.400000000000001E-003    9.306511712626740E-002
  7.500000000000001E-003    9.504194351180199E-002
  7.600000000000002E-003    9.704239348810910E-002
  7.700000000000001E-003    9.906612739352250E-002
  7.800000000000001E-003    0.101112761773456     
  7.900000000000001E-003    0.103181894727558     
  8.000000000000002E-003    0.105273088167613     
  8.100000000000001E-003    0.107385875114668     
  8.200000000000001E-003    0.109519745056941     
  8.300000000000002E-003    0.111674165527114     
  8.400000000000001E-003    0.113848552323739     
  8.500000000000002E-003    0.116042299230516     
  8.600000000000002E-003    0.118254754700024     
  8.700000000000001E-003    0.120485225832084     
  8.800000000000002E-003    0.122732994276813     
  8.900000000000002E-003    0.124997282489847     
  9.000000000000001E-003    0.127277288637007     
  9.100000000000002E-003    0.129572159670398     
  9.200000000000002E-003    0.131881002767359     
  9.300000000000001E-003    0.134202879700174     
  9.400000000000002E-003    0.136536799837522     
  9.500000000000001E-003    0.138881738632418     
  9.600000000000001E-003    0.141236622972813     
  9.700000000000002E-003    0.143600318552020     
  9.800000000000001E-003    0.145971646740870     
  9.900000000000001E-003    0.148349368355506     
  1.000000000000000E-002    0.150732199077920     
  1.010000000000000E-002    0.153118789992274     
  1.020000000000000E-002    0.155507756598468     
  1.030000000000000E-002    0.157897626716397     
  1.040000000000000E-002    0.160286899027628     
  1.050000000000000E-002    0.162674000233127     
  1.060000000000000E-002    0.165057301931679     
  1.070000000000000E-002    0.167435105669972     
  1.080000000000000E-002    0.169805660927731     
  1.090000000000000E-002    0.172167147392503     
  1.100000000000000E-002    0.174517679858487     
  1.110000000000000E-002    0.176855308485572     
  1.120000000000000E-002    0.179178025007579     
  1.130000000000000E-002    0.181483744760331     
  1.140000000000000E-002    0.183770311516522     
  1.150000000000000E-002    0.186035501461734     
  1.160000000000000E-002    0.188277013316275     
  1.170000000000000E-002    0.190492462215459     
  1.180000000000000E-002    0.192679406246082     
  1.190000000000000E-002    0.194835322858365     
  1.200000000000000E-002    0.196957609830466     
  1.210000000000000E-002    0.199043590231563     
  1.220000000000000E-002    0.201090505319235     
  1.230000000000000E-002    0.203095522638034     
  1.240000000000000E-002    0.205055722008714     
  1.250000000000000E-002    0.206968107220766     
  1.260000000000000E-002    0.208829595805460     
  1.270000000000000E-002    0.210637041283238     
  1.280000000000000E-002    0.212387206432133     
  1.290000000000000E-002    0.214076767467853     
  1.300000000000000E-002    0.215702305443600     
  1.310000000000000E-002    0.217260337939291     
  1.320000000000000E-002    0.218747278998251     
  1.330000000000000E-002    0.220159470306799     
  1.340000000000000E-002    0.221493154192797     
  1.350000000000000E-002    0.222744500227496     
  1.360000000000000E-002    0.223909573044999     
  1.370000000000000E-002    0.224984355134171     
  1.380000000000000E-002    0.225964744956675     
  1.390000000000000E-002    0.226846555441190     
  1.400000000000000E-002    0.227625523857184     
  1.410000000000000E-002    0.228297275823527     
  1.420000000000000E-002    0.228857382636309     
  1.430000000000000E-002    0.229301315653917     
  1.440000000000000E-002    0.229624486169466     
  1.450000000000000E-002    0.229822175350423     
  1.460000000000000E-002    0.229889636726387     
  1.470000000000000E-002    0.229822021394559     
  1.480000000000000E-002    0.229614392173167     
  1.490000000000000E-002    0.229261768273951     
  1.500000000000000E-002    0.228759056845030     
  1.510000000000000E-002    0.228101114654682     
  1.520000000000000E-002    0.227282708469199     
  1.530000000000000E-002    0.226298551225540     
  1.540000000000000E-002    0.225143273820698     
  1.550000000000000E-002    0.223811457423233     
  1.560000000000000E-002    0.222297625087578     
  1.570000000000000E-002    0.220596226070986     
  1.580000000000000E-002    0.218701659720203     
  1.590000000000000E-002    0.216608271122079     
  1.600000000000000E-002    0.214310374270722     
  1.610000000000000E-002    0.211802215674589     
  1.620000000000000E-002    0.209078020817171     
  1.630000000000000E-002    0.206131972587996     
  1.640000000000000E-002    0.202958241006729     
  1.650000000000000E-002    0.199550938016925     
  1.660000000000000E-002    0.195904183169963     
  1.670000000000000E-002    0.192012057882107     
  1.680000000000000E-002    0.187868640530559     
  1.690000000000000E-002    0.183468004151289     
  1.700000000000000E-002    0.178804214198417     
  1.710000000000000E-002    0.173871357248576     
  1.720000000000000E-002    0.168663509663798     
  1.730000000000000E-002    0.163174782882057     
  1.740000000000000E-002    0.157399287344681     
  1.750000000000000E-002    0.151331203241515     
  1.760000000000000E-002    0.144964715843069     
  1.770000000000000E-002    0.138294083284575     
  1.780000000000000E-002    0.131313600818459     
  1.790000000000000E-002    0.124017628651034     
  1.800000000000000E-002    0.116400612293246     
  1.810000000000000E-002    0.108457054953387     
  1.820000000000000E-002    0.100181569268436     
  1.830000000000000E-002    9.156884407365123E-002
  1.840000000000000E-002    8.261369226449795E-002
  1.850000000000000E-002    7.331101942810492E-002
  1.860000000000000E-002    6.365586742070649E-002
  1.870000000000000E-002    5.364340506433134E-002