 -4.000000000000000E-002    0.000000000000000E+000
 -3.990000000000000E-002    0.000000000000000E+000
 -3.980000000000000E-002    0.000000000000000E+000
 -3.970000000000000E-002    0.000000000000000E+000
 -3.960000000000000E-002    0.000000000000000E+000
 -3.950000000000000E-002    0.000000000000000E+000
 -3.940000000000000E-002    0.000000000000000E+000
 -3.930000000000000E-002    0.000000000000000E+000
 -3.920000000000000E-002    6.439348128258910E-029
 -3.910000000000000E-002    1.009366462846951E-027
 -3.900000000000000E-002    8.282730826967819E-027
 -3.890000000000000E-002    4.726100611039511E-026
 -3.880000000000000E-002    2.101859566782237E-025
 -3.870000000000000E-002    7.743602457669161E-025
 -3.860000000000000E-002    2.452820584211136E-024
 -3.850000000000000E-002    6.844472356005617E-024
 -3.840000000000000E-002    1.710367926199796E-023
 -3.830000000000000E-002    3.869304759139632E-023
 -3.820000000000000E-002    7.975308146141995E-023
 -3.810000000000000E-002    1.500759652071681E-022
 -3.800000000000000E-002    2.569385514922568E-022
 -3.790000000000000E-002    3.953020427532625E-022
 -3.780000000000000E-002    5.294963660694299E-022
 -3.770000000000000E-002    5.640797896007188E-022
 -3.760000000000000E-002    3.038877209120749E-022
 -3.750000000000000E-002   -5.918432008205825E-022
 -3.740000000000000E-002   -2.648467929295463E-021
 -3.730000000000000E-002   -6.584519634229154E-021
 -3.720000000000000E-002   -1.325438305556259E-020
 -3.710000000000000E-002   -2.347954539128189E-020
 -3.700000000000000E-002   -3.772001721674714E-020
 -3.690000000000000E-002   -5.554842547185804E-020
 -3.680000000000000E-002   -7.492113569258164E-020
 -3.670000000000000E-002   -9.129930606166929E-020
 -3.660000000000000E-002   -9.675941453413228E-020
 -3.650000000000000E-002   -7.934189862138895E-020
 -3.640000000000000E-002   -2.300187724127616E-020
 -3.630000000000000E-002    9.138031449126673E-020
 -3.620000000000000E-002    2.834383163076253E-019
 -3.610000000000000E-002    5.687927292863728E-019
 -3.600000000000000E-002    9.523697837741956E-019
 -3.590000000000000E-002    1.419790068932911E-018
 -3.580000000000000E-002    1.927654227203849E-018
 -3.570000000000000E-002    2.394302830847880E-018
 -3.560000000000000E-002    2.693427454589394E-018
 -3.550000000000000E-002    2.653605561816571E-018
 -3.540000000000000E-002    2.067194271777460E-018
 -3.530000000000000E-002    7.118197936367212E-019
 -3.520000000000000E-002   -1.613320447484134E-018
 -3.510000000000000E-002   -5.036113475464034E-018
 -3.500000000000000E-002   -9.547928171228757E-018
 -3.490000000000000E-002   -1.493440042513593E-017
 -3.480000000000000E-002   -2.071154813560795E-017
 -3.470000000000000E-002   -2.608219645511997E-017
 -3.460000000000000E-002   -2.993055284845430E-017
 -3.450000000000000E-002   -3.087335904163090E-017
 -3.440000000000000E-002   -2.738331611571273E-017
 -3.430000000000000E-002   -1.799355845450703E-017
 -3.420000000000000E-002   -1.580548062606113E-018
 -3.410000000000000E-002    2.229283469465201E-017
 -3.400000000000000E-002    5.301061926857096E-017
 -3.390000000000000E-002    8.856898203452851E-017
 -3.380000000000000E-002    1.253450410473301E-016
 -3.370000000000000E-002    1.580501771380189E-016
 -3.360000000000000E-002    1.799473664494428E-016
 -3.350000000000000E-002    1.833961086474595E-016
 -3.340000000000000E-002    1.607557060221317E-016
 -3.330000000000000E-002    1.056283000730001E-016
 -3.320000000000000E-002    1.435948950207461E-017
 -3.310000000000000E-002   -1.123569848753846E-016
 -3.300000000000000E-002   -2.679936459205559E-016
 -3.290000000000000E-002   -4.391020711391775E-016
 -3.280000000000000E-002   -6.049318562015636E-016
 -3.270000000000000E-002   -7.380523889490632E-016
 -3.260000000000000E-002   -8.062111567469503E-016
 -3.250000000000000E-002   -7.755447006532592E-016
 -3.240000000000000E-002   -6.150863436361731E-016
 -3.230000000000000E-002   -3.023014651795596E-016
 -3.220000000000000E-002    1.708529516493920E-016
 -3.210000000000000E-002    7.920718580067951E-016
 -3.200000000000000E-002    1.523953633059448E-015
 -3.190000000000000E-002    2.301356482643630E-015
 -3.180000000000000E-002    3.031826728208507E-015
 -3.170000000000000E-002    3.599888169880054E-015
 -3.160000000000000E-002    3.875644364061560E-015
 -3.150000000000000E-002    3.727664936981635E-015
 -3.140000000000000E-002    3.039524533944018E-015
 -3.130000000000000E-002    1.728720488967405E-015
 -3.120000000000000E-002   -2.339328248329993E-016
 -3.110000000000000E-002   -2.806829473924815E-015
 -3.100000000000000E-002   -5.864698092199964E-015
 -3.090000000000000E-002   -9.192977649366019E-015
 -3.080000000000000E-002   -1.249171264744252E-014
 -3.070000000000000E-002   -1.539045867813781E-014
 -3.060000000000000E-002   -1.747458345895194E-014
 -3.050000000000000E-002   -1.832194361555544E-014
 -3.040000000000000E-002   -1.754744125577164E-014
 -3.030000000000000E-002   -1.485152512763817E-014
 -3.020000000000000E-002   -1.006753675954243E-014
 -3.010000000000000E-002   -3.202126835324275E-015
 -3.000000000000000E-002    5.537053484810175E-015
 -2.990000000000000E-002    1.573141813559115E-014
 -2.980000000000000E-002    2.676283448149229E-014
 -2.970000000000000E-002    3.784759978115544E-014
 -2.960000000000000E-002    4.809166118117771E-014
 -2.950000000000000E-002    5.656278260185470E-014
 -2.940000000000000E-002    6.237271022760810E-014
 -2.930000000000000E-002    6.476038215757538E-014
 -2.920000000000000E-002    6.316607303330466E-014
 -2.910000000000000E-002    5.728667676646282E-014
 -2.900000000000000E-002    4.710405803377079E-014
 -2.890000000000000E-002    3.288140594159389E-014
 -2.880000000000000E-002    1.512691816793469E-014
 -2.870000000000000E-002   -5.471066062156032E-015
 -2.860000000000000E-002   -2.812823513377539E-014
 -2.850000000000000E-002   -5.205449555379314E-014
 -2.840000000000000E-002   -7.653414140388815E-014
 -2.830000000000000E-002   -1.009793527247338E-013
 -2.820000000000000E-002   -1.249428328851964E-013
 -2.810000000000000E-002   -1.480800321747381E-013
 -2.800000000000000E-002   -1.700589830325496E-013
 -2.790000000000000E-002   -1.904252034040421E-013
 -2.780000000000000E-002   -2.084385413081424E-013
 -2.770000000000000E-002   -2.229085985093795E-013
 -2.760000000000000E-002   -2.320617922702832E-013
 -2.750000000000000E-002   -2.334763459186546E-013
 -2.740000000000000E-002   -2.241194100721141E-013
 -2.730000000000000E-002   -2.005128735239524E-013
 -2.720000000000000E-002   -1.590407096661576E-013
 -2.710000000000000E-002   -9.639248907883528E-014
 -2.700000000000000E-002   -1.011606712157964E-014
 -2.690000000000000E-002    1.007700680236793E-013
 -2.680000000000000E-002    2.351738612836626E-013
 -2.670000000000000E-002    3.894200366174423E-013
 -2.660000000000000E-002    5.569229985099855E-013
 -2.650000000000000E-002    7.281264736005511E-013
 -2.640000000000000E-002    8.907760152442569E-013
 -2.630000000000000E-002    1.030561148651266E-012
 -2.620000000000000E-002    1.132122763033287E-012
 -2.610000000000000E-002    1.180374970055752E-012
 -2.600000000000000E-002    1.162041425418447E-012
 -2.590000000000000E-002    1.067261854381738E-012
 -2.580000000000000E-002    8.910901547063552E-013
 -2.570000000000000E-002    6.346909765239270E-013
 -2.560000000000000E-002    3.060461169554475E-013
 -2.550000000000000E-002   -7.998679556312025E-014
 -2.540000000000000E-002   -5.023641571474290E-013
 -2.530000000000000E-002   -9.353176472887867E-013
 -2.520000000000000E-002   -1.350519004588808E-012
 -2.510000000000000E-002   -1.719778967965143E-012
 -2.500000000000000E-002   -2.018021062475652E-012
 -2.490000000000000E-002   -2.226197681767364E-012
 -2.480000000000000E-002   -2.333772691856249E-012
 -2.470000000000000E-002   -2.340397323313397E-012
 -2.460000000000000E-002   -2.256452947664778E-012
 -2.450000000000000E-002   -2.102231357042334E-012
 -2.440000000000000E-002   -1.905666653879617E-012
 -2.430000000000000E-002   -1.698705596412775E-012
 -2.420000000000000E-002   -1.512596739419474E-012
 -2.410000000000000E-002   -1.372561556530063E-012
 -2.400000000000000E-002   -1.292466279158599E-012
 -2.390000000000000E-002   -1.270214294377716E-012
 -2.380000000000000E-002   -1.284603971363779E-012
 -2.370000000000000E-002   -1.294329245164858E-012
 -2.360000000000000E-002   -1.239643802222346E-012
 -2.350000000000000E-002   -1.046957430947584E-012
 -2.340000000000000E-002   -6.363063763799595E-013
 -2.330000000000000E-002    6.872465711005300E-014
 -2.320000000000000E-002    1.129426010716334E-012
 -2.310000000000000E-002    2.579866309323578E-012
 -2.300000000000000E-002    4.415654298469590E-012
 -2.290000000000000E-002    6.585065799057516E-012
 -2.280000000000000E-002    8.983993400742794E-012
 -2.270000000000000E-002    1.145596379604543E-011
 -2.260000000000000E-002    1.379807149092422E-011
 -2.250000000000000E-002    1.577310796993183E-011
 -2.240000000000000E-002    1.712750702804865E-011
 -2.230000000000000E-002    1.761400787114912E-011
 -2.220000000000000E-002    1.701723748474284E-011
 -2.210000000000000E-002    1.517983960573178E-011
 -2.200000000000000E-002    1.202639470618304E-011
 -2.190000000000000E-002    7.582249643751984E-012
 -2.180000000000000E-002    1.984578449070101E-012
 -2.170000000000000E-002   -4.516484882860519E-012
 -2.160000000000000E-002   -1.156795302414016E-011
 -2.150000000000000E-002   -1.873556450989103E-011
 -2.140000000000000E-002   -2.553581207060378E-011
 -2.130000000000000E-002   -3.147610199327800E-011
 -2.120000000000000E-002   -3.609958192942455E-011
 -2.110000000000000E-002   -3.903025845338855E-011
 -2.100000000000000E-002   -4.001349809621858E-011
 -2.090000000000000E-002   -3.894705007203788E-011
 -2.080000000000000E-002   -3.589824893765268E-011
 -2.070000000000000E-002   -3.110420650609486E-011
 -2.060000000000000E-002   -2.495341491207722E-011
 -2.050000000000000E-002   -1.794919212634075E-011
 -2.040000000000000E-002   -1.065753191563102E-011
 -2.030000000000000E-002   -3.644015321979573E-012
 -2.020000000000000E-002    2.593740109325321E-012
 -2.010000000000000E-002    7.690466233260951E-012
 -2.000000000000000E-002    1.146637233293400E-011
 -1.990000000000000E-002    1.396140236201525E-011
 -1.980000000000000E-002    1.544443413304403E-011
 -1.970000000000000E-002    1.639357274829970E-011
 -1.960000000000000E-002    1.744677681749819E-011
 -1.950000000000000E-002    1.932545123027261E-011
 -1.940000000000000E-002    2.273735349892928E-011
 -1.930000000000000E-002    2.826824021810970E-011
 -1.920000000000000E-002    3.627421999960339E-011
 -1.910000000000000E-002    4.678809502119950E-011
 -1.900000000000000E-002    5.945282747187917E-011
 -1.890000000000000E-002    7.349363684296051E-011
 -1.880000000000000E-002    8.773693963135160E-011
 -1.870000000000000E-002    1.006798457884189E-010
 -1.860000000000000E-002    1.106083771421263E-010
 -1.850000000000000E-002    1.157566836815635E-010
 -1.840000000000000E-002    1.144938915619409E-010
 -1.830000000000000E-002    1.055204992209273E-010
 -1.820000000000000E-002    8.805320619356347E-011
 -1.810000000000000E-002    6.197599284591598E-011
 -1.800000000000000E-002    2.793690904909445E-011
 -1.790000000000000E-002   -1.262604868350006E-011
 -1.780000000000000E-002   -5.754009292993697E-011
 -1.770000000000000E-002   -1.040358609732449E-010
 -1.760000000000000E-002   -1.489613647176653E-010
 -1.750000000000000E-002   -1.890552072585534E-010
 -1.740000000000000E-002   -2.212541457493529E-010
 -1.730000000000000E-002   -2.430040439468038E-010
 -1.720000000000000E-002   -2.525399828379720E-010
 -1.710000000000000E-002   -2.491017979118977E-010
 -1.700000000000000E-002   -2.330558721149990E-010
 -1.690000000000000E-002   -2.059020053035193E-010
 -1.680000000000000E-002   -1.701558067088512E-010
 -1.670000000000000E-002   -1.291106185818868E-010
 -1.660000000000000E-002   -8.649700942178827E-011
 -1.650000000000000E-002   -4.607154863853833E-011
 -1.640000000000000E-002   -1.117745426272719E-011
 -1.630000000000000E-002    1.567367309382579E-011
 -1.620000000000000E-002    3.314799760026513E-011
 -1.610000000000000E-002    4.131649292074650E-011
 -1.600000000000000E-002    4.172633793227229E-011
 -1.590000000000000E-002    3.729492622180308E-011
 -1.580000000000000E-002    3.202409570969286E-011
 -1.570000000000000E-002    3.055319263197203E-011
 -1.560000000000000E-002    3.759018814713391E-011
 -1.550000000000000E-002    5.727786333689792E-011
 -1.540000000000000E-002    9.256497121012869E-011
 -1.530000000000000E-002    1.446575959763355E-010
 -1.520000000000000E-002    2.126234050220493E-010
 -1.510000000000000E-002    2.932098746033200E-010
 -1.500000000000000E-002    3.809181983370807E-010
 -1.490000000000000E-002    4.683482152458256E-010
 -1.480000000000000E-002    5.467999818679936E-010
 -1.470000000000000E-002    6.070861894772577E-010
 -1.460000000000000E-002    6.404819863381362E-010
 -1.450000000000000E-002    6.397164492578816E-010
 -1.440000000000000E-002    5.998967934184517E-010
 -1.430000000000000E-002    5.192557199808624E-010
 -1.420000000000000E-002    3.996229940978364E-010
 -1.410000000000000E-002    2.465456265952354E-010
 -1.400000000000000E-002    6.901492212309909E-011
 -1.390000000000000E-002   -1.211998890381696E-010
 -1.380000000000000E-002   -3.105679118901851E-010
 -1.370000000000000E-002   -4.850762130925516E-010
 -1.360000000000000E-002   -6.316492659316576E-010
 -1.350000000000000E-002   -7.395614113408138E-010
 -1.340000000000000E-002   -8.016839378255162E-010
 -1.330000000000000E-002   -8.154155583918828E-010
 -1.320000000000000E-002   -7.831704445116353E-010
 -1.310000000000000E-002   -7.123377257839743E-010
 -1.300000000000000E-002   -6.146792416121605E-010
 -1.290000000000000E-002   -5.051938274195487E-010
 -1.280000000000000E-002   -4.005365618241652E-010
 -1.270000000000000E-002   -3.171387013258312E-010
 -1.260000000000000E-002   -2.692167247020067E-010
 -1.250000000000000E-002   -2.668855343368162E-010
 -1.240000000000000E-002   -3.145926535125395E-010
 -1.230000000000000E-002   -4.100728914648481E-010
 -1.220000000000000E-002   -5.439763892996382E-010
 -1.210000000000000E-002   -7.002622640527388E-010
 -1.200000000000000E-002   -8.573719523702567E-010
 -1.190000000000000E-002   -9.901127643518178E-010
 -1.180000000000000E-002   -1.072100709493344E-009
 -1.170000000000000E-002   -1.078542534640787E-009
 -1.160000000000000E-002   -9.890851543106531E-010
 -1.150000000000000E-002   -7.904380898818897E-010
 -1.140000000000000E-002   -4.784787250321540E-010
 -1.130000000000000E-002   -5.958836958887074E-011
 -1.120000000000000E-002    4.489677552461471E-010
 -1.110000000000000E-002    1.019713777169038E-009
 -1.100000000000000E-002    1.616685194490006E-009
 -1.090000000000000E-002    2.198084104609131E-009
 -1.080000000000000E-002    2.719653976263419E-009
 -1.070000000000000E-002    3.138475578591643E-009
 -1.060000000000000E-002    3.416829166620518E-009
 -1.050000000000000E-002    3.525749451313297E-009
 -1.040000000000000E-002    3.447914445815042E-009
 -1.030000000000000E-002    3.179564176106776E-009
 -1.020000000000000E-002    2.731234168900917E-009
 -1.010000000000000E-002    2.127201289542957E-009
 -1.000000000000000E-002    1.403665111332647E-009
 -9.899999999999999E-003    6.058172131563336E-010
 -9.800000000000000E-003   -2.159330712347304E-010
 -9.699999999999999E-003   -1.010220443227719E-009
 -9.599999999999999E-003   -1.729057820943012E-009
 -9.500000000000000E-003   -2.331818706180375E-009
 -9.399999999999999E-003   -2.788472509626589E-009
 -9.299999999999999E-003   -3.081752101650791E-009
 -9.200000000000000E-003   -3.208042254416683E-009
 -9.099999999999999E-003   -3.176909954093284E-009
 -8.999999999999999E-003   -3.009345025191765E-009
 -8.900000000000000E-003   -2.734912521285431E-009
 -8.799999999999999E-003   -2.388143792671356E-009
 -8.699999999999999E-003   -2.004577439715020E-009
 -8.600000000000000E-003   -1.616898705997678E-009
 -8.499999999999999E-003   -1.251630507035648E-009
 -8.399999999999999E-003   -9.267554441404255E-010
 -8.300000000000000E-003   -6.505630636442509E-010
 -8.199999999999999E-003   -4.218700678883686E-010
 -8.100000000000000E-003   -2.315986112273659E-010
 -8.000000000000000E-003   -6.555432152419056E-011
 -7.899999999999999E-003    9.193594192298157E-011
 -7.800000000000000E-003    2.539493642701448E-010
 -7.699999999999999E-003    4.269969375264134E-010
 -7.599999999999999E-003    6.076659073678862E-010
 -7.499999999999999E-003    7.804252580562280E-010
 -7.399999999999999E-003    9.169615324656744E-010
 -7.299999999999999E-003    9.773450194915882E-010
 -7.199999999999999E-003    9.131236851870073E-010
 -7.100000000000000E-003    6.722140057181151E-010
 -6.999999999999999E-003    2.053376049844887E-010
 -6.899999999999999E-003   -5.265071689975983E-010
 -6.800000000000000E-003   -1.544133395480917E-009
 -6.699999999999999E-003   -2.842479968090731E-009
 -6.599999999999999E-003   -4.383851117566602E-009
 -6.499999999999999E-003   -6.092795854878202E-009
 -6.399999999999999E-003   -7.853016690903623E-009
 -6.299999999999999E-003   -9.506844604748596E-009
 -6.199999999999999E-003   -1.085720963446576E-008
 -6.100000000000000E-003   -1.167216015749285E-008
 -5.999999999999999E-003   -1.169157665797916E-008
 -5.899999999999999E-003   -1.063537333353848E-008
 -5.800000000000000E-003   -8.212749740890613E-009
 -5.699999999999999E-003   -4.131509853335765E-009
 -5.599999999999999E-003    1.893506257950369E-009
 -5.499999999999999E-003    1.013335402596936E-008
 -5.399999999999999E-003    2.084025903268499E-008
 -5.299999999999999E-003    3.424544589085324E-008
 -5.199999999999999E-003    5.055991946641857E-008
 -5.099999999999999E-003    6.997819286901613E-008
 -4.999999999999999E-003    9.268451013791800E-008
 -4.899999999999999E-003    1.188610166629506E-007
 -4.799999999999999E-003    1.486973885328597E-007
 -4.699999999999999E-003    1.824005832606530E-007
 -4.599999999999999E-003    2.202045204690289E-007
 -4.499999999999999E-003    2.623776996627729E-007
 -4.399999999999999E-003    3.092293367661735E-007
 -4.299999999999999E-003    3.611121727581962E-007
 -4.199999999999999E-003    4.184224454363986E-007
 -4.099999999999999E-003    4.815967714586049E-007
 -3.999999999999999E-003    5.511062689707966E-007
 -3.899999999999999E-003    6.274481938262805E-007
 -3.799999999999999E-003    7.111361976465467E-007
 -3.699999999999999E-003    8.026902808019342E-007
 -3.599999999999999E-003    9.026268592042386E-007
 -3.499999999999999E-003    1.011450726042340E-006
 -3.399999999999999E-003    1.129649163422641E-006
 -3.299999999999999E-003    1.257689195545929E-006
 -3.199999999999999E-003    1.396018742555771E-006
 -3.099999999999999E-003    1.545071031851197E-006
 -2.999999999999999E-003    1.705272475163179E-006
 -2.899999999999999E-003    1.877053265009058E-006
 -2.799999999999999E-003    2.060860347077401E-006
 -2.699999999999999E-003    2.257171325136331E-006
 -2.599999999999999E-003    2.466507445630480E-006
 -2.499999999999999E-003    2.689445755577162E-006
 -2.399999999999999E-003    2.926629406750960E-006
 -2.299999999999999E-003    3.178773006293693E-006
 -2.199999999999999E-003    3.446666463180366E-006
 -2.099999999999999E-003    3.731172881748385E-006
 -1.999999999999999E-003    4.033224022281760E-006
 -1.899999999999999E-003    4.353811698057008E-006
 -1.799999999999999E-003    4.693978243451157E-006
 -1.699999999999999E-003    5.054805243699396E-006
 -1.599999999999999E-003    5.437402578423588E-006
 -1.499999999999999E-003    5.842900525936114E-006
 -1.399999999999999E-003    6.272443770414460E-006
 -1.299999999999999E-003    6.727188946389724E-006
 -1.199999999999999E-003    7.208309932920792E-006
 -1.099999999999999E-003    7.717004105482378E-006
 -9.999999999999989E-004    8.254507717654644E-006
 -8.999999999999990E-004    8.822110821297957E-006
 -7.999999999999990E-004    9.421179417263361E-006
 -6.999999999999989E-004    1.005317655311864E-005
 -5.999999999999990E-004    1.071968501046817E-005
 -4.999999999999989E-004    1.142242743469660E-005
 -3.999999999999989E-004    1.216328304782128E-005
 -2.999999999999989E-004    1.294430081878864E-005
 -1.999999999999989E-004    1.376770834190586E-005
 -9.999999999999892E-005    1.463591153976204E-005
  1.084202172485504E-018    1.555149144628682E-005
  1.000000000000011E-004    1.651719971519646E-005
  2.000000000000011E-004    1.753594195254995E-005
  3.000000000000011E-004    1.861076855407464E-005
  4.000000000000011E-004    1.974486015610959E-005
  5.000000000000011E-004    2.094151795642867E-005
  6.000000000000011E-004    2.220415374109455E-005
  7.000000000000011E-004    2.353629327344798E-005
  8.000000000000011E-004    2.494157959435841E-005
  9.000000000000012E-004    2.642378606590156E-005
  1.000000000000001E-003    2.798682995881879E-005
  1.100000000000001E-003    2.963480368269380E-005
  1.200000000000001E-003    3.137199929097287E-005
  1.300000000000001E-003    3.320294639991427E-005
  1.400000000000001E-003    3.513243183370210E-005
  1.500000000000001E-003    3.716553191588901E-005
  1.600000000000001E-003    3.930764838438539E-005
  1.700000000000001E-003    4.156450954620890E-005
  1.800000000000001E-003    4.394219519701593E-005
  1.900000000000001E-003    4.644712420400145E-005
  2.000000000000001E-003    4.908606375203356E-005
  2.100000000000001E-003    5.186611110337656E-005
  2.200000000000001E-003    5.479467536008957E-005
  2.300000000000001E-003    5.787945449116690E-005
  2.400000000000001E-003    6.112842692549160E-005
  2.500000000000001E-003    6.454982475989381E-005
  2.600000000000001E-003    6.815211951151236E-005
  2.700000000000001E-003    7.194402758805563E-005
  2.800000000000001E-003    7.593449803503905E-005
  2.900000000000001E-003    8.013274445775752E-005
  3.000000000000001E-003    8.454826462389852E-005
  3.100000000000001E-003    8.919087586376447E-005
  3.200000000000001E-003    9.407075247928141E-005
  3.300000000000001E-003    9.919847879087591E-005
  3.400000000000001E-003    1.045850948711227E-004
  3.500000000000001E-003    1.102421425545052E-004
  3.600000000000001E-003    1.161817187637528E-004
  3.700000000000001E-003    1.224164972944358E-004
  3.800000000000001E-003    1.289598012114577E-004
  3.900000000000001E-003    1.358255533856761E-004
  4.000000000000001E-003    1.430283522745867E-004
  4.100000000000001E-003    1.505834397662282E-004
  4.200000000000001E-003    1.585067168621761E-004
  4.300000000000001E-003    1.668146911008578E-004
  4.400000000000001E-003    1.755245135179233E-004
  4.500000000000001E-003    1.846539220375304E-004
  4.600000000000002E-003    1.942212749579329E-004
  4.700000000000001E-003    2.042455091452836E-004
  4.800000000000001E-003    2.147461840096461E-004
  4.900000000000002E-003    2.257434602868703E-004
  5.000000000000001E-003    2.372581322064721E-004
  5.100000000000001E-003    2.493117159236403E-004
  5.200000000000001E-003    2.619264080731273E-004
  5.300000000000002E-003    2.751252239336609E-004
  5.400000000000001E-003    2.889319856720387E-004
  5.500000000000001E-003    3.033713953039364E-004
  5.600000000000002E-003    3.184690821320247E-004
  5.700000000000001E-003    3.342516500162420E-004
  5.800000000000001E-003    3.507466911035294E-004
  5.900000000000002E-003    3.679828669683556E-004
  6.000000000000001E-003    3.859898266335456E-004
  6.100000000000001E-003    4.047982831442519E-004
  6.200000000000002E-003    4.244399844677879E-004
  6.300000000000002E-003    4.449476769621997E-004
  6.400000000000001E-003    4.663551524442902E-004
  6.500000000000001E-003    4.886971523647185E-004
  6.600000000000002E-003    5.120094991854660E-004
  6.700000000000001E-003    5.363289871644704E-004
  6.800000000000001E-003    5.616934214100604E-004
  6.900000000000002E-003    5.881416470412481E-004
  7.000000000000001E-003    6.157136618064118E-004
  7.100000000000001E-003    6.444505366205260E-004
  7.200000000000002E-003    6.743945388164278E-004
  7.300000000000002E-003    7.055892917867385E-004
  7.400000000000001E-003    7.380795856290902E-004
  7.500000000000001E-003    7.719116974626173E-004
  7.600000000000002E-003    8.071333084903959E-004
  7.700000000000001E-003    8.437935737468715E-004
  7.800000000000001E-003    8.819431619406509E-004
  7.900000000000001E-003    9.216341593506763E-004
  8.000000000000002E-003    9.629201952032860E-004
  8.100000000000001E-003    1.005856360137904E-003
  8.200000000000001E-003    1.050499153354381E-003
  8.300000000000002E-003    1.096906559891803E-003
  8.400000000000001E-003    1.145137801166893E-003
  8.500000000000002E-003    1.195253487449577E-003
  8.600000000000002E-003    1.247315473635641E-003
  8.700000000000001E-003    1.301386971481185E-003
  8.800000000000002E-003    1.357532457961055E-003
  8.900000000000002E-003    1.415817761611196E-003
  9.000000000000001E-003    1.476309770667385E-003
  9.100000000000002E-003    1.539077065419392E-003
  9.200000000000002E-003    1.604189442590613E-003
  9.300000000000001E-003    1.671718231942219E-003
  9.400000000000002E-003    1.741736329564765E-003
  9.500000000000001E-003    1.814318058485319E-003
  9.600000000000001E-003    1.889539445963123E-003
  9.700000000000002E-003    1.967478390090148E-003
  9.800000000000001E-003    2.048213962442206E-003
  9.900000000000001E-003    2.131827084227704E-003
  1.000000000000000E-002    2.218400269830729E-003
  1.010000000000000E-002    2.308017246121704E-003
  1.020000000000000E-002    2.400763650086075E-003
  1.030000000000000E-002    2.496725971043871E-003
  1.040000000000000E-002    2.595992337871823E-003
  1.050000000000000E-002    2.698651862440681E-003
  1.060000000000000E-002    2.804794796902446E-003
  1.070000000000000E-002    2.914512379620118E-003
  1.080000000000000E-002    3.027897004853118E-003
  1.090000000000000E-002    3.145041886481704E-003
  1.100000000000000E-002    3.266041263802325E-003
  1.110000000000000E-002    3.390990759177139E-003
  1.120000000000000E-002    3.519986522741401E-003
  1.130000000000000E-002    3.653126203360048E-003
  1.140000000000000E-002    3.790508587100149E-003
  1.150000000000000E-002    3.932232743180056E-003
  1.160000000000000E-002    4.078399862795288E-003
  1.170000000000000E-002    4.229111802788253E-003
  1.180000000000000E-002    4.384471243878686E-003
  1.190000000000000E-002    4.544581801040044E-003
  1.200000000000000E-002    4.709548379481440E-003
  1.210000000000000E-002    4.879476279504549E-003
  1.220000000000000E-002    5.054471072886446E-003
  1.230000000000000E-002    5.234639066899215E-003
  1.240000000000000E-002    5.420086830403165E-003
  1.250000000000000E-002    5.610920647413649E-003
  1.260000000000000E-002    5.807247147171338E-003
  1.270000000000000E-002    6.009172363105404E-003
  1.280000000000000E-002    6.216802302591363E-003
  1.290000000000000E-002    6.430241734960463E-003
  1.300000000000000E-002    6.649596415068609E-003
  1.310000000000000E-002    6.874970199570369E-003
  1.320000000000000E-002    7.106466520381625E-003
  1.330000000000000E-002    7.344188277863169E-003
  1.340000000000000E-002    7.588237178717596E-003
  1.350000000000000E-002    7.838715391361818E-003
  1.360000000000000E-002    8.095722420920052E-003
  1.370000000000000E-002    8.359357973316528E-003
  1.380000000000000E-002    8.629720132053955E-003
  1.390000000000000E-002    8.906905106100170E-003
  1.400000000000000E-002    9.191007476526155E-003
  1.410000000000000E-002    9.482120909252505E-003
  1.420000000000000E-002    9.780336098032269E-003
  1.430000000000000E-002    1.008574207529461E-002
  1.440000000000000E-002    1.039842365631795E-002
  1.450000000000000E-002    1.071846463129975E-002
  1.460000000000000E-002    1.104594483765023E-002
  1.470000000000000E-002    1.138094150777007E-002
  1.480000000000000E-002    1.172352718323605E-002
  1.490000000000000E-002    1.207377147360016E-002
  1.500000000000000E-002    1.243173972449556E-002
  1.510000000000000E-002    1.279749280573375E-002
  1.520000000000000E-002    1.317108858920915E-002
  1.530000000000000E-002    1.355257991293769E-002
  1.540000000000000E-002    1.394201479134487E-002
  1.550000000000000E-002    1.433943718986620E-002
  1.560000000000000E-002    1.474488594251715E-002
  1.570000000000000E-002    1.515839533810311E-002
  1.580000000000000E-002    1.557999409118590E-002
  1.590000000000000E-002    1.600970768795576E-002
  1.600000000000000E-002    1.644755204395009E-002
  1.610000000000000E-002    1.689354180659609E-002
  1.620000000000000E-002    1.734768204550842E-002
  1.630000000000000E-002    1.780997341200818E-002
  1.640000000000000E-002    1.828040980780703E-002
  1.650000000000000E-002    1.875897707050694E-002
  1.660000000000000E-002    1.924565413929010E-002
  1.670000000000000E-002    1.974041301000428E-002
  1.680000000000000E-002    2.024321842948578E-002
  1.690000000000000E-002    2.075402690334928E-002
  1.700000000000000E-002    2.127278636209536E-002
  1.710000000000000E-002    2.179943767119245E-002
  1.720000000000000E-002    2.233391122909857E-002
  1.730000000000000E-002    2.287613136086123E-002
  1.740000000000000E-002    2.342601335777528E-002
  1.750000000000000E-002    2.398346140446406E-002
  1.760000000000000E-002    2.454837471329543E-002
  1.770000000000000E-002    2.512064135669835E-002
  1.780000000000000E-002    2.570013913905147E-002
  1.790000000000000E-002    2.628673992252939E-002
  1.800000000000000E-002    2.688030516120197E-002
  1.810000000000000E-002    2.748068585540916E-002
  1.820000000000000E-002    2.808772383176756E-002
  1.830000000000000E-002    2.870125282085490E-002
  1.840000000000000E-002    2.932109320705968E-002
  1.850000000000000E-002    2.994705792096164E-002
  1.860000000000000E-002    3.057894800808637E-002
  1.870000000000000E-002    3.121655429096885E-002