 -4.000000000000000E-002    0.000000000000000E+000
 -3.990000000000000E-002    0.000000000000000E+000
 -3.980000000000000E-002    0.000000000000000E+000
 -3.970000000000000E-002    0.000000000000000E+000
 -3.960000000000000E-002    0.000000000000000E+000
 -3.950000000000000E-002    0.000000000000000E+000
 -3.940000000000000E-002    0.000000000000000E+000
 -3.930000000000000E-002    1.641015885708623E-026
 -3.920000000000000E-002    2.218493842380044E-025
 -3.910000000000000E-002    1.571024441995427E-024
 -3.900000000000000E-002    7.722210110695722E-024
 -3.890000000000000E-002    2.944618329457249E-023
 -3.880000000000000E-002    9.221691154262776E-023
 -3.870000000000000E-002    2.447668181667548E-022
 -3.860000000000000E-002    5.590566827736406E-022
 -3.850000000000000E-002    1.098864255909953E-021
 -3.840000000000000E-002    1.815899183389255E-021
 -3.830000000000000E-002    2.314840896006442E-021
 -3.820000000000000E-002    1.425307042410337E-021
 -3.810000000000000E-002   -3.448721589533606E-021
 -3.800000000000000E-002   -1.713454571793888E-020
 -3.790000000000000E-002   -4.739564679048839E-020
 -3.780000000000000E-002   -1.049869289473540E-019
 -3.770000000000000E-002   -2.021361320845745E-019
 -3.760000000000000E-002   -3.481445326822773E-019
 -3.750000000000000E-002   -5.405659276197703E-019
 -3.740000000000000E-002   -7.505585048665539E-019
 -3.730000000000000E-002   -9.018094008838929E-019
 -3.720000000000000E-002   -8.441859166942656E-019
 -3.710000000000000E-002   -3.261871929468166E-019
 -3.700000000000000E-002    1.025663735294920E-018
 -3.690000000000000E-002    3.707499158245556E-018
 -3.680000000000000E-002    8.301130867023215E-018
 -3.670000000000000E-002    1.537842624917553E-017
 -3.660000000000000E-002    2.532631197740493E-017
 -3.650000000000000E-002    3.807761161437652E-017
 -3.640000000000000E-002    5.274680925360391E-017
 -3.630000000000000E-002    6.719304935493365E-017
 -3.620000000000000E-002    7.756547960053354E-017
 -3.610000000000000E-002    7.792578424582225E-017
 -3.600000000000000E-002    6.008522665861951E-017
 -3.590000000000000E-002    1.382931908043755E-017
 -3.580000000000000E-002   -7.227758004611386E-017
 -3.570000000000000E-002   -2.093269673009267E-016
 -3.560000000000000E-002   -4.056137781504274E-016
 -3.550000000000000E-002   -6.632797330651651E-016
 -3.540000000000000E-002   -9.742013961082684E-016
 -3.530000000000000E-002   -1.315492186290528E-015
 -3.520000000000000E-002   -1.645242459938131E-015
 -3.510000000000000E-002   -1.899382639526134E-015
 -3.500000000000000E-002   -1.990768750365490E-015
 -3.490000000000000E-002   -1.811708365717636E-015
 -3.480000000000000E-002   -1.241104263212407E-015
 -3.470000000000000E-002   -1.571266838250820E-016
 -3.460000000000000E-002    1.544188422687207E-015
 -3.450000000000000E-002    3.924812261421313E-015
 -3.440000000000000E-002    6.976497112179102E-015
 -3.430000000000000E-002    1.059106630439933E-014
 -3.420000000000000E-002    1.453307107478265E-014
 -3.410000000000000E-002    1.841971560374931E-014
 -3.400000000000000E-002    2.171366642499636E-014
 -3.390000000000000E-002    2.373444580377328E-014
 -3.380000000000000E-002    2.369341157208600E-014
 -3.370000000000000E-002    2.075567459578120E-014
 -3.360000000000000E-002    1.412964692671056E-014
 -3.350000000000000E-002    3.181355965216819E-015
 -3.340000000000000E-002   -1.243352071352819E-014
 -3.330000000000000E-002   -3.263144992222605E-014
 -3.320000000000000E-002   -5.677233544958983E-014
 -3.310000000000000E-002   -8.355913769157066E-014
 -3.300000000000000E-002   -1.109862502943372E-013
 -3.290000000000000E-002   -1.363562094646728E-013
 -3.280000000000000E-002   -1.563809601435476E-013
 -3.270000000000000E-002   -1.673774404921075E-013
 -3.260000000000000E-002   -1.655580431670921E-013
 -3.250000000000000E-002   -1.474053799593926E-013
 -3.240000000000000E-002   -1.101081050347533E-013
 -3.230000000000000E-002   -5.202234669250964E-014
 -3.220000000000000E-002    2.688722515385660E-014
 -3.210000000000000E-002    1.246797031821177E-013
 -3.200000000000000E-002    2.371983841104682E-013
 -3.190000000000000E-002    3.580101495660398E-013
 -3.180000000000000E-002    4.785630781547189E-013
 -3.170000000000000E-002    5.885838164770691E-013
 -3.160000000000000E-002    6.767133952385748E-013
 -3.150000000000000E-002    7.313523916393396E-013
 -3.140000000000000E-002    7.416599214315571E-013
 -3.130000000000000E-002    6.986250979614091E-013
 -3.120000000000000E-002    5.961113593748237E-013
 -3.110000000000000E-002    4.317643474088941E-013
 -3.100000000000000E-002    2.076767225454733E-013
 -3.090000000000000E-002   -6.928157715387143E-014
 -3.080000000000000E-002   -3.875308897434692E-013
 -3.070000000000000E-002   -7.312709443323933E-013
 -3.060000000000000E-002   -1.081370947176300E-012
 -3.050000000000000E-002   -1.416591500643186E-012
 -3.040000000000000E-002   -1.715027210429109E-012
 -3.030000000000000E-002   -1.955627349286456E-012
 -3.020000000000000E-002   -2.119635742331524E-012
 -3.010000000000000E-002   -2.191796267559414E-012
 -3.000000000000000E-002   -2.161198237523106E-012
 -2.990000000000000E-002   -2.021681419911074E-012
 -2.980000000000000E-002   -1.771783889874149E-012
 -2.970000000000000E-002   -1.414287093911944E-012
 -2.960000000000000E-002   -9.554784974474685E-013
 -2.950000000000000E-002   -4.043094089354247E-013
 -2.940000000000000E-002    2.283460859719238E-013
 -2.930000000000000E-002    9.301250164424187E-013
 -2.920000000000000E-002    1.687139825269285E-012
 -2.910000000000000E-002    2.483380998896071E-012
 -2.900000000000000E-002    3.299581266219559E-012
 -2.890000000000000E-002    4.111684547227838E-012
 -2.880000000000000E-002    4.889193602565301E-012
 -2.870000000000000E-002    5.593775276559079E-012
 -2.860000000000000E-002    6.178571023732457E-012
 -2.850000000000000E-002    6.588660476444707E-012
 -2.840000000000000E-002    6.763062547125992E-012
 -2.830000000000000E-002    6.638507083828929E-012
 -2.820000000000000E-002    6.154992134372962E-012
 -2.810000000000000E-002    5.262865170865760E-012
 -2.800000000000000E-002    3.930877314394375E-012
 -2.790000000000000E-002    2.154367988497396E-012
 -2.780000000000000E-002   -3.746864607855177E-014
 -2.770000000000000E-002   -2.576409126579478E-012
 -2.760000000000000E-002   -5.353257568587756E-012
 -2.750000000000000E-002   -8.220085527652836E-012
 -2.740000000000000E-002   -1.099723686619782E-011
 -2.730000000000000E-002   -1.348517955471574E-011
 -2.720000000000000E-002   -1.548065387124835E-011
 -2.710000000000000E-002   -1.679591808896277E-011
 -2.700000000000000E-002   -1.727928531240518E-011
 -2.690000000000000E-002   -1.683464294601409E-011
 -2.680000000000000E-002   -1.543742212576417E-011
 -2.670000000000000E-002   -1.314450919579808E-011
 -2.660000000000000E-002   -1.009596661587377E-011
 -2.650000000000000E-002   -6.507179374426075E-012
 -2.640000000000000E-002   -2.651037013840570E-012
 -2.630000000000000E-002    1.168976397283810E-012
 -2.620000000000000E-002    4.652608850619604E-012
 -2.610000000000000E-002    7.540172018897846E-012
 -2.600000000000000E-002    9.649014874741368E-012
 -2.590000000000000E-002    1.090420411446570E-011
 -2.580000000000000E-002    1.135856359315011E-011
 -2.570000000000000E-002    1.119784979529443E-011
 -2.560000000000000E-002    1.072823075834551E-011
 -2.550000000000000E-002    1.034511608908934E-011
 -2.540000000000000E-002    1.048472690564247E-011
 -2.530000000000000E-002    1.156227994341585E-011
 -2.520000000000000E-002    1.390298970557544E-011
 -2.510000000000000E-002    1.767399113122908E-011
 -2.500000000000000E-002    2.282633820285673E-011
 -2.490000000000000E-002    2.905634846745018E-011
 -2.480000000000000E-002    3.579438073350284E-011
 -2.470000000000000E-002    4.222685231648225E-011
 -2.460000000000000E-002    4.735388635130325E-011
 -2.450000000000000E-002    5.008078631722104E-011
 -2.440000000000000E-002    4.933704798144462E-011
 -2.430000000000000E-002    4.421226546978910E-011
 -2.420000000000000E-002    3.409469153379910E-011
 -2.410000000000000E-002    1.879594636354460E-011
 -2.400000000000000E-002   -1.355132702876167E-012
 -2.390000000000000E-002   -2.546503813813007E-011
 -2.380000000000000E-002   -5.208636214821502E-011
 -2.370000000000000E-002   -7.929320912391274E-011
 -2.360000000000000E-002   -1.048205343292465E-010
 -2.350000000000000E-002   -1.262591504194403E-010
 -2.340000000000000E-002   -1.412903676844184E-010
 -2.330000000000000E-002   -1.479378513742522E-010
 -2.320000000000000E-002   -1.448096340173676E-010
 -2.310000000000000E-002   -1.313014652914360E-010
 -2.300000000000000E-002   -1.077342412970448E-010
 -2.290000000000000E-002   -7.540318346463807E-011
 -2.280000000000000E-002   -3.652444868632506E-011
 -2.270000000000000E-002    5.924297336088922E-012
 -2.260000000000000E-002    4.846071584920910E-011
 -2.250000000000000E-002    8.743138222851810E-011
 -2.240000000000000E-002    1.193900391734761E-010
 -2.230000000000000E-002    1.414807111611212E-010
 -2.220000000000000E-002    1.517815644676409E-010
 -2.210000000000000E-002    1.495662166667117E-010
 -2.200000000000000E-002    1.354452945041741E-010
 -2.190000000000000E-002    1.113620954598640E-010
 -2.180000000000000E-002    8.043149515360076E-011
 -2.170000000000000E-002    4.662898928726261E-011
 -2.160000000000000E-002    1.435519446842906E-011
 -2.150000000000000E-002   -1.208159652418899E-011
 -2.140000000000000E-002   -2.900902904080174E-011
 -2.130000000000000E-002   -3.389702100658700E-011
 -2.120000000000000E-002   -2.576236038468270E-011
 -2.110000000000000E-002   -5.414279433163934E-012
 -2.100000000000000E-002    2.450191791725905E-011
 -2.090000000000000E-002    5.968536064243782E-011
 -2.080000000000000E-002    9.458127461454479E-011
 -2.070000000000000E-002    1.229741064448691E-010
 -2.060000000000000E-002    1.387168246971805E-010
 -2.050000000000000E-002    1.365204815436645E-010
 -2.040000000000000E-002    1.127145931868863E-010
 -2.030000000000000E-002    6.588495974555732E-011
 -2.020000000000000E-002   -2.697110415218240E-012
 -2.010000000000000E-002   -8.892321595071393E-011
 -2.000000000000000E-002   -1.860148160122642E-010
 -1.990000000000000E-002   -2.850164946007066E-010
 -1.980000000000000E-002   -3.755847422273781E-010
 -1.970000000000000E-002   -4.470057838615130E-010
 -1.960000000000000E-002   -4.893433266587980E-010
 -1.950000000000000E-002   -4.945956999771199E-010
 -1.940000000000000E-002   -4.577311926888649E-010
 -1.930000000000000E-002   -3.774758259933908E-010
 -1.920000000000000E-002   -2.567467798278405E-010
 -1.910000000000000E-002   -1.026584619322851E-010
 -1.900000000000000E-002    7.392813483211527E-011
 -1.890000000000000E-002    2.592918806798342E-010
 -1.880000000000000E-002    4.381017771554914E-010
 -1.870000000000000E-002    5.949136067964161E-010
 -1.860000000000000E-002    7.157597419685429E-010
 -1.850000000000000E-002    7.896594768110493E-010
 -1.840000000000000E-002    8.098760315063139E-010
 -1.830000000000000E-002    7.747652808993009E-010
 -1.820000000000000E-002    6.880987558949318E-010
 -1.810000000000000E-002    5.587967545151058E-010
 -1.800000000000000E-002    4.000713857683931E-010
 -1.790000000000000E-002    2.280465686536314E-010
 -1.780000000000000E-002    5.998600617659231E-011
 -1.770000000000000E-002   -8.768773503999426E-011
 -1.760000000000000E-002   -2.013658996923698E-010
 -1.750000000000000E-002   -2.719879297224644E-010
 -1.740000000000000E-002   -2.963232149902748E-010
 -1.730000000000000E-002   -2.776231385599017E-010
 -1.720000000000000E-002   -2.255294367893493E-010
 -1.710000000000000E-002   -1.552008920804358E-010
 -1.700000000000000E-002   -8.570766440191257E-011
 -1.690000000000000E-002   -3.782900834464223E-011
 -1.680000000000000E-002   -3.146309784863698E-011
 -1.670000000000000E-002   -8.291610225358821E-011
 -1.660000000000000E-002   -2.023666982652579E-010
 -1.650000000000000E-002   -3.918003225156256E-010
 -1.640000000000000E-002   -6.436739353333161E-010
 -1.630000000000000E-002   -9.405085149187154E-010
 -1.620000000000000E-002   -1.255517743139001E-009
 -1.610000000000000E-002   -1.554276323742620E-009
 -1.600000000000000E-002   -1.797321741485365E-009
 -1.590000000000000E-002   -1.943479288525383E-009
 -1.580000000000000E-002   -1.953615356595971E-009
 -1.570000000000000E-002   -1.794465355166067E-009
 -1.560000000000000E-002   -1.442160468556704E-009
 -1.550000000000000E-002   -8.850939362787892E-010
 -1.540000000000000E-002   -1.258242058658627E-010
 -1.530000000000000E-002    8.182015763134537E-010
 -1.520000000000000E-002    1.915200828643664E-009
 -1.510000000000000E-002    3.120857092266538E-009
 -1.500000000000000E-002    4.381208363578271E-009
 -1.490000000000000E-002    5.636348424347647E-009
 -1.480000000000000E-002    6.824571854036798E-009
 -1.470000000000000E-002    7.886549227064857E-009
 -1.460000000000000E-002    8.769098894627191E-009
 -1.450000000000000E-002    9.428174020202688E-009
 -1.440000000000000E-002    9.830753803794507E-009
 -1.430000000000000E-002    9.955459976094315E-009
 -1.420000000000000E-002    9.791852304528809E-009
 -1.410000000000000E-002    9.338525064617274E-009
 -1.400000000000000E-002    8.600269972707238E-009
 -1.390000000000000E-002    7.584700089537204E-009
 -1.380000000000000E-002    6.298825927114651E-009
 -1.370000000000000E-002    4.746114903370870E-009
 -1.360000000000000E-002    2.924551750377285E-009
 -1.350000000000000E-002    8.261614805066098E-010
 -1.340000000000000E-002   -1.561673801460600E-009
 -1.330000000000000E-002   -4.252925011273641E-009
 -1.320000000000000E-002   -7.257665309604610E-009
 -1.310000000000000E-002   -1.057505499074728E-008
 -1.300000000000000E-002   -1.418495940364923E-008
 -1.290000000000000E-002   -1.803873944033758E-008
 -1.280000000000000E-002   -2.204986099264616E-008
 -1.270000000000000E-002   -2.608503291789072E-008
 -1.260000000000000E-002   -2.995655434681208E-008
 -1.250000000000000E-002   -3.341648256280091E-008
 -1.240000000000000E-002   -3.615305370380857E-008
 -1.230000000000000E-002   -3.778968931622968E-008
 -1.220000000000000E-002   -3.788656614408912E-008
 -1.210000000000000E-002   -3.594463495901510E-008
 -1.200000000000000E-002   -3.141163486092149E-008
 -1.190000000000000E-002   -2.368957384467066E-008
 -1.180000000000000E-002   -1.214293790177545E-008
 -1.170000000000000E-002    3.893145280085675E-009
 -1.160000000000000E-002    2.510555506217937E-008
 -1.150000000000000E-002    5.219729112970388E-008
 -1.140000000000000E-002    8.588360030264143E-008
 -1.130000000000000E-002    1.268905156085607E-007
 -1.120000000000000E-002    1.759556932550587E-007
 -1.110000000000000E-002    2.338314534051127E-007
 -1.100000000000000E-002    3.012898906176448E-007
 -1.090000000000000E-002    3.791290034990622E-007
 -1.080000000000000E-002    4.681792169017231E-007
 -1.070000000000000E-002    5.693099804988465E-007
 -1.060000000000000E-002    6.834346596553065E-007
 -1.050000000000000E-002    8.115144838627671E-007
 -1.040000000000000E-002    9.545590070023467E-007
 -1.030000000000000E-002    1.113625536055196E-006
 -1.020000000000000E-002    1.289814619136866E-006
 -1.010000000000000E-002    1.484264367317875E-006
 -1.000000000000000E-002    1.698143010836055E-006
 -9.899999999999999E-003    1.932639980919314E-006
 -9.800000000000000E-003    2.188958199326246E-006
 -9.699999999999999E-003    2.468306382585639E-006
 -9.599999999999999E-003    2.771895131314709E-006
 -9.500000000000000E-003    3.100934181966337E-006
 -9.399999999999999E-003    3.456634590495591E-006
 -9.299999999999999E-003    3.840213888111933E-006
 -9.200000000000000E-003    4.252906542175203E-006
 -9.099999999999999E-003    4.695976388219000E-006
 -8.999999999999999E-003    5.170731567792565E-006
 -8.900000000000000E-003    5.678543166079818E-006
 -8.799999999999999E-003    6.220863627952031E-006
 -8.699999999999999E-003    6.799243057877093E-006
 -8.600000000000000E-003    7.415346130685691E-006
 -8.499999999999999E-003    8.070964622081245E-006
 -8.399999999999999E-003    8.768026528588462E-006
 -8.300000000000000E-003    9.508604226720298E-006
 -8.199999999999999E-003    1.029491504268144E-005
 -8.100000000000000E-003    1.112931772705315E-005
 -8.000000000000000E-003    1.201431360354544E-005
 -7.899999999999999E-003    1.295253785687447E-005
 -7.800000000000000E-003    1.394675803336059E-005
 -7.699999999999999E-003    1.499986856704456E-005
 -7.599999999999999E-003    1.611489290812356E-005
 -7.499999999999999E-003    1.729498610290954E-005
 -7.399999999999999E-003    1.854344304460758E-005
 -7.299999999999999E-003    1.986371451495849E-005
 -7.199999999999999E-003    2.125942381531154E-005
 -7.100000000000000E-003    2.273439002772646E-005
 -6.999999999999999E-003    2.429265708453062E-005
 -6.899999999999999E-003    2.593851738512318E-005
 -6.800000000000000E-003    2.767654203898491E-005
 -6.699999999999999E-003    2.951160862709012E-005
 -6.599999999999999E-003    3.144891748486797E-005
 -6.499999999999999E-003    3.349401705567055E-005
 -6.399999999999999E-003    3.565281371924948E-005
 -6.299999999999999E-003    3.793158163539076E-005
 -6.199999999999999E-003    4.033696251220900E-005
 -6.100000000000000E-003    4.287596822755618E-005
 -5.999999999999999E-003    4.555597208993351E-005
 -5.899999999999999E-003    4.838471104430598E-005
 -5.800000000000000E-003    5.137028272647710E-005
 -5.699999999999999E-003    5.452113523323226E-005
 -5.599999999999999E-003    5.784608738057669E-005
 -5.499999999999999E-003    6.135432629116738E-005
 -5.399999999999999E-003    6.505544893794524E-005
 -5.299999999999999E-003    6.895946041449101E-005
 -5.199999999999999E-003    7.307682633820094E-005
 -5.099999999999999E-003    7.741851165452488E-005
 -4.999999999999999E-003    8.199600553127229E-005
 -4.899999999999999E-003    8.682138397939072E-005
 -4.799999999999999E-003    9.190733550866816E-005
 -4.699999999999999E-003    9.726719914270693E-005
 -4.599999999999999E-003    1.029150243068672E-004
 -4.499999999999999E-003    1.088655529086396E-004
 -4.399999999999999E-003    1.151342771240127E-004
 -4.299999999999999E-003    1.217374303880793E-004
 -4.199999999999999E-003    1.286919997547003E-004
 -4.099999999999999E-003    1.360157381322123E-004
 -3.999999999999999E-003    1.437271632280539E-004
 -3.899999999999999E-003    1.518455583335618E-004
 -3.799999999999999E-003    1.603910094765307E-004
 -3.699999999999999E-003    1.693843914935296E-004
 -3.599999999999999E-003    1.788474235268314E-004
 -3.499999999999999E-003    1.888027000424761E-004
 -3.399999999999999E-003    1.992737352142656E-004
 -3.299999999999999E-003    2.102850251882127E-004
 -3.199999999999999E-003    2.218621143422541E-004
 -3.099999999999999E-003    2.340316538904131E-004
 -2.999999999999999E-003    2.468214890909859E-004
 -2.899999999999999E-003    2.602606811428196E-004
 -2.799999999999999E-003    2.743796381973342E-004
 -2.699999999999999E-003    2.892101017477177E-004
 -2.599999999999999E-003    3.047852141916748E-004
 -2.499999999999999E-003    3.211394961738553E-004
 -2.399999999999999E-003    3.383089443805721E-004
 -2.299999999999999E-003    3.563309374687186E-004
 -2.199999999999999E-003    3.752443479994012E-004
 -2.099999999999999E-003    3.950894452734922E-004
 -1.999999999999999E-003    4.159079279427366E-004
 -1.899999999999999E-003    4.377429639442730E-004
 -1.799999999999999E-003    4.606392365041513E-004
 -1.699999999999999E-003    4.846428839030310E-004
 -1.599999999999999E-003    5.098016099871150E-004
 -1.499999999999999E-003    5.361648340027122E-004
 -1.399999999999999E-003    5.637836723965019E-004
 -1.299999999999999E-003    5.927111227688969E-004
 -1.199999999999999E-003    6.230020869861173E-004
 -1.099999999999999E-003    6.547135939236377E-004
 -9.999999999999989E-004    6.879048682100110E-004
 -8.999999999999990E-004    7.226373752454902E-004
 -7.999999999999990E-004    7.589750845641609E-004
 -6.999999999999989E-004    7.969842292005059E-004
 -5.999999999999990E-004    8.367336739666158E-004
 -4.999999999999989E-004    8.782948070044080E-004
 -3.999999999999989E-004    9.217415832162050E-004
 -2.999999999999989E-004    9.671504202894148E-004
 -1.999999999999989E-004    1.014600238930997E-003
 -9.999999999999892E-005    1.064172538194186E-003
  1.084202172485504E-018    1.115951225527718E-003
  1.000000000000011E-004    1.170022724521722E-003
  2.000000000000011E-004    1.226475936591057E-003
  3.000000000000011E-004    1.285402207701690E-003
  4.000000000000011E-004    1.346895587793577E-003
  5.000000000000011E-004    1.411052728898419E-003
  6.000000000000011E-004    1.477973132351176E-003
  7.000000000000011E-004    1.547758915021240E-003
  8.000000000000011E-004    1.620515661722271E-003
  9.000000000000012E-004    1.696351739751984E-003
  1.000000000000001E-003    1.775378910065858E-003
  1.100000000000001E-003    1.857712480757416E-003
  1.200000000000001E-003    1.943471233943967E-003
  1.300000000000001E-003    2.032777492297357E-003
  1.400000000000001E-003    2.125757367189654E-003
  1.500000000000001E-003    2.222540441274535E-003
  1.600000000000001E-003    2.323260229277392E-003
  1.700000000000001E-003    2.428053885571675E-003
  1.800000000000001E-003    2.537062176071439E-003
  1.900000000000001E-003    2.650429302536244E-003
  2.000000000000001E-003    2.768303307172057E-003
  2.100000000000001E-003    2.890835518361977E-003
  2.200000000000001E-003    3.018181041536553E-003
  2.300000000000001E-003    3.150498110669079E-003
  2.400000000000001E-003    3.287948695796834E-003
  2.500000000000001E-003    3.430698491053751E-003
  2.600000000000001E-003    3.578916353739863E-003
  2.700000000000001E-003    3.732775137858958E-003
  2.800000000000001E-003    3.892451415820664E-003
  2.900000000000001E-003    4.058125395832323E-003
  3.000000000000001E-003    4.229981532441956E-003
  3.100000000000001E-003    4.408207839367520E-003
  3.200000000000001E-003    4.592996463271153E-003
  3.300000000000001E-003    4.784543614097130E-003
  3.400000000000001E-003    4.983049482807466E-003
  3.500000000000001E-003    5.188717381239524E-003
  3.600000000000001E-003    5.401755441356386E-003
  3.700000000000001E-003    5.622374780839500E-003
  3.800000000000001E-003    5.850790358549294E-003
  3.900000000000001E-003    6.087220758017483E-003
  4.000000000000001E-003    6.331887457286745E-003
  4.100000000000001E-003    6.585015640300513E-003
  4.200000000000001E-003    6.846833276190691E-003
  4.300000000000001E-003    7.117571122345678E-003
  4.400000000000001E-003    7.397462998219279E-003
  4.500000000000001E-003    7.686745924913005E-003
  4.600000000000002E-003    7.985659068187099E-003
  4.700000000000001E-003    8.294445044176079E-003
  4.800000000000001E-003    8.613348502671833E-003
  4.900000000000002E-003    8.942617210332552E-003
  5.000000000000001E-003    9.282500842450036E-003
  5.100000000000001E-003    9.633251417813422E-003
  5.200000000000001E-003    9.995123507757761E-003
  5.300000000000002E-003    1.036837342632272E-002
  5.400000000000001E-003    1.075325982594815E-002
  5.500000000000001E-003    1.115004148380806E-002
  5.600000000000002E-003    1.155897905104578E-002
  5.700000000000001E-003    1.198033520742786E-002
  5.800000000000001E-003    1.241437097047004E-002
  5.900000000000002E-003    1.286134933345458E-002
  6.000000000000001E-003    1.332153247163534E-002
  6.100000000000001E-003    1.379518278031041E-002
  6.200000000000002E-003    1.428256205500698E-002
  6.300000000000002E-003    1.478393038454594E-002
  6.400000000000001E-003    1.529954652202208E-002
  6.500000000000001E-003    1.582966858069654E-002
  6.600000000000002E-003    1.637455238514627E-002
  6.700000000000001E-003    1.693445250143669E-002
  6.800000000000001E-003    1.750961984280380E-002
  6.900000000000002E-003    1.810030271764936E-002
  7.000000000000001E-003    1.870674873830887E-002
  7.100000000000001E-003    1.932920013090646E-002
  7.200000000000002E-003    1.996789552261750E-002
  7.300000000000002E-003    2.062307037576591E-002
  7.400000000000001E-003    2.129495461583292E-002
  7.500000000000001E-003    2.198377318367331E-002
  7.600000000000002E-003    2.268974506356329E-002
  7.700000000000001E-003    2.341308214303981E-002
  7.800000000000001E-003    2.415399019969902E-002
  7.900000000000001E-003    2.491266669447646E-002
  8.000000000000002E-003    2.568930225829971E-002
  8.100000000000001E-003    2.648407584075194E-002
  8.200000000000001E-003    2.729715915372308E-002
  8.300000000000002E-003    2.812871085513445E-002
  8.400000000000001E-003    2.897888133293898E-002
  8.500000000000002E-003    2.984780922545329E-002
  8.600000000000002E-003    3.073561986974119E-002
  8.700000000000001E-003    3.164242983578126E-002
  8.800000000000002E-003    3.256833653441795E-002
  8.900000000000002E-003    3.351343059031377E-002
  9.000000000000001E-003    3.447778306332333E-002
  9.100000000000002E-003    3.546145520807750E-002
  9.200000000000002E-003    3.646448971619808E-002
  9.300000000000001E-003    3.748691097215477E-002
  9.400000000000002E-003    3.852873384233296E-002
  9.500000000000001E-003    3.958994781923056E-002
  9.600000000000001E-003    4.067053068350982E-002
  9.700000000000002E-003    4.177043824802879E-002
  9.800000000000001E-003    4.288960688542577E-002
  9.900000000000001E-003    4.402795170101671E-002
  1.000000000000000E-002    4.518536802050223E-002
  1.010000000000000E-002    4.636172684198995E-002
  1.020000000000000E-002    4.755687872840888E-002
  1.030000000000000E-002    4.877064719588124E-002
  1.040000000000000E-002    5.000283025311333E-002
  1.050000000000000E-002    5.125320718505124E-002
  1.060000000000000E-002    5.252152546820894E-002
  1.070000000000000E-002    5.380750406173287E-002
  1.080000000000000E-002    5.511084211757906E-002
  1.090000000000000E-002    5.643120002471035E-002
  1.100000000000000E-002    5.776821902067441E-002
  1.110000000000000E-002    5.912150190374420E-002
  1.120000000000000E-002    6.049063160563452E-002
  1.130000000000000E-002    6.187515189714711E-002
  1.140000000000000E-002    6.327457634557873E-002
  1.150000000000000E-002    6.468839177947054E-002
  1.160000000000000E-002    6.611604364197557E-002
  1.170000000000000E-002    6.755695090813664E-002
  1.180000000000000E-002    6.901049499823868E-002
  1.190000000000000E-002    7.047602440874220E-002
  1.200000000000000E-002    7.195284127610184E-002
  1.210000000000000E-002    7.344022852288960E-002
  1.220000000000000E-002    7.493742365775535E-002
  1.230000000000000E-002    7.644362267153282E-002
  1.240000000000000E-002    7.795798468694272E-002
  1.250000000000000E-002    7.947963865193815E-002
  1.260000000000000E-002    8.100767104656141E-002
  1.270000000000000E-002    8.254112268148370E-002
  1.280000000000000E-002    8.407899757327102E-002
  1.290000000000000E-002    8.562026973097753E-002
  1.300000000000000E-002    8.716385849525872E-002
  1.310000000000000E-002    8.870865668119388E-002
  1.320000000000000E-002    9.025350126608378E-002
  1.330000000000000E-002    9.179719851889291E-002
  1.340000000000000E-002    9.333851391640494E-002
  1.350000000000000E-002    9.487617047543528E-002
  1.360000000000000E-002    9.640884518082493E-002
  1.370000000000000E-002    9.793518176256777E-002
  1.380000000000000E-002    9.945377870089926E-002
  1.390000000000000E-002    0.100963190157485     
  1.400000000000000E-002    0.102461932430000     
  1.410000000000000E-002    0.103948485086848     
  1.420000000000000E-002    0.105421276558616     
  1.430000000000000E-002    0.106878700043177     
  1.440000000000000E-002    0.108319105000692     
  1.450000000000000E-002    0.109740813080724     
  1.460000000000000E-002    0.111142093145997     
  1.470000000000000E-002    0.112521178318900     
  1.480000000000000E-002    0.113876272764285     
  1.490000000000000E-002    0.115205530279370     
  1.500000000000000E-002    0.116507072651064     
  1.510000000000000E-002    0.117778984866308     
  1.520000000000000E-002    0.119019328035214     
  1.530000000000000E-002    0.120226109952820     
  1.540000000000000E-002    0.121397321084003     
  1.550000000000000E-002    0.122530914088649     
  1.560000000000000E-002    0.123624808108680     
  1.570000000000000E-002    0.124676903168821     
  1.580000000000000E-002    0.125685055718963     
  1.590000000000000E-002    0.126647097807385     
  1.600000000000000E-002    0.127560832829507     
  1.610000000000000E-002    0.128424055146296     
  1.620000000000000E-002    0.129234518282380     
  1.630000000000000E-002    0.129989951981113     
  1.640000000000000E-002    0.130688073965307     
  1.650000000000000E-002    0.131326580861544     
  1.660000000000000E-002    0.131903146229567     
  1.670000000000000E-002    0.132415433363181     
  1.680000000000000E-002    0.132861107947765     
  1.690000000000000E-002    0.133237792888839     
  1.700000000000000E-002    0.133543120192450     
  1.710000000000000E-002    0.133774718783388     
  1.720000000000000E-002    0.133930197407395     
  1.730000000000000E-002    0.134007167614113     
  1.740000000000000E-002    0.134003260091938     
  1.750000000000000E-002    0.133916080048447     
  1.760000000000000E-002    0.133743260219128     
  1.770000000000000E-002    0.133482418096671     
  1.780000000000000E-002    0.133131189783334     
  1.790000000000000E-002    0.132687223547681     
  1.800000000000000E-002    0.132148179720961     
  1.810000000000000E-002    0.131511732560764     
  1.820000000000000E-002    0.130775577306029     
  1.830000000000000E-002    0.129937431916561     
  1.840000000000000E-002    0.128995028189762     
  1.850000000000000E-002    0.127946124748742     
  1.860000000000000E-002    0.126788521252418     
  1.870000000000000E-002    0.125520045462301     