 -4.000000000000000E-002    0.000000000000000E+000
 -3.990000000000000E-002    0.000000000000000E+000
 -3.980000000000000E-002    0.000000000000000E+000
 -3.970000000000000E-002    0.000000000000000E+000
 -3.960000000000000E-002    0.000000000000000E+000
 -3.950000000000000E-002    0.000000000000000E+000
 -3.940000000000000E-002   -2.331526860843803E-024
 -3.930000000000000E-002   -2.050092096288904E-023
 -3.920000000000000E-002   -7.693629289888234E-023
 -3.910000000000000E-002   -7.912947552060821E-023
 -3.900000000000000E-002    7.374177875356094E-022
 -3.890000000000000E-002    5.357692842942753E-021
 -3.880000000000000E-002    2.209001236314184E-020
 -3.870000000000000E-002    6.894517657953098E-020
 -3.860000000000000E-002    1.764541362303421E-019
 -3.850000000000000E-002    3.809914293179173E-019
 -3.840000000000000E-002    6.928902494256055E-019
 -3.830000000000000E-002    1.014577934010741E-018
 -3.820000000000000E-002    9.775772201450368E-019
 -3.810000000000000E-002   -3.297029317546106E-019
 -3.800000000000000E-002   -4.749450512624809E-018
 -3.790000000000000E-002   -1.551238037563893E-017
 -3.780000000000000E-002   -3.763456656361100E-017
 -3.770000000000000E-002   -7.800041135336807E-017
 -3.760000000000000E-002   -1.447386717764395E-016
 -3.750000000000000E-002   -2.453731173411164E-016
 -3.740000000000000E-002   -3.831752812684878E-016
 -3.730000000000000E-002   -5.512346484644667E-016
 -3.720000000000000E-002   -7.240739082009453E-016
 -3.710000000000000E-002   -8.472342935238120E-016
 -3.700000000000000E-002   -8.261757050741467E-016
 -3.690000000000000E-002   -5.170235102884537E-016
 -3.680000000000000E-002    2.769748810666687E-016
 -3.670000000000000E-002    1.798202986971986E-015
 -3.660000000000000E-002    4.310820103724857E-015
 -3.650000000000000E-002    8.054660305269846E-015
 -3.640000000000000E-002    1.317279595491167E-014
 -3.630000000000000E-002    1.961202873513692E-014
 -3.620000000000000E-002    2.700083783876762E-014
 -3.610000000000000E-002    3.451647083433413E-014
 -3.600000000000000E-002    4.076123301886339E-014
 -3.590000000000000E-002    4.367667902820414E-014
 -3.580000000000000E-002    4.053166178509201E-014
 -3.570000000000000E-002    2.802408146013187E-014
 -3.560000000000000E-002    2.534806800830915E-015
 -3.550000000000000E-002   -3.943678081591916E-014
 -3.540000000000000E-002   -1.006438567557156E-013
 -3.530000000000000E-002   -1.822851035244766E-013
 -3.520000000000000E-002   -2.830697239545117E-013
 -3.510000000000000E-002   -3.982455529627235E-013
 -3.500000000000000E-002   -5.187223143664830E-013
 -3.490000000000000E-002   -6.304577537669502E-013
 -3.480000000000000E-002   -7.142972385706743E-013
 -3.470000000000000E-002   -7.464593122805395E-013
 -3.460000000000000E-002   -6.998339330265263E-013
 -3.450000000000000E-002   -5.462027414677216E-013
 -3.440000000000000E-002   -2.593986839875494E-013
 -3.430000000000000E-002    1.806991867934659E-013
 -3.420000000000000E-002    7.835822278605616E-013
 -3.410000000000000E-002    1.543337652916684E-012
 -3.400000000000000E-002    2.434219100288318E-012
 -3.390000000000000E-002    3.407203404363257E-012
 -3.380000000000000E-002    4.388226182633698E-012
 -3.370000000000000E-002    5.278761012351371E-012
 -3.360000000000000E-002    5.959294176891044E-012
 -3.350000000000000E-002    6.296031287212099E-012
 -3.340000000000000E-002    6.150878074458225E-012
 -3.330000000000000E-002    5.394359659027536E-012
 -3.320000000000000E-002    3.920743092915065E-012
 -3.310000000000000E-002    1.664216550437022E-012
 -3.300000000000000E-002   -1.385359207890661E-012
 -3.290000000000000E-002   -5.168857178596306E-012
 -3.280000000000000E-002   -9.548258532779810E-012
 -3.270000000000000E-002   -1.430269376332832E-011
 -3.260000000000000E-002   -1.913153362788612E-011
 -3.250000000000000E-002   -2.366539757528121E-011
 -3.240000000000000E-002   -2.748524292660798E-011
 -3.230000000000000E-002   -3.014891495544604E-011
 -3.220000000000000E-002   -3.122367327287268E-011
 -3.210000000000000E-002   -3.032246840779511E-011
 -3.200000000000000E-002   -2.714109649272180E-011
 -3.190000000000000E-002   -2.149299508398045E-011
 -3.180000000000000E-002   -1.333839887822220E-011
 -3.170000000000000E-002   -2.804843391156398E-012
 -3.160000000000000E-002    9.803354617763310E-012
 -3.150000000000000E-002    2.400808650771837E-011
 -3.140000000000000E-002    3.917324615930609E-011
 -3.130000000000000E-002    5.453243775692554E-011
 -3.120000000000000E-002    6.922664120576141E-011
 -3.110000000000000E-002    8.234887099423230E-011
 -3.100000000000000E-002    9.299240161185073E-011
 -3.090000000000000E-002    1.002988929295052E-010
 -3.080000000000000E-002    1.035031255561727E-010
 -3.070000000000000E-002    1.019717256091927E-010
 -3.060000000000000E-002    9.523437693847696E-011
 -3.050000000000000E-002    8.300712832968294E-011
 -3.040000000000000E-002    6.520864915432958E-011
 -3.030000000000000E-002    4.197114631659707E-011
 -3.020000000000000E-002    1.364808122294606E-011
 -3.010000000000000E-002   -1.917919661059007E-011
 -3.000000000000000E-002   -5.569462427304368E-011
 -2.990000000000000E-002   -9.484042641609715E-011
 -2.980000000000000E-002   -1.353115899460320E-010
 -2.970000000000000E-002   -1.755555449901337E-010
 -2.960000000000000E-002   -2.137822195517304E-010
 -2.950000000000000E-002   -2.479908462535231E-010
 -2.940000000000000E-002   -2.760200063019309E-010
 -2.930000000000000E-002   -2.956263785658233E-010
 -2.920000000000000E-002   -3.045953152185264E-010
 -2.910000000000000E-002   -3.008825483405336E-010
 -2.900000000000000E-002   -2.827819819250999E-010
 -2.890000000000000E-002   -2.491091822188736E-010
 -2.880000000000000E-002   -1.993851993793195E-010
 -2.870000000000000E-002   -1.340013341757413E-010
 -2.860000000000000E-002   -5.434308527343817E-011
 -2.850000000000000E-002    3.714856767576611E-011
 -2.840000000000000E-002    1.369975780240595E-010
 -2.830000000000000E-002    2.408079774297234E-010
 -2.820000000000000E-002    3.434781065806059E-010
 -2.810000000000000E-002    4.395077547847023E-010
 -2.800000000000000E-002    5.233799662361645E-010
 -2.790000000000000E-002    5.899874082477407E-010
 -2.780000000000000E-002    6.350641193032576E-010
 -2.770000000000000E-002    6.555764692776779E-010
 -2.760000000000000E-002    6.500257632024118E-010
 -2.750000000000000E-002    6.186196234053941E-010
 -2.740000000000000E-002    5.632787564621337E-010
 -2.730000000000000E-002    4.874617500510409E-010
 -2.720000000000000E-002    3.958109790252560E-010
 -2.710000000000000E-002    2.936449404025962E-010
 -2.700000000000000E-002    1.863449422072707E-010
 -2.690000000000000E-002    7.870311499540341E-011
 -2.680000000000000E-002   -2.568739552982083E-011
 -2.670000000000000E-002   -1.249153818499297E-010
 -2.660000000000000E-002   -2.190277654768532E-010
 -2.650000000000000E-002   -3.100363053293049E-010
 -2.640000000000000E-002   -4.016188958751632E-010
 -2.630000000000000E-002   -4.985151218568231E-010
 -2.620000000000000E-002   -6.056558372687669E-010
 -2.610000000000000E-002   -7.271072258969898E-010
 -2.600000000000000E-002   -8.649457163231208E-010
 -2.590000000000000E-002   -1.018206214926138E-009
 -2.580000000000000E-002   -1.182057306740163E-009
 -2.570000000000000E-002   -1.347350715702951E-009
 -2.560000000000000E-002   -1.500665949319588E-009
 -2.550000000000000E-002   -1.624927407744729E-009
 -2.540000000000000E-002   -1.700609538421477E-009
 -2.530000000000000E-002   -1.707477380626154E-009
 -2.520000000000000E-002   -1.626735006210149E-009
 -2.510000000000000E-002   -1.443390377428874E-009
 -2.500000000000000E-002   -1.148589819867061E-009
 -2.490000000000000E-002   -7.416504438340109E-010
 -2.480000000000000E-002   -2.315158975723362E-010
 -2.470000000000000E-002    3.626049871712803E-010
 -2.460000000000000E-002    1.011591965492485E-009
 -2.450000000000000E-002    1.677844235862329E-009
 -2.440000000000000E-002    2.317757190729358E-009
 -2.430000000000000E-002    2.885096812201258E-009
 -2.420000000000000E-002    3.335004439462987E-009
 -2.410000000000000E-002    3.628267671827416E-009
 -2.400000000000000E-002    3.735428670633943E-009
 -2.390000000000000E-002    3.640279813686714E-009
 -2.380000000000000E-002    3.342322013921510E-009
 -2.370000000000000E-002    2.857840475387617E-009
 -2.360000000000000E-002    2.219374976230831E-009
 -2.350000000000000E-002    1.473524410393461E-009
 -2.340000000000000E-002    6.772003735065636E-010
 -2.330000000000000E-002   -1.073718057439197E-010
 -2.320000000000000E-002   -8.184484919829989E-010
 -2.310000000000000E-002   -1.400783109470872E-009
 -2.300000000000000E-002   -1.811224130258691E-009
 -2.290000000000000E-002   -2.023263820075285E-009
 -2.280000000000000E-002   -2.029986239510973E-009
 -2.270000000000000E-002   -1.845011691121699E-009
 -2.260000000000000E-002   -1.501238143043034E-009
 -2.250000000000000E-002   -1.047422629700409E-009
 -2.240000000000000E-002   -5.428930807244049E-010
 -2.230000000000000E-002   -5.091519680883518E-011
 -2.220000000000000E-002    3.685767327787782E-010
 -2.210000000000000E-002    6.660638684854667E-010
 -2.200000000000000E-002    8.084993529043740E-010
 -2.190000000000000E-002    7.835663331179605E-010
 -2.180000000000000E-002    6.015416519804427E-010
 -2.170000000000000E-002    2.944201371788728E-010
 -2.160000000000000E-002   -8.773844240281418E-011
 -2.150000000000000E-002   -4.829418799943626E-010
 -2.140000000000000E-002   -8.252670383577093E-010
 -2.130000000000000E-002   -1.053850367569257E-009
 -2.120000000000000E-002   -1.121811966681365E-009
 -2.110000000000000E-002   -1.003993826500882E-009
 -2.100000000000000E-002   -7.024609702340703E-010
 -2.090000000000000E-002   -2.488983327398212E-010
 -2.080000000000000E-002    2.966434468383472E-010
 -2.070000000000000E-002    8.508214826069931E-010
 -2.060000000000000E-002    1.315610455464489E-009
 -2.050000000000000E-002    1.589746920577697E-009
 -2.040000000000000E-002    1.581912114612377E-009
 -2.030000000000000E-002    1.224280389292881E-009
 -2.020000000000000E-002    4.849200161133750E-010
 -2.010000000000000E-002   -6.224622978463362E-010
 -2.000000000000000E-002   -2.032748463527960E-009
 -1.990000000000000E-002   -3.628595101937430E-009
 -1.980000000000000E-002   -5.245102485166347E-009
 -1.970000000000000E-002   -6.679942769500717E-009
 -1.960000000000000E-002   -7.708381057633287E-009
 -1.950000000000000E-002   -8.102078298225291E-009
 -1.940000000000000E-002   -7.650146774175957E-009
 -1.930000000000000E-002   -6.180672223604365E-009
 -1.920000000000000E-002   -3.580771653100247E-009
 -1.910000000000000E-002    1.865840889970515E-010
 -1.900000000000000E-002    5.070492475005082E-009
 -1.890000000000000E-002    1.092582627179035E-008
 -1.880000000000000E-002    1.751317437069825E-008
 -1.870000000000000E-002    2.450484626561557E-008
 -1.860000000000000E-002    3.149611108772214E-008
 -1.850000000000000E-002    3.802034434428242E-008
 -1.840000000000000E-002    4.356628369632399E-008
 -1.830000000000000E-002    4.759544730340881E-008
 -1.820000000000000E-002    4.955773052650373E-008
 -1.810000000000000E-002    4.890339888426603E-008
 -1.800000000000000E-002    4.509018437099712E-008
 -1.790000000000000E-002    3.758466749789444E-008
 -1.780000000000000E-002    2.585788199206094E-008
 -1.770000000000000E-002    9.375662413826973E-009
 -1.760000000000000E-002   -1.241497793595778E-008
 -1.750000000000000E-002   -4.010182351241870E-008
 -1.740000000000000E-002   -7.432373060711651E-008
 -1.730000000000000E-002   -1.157850746722744E-007
 -1.720000000000000E-002   -1.652664571209924E-007
 -1.710000000000000E-002   -2.236301077056066E-007
 -1.700000000000000E-002   -2.918188873492718E-007
 -1.690000000000000E-002   -3.708486108980236E-007
 -1.680000000000000E-002   -4.617941745596138E-007
 -1.670000000000000E-002   -5.657702891151005E-007
 -1.660000000000000E-002   -6.839092054583419E-007
 -1.650000000000000E-002   -8.173367683506074E-007
 -1.640000000000000E-002   -9.671501190216604E-007
 -1.630000000000000E-002   -1.134398418370476E-006
 -1.620000000000000E-002   -1.320069514750024E-006
 -1.610000000000000E-002   -1.525083923660079E-006
 -1.600000000000000E-002   -1.750296844815952E-006
 -1.590000000000000E-002   -1.996508079384012E-006
 -1.580000000000000E-002   -2.264480683129486E-006
 -1.570000000000000E-002   -2.554964632755838E-006
 -1.560000000000000E-002   -2.868725025347138E-006
 -1.550000000000000E-002   -3.206572532270213E-006
 -1.540000000000000E-002   -3.569393605666841E-006
 -1.530000000000000E-002   -3.958174812515978E-006
 -1.520000000000000E-002   -4.374026102195743E-006
 -1.510000000000000E-002   -4.818192665568727E-006
 -1.500000000000000E-002   -5.292061607658288E-006
 -1.490000000000000E-002   -5.797160723882331E-006
 -1.480000000000000E-002   -6.335149136358713E-006
 -1.470000000000000E-002   -6.907802266113126E-006
 -1.460000000000000E-002   -7.516994593405184E-006
 -1.450000000000000E-002   -8.164678328480845E-006
 -1.440000000000000E-002   -8.852867134527947E-006
 -1.430000000000000E-002   -9.583621725437254E-006
 -1.420000000000000E-002   -1.035904018873269E-005
 -1.410000000000000E-002   -1.118125869263413E-005
 -1.400000000000000E-002   -1.205245697682890E-005
 -1.390000000000000E-002   -1.297487586346818E-005
 -1.380000000000000E-002   -1.395083719457318E-005
 -1.370000000000000E-002   -1.498277708992764E-005
 -1.360000000000000E-002   -1.607327186097584E-005
 -1.350000000000000E-002   -1.722507565972059E-005
 -1.340000000000000E-002   -1.844114952765543E-005
 -1.330000000000000E-002   -1.972469212854386E-005
 -1.320000000000000E-002   -2.107915786788072E-005
 -1.310000000000000E-002   -2.250827677555344E-005
 -1.300000000000000E-002   -2.401605626483431E-005
 -1.290000000000000E-002   -2.560678264601956E-005
 -1.280000000000000E-002   -2.728500961443910E-005
 -1.270000000000000E-002   -2.905554803498250E-005
 -1.260000000000000E-002   -3.092345306799037E-005
 -1.250000000000000E-002   -3.289400429025122E-005
 -1.240000000000000E-002   -3.497269545857453E-005
 -1.230000000000000E-002   -3.716523247422725E-005
 -1.220000000000000E-002   -3.947753398243578E-005
 -1.210000000000000E-002   -4.191575004030156E-005
 -1.200000000000000E-002   -4.448628258203428E-005
 -1.190000000000000E-002   -4.719582157849535E-005
 -1.180000000000000E-002   -5.005139803283729E-005
 -1.170000000000000E-002   -5.306043089163864E-005
 -1.160000000000000E-002   -5.623078406055074E-005
 -1.150000000000000E-002   -5.957082017721390E-005
 -1.140000000000000E-002   -6.308945851128622E-005
 -1.130000000000000E-002   -6.679621106429056E-005
 -1.120000000000000E-002   -7.070122123449488E-005
 -1.110000000000000E-002   -7.481527947969145E-005
 -1.100000000000000E-002   -7.914983136061430E-005
 -1.090000000000000E-002   -8.371696483113200E-005
 -1.080000000000000E-002   -8.852937915694780E-005
 -1.070000000000000E-002   -9.360036386594022E-005
 -1.060000000000000E-002   -9.894374309276238E-005
 -1.050000000000000E-002   -1.045738483218650E-004
 -1.040000000000000E-002   -1.105054836770701E-004
 -1.030000000000000E-002   -1.167538822423129E-004
 -1.020000000000000E-002   -1.233347220349780E-004
 -1.010000000000000E-002   -1.302641304973063E-004
 -1.000000000000000E-002   -1.375586951427737E-004
 -9.899999999999999E-003   -1.452355338853578E-004
 -9.800000000000000E-003   -1.533123553715122E-004
 -9.699999999999999E-003   -1.618075633660751E-004
 -9.599999999999999E-003   -1.707403658635115E-004
 -9.500000000000000E-003   -1.801308437124237E-004
 -9.399999999999999E-003   -1.900001059042310E-004
 -9.299999999999999E-003   -2.003703598221761E-004
 -9.200000000000000E-003   -2.112649799816402E-004
 -9.099999999999999E-003   -2.227086375863732E-004
 -8.999999999999999E-003   -2.347272637491525E-004
 -8.900000000000000E-003   -2.473481225455250E-004
 -8.799999999999999E-003   -2.605997765802613E-004
 -8.699999999999999E-003   -2.745120536963250E-004
 -8.600000000000000E-003   -2.891160421256536E-004
 -8.499999999999999E-003   -3.044439556748749E-004
 -8.399999999999999E-003   -3.205291842579890E-004
 -8.300000000000000E-003   -3.374061727982658E-004
 -8.199999999999999E-003   -3.551104028321372E-004
 -8.100000000000000E-003   -3.736784086777490E-004
 -8.000000000000000E-003   -3.931477649077397E-004
 -7.899999999999999E-003   -4.135571628262988E-004
 -7.800000000000000E-003   -4.349464429113975E-004
 -7.699999999999999E-003   -4.573567780048404E-004
 -7.599999999999999E-003   -4.808306506840155E-004
 -7.499999999999999E-003   -5.054121252085048E-004
 -7.399999999999999E-003   -5.311469185435877E-004
 -7.299999999999999E-003   -5.580825299217835E-004
 -7.199999999999999E-003   -5.862683940921160E-004
 -7.100000000000000E-003   -6.157558964604331E-004
 -6.999999999999999E-003   -6.465984659944341E-004
 -6.899999999999999E-003   -6.788516439131749E-004
 -6.800000000000000E-003   -7.125730458726214E-004
 -6.699999999999999E-003   -7.478223673239313E-004
 -6.599999999999999E-003   -7.846612896912476E-004
 -6.499999999999999E-003   -8.231533775954976E-004
 -6.399999999999999E-003   -8.633642091245705E-004
 -6.299999999999999E-003   -9.053610427090520E-004
 -6.199999999999999E-003   -9.492130053443034E-004
 -6.100000000000000E-003   -9.949910432586987E-004
 -5.999999999999999E-003   -1.042767702053641E-003
 -5.899999999999999E-003   -1.092617535767571E-003
 -5.800000000000000E-003   -1.144617012542828E-003
 -5.699999999999999E-003   -1.198844526545322E-003
 -5.599999999999999E-003   -1.255380718630398E-003
 -5.499999999999999E-003   -1.314308557553805E-003
 -5.399999999999999E-003   -1.375713565565703E-003
 -5.299999999999999E-003   -1.439683893463998E-003
 -5.199999999999999E-003   -1.506310540928575E-003
 -5.099999999999999E-003   -1.575687497346965E-003
 -4.999999999999999E-003   -1.647911604251151E-003
 -4.899999999999999E-003   -1.723082893179008E-003
 -4.799999999999999E-003   -1.801304304163446E-003
 -4.699999999999999E-003   -1.882681926186189E-003
 -4.599999999999999E-003   -1.967324430618866E-003
 -4.499999999999999E-003   -2.055343682143316E-003
 -4.399999999999999E-003   -2.146853924240090E-003
 -4.299999999999999E-003   -2.241972296845065E-003
 -4.199999999999999E-003   -2.340818226641008E-003
 -4.099999999999999E-003   -2.443513420990535E-003
 -3.999999999999999E-003   -2.550182198793003E-003
 -3.899999999999999E-003   -2.660950822113198E-003
 -3.799999999999999E-003   -2.775948381590856E-003
 -3.699999999999999E-003   -2.895305974907435E-003
 -3.599999999999999E-003   -3.019157378498419E-003
 -3.499999999999999E-003   -3.147638913597989E-003
 -3.399999999999999E-003   -3.280889922902220E-003
 -3.299999999999999E-003   -3.419052079089384E-003
 -3.199999999999999E-003   -3.562270348619568E-003
 -3.099999999999999E-003   -3.710692540623330E-003
 -2.999999999999999E-003   -3.864469012395203E-003
 -2.899999999999999E-003   -4.023753816310610E-003
 -2.799999999999999E-003   -4.188702751385354E-003
 -2.699999999999999E-003   -4.359475533820998E-003
 -2.599999999999999E-003   -4.536233497918708E-003
 -2.499999999999999E-003   -4.719140718983497E-003
 -2.399999999999999E-003   -4.908363558977421E-003
 -2.299999999999999E-003   -5.104069869669548E-003
 -2.199999999999999E-003   -5.306429735956719E-003
 -2.099999999999999E-003   -5.515614615131997E-003
 -1.999999999999999E-003   -5.731797605203892E-003
 -1.899999999999999E-003   -5.955153020376496E-003
 -1.799999999999999E-003   -6.185856655258582E-003
 -1.699999999999999E-003   -6.424085354811144E-003
 -1.599999999999999E-003   -6.670017374014008E-003
 -1.499999999999999E-003   -6.923831843535124E-003
 -1.399999999999999E-003   -7.185710020810968E-003
 -1.299999999999999E-003   -7.455832310739718E-003
 -1.199999999999999E-003   -7.734382445785484E-003
 -1.099999999999999E-003   -8.021543217006304E-003
 -9.999999999999989E-004   -8.317498855825788E-003
 -8.999999999999990E-004   -8.622433412291009E-003
 -7.999999999999990E-004   -8.936530622846592E-003
 -6.999999999999989E-004   -9.259974944217486E-003
 -5.999999999999990E-004   -9.592949410289578E-003
 -4.999999999999989E-004   -9.935636097041166E-003
 -3.999999999999989E-004   -1.028821662299645E-002
 -2.999999999999989E-004   -1.065086856271756E-002
 -1.999999999999989E-004   -1.102376800924392E-002
 -9.999999999999892E-005   -1.140709023260614E-002
  1.084202172485504E-018   -1.180100608486082E-002
  1.000000000000011E-004   -1.220568307385164E-002
  2.000000000000011E-004   -1.262128678369979E-002
  3.000000000000011E-004   -1.304797874662125E-002
  4.000000000000011E-004   -1.348591612058811E-002
  5.000000000000011E-004   -1.393525280897589E-002
  6.000000000000011E-004   -1.439613890288341E-002
  7.000000000000011E-004   -1.486871900625611E-002
  8.000000000000011E-004   -1.535313211434912E-002
  9.000000000000012E-004   -1.584951504872293E-002
  1.000000000000001E-003   -1.635799498293775E-002
  1.100000000000001E-003   -1.687869501584485E-002
  1.200000000000001E-003   -1.741172976798454E-002
  1.300000000000001E-003   -1.795720792064183E-002
  1.400000000000001E-003   -1.851522858798340E-002
  1.500000000000001E-003   -1.908588125110925E-002
  1.600000000000001E-003   -1.966924668395802E-002
  1.700000000000001E-003   -2.026539542082148E-002
  1.800000000000001E-003   -2.087438674648702E-002
  1.900000000000001E-003   -2.149626911342952E-002
  2.000000000000001E-003   -2.213107768732983E-002
  2.100000000000001E-003   -2.277883570371714E-002
  2.200000000000001E-003   -2.343955598597901E-002
  2.300000000000001E-003   -2.411323404455504E-002
  2.400000000000001E-003   -2.479985431547094E-002
  2.500000000000001E-003   -2.549938680572840E-002
  2.600000000000001E-003   -2.621178552884472E-002
  2.700000000000001E-003   -2.693699148875895E-002
  2.800000000000001E-003   -2.767492568560733E-002
  2.900000000000001E-003   -2.842549477352475E-002
  3.000000000000001E-003   -2.918859008818748E-002
  3.100000000000001E-003   -2.996407785562058E-002
  3.200000000000001E-003   -3.075181080278522E-002
  3.300000000000001E-003   -3.155161898802670E-002
  3.400000000000001E-003   -3.236331729248178E-002
  3.500000000000001E-003   -3.318669191880499E-002
  3.600000000000001E-003   -3.402150592192941E-002
  3.700000000000001E-003   -3.486750822703627E-002
  3.800000000000001E-003   -3.572441375841259E-002
  3.900000000000001E-003   -3.659192078489063E-002
  4.000000000000001E-003   -3.746969770341208E-002
  4.100000000000001E-003   -3.835739315178498E-002
  4.200000000000001E-003   -3.925462384203793E-002
  4.300000000000001E-003   -4.016098089881470E-002
  4.400000000000001E-003   -4.107602850981183E-002
  4.500000000000001E-003   -4.199930442575914E-002
  4.600000000000002E-003   -4.293031749530466E-002
  4.700000000000001E-003   -4.386854205033555E-002
  4.800000000000001E-003   -4.481342972469651E-002
  4.900000000000002E-003   -4.576439482832434E-002
  5.000000000000001E-003   -4.672082592468362E-002
  5.100000000000001E-003   -4.768207298404835E-002
  5.200000000000001E-003   -4.864745887846509E-002
  5.300000000000002E-003   -4.961626768677101E-002
  5.400000000000001E-003   -5.058775238371237E-002
  5.500000000000001E-003   -5.156112668128994E-002
  5.600000000000002E-003   -5.253557489367425E-002
  5.700000000000001E-003   -5.351023927673776E-002
  5.800000000000001E-003   -5.448422927306936E-002
  5.900000000000002E-003   -5.545661193576224E-002
  6.000000000000001E-003   -5.642642369708927E-002
  6.100000000000001E-003   -5.739266409852849E-002
  6.200000000000002E-003   -5.835428713500113E-002
  6.300000000000002E-003   -5.931021246135768E-002
  6.400000000000001E-003   -6.025932241711988E-002
  6.500000000000001E-003   -6.120046108582960E-002
  6.600000000000002E-003   -6.213243312868603E-002
  6.700000000000001E-003   -6.305399671167890E-002
  6.800000000000001E-003   -6.396387763750849E-002
  6.900000000000002E-003   -6.486076092674316E-002
  7.000000000000001E-003   -6.574329161663653E-002
  7.100000000000001E-003   -6.661007001774802E-002
  7.200000000000002E-003   -6.745965348286384E-002
  7.300000000000002E-003   -6.829056410172075E-002
  7.400000000000001E-003   -6.910128822648112E-002
  7.500000000000001E-003   -6.989026118420209E-002
  7.600000000000002E-003   -7.065588777932801E-002
  7.700000000000001E-003   -7.139652517446413E-002
  7.800000000000001E-003   -7.211050021280634E-002
  7.900000000000001E-003   -7.279609252938868E-002
  8.000000000000002E-003   -7.345154614233949E-002
  8.100000000000001E-003   -7.407507496300697E-002
  8.200000000000001E-003   -7.466484101215108E-002
  8.300000000000002E-003   -7.521898010985184E-002
  8.400000000000001E-003   -7.573558953179915E-002
  8.500000000000002E-003   -7.621273230585540E-002
  8.600000000000002E-003   -7.664843339724844E-002
  8.700000000000001E-003   -7.704068933460739E-002
  8.800000000000002E-003   -7.738746543456944E-002
  8.900000000000002E-003   -7.768668638972695E-002
  9.000000000000001E-003   -7.793625046769320E-002
  9.100000000000002E-003   -7.813402899009769E-002
  9.200000000000002E-003   -7.827785701546640E-002
  9.300000000000001E-003   -7.836554935871128E-002
  9.400000000000002E-003   -7.839489707227490E-002
  9.500000000000001E-003   -7.836365358800391E-002
  9.600000000000001E-003   -7.826955819102546E-002
  9.700000000000002E-003   -7.811032687508099E-002
  9.800000000000001E-003   -7.788365878794905E-002
  9.900000000000001E-003   -7.758722973964818E-002
  1.000000000000000E-002   -7.721869860176504E-002
  1.010000000000000E-002   -7.677571229297973E-002
  1.020000000000000E-002   -7.625589681605939E-002
  1.030000000000000E-002   -7.565688512137091E-002
  1.040000000000000E-002   -7.497628833121601E-002
  1.050000000000000E-002   -7.421171022601601E-002
  1.060000000000000E-002   -7.336075478109910E-002
  1.070000000000000E-002   -7.242102408031270E-002
  1.080000000000000E-002   -7.139011828094059E-002
  1.090000000000000E-002   -7.026564859327433E-002
  1.100000000000000E-002   -6.904522078864159E-002
  1.110000000000000E-002   -6.772645456987840E-002
  1.120000000000000E-002   -6.630697963444271E-002
  1.130000000000000E-002   -6.478444071530438E-002
  1.140000000000000E-002   -6.315649694769801E-002
  1.150000000000000E-002   -6.142082291042782E-002
  1.160000000000000E-002   -5.957512088784887E-002
  1.170000000000000E-002   -5.761711221715991E-002
  1.180000000000000E-002   -5.554454626669274E-002
  1.190000000000000E-002   -5.335520106578541E-002
  1.200000000000000E-002   -5.104689235399857E-002
  1.210000000000000E-002   -4.861746532245883E-002
  1.220000000000000E-002   -4.606480856676184E-002
  1.230000000000000E-002   -4.338685546703940E-002
  1.240000000000000E-002   -4.058158110415531E-002
  1.250000000000000E-002   -3.764701130342265E-002
  1.260000000000000E-002   -3.458122551909435E-002
  1.270000000000000E-002   -3.138235700377837E-002
  1.280000000000000E-002   -2.804860170207283E-002
  1.290000000000000E-002   -2.457821542320462E-002
  1.300000000000000E-002   -2.096952113710114E-002
  1.310000000000000E-002   -1.722091085863719E-002
  1.320000000000000E-002   -1.333084967587405E-002
  1.330000000000000E-002   -9.297876087186524E-003
  1.340000000000000E-002   -5.120611518992869E-003
  1.350000000000000E-002   -7.977558925020232E-004
  1.360000000000000E-002    3.671903859208033E-003
  1.370000000000000E-002    8.289493701278794E-003
  1.380000000000000E-002    1.305604596814358E-002
  1.390000000000000E-002    1.797250013469934E-002
  1.400000000000000E-002    2.303969570281297E-002
  1.410000000000000E-002    2.825836900937899E-002
  1.420000000000000E-002    3.362915292080720E-002
  1.430000000000000E-002    3.915256933228559E-002
  1.440000000000000E-002    4.482902746173796E-002
  1.450000000000000E-002    5.065882200932059E-002
  1.460000000000000E-002    5.664213157031796E-002
  1.470000000000000E-002    6.277901408302922E-002
  1.480000000000000E-002    6.906939443143539E-002
  1.490000000000000E-002    7.551307718866700E-002
  1.500000000000000E-002    8.210973279099915E-002
  1.510000000000000E-002    8.885890347078083E-002
  1.520000000000000E-002    9.575999501082247E-002
  1.530000000000000E-002    0.102812270029304     
  1.540000000000000E-002    0.110014859394087     
  1.550000000000000E-002    0.117366757632724     
  1.560000000000000E-002    0.124866814022421     
  1.570000000000000E-002    0.132513718401580     
  1.580000000000000E-002    0.140306025262035     
  1.590000000000000E-002    0.148242144548871     
  1.600000000000000E-002    0.156320319867404     
  1.610000000000000E-002    0.164538655944568     
  1.620000000000000E-002    0.172895098875520     
  1.630000000000000E-002    0.181387437252528     
  1.640000000000000E-002    0.190013295379925     
  1.650000000000000E-002    0.198770146032931     
  1.660000000000000E-002    0.207655295268288     
  1.670000000000000E-002    0.216665904657276     
  1.680000000000000E-002    0.225798957832469     
  1.690000000000000E-002    0.235051259505194     
  1.700000000000000E-002    0.244419504784817     
  1.710000000000000E-002    0.253900173703380     
  1.720000000000000E-002    0.263489622537552     
  1.730000000000000E-002    0.273184038979009     
  1.740000000000000E-002    0.282979427470317     
  1.750000000000000E-002    0.292871650902030     
  1.760000000000000E-002    0.302856401915303     
  1.770000000000000E-002    0.312929245139180     
  1.780000000000000E-002    0.323085540595344     
  1.790000000000000E-002    0.333320544749104     
  1.800000000000000E-002    0.343629293754668     
  1.810000000000000E-002    0.354006713490503     
  1.820000000000000E-002    0.364447575544192     
  1.830000000000000E-002    0.374946498288318     
  1.840000000000000E-002    0.385497942313687     
  1.850000000000000E-002    0.396096225632046     
  1.860000000000000E-002    0.406735500326263     
  1.870000000000000E-002    0.417409826147461     