 -4.000000000000000E-002    0.000000000000000E+000
 -3.990000000000000E-002    0.000000000000000E+000
 -3.980000000000000E-002    0.000000000000000E+000
 -3.970000000000000E-002    0.000000000000000E+000
 -3.960000000000000E-002    0.000000000000000E+000
 -3.950000000000000E-002    0.000000000000000E+000
 -3.940000000000000E-002    0.000000000000000E+000
 -3.930000000000000E-002    0.000000000000000E+000
 -3.920000000000000E-002    0.000000000000000E+000
 -3.910000000000000E-002    0.000000000000000E+000
 -3.900000000000000E-002    0.000000000000000E+000
 -3.890000000000000E-002    0.000000000000000E+000
 -3.880000000000000E-002    0.000000000000000E+000
 -3.870000000000000E-002    0.000000000000000E+000
 -3.860000000000000E-002    0.000000000000000E+000
 -3.850000000000000E-002    0.000000000000000E+000
 -3.840000000000000E-002    0.000000000000000E+000
 -3.830000000000000E-002    0.000000000000000E+000
 -3.820000000000000E-002    0.000000000000000E+000
 -3.810000000000000E-002    0.000000000000000E+000
 -3.800000000000000E-002    0.000000000000000E+000
 -3.790000000000000E-002    0.000000000000000E+000
 -3.780000000000000E-002    0.000000000000000E+000
 -3.770000000000000E-002    0.000000000000000E+000
 -3.760000000000000E-002    0.000000000000000E+000
 -3.750000000000000E-002    0.000000000000000E+000
 -3.740000000000000E-002    0.000000000000000E+000
 -3.730000000000000E-002    0.000000000000000E+000
 -3.720000000000000E-002    0.000000000000000E+000
 -3.710000000000000E-002    0.000000000000000E+000
 -3.700000000000000E-002    0.000000000000000E+000
 -3.690000000000000E-002    0.000000000000000E+000
 -3.680000000000000E-002    0.000000000000000E+000
 -3.670000000000000E-002    0.000000000000000E+000
 -3.660000000000000E-002    0.000000000000000E+000
 -3.650000000000000E-002    0.000000000000000E+000
 -3.640000000000000E-002    0.000000000000000E+000
 -3.630000000000000E-002    0.000000000000000E+000
 -3.620000000000000E-002    0.000000000000000E+000
 -3.610000000000000E-002    0.000000000000000E+000
 -3.600000000000000E-002    0.000000000000000E+000
 -3.590000000000000E-002    0.000000000000000E+000
 -3.580000000000000E-002    0.000000000000000E+000
 -3.570000000000000E-002    0.000000000000000E+000
 -3.560000000000000E-002    0.000000000000000E+000
 -3.550000000000000E-002    0.000000000000000E+000
 -3.540000000000000E-002    0.000000000000000E+000
 -3.530000000000000E-002    0.000000000000000E+000
 -3.520000000000000E-002    0.000000000000000E+000
 -3.510000000000000E-002    0.000000000000000E+000
 -3.500000000000000E-002    0.000000000000000E+000
 -3.490000000000000E-002    0.000000000000000E+000
 -3.480000000000000E-002    0.000000000000000E+000
 -3.470000000000000E-002   -1.942804553792263E-047
 -3.460000000000000E-002   -3.885609107584527E-047
 -3.450000000000000E-002   -1.731427999773299E-046
 -3.440000000000000E-002   -3.824194165997965E-046
 -3.430000000000000E-002   -7.584642680528317E-046
 -3.420000000000000E-002   -1.550892373261902E-045
 -3.410000000000000E-002   -2.895357251920275E-045
 -3.400000000000000E-002   -4.957942422998350E-045
 -3.390000000000000E-002   -8.389959623023718E-045
 -3.380000000000000E-002   -1.295913399068863E-044
 -3.370000000000000E-002   -1.784300753536741E-044
 -3.360000000000000E-002   -2.265151280935113E-044
 -3.350000000000000E-002   -2.171601288449594E-044
 -3.340000000000000E-002   -5.232585048820729E-045
 -3.330000000000000E-002    4.421803218233181E-044
 -3.320000000000000E-002    1.585158501526038E-043
 -3.310000000000000E-002    3.870965260628032E-043
 -3.300000000000000E-002    8.027331895576653E-043
 -3.290000000000000E-002    1.501884953082829E-042
 -3.280000000000000E-002    2.595683444676399E-042
 -3.270000000000000E-002    4.176237200644631E-042
 -3.260000000000000E-002    6.252252438137976E-042
 -3.250000000000000E-002    8.624989028099401E-042
 -3.240000000000000E-002    1.068286319654201E-041
 -3.230000000000000E-002    1.109307748101161E-041
 -3.220000000000000E-002    7.381043033952223E-042
 -3.210000000000000E-002   -4.582291589708049E-042
 -3.200000000000000E-002   -3.109344917011346E-041
 -3.190000000000000E-002   -8.094043922791418E-041
 -3.180000000000000E-002   -1.651848245595490E-040
 -3.170000000000000E-002   -2.958564544589633E-040
 -3.160000000000000E-002   -4.827478658003582E-040
 -3.150000000000000E-002   -7.272811830612893E-040
 -3.140000000000000E-002   -1.012308122485203E-039
 -3.130000000000000E-002   -1.286800031620827E-039
 -3.120000000000000E-002   -1.445038852674007E-039
 -3.110000000000000E-002   -1.301283359722800E-039
 -3.100000000000000E-002   -5.633505282843934E-040
 -3.090000000000000E-002    1.187583828268603E-039
 -3.080000000000000E-002    4.498330570386010E-039
 -3.070000000000000E-002    1.000688531028157E-038
 -3.060000000000000E-002    1.834108596400083E-038
 -3.050000000000000E-002    2.992039412288801E-038
 -3.040000000000000E-002    4.462662382310028E-038
 -3.030000000000000E-002    6.131576202621791E-038
 -3.020000000000000E-002    7.716308179187307E-038
 -3.010000000000000E-002    8.687362945453226E-038
 -3.000000000000000E-002    8.185604411153254E-038
 -2.990000000000000E-002    4.955292484835873E-038
 -2.980000000000000E-002   -2.675527716966716E-038
 -2.970000000000000E-002   -1.672135510403693E-037
 -2.960000000000000E-002   -3.931257466793857E-037
 -2.950000000000000E-002   -7.224660948105750E-037
 -2.940000000000000E-002   -1.162483877953563E-036
 -2.930000000000000E-002   -1.698902371522932E-036
 -2.920000000000000E-002   -2.281666618760354E-036
 -2.910000000000000E-002   -2.808003662262395E-036
 -2.900000000000000E-002   -3.104794442217862E-036
 -2.890000000000000E-002   -2.913921744620973E-036
 -2.880000000000000E-002   -1.886275406155004E-036
 -2.870000000000000E-002    4.077641302568855E-037
 -2.860000000000000E-002    4.441691252229464E-036
 -2.850000000000000E-002    1.065946304837947E-035
 -2.840000000000000E-002    1.935546566505144E-035
 -2.830000000000000E-002    3.050149475962006E-035
 -2.820000000000000E-002    4.352157157758552E-035
 -2.810000000000000E-002    5.702716448800696E-035
 -2.800000000000000E-002    6.854202755700587E-035
 -2.790000000000000E-002    7.426704663723964E-035
 -2.780000000000000E-002    6.895942713091131E-035
 -2.770000000000000E-002    4.602433446464928E-035
 -2.760000000000000E-002   -2.064592367375876E-036
 -2.750000000000000E-002   -8.289313020308312E-035
 -2.740000000000000E-002   -2.026740150404184E-034
 -2.730000000000000E-002   -3.641885400397749E-034
 -2.720000000000000E-002   -5.641169552559326E-034
 -2.710000000000000E-002   -7.898952016110678E-034
 -2.700000000000000E-002   -1.016401390627731E-033
 -2.690000000000000E-002   -1.202976206450871E-033
 -2.680000000000000E-002   -1.291501265997756E-033
 -2.670000000000000E-002   -1.206465785758610E-033
 -2.660000000000000E-002   -8.581064751649822E-034
 -2.650000000000000E-002   -1.497523987184913E-034
 -2.640000000000000E-002    1.009614286737318E-033
 -2.630000000000000E-002    2.686918727282434E-033
 -2.620000000000000E-002    4.900642197952409E-033
 -2.610000000000000E-002    7.591470885605965E-033
 -2.600000000000000E-002    1.059010208294199E-032
 -2.590000000000000E-002    1.358587866942447E-032
 -2.580000000000000E-002    1.610157649333199E-032
 -2.570000000000000E-002    1.748128140809857E-032
 -2.560000000000000E-002    1.689961758654744E-032
 -2.550000000000000E-002    1.340129944818566E-032
 -2.540000000000000E-002    5.979717426050941E-033
 -2.530000000000000E-002   -6.298390094191447E-033
 -2.520000000000000E-002   -2.411850058775612E-032
 -2.510000000000000E-002   -4.769585781114771E-032
 -2.500000000000000E-002   -7.651435193213244E-032
 -2.490000000000000E-002   -1.090458393158780E-031
 -2.480000000000000E-002   -1.424804008555250E-031
 -2.470000000000000E-002   -1.725105339633809E-031
 -2.460000000000000E-002   -1.932243237069111E-031
 -2.450000000000000E-002   -1.971727415036192E-031
 -2.440000000000000E-002   -1.756818570775664E-031
 -2.430000000000000E-002   -1.194791850652041E-031
 -2.420000000000000E-002   -1.969156934361379E-032
 -2.410000000000000E-002    1.307536343990274E-031
 -2.400000000000000E-002    3.353335053848889E-031
 -2.390000000000000E-002    5.918099120603382E-031
 -2.380000000000000E-002    8.899314028165909E-031
 -2.370000000000000E-002    1.209194064986223E-030
 -2.360000000000000E-002    1.516998577652548E-030
 -2.350000000000000E-002    1.767634892867076E-030
 -2.340000000000000E-002    1.902603096405152E-030
 -2.330000000000000E-002    1.852812134598361E-030
 -2.320000000000000E-002    1.543171148973746E-030
 -2.310000000000000E-002    8.999678946907057E-031
 -2.300000000000000E-002   -1.387967839738993E-031
 -2.290000000000000E-002   -1.610301216978605E-030
 -2.280000000000000E-002   -3.511673669972082E-030
 -2.270000000000000E-002   -5.783867735792739E-030
 -2.260000000000000E-002   -8.296485458401948E-030
 -2.250000000000000E-002   -1.083600314932263E-029
 -2.240000000000000E-002   -1.310032156091613E-029
 -2.230000000000000E-002   -1.470280906334032E-029
 -2.220000000000000E-002   -1.518886641306281E-029
 -2.210000000000000E-002   -1.406741976667946E-029
 -2.200000000000000E-002   -1.085854649343731E-029
 -2.190000000000000E-002   -5.156666103562178E-030
 -2.180000000000000E-002    3.293602378696486E-030
 -2.170000000000000E-002    1.451446486049675E-029
 -2.160000000000000E-002    2.821315905667756E-029
 -2.150000000000000E-002    4.371206744389705E-029
 -2.140000000000000E-002    5.990313271934509E-029
 -2.130000000000000E-002    7.523937440147974E-029
 -2.120000000000000E-002    8.777512758368208E-029
 -2.110000000000000E-002    9.526350037486302E-029
 -2.100000000000000E-002    9.531446807638738E-029
 -2.090000000000000E-002    8.561035093760310E-029
 -2.080000000000000E-002    6.416757661004163E-029
 -2.070000000000000E-002    2.962575710573575E-029
 -2.060000000000000E-002   -1.846190180503715E-029
 -2.050000000000000E-002   -7.936752714023739E-029
 -2.040000000000000E-002   -1.509887527076716E-028
 -2.030000000000000E-002   -2.297396262862917E-028
 -2.020000000000000E-002   -3.105541822548433E-028
 -2.010000000000000E-002   -3.870144570170742E-028
 -2.000000000000000E-002   -4.516011263473808E-028
 -1.990000000000000E-002   -4.960522098256712E-028
 -1.980000000000000E-002   -5.118040686875211E-028
 -1.970000000000000E-002   -4.904836412593901E-028
 -1.960000000000000E-002   -4.244219316438208E-028
 -1.950000000000000E-002   -3.071685805171867E-028
 -1.940000000000000E-002   -1.340036267563518E-028
 -1.930000000000000E-002    9.753599334472165E-029
 -1.920000000000000E-002    3.870783697512898E-028
 -1.910000000000000E-002    7.307366756814785E-028
 -1.900000000000000E-002    1.120280545069630E-027
 -1.890000000000000E-002    1.542134606874130E-027
 -1.880000000000000E-002    1.976230414996720E-027
 -1.870000000000000E-002    2.394811990235254E-027
 -1.860000000000000E-002    2.761388756553416E-027
 -1.850000000000000E-002    3.030131331430872E-027
 -1.840000000000000E-002    3.146092277829544E-027
 -1.830000000000000E-002    3.046689947021047E-027
 -1.820000000000000E-002    2.664885985394188E-027
 -1.810000000000000E-002    1.934401624757632E-027
 -1.800000000000000E-002    7.971389224285845E-028
 -1.790000000000000E-002   -7.873050257823996E-028
 -1.780000000000000E-002   -2.830491325108482E-027
 -1.770000000000000E-002   -5.303227273159436E-027
 -1.760000000000000E-002   -8.124142544953365E-027
 -1.750000000000000E-002   -1.115034475678931E-026
 -1.740000000000000E-002   -1.417192924071268E-026
 -1.730000000000000E-002   -1.691213352643022E-026
 -1.720000000000000E-002   -1.903469151833316E-026
 -1.710000000000000E-002   -2.015947205348973E-026
 -1.700000000000000E-002   -1.988678174452310E-026
 -1.690000000000000E-002   -1.782986308630410E-026
 -1.680000000000000E-002   -1.365416405569584E-026
 -1.670000000000000E-002   -7.121078575465644E-027
 -1.660000000000000E-002    1.866933644684191E-027
 -1.650000000000000E-002    1.322343602264470E-026
 -1.640000000000000E-002    2.664116130071320E-026
 -1.630000000000000E-002    4.156500898587636E-026
 -1.620000000000000E-002    5.717843227643840E-026
 -1.610000000000000E-002    7.240630938928483E-026
 -1.600000000000000E-002    8.593697183138765E-026
 -1.590000000000000E-002    9.626561670900467E-026
 -1.580000000000000E-002    1.017610552699369E-025
 -1.570000000000000E-002    1.007573068936148E-025
 -1.560000000000000E-002    9.167096033383899E-026
 -1.550000000000000E-002    7.314413186998067E-026
 -1.540000000000000E-002    4.421070368714865E-026
 -1.530000000000000E-002    4.480417819116095E-027
 -1.520000000000000E-002   -4.566939931937746E-026
 -1.510000000000000E-002   -1.049103176929467E-025
 -1.500000000000000E-002   -1.708100019138286E-025
 -1.490000000000000E-002   -2.397387564478157E-025
 -1.480000000000000E-002   -3.068681396559284E-025
 -1.470000000000000E-002   -3.662953251036518E-025
 -1.460000000000000E-002   -4.113217376700345E-025
 -1.450000000000000E-002   -4.349031431582488E-025
 -1.440000000000000E-002   -4.302686157220795E-025
 -1.430000000000000E-002   -3.916798517238863E-025
 -1.420000000000000E-002   -3.152710584223257E-025
 -1.410000000000000E-002   -1.998775403221603E-025
 -1.400000000000000E-002   -4.773418401671656E-026
 -1.390000000000000E-002    1.350908574565168E-025
 -1.380000000000000E-002    3.386599322340143E-025
 -1.370000000000000E-002    5.496338172988228E-025
 -1.360000000000000E-002    7.522978557297989E-025
 -1.350000000000000E-002    9.301231471070242E-025
 -1.340000000000000E-002    1.067742050760499E-024
 -1.330000000000000E-002    1.153112954825700E-024
 -1.320000000000000E-002    1.179554260032272E-024
 -1.310000000000000E-002    1.147260753143628E-024
 -1.300000000000000E-002    1.063901002210538E-024
 -1.290000000000000E-002    9.439449277350093E-025
 -1.280000000000000E-002    8.065015915413234E-025
 -1.270000000000000E-002    6.716549817520610E-025
 -1.260000000000000E-002    5.555567808666564E-025
 -1.250000000000000E-002    4.648377349187817E-025
 -1.240000000000000E-002    3.911924486267659E-025
 -1.230000000000000E-002    3.072164477217004E-025
 -1.220000000000000E-002    1.646768746611712E-025
 -1.210000000000000E-002   -1.036760775479018E-025
 -1.200000000000000E-002   -5.779359368358421E-025
 -1.190000000000000E-002   -1.340181826882220E-024
 -1.180000000000000E-002   -2.459308275885762E-024
 -1.170000000000000E-002   -3.972729832525855E-024
 -1.160000000000000E-002   -5.866980614433775E-024
 -1.150000000000000E-002   -8.059951333777827E-024
 -1.140000000000000E-002   -1.038798296022724E-023
 -1.130000000000000E-002   -1.260110810207323E-023
 -1.120000000000000E-002   -1.436933661989215E-023
 -1.110000000000000E-002   -1.530194426551948E-023
 -1.100000000000000E-002   -1.498030499435821E-023
 -1.090000000000000E-002   -1.300301011793999E-023
 -1.080000000000000E-002   -9.040056194715134E-024
 -1.070000000000000E-002   -2.891014907957360E-024
 -1.060000000000000E-002    5.459362548803648E-024
 -1.050000000000000E-002    1.579545365907877E-023
 -1.040000000000000E-002    2.764222317339545E-023
 -1.030000000000000E-002    4.025995593240149E-023
 -1.020000000000000E-002    5.266629345800744E-023
 -1.010000000000000E-002    6.368677682170359E-023
 -1.000000000000000E-002    7.203175511212580E-023
 -9.899999999999999E-003    7.639437827281191E-023
 -9.800000000000000E-003    7.556157405492563E-023
 -9.699999999999999E-003    6.852832120517550E-023
 -9.599999999999999E-003    5.460511768416484E-023
 -9.500000000000000E-003    3.350956317711684E-023
 -9.399999999999999E-003    5.435439897165110E-024
 -9.299999999999999E-003   -2.890429590825156E-023
 -9.200000000000000E-003   -6.826071091619383E-023
 -9.099999999999999E-003   -1.108558295255720E-022
 -8.999999999999999E-003   -1.544093627980145E-022
 -8.900000000000000E-003   -1.961821114329780E-022
 -8.799999999999999E-003   -2.330355353470636E-022
 -8.699999999999999E-003   -2.615115463634361E-022
 -8.600000000000000E-003   -2.779422385376983E-022
 -8.499999999999999E-003   -2.786034037304844E-022
 -8.399999999999999E-003   -2.599293009327667E-022
 -8.300000000000000E-003   -2.188034119167903E-022
 -8.199999999999999E-003   -1.529332363375893E-022
 -8.100000000000000E-003   -6.130373713756767E-023
 -8.000000000000000E-003    5.531580247902399E-023
 -7.899999999999999E-003    1.938595977582172E-022
 -7.800000000000000E-003    3.485202425789020E-022
 -7.699999999999999E-003    5.104632685405271E-022
 -7.599999999999999E-003    6.678046798985663E-022
 -7.499999999999999E-003    8.059521478436894E-022
 -7.399999999999999E-003    9.083883294875260E-022
 -7.299999999999999E-003    9.579339173404264E-022
 -7.199999999999999E-003    9.384660464529385E-022
 -7.100000000000000E-003    8.369920223623081E-022
 -6.999999999999999E-003    6.458968036278181E-022
 -6.899999999999999E-003    3.651055504025208E-022
 -6.800000000000000E-003    3.846081391998375E-024
 -6.699999999999999E-003   -4.183293880643057E-022
 -6.599999999999999E-003   -8.715807607399774E-022
 -6.499999999999999E-003   -1.317119382869974E-021
 -6.399999999999999E-003   -1.709966956663729E-021
 -6.299999999999999E-003   -2.003074371567963E-021
 -6.199999999999999E-003   -2.152539158634325E-021
 -6.100000000000000E-003   -2.123446686099241E-021
 -5.999999999999999E-003   -1.895676664789048E-021
 -5.899999999999999E-003   -1.468886781290724E-021
 -5.800000000000000E-003   -8.658458657504989E-022
 -5.699999999999999E-003   -1.333590360554427E-022
 -5.599999999999999E-003    6.597800504177088E-022
 -5.499999999999999E-003    1.428065563900523E-021
 -5.399999999999999E-003    2.077640990949569E-021
 -5.299999999999999E-003    2.517149703319722E-021
 -5.199999999999999E-003    2.670035556152484E-021
 -5.099999999999999E-003    2.486882642700101E-021
 -4.999999999999999E-003    1.956145204051699E-021
 -4.899999999999999E-003    1.111577204576147E-021
 -4.799999999999999E-003    3.485373198730201E-023
 -4.699999999999999E-003   -1.147705584174581E-021
 -4.599999999999999E-003   -2.274769557140064E-021
 -4.499999999999999E-003   -3.165665214813029E-021
 -4.399999999999999E-003   -3.640921010170292E-021
 -4.299999999999999E-003   -3.545726598363421E-021
 -4.199999999999999E-003   -2.773719255106830E-021
 -4.099999999999999E-003   -1.288147645336591E-021
 -3.999999999999999E-003    8.625488294963220E-022
 -3.899999999999999E-003    3.537330226365260E-021
 -3.799999999999999E-003    6.505154759895522E-021
 -3.699999999999999E-003    9.458357616947477E-021
 -3.599999999999999E-003    1.203635007818335E-020
 -3.499999999999999E-003    1.385789846049166E-020
 -3.399999999999999E-003    1.455911553436032E-020
 -3.299999999999999E-003    1.383345294881266E-020
 -3.199999999999999E-003    1.146960756224511E-020
 -3.099999999999999E-003    7.383347597695477E-021
 -2.999999999999999E-003    1.639849849895765E-021
 -2.899999999999999E-003   -5.535785220872416E-021
 -2.799999999999999E-003   -1.376096881477881E-020
 -2.699999999999999E-003   -2.251071424242108E-020
 -2.599999999999999E-003   -3.114394304485834E-020
 -2.499999999999999E-003   -3.893868234671158E-020
 -2.399999999999999E-003   -4.513348015334576E-020
 -2.299999999999999E-003   -4.897249187864320E-020
 -2.199999999999999E-003   -4.975230288403926E-020
 -2.099999999999999E-003   -4.686939336127421E-020
 -1.999999999999999E-003   -3.986805455816637E-020
 -1.899999999999999E-003   -2.848912335010849E-020
 -1.799999999999999E-003   -1.271977115683254E-020
 -1.699999999999999E-003    7.156104497411382E-021
 -1.599999999999999E-003    3.050924639692311E-020
 -1.499999999999999E-003    5.632278947990022E-020
 -1.399999999999999E-003    8.316410700937994E-020
 -1.299999999999999E-003    1.091809404083911E-019
 -1.199999999999999E-003    1.321339244187114E-019
 -1.099999999999999E-003    1.494779777731632E-019
 -9.999999999999989E-004    1.585028018271084E-019
 -8.999999999999990E-004    1.565382409625527E-019
 -7.999999999999990E-004    1.412228682857082E-019
 -6.999999999999989E-004    1.108241167180092E-019
 -5.999999999999990E-004    6.458739170966749E-020
 -4.999999999999989E-004    3.079701089395132E-021
 -3.999999999999989E-004   -7.151618828264600E-020
 -2.999999999999989E-004   -1.552075730046791E-019
 -1.999999999999989E-004   -2.421492371290527E-019
 -9.999999999999892E-005   -3.247984169285081E-019
  1.084202172485504E-018   -3.942999200145908E-019
  1.000000000000011E-004   -4.411131614130213E-019
  2.000000000000011E-004   -4.558663259353562E-019
  3.000000000000011E-004   -4.303903051610507E-019
  4.000000000000011E-004   -3.588546260337110E-019
  5.000000000000011E-004   -2.388967517857897E-019
  6.000000000000011E-004   -7.261571607548019E-020
  7.000000000000011E-004    1.327105325695093E-019
  8.000000000000011E-004    3.643196877220755E-019
  9.000000000000012E-004    6.041866783522771E-019
  1.000000000000001E-003    8.298495446958584E-019
  1.100000000000001E-003    1.015863872828253E-018
  1.200000000000001E-003    1.135844833812185E-018
  1.300000000000001E-003    1.164986808823418E-018
  1.400000000000001E-003    1.082879445930127E-018
  1.500000000000001E-003    8.763801864499377E-019
  1.600000000000001E-003    5.422595201800674E-019
  1.700000000000001E-003    8.931444609633081E-020
  1.800000000000001E-003   -4.603467125474586E-019
  1.900000000000001E-003   -1.071104456167478E-018
  2.000000000000001E-003   -1.694901463351292E-018
  2.100000000000001E-003   -2.273681576926462E-018
  2.200000000000001E-003   -2.743169210442329E-018
  2.300000000000001E-003   -3.037838340527754E-018
  2.400000000000001E-003   -3.096790491980030E-018
  2.500000000000001E-003   -2.870144681923798E-018
  2.600000000000001E-003   -2.325442352424806E-018
  2.700000000000001E-003   -1.453511760191274E-018
  2.800000000000001E-003   -2.732052633433217E-019
  2.900000000000001E-003    1.165556068612350E-018
  3.000000000000001E-003    2.780930788658066E-018
  3.100000000000001E-003    4.460891203546122E-018
  3.200000000000001E-003    6.067779930707077E-018
  3.300000000000001E-003    7.445741267353582E-018
  3.400000000000001E-003    8.430863681593970E-018
  3.500000000000001E-003    8.863644158611475E-018
  3.600000000000001E-003    8.603141965708700E-018
  3.700000000000001E-003    7.541982042068368E-018
  3.800000000000001E-003    5.621149845137056E-018
  3.900000000000001E-003    2.843387242004325E-018
  4.000000000000001E-003   -7.161161064825052E-019
  4.100000000000001E-003   -4.903044027259008E-018
  4.200000000000001E-003   -9.482533657433974E-018
  4.300000000000001E-003   -1.414406107425301E-017
  4.400000000000001E-003   -1.851337412812513E-017
  4.500000000000001E-003   -2.217182204352726E-017
  4.600000000000002E-003   -2.468284220346799E-017
  4.700000000000001E-003   -2.562479162304740E-017
  4.800000000000001E-003   -2.462856357913492E-017
  4.900000000000002E-003   -2.141780590892888E-017
  5.000000000000001E-003   -1.584880350046982E-017
  5.100000000000001E-003   -7.946658261895274E-018
  5.200000000000001E-003    2.066025485584232E-018
  5.300000000000002E-003    1.375177671043762E-017
  5.400000000000001E-003    2.645579848089782E-017
  5.500000000000001E-003    3.932136896294330E-017
  5.600000000000002E-003    5.132507283500816E-017
  5.700000000000001E-003    6.133239834268506E-017
  5.800000000000001E-003    6.817265885984536E-017
  5.900000000000002E-003    7.073015132550819E-017
  6.000000000000001E-003    6.804662660478363E-017
  6.100000000000001E-003    5.942822681996618E-017
  6.200000000000002E-003    4.454856093835420E-017
  6.300000000000002E-003    2.353831882785213E-017
  6.400000000000001E-003   -2.948352785781968E-018
  6.500000000000001E-003   -3.370026574820061E-017
  6.600000000000002E-003   -6.695658350747214E-017
  6.700000000000001E-003   -1.004612103624116E-016
  6.800000000000001E-003   -1.315670074463143E-016
  6.900000000000002E-003   -1.573891173264128E-016
  7.000000000000001E-003   -1.750020424182348E-016
  7.100000000000001E-003   -1.816709877884227E-016
  7.200000000000002E-003   -1.751035145214117E-016
  7.300000000000002E-003   -1.537038584114124E-016
  7.400000000000001E-003   -1.168094719074016E-016
  7.500000000000001E-003   -6.488796072246357E-017
  7.600000000000002E-003    3.273601711337217E-019
  7.700000000000001E-003    7.578325887025977E-017
  7.800000000000001E-003    1.571496030902378E-016
  7.900000000000001E-003    2.389703282848298E-016
  8.000000000000002E-003    3.149256336435551E-016
  8.100000000000001E-003    3.782003738112643E-016
  8.200000000000001E-003    4.219450950443783E-016
  8.300000000000002E-003    4.398058562777935E-016
  8.400000000000001E-003    4.264919792686273E-016
  8.500000000000002E-003    3.783424110988955E-016
  8.600000000000002E-003    2.938467844587909E-016
  8.700000000000001E-003    1.740745791686356E-016
  8.800000000000002E-003    2.296667945852280E-017
  8.900000000000002E-003   -1.525525312279495E-016
  9.000000000000001E-003   -3.426758159339171E-016
  9.100000000000002E-003   -5.350488283056533E-016
  9.200000000000002E-003   -7.153479407622785E-016
  9.300000000000001E-003   -8.680901010367894E-016
  9.400000000000002E-003   -9.776458599525155E-016
  9.500000000000001E-003   -1.029406217007648E-015
  9.600000000000001E-003   -1.011037461481673E-015
  9.700000000000002E-003   -9.137397177561613E-016
  9.800000000000001E-003   -7.334158149373629E-016
  9.900000000000001E-003   -4.716481684878895E-016
  1.000000000000000E-002   -1.363831682387046E-016
  1.010000000000000E-002    2.577692829295896E-016
  1.020000000000000E-002    6.896982203684977E-016
  1.030000000000000E-002    1.132466816244562E-015
  1.040000000000000E-002    1.554521731316998E-015
  1.050000000000000E-002    1.921418648898986E-015
  1.060000000000000E-002    2.198003926242012E-015
  1.070000000000000E-002    2.350951063965029E-015
  1.080000000000000E-002    2.351508407581605E-015
  1.090000000000000E-002    2.178279371222692E-015
  1.100000000000000E-002    1.819829453325395E-015
  1.110000000000000E-002    1.276900955260123E-015
  1.120000000000000E-002    5.640136692512623E-016
  1.130000000000000E-002   -2.897479323407370E-016
  1.140000000000000E-002   -1.240931066174451E-015
  1.150000000000000E-002   -2.233008385010164E-015
  1.160000000000000E-002   -3.198816850834414E-015
  1.170000000000000E-002   -4.064107616722944E-015
  1.180000000000000E-002   -4.752086032045053E-015
  1.190000000000000E-002   -5.188734755766259E-015
  1.200000000000000E-002   -5.308618382906874E-015
  1.210000000000000E-002   -5.060802381345959E-015
  1.220000000000000E-002   -4.414466070801098E-015
  1.230000000000000E-002   -3.363750479463105E-015
  1.240000000000000E-002   -1.931389684166465E-015
  1.250000000000000E-002   -1.707101461446511E-016
  1.260000000000000E-002    1.834354175931034E-015
  1.270000000000000E-002    3.971476843154269E-015
  1.280000000000000E-002    6.104492106059703E-015
  1.290000000000000E-002    8.080243315616432E-015
  1.300000000000000E-002    9.737502541414464E-015
  1.310000000000000E-002    1.091757436430571E-014
  1.320000000000000E-002    1.147600268749380E-014
  1.330000000000000E-002    1.129468620547172E-014
  1.340000000000000E-002    1.029356292747234E-014
  1.350000000000000E-002    8.440978001498890E-015
  1.360000000000000E-002    5.761832258225378E-015
  1.370000000000000E-002    2.342666939298106E-015
  1.380000000000000E-002   -1.667045068819956E-015
  1.390000000000000E-002   -6.057932688512027E-015
  1.400000000000000E-002   -1.056838817309192E-014
  1.410000000000000E-002   -1.489683676457722E-014
  1.420000000000000E-002   -1.871829108859637E-014
  1.430000000000000E-002   -2.170450736119672E-014
  1.440000000000000E-002   -2.354672350749109E-014
  1.450000000000000E-002   -2.397967614528910E-014
  1.460000000000000E-002   -2.280534061271836E-014
  1.470000000000000E-002   -1.991466155980170E-014
  1.480000000000000E-002   -1.530554720509271E-014
  1.490000000000000E-002   -9.095382317316160E-015
  1.500000000000000E-002   -1.526584420210382E-015
  1.510000000000000E-002    7.035988048884056E-015
  1.520000000000000E-002    1.611650012061300E-014
  1.530000000000000E-002    2.514870262580687E-014
  1.540000000000000E-002    3.350511370778638E-014
  1.550000000000000E-002    4.053376708791208E-014
  1.560000000000000E-002    4.560076316247679E-014
  1.570000000000000E-002    4.813627306111800E-014
  1.580000000000000E-002    4.768116670650558E-014
  1.590000000000000E-002    4.393105755409307E-014
  1.600000000000000E-002    3.677437532496700E-014
  1.610000000000000E-002    2.632118903596418E-014
  1.620000000000000E-002    1.291977103411128E-014
  1.630000000000000E-002   -2.841614488251953E-015
  1.640000000000000E-002   -2.014930717676337E-014
  1.650000000000000E-002   -3.799601897940567E-014
  1.660000000000000E-002   -5.522933802964625E-014
  1.670000000000000E-002   -7.061537404367801E-014
  1.680000000000000E-002   -8.291465511926130E-014
  1.690000000000000E-002   -9.096631722570270E-014
  1.700000000000000E-002   -9.377564630803065E-014
  1.710000000000000E-002   -9.059921037674826E-014
  1.720000000000000E-002   -8.102147807120235E-014
  1.730000000000000E-002   -6.501682055034022E-014
  1.740000000000000E-002   -4.299118481226418E-014
  1.750000000000000E-002   -1.579847583529664E-014
  1.760000000000000E-002    1.527191274369233E-014
  1.770000000000000E-002    4.853848102572650E-014
  1.780000000000000E-002    8.200189492159838E-014
  1.790000000000000E-002    1.134482399488620E-013
  1.800000000000000E-002    1.405769153132207E-013
  1.810000000000000E-002    1.611469662537171E-013
  1.820000000000000E-002    1.731335671306859E-013
  1.830000000000000E-002    1.748852121896650E-013
  1.840000000000000E-002    1.652708608171404E-013
  1.850000000000000E-002    1.438062503110985E-013
  1.860000000000000E-002    1.107488153089337E-013
  1.870000000000000E-002    6.715189096557225E-014