 -4.000000000000000E-002    0.000000000000000E+000
 -3.990000000000000E-002    0.000000000000000E+000
 -3.980000000000000E-002    0.000000000000000E+000
 -3.970000000000000E-002    0.000000000000000E+000
 -3.960000000000000E-002    0.000000000000000E+000
 -3.950000000000000E-002   -5.128335968263225E-021
 -3.940000000000000E-002   -6.009536272189025E-020
 -3.930000000000000E-002   -3.825699973938536E-019
 -3.920000000000000E-002   -1.746959829102614E-018
 -3.910000000000000E-002   -6.385242725456812E-018
 -3.900000000000000E-002   -1.979037201056066E-017
 -3.890000000000000E-002   -5.386545488141230E-017
 -3.880000000000000E-002   -1.317598120334135E-016
 -3.870000000000000E-002   -2.943553667321069E-016
 -3.860000000000000E-002   -6.076169741727074E-016
 -3.850000000000000E-002   -1.168864830103395E-015
 -3.840000000000000E-002   -2.108551498835432E-015
 -3.830000000000000E-002   -3.582569176546207E-015
 -3.820000000000000E-002   -5.748889170634595E-015
 -3.810000000000000E-002   -8.721995021039758E-015
 -3.800000000000000E-002   -1.249973725405581E-014
 -3.790000000000000E-002   -1.686046909476442E-014
 -3.780000000000000E-002   -2.123395861627198E-014
 -3.770000000000000E-002   -2.455757985530700E-014
 -3.760000000000000E-002   -2.513905013100337E-014
 -3.750000000000000E-002   -2.055738575246420E-014
 -3.740000000000000E-002   -7.642908465770798E-015
 -3.730000000000000E-002    1.741712096445177E-014
 -3.720000000000000E-002    5.880065937312234E-014
 -3.710000000000000E-002    1.205626224130932E-013
 -3.700000000000000E-002    2.059155036711786E-013
 -3.690000000000000E-002    3.162864831929799E-013
 -3.680000000000000E-002    4.501955617853301E-013
 -3.670000000000000E-002    6.020426065045622E-013
 -3.660000000000000E-002    7.609370750898683E-013
 -3.650000000000000E-002    9.097453643973415E-013
 -3.640000000000000E-002    1.024561253524925E-012
 -3.630000000000000E-002    1.074817744472569E-012
 -3.620000000000000E-002    1.024246210606189E-012
 -3.610000000000000E-002    8.328485651074673E-013
 -3.600000000000000E-002    4.599759707000101E-013
 -3.590000000000000E-002   -1.314942122040003E-013
 -3.580000000000000E-002   -9.700147019321660E-013
 -3.570000000000000E-002   -2.069531187392682E-012
 -3.560000000000000E-002   -3.423365115478203E-012
 -3.550000000000000E-002   -4.998360317427100E-012
 -3.540000000000000E-002   -6.729934534519920E-012
 -3.530000000000000E-002   -8.518734075960402E-012
 -3.520000000000000E-002   -1.022958618891535E-011
 -3.510000000000000E-002   -1.169337193422497E-011
 -3.500000000000000E-002   -1.271230949423480E-011
 -3.490000000000000E-002   -1.306891226326053E-011
 -3.480000000000000E-002   -1.253864103240472E-011
 -3.470000000000000E-002   -1.090593813182125E-011
 -3.460000000000000E-002   -7.983007135963088E-012
 -3.450000000000000E-002   -3.630375312179539E-012
 -3.440000000000000E-002    2.222024608704145E-012
 -3.430000000000000E-002    9.554761218438470E-012
 -3.420000000000000E-002    1.824143668588289E-011
 -3.410000000000000E-002    2.803555111712462E-011
 -3.400000000000000E-002    3.856330786537065E-011
 -3.390000000000000E-002    4.932376755208461E-011
 -3.380000000000000E-002    5.969742950353107E-011
 -3.370000000000000E-002    6.896385181330768E-011
 -3.360000000000000E-002    7.632844007052108E-011
 -3.350000000000000E-002    8.095785084607299E-011
 -3.340000000000000E-002    8.202295159514908E-011
 -3.330000000000000E-002    7.874760800813939E-011
 -3.320000000000000E-002    7.046107329610883E-011
 -3.310000000000000E-002    5.665138225090267E-011
 -3.300000000000000E-002    3.701682044662726E-011
 -3.290000000000000E-002    1.151250761238159E-011
 -3.280000000000000E-002   -1.961081146921433E-011
 -3.270000000000000E-002   -5.577842250243257E-011
 -3.260000000000000E-002   -9.607587908180364E-011
 -3.250000000000000E-002   -1.392475649467377E-010
 -3.240000000000000E-002   -1.837105355384042E-010
 -3.230000000000000E-002   -2.275840810019533E-010
 -3.220000000000000E-002   -2.687347612736458E-010
 -3.210000000000000E-002   -3.048361645268466E-010
 -3.200000000000000E-002   -3.334422835743404E-010
 -3.190000000000000E-002   -3.520730768171092E-010
 -3.180000000000000E-002   -3.583106685970861E-010
 -3.170000000000000E-002   -3.499045838607634E-010
 -3.160000000000000E-002   -3.248842385635162E-010
 -3.150000000000000E-002   -2.816770380937191E-010
 -3.140000000000000E-002   -2.192296694092647E-010
 -3.130000000000000E-002   -1.371301027366485E-010
 -3.120000000000000E-002   -3.572636059200420E-011
 -3.110000000000000E-002    8.376251129505030E-011
 -3.100000000000000E-002    2.191499675248128E-010
 -3.090000000000000E-002    3.672079046078580E-010
 -3.080000000000000E-002    5.236244341547049E-010
 -3.070000000000000E-002    6.830045501493767E-010
 -3.060000000000000E-002    8.389250809081467E-010
 -3.050000000000000E-002    9.840546121701981E-010
 -3.040000000000000E-002    1.110347732533747E-009
 -3.030000000000000E-002    1.209319466317151E-009
 -3.020000000000000E-002    1.272400861019645E-009
 -3.010000000000000E-002    1.291370238322142E-009
 -3.000000000000000E-002    1.258847217352542E-009
 -2.990000000000000E-002    1.168827800101536E-009
 -2.980000000000000E-002    1.017231121318299E-009
 -2.970000000000000E-002    8.024210613937056E-010
 -2.960000000000000E-002    5.256592565389133E-010
 -2.950000000000000E-002    1.914459279525351E-010
 -2.940000000000000E-002   -1.922960328309548E-010
 -2.930000000000000E-002   -6.142316723119787E-010
 -2.920000000000000E-002   -1.059847216107153E-009
 -2.910000000000000E-002   -1.511918991915590E-009
 -2.900000000000000E-002   -1.951213816686436E-009
 -2.890000000000000E-002   -2.357395443050761E-009
 -2.880000000000000E-002   -2.710091069980387E-009
 -2.870000000000000E-002   -2.990051943081633E-009
 -2.860000000000000E-002   -3.180327332370473E-009
 -2.850000000000000E-002   -3.267359222503116E-009
 -2.840000000000000E-002   -3.241905819075157E-009
 -2.830000000000000E-002   -3.099705454107586E-009
 -2.820000000000000E-002   -2.841809526435892E-009
 -2.810000000000000E-002   -2.474540415593451E-009
 -2.800000000000000E-002   -2.009057020162288E-009
 -2.790000000000000E-002   -1.460551671790424E-009
 -2.780000000000000E-002   -8.471390034186485E-010
 -2.770000000000000E-002   -1.885311191474883E-010
 -2.760000000000000E-002    4.953767384712906E-010
 -2.750000000000000E-002    1.185868370791901E-009
 -2.740000000000000E-002    1.866569879479956E-009
 -2.730000000000000E-002    2.524281486340172E-009
 -2.720000000000000E-002    3.149370052417755E-009
 -2.710000000000000E-002    3.735655934499883E-009
 -2.700000000000000E-002    4.279785342008434E-009
 -2.690000000000000E-002    4.780135242356676E-009
 -2.680000000000000E-002    5.235361113239258E-009
 -2.670000000000000E-002    5.642750861801980E-009
 -2.660000000000000E-002    5.996591488591155E-009
 -2.650000000000000E-002    6.286776872681476E-009
 -2.640000000000000E-002    6.497881006055966E-009
 -2.630000000000000E-002    6.608897272469857E-009
 -2.620000000000000E-002    6.593789426374768E-009
 -2.610000000000000E-002    6.422924350156622E-009
 -2.600000000000000E-002    6.065358997957453E-009
 -2.590000000000000E-002    5.491862043456791E-009
 -2.580000000000000E-002    4.678443533218419E-009
 -2.570000000000000E-002    3.610082451012782E-009
 -2.560000000000000E-002    2.284282000594770E-009
 -2.550000000000000E-002    7.140513571681488E-010
 -2.540000000000000E-002   -1.070075717694781E-009
 -2.530000000000000E-002   -3.019321295395542E-009
 -2.520000000000000E-002   -5.067485378758100E-009
 -2.510000000000000E-002   -7.133420148904123E-009
 -2.500000000000000E-002   -9.125115006540559E-009
 -2.490000000000000E-002   -1.094518369830386E-008
 -2.480000000000000E-002   -1.249738308784905E-008
 -2.470000000000000E-002   -1.369365634906065E-008
 -2.460000000000000E-002   -1.446108853254306E-008
 -2.450000000000000E-002   -1.474812075280963E-008
 -2.440000000000000E-002   -1.452937441083484E-008
 -2.430000000000000E-002   -1.380852021923848E-008
 -2.420000000000000E-002   -1.261876314782539E-008
 -2.410000000000000E-002   -1.102071736481155E-008
 -2.400000000000000E-002   -9.097673350410828E-009
 -2.390000000000000E-002   -6.948517459711402E-009
 -2.380000000000000E-002   -4.678817838673786E-009
 -2.370000000000000E-002   -2.390812024557054E-009
 -2.360000000000000E-002   -1.732033041724680E-010
 -2.350000000000000E-002    1.908217859633273E-009
 -2.340000000000000E-002    3.818108059911408E-009
 -2.330000000000000E-002    5.556301299234126E-009
 -2.320000000000000E-002    7.158958303505633E-009
 -2.310000000000000E-002    8.695597960257475E-009
 -2.300000000000000E-002    1.026179504255595E-008
 -2.290000000000000E-002    1.196767997922115E-008
 -2.280000000000000E-002    1.392273609217252E-008
 -2.270000000000000E-002    1.621774653562507E-008
 -2.260000000000000E-002    1.890501030001168E-008
 -2.250000000000000E-002    2.197818971602184E-008
 -2.240000000000000E-002    2.535322655939555E-008
 -2.230000000000000E-002    2.885176702847305E-008
 -2.220000000000000E-002    3.218842351918424E-008
 -2.210000000000000E-002    3.496293108342408E-008
 -2.200000000000000E-002    3.665793070596892E-008
 -2.190000000000000E-002    3.664270249748158E-008
 -2.180000000000000E-002    3.418269302062744E-008
 -2.170000000000000E-002    2.845428015082615E-008
 -2.160000000000000E-002    1.856375184157054E-008
 -2.150000000000000E-002    3.569121403220302E-009
 -2.140000000000000E-002   -1.749676744262557E-008
 -2.130000000000000E-002   -4.560361218760074E-008
 -2.120000000000000E-002   -8.170311372522064E-008
 -2.110000000000000E-002   -1.267121167986823E-007
 -2.100000000000000E-002   -1.815005894161867E-007
 -2.090000000000000E-002   -2.468852789035975E-007
 -2.080000000000000E-002   -3.236292683205481E-007
 -2.070000000000000E-002   -4.124473329961269E-007
 -2.060000000000000E-002   -5.140162192696982E-007
 -2.050000000000000E-002   -6.289887088577244E-007
 -2.040000000000000E-002   -7.580097577764951E-007
 -2.030000000000000E-002   -9.017329261508802E-007
 -2.020000000000000E-002   -1.060835244642462E-006
 -2.010000000000000E-002   -1.236028106817704E-006
 -2.000000000000000E-002   -1.428063545299621E-006
 -1.990000000000000E-002   -1.637733779938099E-006
 -1.980000000000000E-002   -1.865863795182532E-006
 -1.970000000000000E-002   -2.113297122080734E-006
 -1.960000000000000E-002   -2.380875355932696E-006
 -1.950000000000000E-002   -2.669412875635595E-006
 -1.940000000000000E-002   -2.979669292236822E-006
 -1.930000000000000E-002   -3.312320919902950E-006
 -1.920000000000000E-002   -3.667935687680311E-006
 -1.910000000000000E-002   -4.046953734016526E-006
 -1.900000000000000E-002   -4.449675919689188E-006
 -1.890000000000000E-002   -4.876263870496937E-006
 -1.880000000000000E-002   -5.326752637468305E-006
 -1.870000000000000E-002   -5.801076633171426E-006
 -1.860000000000000E-002   -6.299109734414684E-006
 -1.850000000000000E-002   -6.820717012156589E-006
 -1.840000000000000E-002   -7.365817064533256E-006
 -1.830000000000000E-002   -7.934452235573361E-006
 -1.820000000000000E-002   -8.526860899723965E-006
 -1.810000000000000E-002   -9.143550449044959E-006
 -1.800000000000000E-002   -9.785360807592335E-006
 -1.790000000000000E-002   -1.045352239520676E-005
 -1.780000000000000E-002   -1.114969532637083E-005
 -1.770000000000000E-002   -1.187599106970104E-005
 -1.760000000000000E-002   -1.263497710019610E-005
 -1.750000000000000E-002   -1.342965774271366E-005
 -1.740000000000000E-002   -1.426343361150855E-005
 -1.730000000000000E-002   -1.514004726104021E-005
 -1.720000000000000E-002   -1.606351040810731E-005
 -1.710000000000000E-002   -1.703802273671738E-005
 -1.700000000000000E-002   -1.806788765604220E-005
 -1.690000000000000E-002   -1.915743105892544E-005
 -1.680000000000000E-002   -2.031092693271156E-005
 -1.670000000000000E-002   -2.153253741067247E-005
 -1.660000000000000E-002   -2.282628027467634E-005
 -1.650000000000000E-002   -2.419600881790698E-005
 -1.640000000000000E-002   -2.564542885885287E-005
 -1.630000000000000E-002   -2.717813052094576E-005
 -1.620000000000000E-002   -2.879765807920514E-005
 -1.610000000000000E-002   -3.050758584727081E-005
 -1.600000000000000E-002   -3.231161306403837E-005
 -1.590000000000000E-002   -3.421367458222244E-005
 -1.580000000000000E-002   -3.621804258342501E-005
 -1.570000000000000E-002   -3.832941620965258E-005
 -1.560000000000000E-002   -4.055300675359927E-005
 -1.550000000000000E-002   -4.289459564015690E-005
 -1.540000000000000E-002   -4.536055708987908E-005
 -1.530000000000000E-002   -4.795785589725996E-005
 -1.520000000000000E-002   -5.069402678142872E-005
 -1.510000000000000E-002   -5.357709801481602E-005
 -1.500000000000000E-002   -5.661551246077214E-005
 -1.490000000000000E-002   -5.981803158043510E-005
 -1.480000000000000E-002   -6.319361571208938E-005
 -1.470000000000000E-002   -6.675132341718228E-005
 -1.460000000000000E-002   -7.050020690582356E-005
 -1.450000000000000E-002   -7.444925472970419E-005
 -1.440000000000000E-002   -7.860733351415957E-005
 -1.430000000000000E-002   -8.298319837058357E-005
 -1.420000000000000E-002   -8.758551995324052E-005
 -1.410000000000000E-002   -9.242297689947051E-005
 -1.400000000000000E-002   -9.750435472637187E-005
 -1.390000000000000E-002   -1.028387127261156E-004
 -1.380000000000000E-002   -1.084355545314980E-004
 -1.370000000000000E-002   -1.143050024393018E-004
 -1.360000000000000E-002   -1.204580000420405E-004
 -1.350000000000000E-002   -1.269064788460331E-004
 -1.340000000000000E-002   -1.336634663525834E-004
 -1.330000000000000E-002   -1.407432291689422E-004
 -1.320000000000000E-002   -1.481612808282116E-004
 -1.310000000000000E-002   -1.559344348919016E-004
 -1.300000000000000E-002   -1.640806882293141E-004
 -1.290000000000000E-002   -1.726191316551131E-004
 -1.280000000000000E-002   -1.815698206523605E-004
 -1.270000000000000E-002   -1.909535532785915E-004
 -1.260000000000000E-002   -2.007916737157001E-004
 -1.250000000000000E-002   -2.111058686829305E-004
 -1.240000000000000E-002   -2.219179748084794E-004
 -1.230000000000000E-002   -2.332498147161989E-004
 -1.220000000000000E-002   -2.451230702003544E-004
 -1.210000000000000E-002   -2.575592350693356E-004
 -1.200000000000000E-002   -2.705795921821372E-004
 -1.190000000000000E-002   -2.842053433646297E-004
 -1.180000000000000E-002   -2.984576768268411E-004
 -1.170000000000000E-002   -3.133580036551139E-004
 -1.160000000000000E-002   -3.289281684537576E-004
 -1.150000000000000E-002   -3.451907246216073E-004
 -1.140000000000000E-002   -3.621692203679162E-004
 -1.130000000000000E-002   -3.798884897567072E-004
 -1.120000000000000E-002   -3.983748248616787E-004
 -1.110000000000000E-002   -4.176562084663214E-004
 -1.100000000000000E-002   -4.377625179579912E-004
 -1.090000000000000E-002   -4.587255253783185E-004
 -1.080000000000000E-002   -4.805789496850014E-004
 -1.070000000000000E-002   -5.033583627399478E-004
 -1.060000000000000E-002   -5.271010681728670E-004
 -1.050000000000000E-002   -5.518459588192269E-004
 -1.040000000000000E-002   -5.776332710543978E-004
 -1.030000000000000E-002   -6.045043188415078E-004
 -1.020000000000000E-002   -6.325013050635930E-004
 -1.010000000000000E-002   -6.616670424756495E-004
 -1.000000000000000E-002   -6.920447361224310E-004
 -9.899999999999999E-003   -7.236779301400872E-004
 -9.800000000000000E-003   -7.566103627263992E-004
 -9.699999999999999E-003   -7.908858404170615E-004
 -9.599999999999999E-003   -8.265483664195471E-004
 -9.500000000000000E-003   -8.636422032378126E-004
 -9.399999999999999E-003   -9.022120537342045E-004
 -9.299999999999999E-003   -9.423030821702131E-004
 -9.200000000000000E-003   -9.839613007291889E-004
 -9.099999999999999E-003   -1.027233584353778E-003
 -8.999999999999999E-003   -1.072168120573888E-003
 -8.900000000000000E-003   -1.118814287328018E-003
 -8.799999999999999E-003   -1.167223017822028E-003
 -8.699999999999999E-003   -1.217446742658582E-003
 -8.600000000000000E-003   -1.269539453380280E-003
 -8.499999999999999E-003   -1.323556812027402E-003
 -8.399999999999999E-003   -1.379555793514757E-003
 -8.300000000000000E-003   -1.437594912231051E-003
 -8.199999999999999E-003   -1.497733617578941E-003
 -8.100000000000000E-003   -1.560032424578008E-003
 -8.000000000000000E-003   -1.624552644341108E-003
 -7.899999999999999E-003   -1.691355908219530E-003
 -7.800000000000000E-003   -1.760504156255085E-003
 -7.699999999999999E-003   -1.832059465377622E-003
 -7.599999999999999E-003   -1.906083723789715E-003
 -7.499999999999999E-003   -1.982638624420782E-003
 -7.399999999999999E-003   -2.061785426573958E-003
 -7.299999999999999E-003   -2.143585059766684E-003
 -7.199999999999999E-003   -2.228098078344065E-003
 -7.100000000000000E-003   -2.315384285709424E-003
 -6.999999999999999E-003   -2.405503652674214E-003
 -6.899999999999999E-003   -2.498515343787689E-003
 -6.800000000000000E-003   -2.594478297730388E-003
 -6.699999999999999E-003   -2.693451530162305E-003
 -6.599999999999999E-003   -2.795493471908275E-003
 -6.499999999999999E-003   -2.900662578412289E-003
 -6.399999999999999E-003   -3.009016892441639E-003
 -6.299999999999999E-003   -3.120614259108549E-003
 -6.199999999999999E-003   -3.235512058732342E-003
 -6.100000000000000E-003   -3.353767197958082E-003
 -5.999999999999999E-003   -3.475435436889019E-003
 -5.899999999999999E-003   -3.600572047150432E-003
 -5.800000000000000E-003   -3.729230783082765E-003
 -5.699999999999999E-003   -3.861463716293549E-003
 -5.599999999999999E-003   -3.997321095671419E-003
 -5.499999999999999E-003   -4.136851174267037E-003
 -5.399999999999999E-003   -4.280099383413860E-003
 -5.299999999999999E-003   -4.427108648678318E-003
 -5.199999999999999E-003   -4.577918734903090E-003
 -5.099999999999999E-003   -4.732566160858796E-003
 -4.999999999999999E-003   -4.891083103657655E-003
 -4.899999999999999E-003   -5.053498415507227E-003
 -4.799999999999999E-003   -5.219836830054072E-003
 -4.699999999999999E-003   -5.390118278691970E-003
 -4.599999999999999E-003   -5.564358164336276E-003
 -4.499999999999999E-003   -5.742567081670662E-003
 -4.399999999999999E-003   -5.924750251734123E-003
 -4.299999999999999E-003   -6.110908267511395E-003
 -4.199999999999999E-003   -6.301035660277583E-003
 -4.099999999999999E-003   -6.495120888150897E-003
 -3.999999999999999E-003   -6.693147327551410E-003
 -3.899999999999999E-003   -6.895091940566524E-003
 -3.799999999999999E-003   -7.100924184927938E-003
 -3.699999999999999E-003   -7.310607867010098E-003
 -3.599999999999999E-003   -7.524098719822789E-003
 -3.499999999999999E-003   -7.741346053674493E-003
 -3.399999999999999E-003   -7.962289855865686E-003
 -3.299999999999999E-003   -8.186863199340522E-003
 -3.199999999999999E-003   -8.414989636229133E-003
 -3.099999999999999E-003   -8.646583444002843E-003
 -2.999999999999999E-003   -8.881549817726112E-003
 -2.899999999999999E-003   -9.119782676359833E-003
 -2.799999999999999E-003   -9.361167002597058E-003
 -2.699999999999999E-003   -9.605575634176963E-003
 -2.599999999999999E-003   -9.852869464927411E-003
 -2.499999999999999E-003   -1.010289715290258E-002
 -2.399999999999999E-003   -1.035549484556273E-002
 -2.299999999999999E-003   -1.061048526984216E-002
 -2.199999999999999E-003   -1.086767664393819E-002
 -2.099999999999999E-003   -1.112686368870790E-002
 -1.999999999999999E-003   -1.138782461322308E-002
 -1.899999999999999E-003   -1.165032361018008E-002
 -1.799999999999999E-003   -1.191410731036241E-002
 -1.699999999999999E-003   -1.217890630339299E-002
 -1.599999999999999E-003   -1.244443431415218E-002
 -1.499999999999999E-003   -1.271038701160730E-002
 -1.399999999999999E-003   -1.297644288480975E-002
 -1.299999999999999E-003   -1.324226100917963E-002
 -1.199999999999999E-003   -1.350748304493285E-002
 -1.099999999999999E-003   -1.377172950967021E-002
 -9.999999999999989E-004   -1.403460325174734E-002
 -8.999999999999990E-004   -1.429568698425927E-002
 -7.999999999999990E-004   -1.455454146554399E-002
 -6.999999999999989E-004   -1.481070991538858E-002
 -5.999999999999990E-004   -1.506371132182814E-002
 -4.999999999999989E-004   -1.531304429339157E-002
 -3.999999999999989E-004   -1.555818622292589E-002
 -2.999999999999989E-004   -1.579859004645023E-002
 -1.999999999999989E-004   -1.603368719394413E-002
 -9.999999999999892E-005   -1.626288385986668E-002
  1.084202172485504E-018   -1.648556249379664E-002
  1.000000000000011E-004   -1.670108010961431E-002
  2.000000000000011E-004   -1.690876782622688E-002
  3.000000000000011E-004   -1.710793125494144E-002
  4.000000000000011E-004   -1.729784728102518E-002
  5.000000000000011E-004   -1.747776598478270E-002
  6.000000000000011E-004   -1.764690918708809E-002
  7.000000000000011E-004   -1.780446942610552E-002
  8.000000000000011E-004   -1.794961210096094E-002
  9.000000000000012E-004   -1.808147169426230E-002
  1.000000000000001E-003   -1.819915214430793E-002
  1.100000000000001E-003   -1.830173018727613E-002
  1.200000000000001E-003   -1.838825064236120E-002
  1.300000000000001E-003   -1.845773006574601E-002
  1.400000000000001E-003   -1.850915481906138E-002
  1.500000000000001E-003   -1.854147961050532E-002
  1.600000000000001E-003   -1.855363259338036E-002
  1.700000000000001E-003   -1.854450834694251E-002
  1.800000000000001E-003   -1.851297391737785E-002
  1.900000000000001E-003   -1.845786441306856E-002
  2.000000000000001E-003   -1.837798649129799E-002
  2.100000000000001E-003   -1.827211687853237E-002
  2.200000000000001E-003   -1.813899948730344E-002
  2.300000000000001E-003   -1.797735013817360E-002
  2.400000000000001E-003   -1.778585390524469E-002
  2.500000000000001E-003   -1.756316497428562E-002
  2.600000000000001E-003   -1.730790678051333E-002
  2.700000000000001E-003   -1.701867499438471E-002
  2.800000000000001E-003   -1.669403266592421E-002
  2.900000000000001E-003   -1.633251562441345E-002
  3.000000000000001E-003   -1.593262730766398E-002
  3.100000000000001E-003   -1.549284456296769E-002
  3.200000000000001E-003   -1.501161386032632E-002
  3.300000000000001E-003   -1.448735473960807E-002
  3.400000000000001E-003   -1.391845825009795E-002
  3.500000000000001E-003   -1.330329031880093E-002
  3.600000000000001E-003   -1.264018990512626E-002
  3.700000000000001E-003   -1.192747001617840E-002
  3.800000000000001E-003   -1.116342081585470E-002
  3.900000000000001E-003   -1.034630768624969E-002
  4.000000000000001E-003   -9.474374158759628E-003
  4.100000000000001E-003   -8.545843254189672E-003
  4.200000000000001E-003   -7.558917262401934E-003
  4.300000000000001E-003   -6.511779237108373E-003
  4.400000000000001E-003   -5.402593670514907E-003
  4.500000000000001E-003   -4.229511631645887E-003
  4.600000000000002E-003   -2.990664380570794E-003
  4.700000000000001E-003   -1.684171919301695E-003
  4.800000000000001E-003   -3.081414958284726E-004
  4.900000000000002E-003    1.139330818142202E-003
  5.000000000000001E-003    2.660157225311694E-003
  5.100000000000001E-003    4.256258889197442E-003
  5.200000000000001E-003    5.929562304487577E-003
  5.300000000000002E-003    7.681997506481649E-003
  5.400000000000001E-003    9.515497550136802E-003
  5.500000000000001E-003    1.143199547185318E-002
  5.600000000000002E-003    1.343342324795768E-002
  5.700000000000001E-003    1.552170859138743E-002
  5.800000000000001E-003    1.769877136379941E-002
  5.900000000000002E-003    1.996652643502014E-002
  6.000000000000001E-003    2.232687681727066E-002
  6.100000000000001E-003    2.478171177697014E-002
  6.200000000000002E-003    2.733290665808914E-002
  6.300000000000002E-003    2.998231839912030E-002
  6.400000000000001E-003    3.273178494732652E-002
  6.500000000000001E-003    3.558311734874157E-002
  6.600000000000002E-003    3.853810461209905E-002
  6.700000000000001E-003    4.159850738625587E-002
  6.800000000000001E-003    4.476605282962944E-002
  6.900000000000002E-003    4.804243742152159E-002
  7.000000000000001E-003    5.142931750497268E-002
  7.100000000000001E-003    5.492831272401678E-002
  7.200000000000002E-003    5.854099993174443E-002
  7.300000000000002E-003    6.226890746911053E-002
  7.400000000000001E-003    6.611351428522741E-002
  7.500000000000001E-003    7.007625582656579E-002
  7.600000000000002E-003    7.415850123097409E-002
  7.700000000000001E-003    7.836156531501674E-002
  7.800000000000001E-003    8.268670200915509E-002
  7.900000000000001E-003    8.713510073868951E-002
  8.000000000000002E-003    9.170787611622819E-002
  8.100000000000001E-003    9.640608018717149E-002
  8.200000000000001E-003    0.101230683022278     
  8.300000000000002E-003    0.106182574829134     
  8.400000000000001E-003    0.111262566601514     
  8.500000000000002E-003    0.116471379954811     
  8.600000000000002E-003    0.121809654409504     
  8.700000000000001E-003    0.127277932545500     
  8.800000000000002E-003    0.132876659547554     
  8.900000000000002E-003    0.138606181212667     
  9.000000000000001E-003    0.144466746308311     
  9.100000000000002E-003    0.150458498868703     
  9.200000000000002E-003    0.156581463825084     
  9.300000000000001E-003    0.162835558148049     
  9.400000000000002E-003    0.169220599669699     
  9.500000000000001E-003    0.175736265992736     
  9.600000000000001E-003    0.182382115699412     
  9.700000000000002E-003    0.189157585136413     
  9.800000000000001E-003    0.196061989032896     
  9.900000000000001E-003    0.203094511396809     
  1.000000000000000E-002    0.210254192242968     
  1.010000000000000E-002    0.217539925404824     
  1.020000000000000E-002    0.224950488947483     
  1.030000000000000E-002    0.232484492550489     
  1.040000000000000E-002    0.240140410537191     
  1.050000000000000E-002    0.247916563812626     
  1.060000000000000E-002    0.255811122955290     
  1.070000000000000E-002    0.263822104441561     
  1.080000000000000E-002    0.271947367351931     
  1.090000000000000E-002    0.280184610880941     
  1.100000000000000E-002    0.288531375423520     
  1.110000000000000E-002    0.296985039483384     
  1.120000000000000E-002    0.305542798901675     
  1.130000000000000E-002    0.314201714424846     
  1.140000000000000E-002    0.322958653465495     
  1.150000000000000E-002    0.331810335409000     
  1.160000000000000E-002    0.340753308864440     
  1.170000000000000E-002    0.349783928468603     
  1.180000000000000E-002    0.358898391730306     
  1.190000000000000E-002    0.368092722794710     
  1.200000000000000E-002    0.377362790457830     
  1.210000000000000E-002    0.386704258533970     
  1.220000000000000E-002    0.396112621286130     
  1.230000000000000E-002    0.405583211022994     
  1.240000000000000E-002    0.415111188087045     
  1.250000000000000E-002    0.424691507108312     
  1.260000000000000E-002    0.434318980232608     
  1.270000000000000E-002    0.443988230672508     
  1.280000000000000E-002    0.453693696343143     
  1.290000000000000E-002    0.463429692597850     
  1.300000000000000E-002    0.473190305105817     
  1.310000000000000E-002    0.482969466530324     
  1.320000000000000E-002    0.492760954988435     
  1.330000000000000E-002    0.502558381652023     
  1.340000000000000E-002    0.512355172975732     
  1.350000000000000E-002    0.522144668103014     
  1.360000000000000E-002    0.531919951084878     
  1.370000000000000E-002    0.541674003213181     
  1.380000000000000E-002    0.551399626373604     
  1.390000000000000E-002    0.561089478011843     
  1.400000000000000E-002    0.570736075413517     
  1.410000000000000E-002    0.580331843343356     
  1.420000000000000E-002    0.589868986229980     
  1.430000000000000E-002    0.599339650482073     
  1.440000000000000E-002    0.608735794646125     
  1.450000000000000E-002    0.618049229422211     
  1.460000000000000E-002    0.627271754820099     
  1.470000000000000E-002    0.636394987526897     
  1.480000000000000E-002    0.645410422165321     
  1.490000000000000E-002    0.654309451474135     
  1.500000000000000E-002    0.663083408434648     
  1.510000000000000E-002    0.671723502433080     
  1.520000000000000E-002    0.680220890440684     
  1.530000000000000E-002    0.688566607541854     
  1.540000000000000E-002    0.696751637617681     
  1.550000000000000E-002    0.704766876925904     
  1.560000000000000E-002    0.712603252358991     
  1.570000000000000E-002    0.720251500983484     
  1.580000000000000E-002    0.727702445841757     
  1.590000000000000E-002    0.734946783158070     
  1.600000000000000E-002    0.741975228080935     
  1.610000000000000E-002    0.748778458046898     
  1.620000000000000E-002    0.755347137491797     
  1.630000000000000E-002    0.761671928589153     
  1.640000000000000E-002    0.767743501934657     
  1.650000000000000E-002    0.773552552874923     
  1.660000000000000E-002    0.779089747374826     
  1.670000000000000E-002    0.784345874801944     
  1.680000000000000E-002    0.789311668911217     
  1.690000000000000E-002    0.793977968601995     
  1.700000000000000E-002    0.798335663348497     
  1.710000000000000E-002    0.802375668014225     
  1.720000000000000E-002    0.806089060111426     
  1.730000000000000E-002    0.809466963954085     
  1.740000000000000E-002    0.812500538829938     
  1.750000000000000E-002    0.815181114041659     
  1.760000000000000E-002    0.817500185853226     
  1.770000000000000E-002    0.819449251112373     
  1.780000000000000E-002    0.821020054243483     
  1.790000000000000E-002    0.822204431330303     
  1.800000000000000E-002    0.822994415084946     
  1.810000000000000E-002    0.823382183881312     
  1.820000000000000E-002    0.823360031132137     
  1.830000000000000E-002    0.822920469062263     
  1.840000000000000E-002    0.822056287055916     
  1.850000000000000E-002    0.820760399732427     
  1.860000000000000E-002    0.819025981991285     
  1.870000000000000E-002    0.816846332418565     