 -4.000000000000000E-002    0.000000000000000E+000
 -3.990000000000000E-002    0.000000000000000E+000
 -3.980000000000000E-002    0.000000000000000E+000
 -3.970000000000000E-002    0.000000000000000E+000
 -3.960000000000000E-002    0.000000000000000E+000
 -3.950000000000000E-002    0.000000000000000E+000
 -3.940000000000000E-002    0.000000000000000E+000
 -3.930000000000000E-002    0.000000000000000E+000
 -3.920000000000000E-002    0.000000000000000E+000
 -3.910000000000000E-002    0.000000000000000E+000
 -3.900000000000000E-002    0.000000000000000E+000
 -3.890000000000000E-002    0.000000000000000E+000
 -3.880000000000000E-002    0.000000000000000E+000
 -3.870000000000000E-002    0.000000000000000E+000
 -3.860000000000000E-002    0.000000000000000E+000
 -3.850000000000000E-002    0.000000000000000E+000
 -3.840000000000000E-002    0.000000000000000E+000
 -3.830000000000000E-002    0.000000000000000E+000
 -3.820000000000000E-002    0.000000000000000E+000
 -3.810000000000000E-002    0.000000000000000E+000
 -3.800000000000000E-002    0.000000000000000E+000
 -3.790000000000000E-002    0.000000000000000E+000
 -3.780000000000000E-002    0.000000000000000E+000
 -3.770000000000000E-002    0.000000000000000E+000
 -3.760000000000000E-002    0.000000000000000E+000
 -3.750000000000000E-002    0.000000000000000E+000
 -3.740000000000000E-002    0.000000000000000E+000
 -3.730000000000000E-002    0.000000000000000E+000
 -3.720000000000000E-002    0.000000000000000E+000
 -3.710000000000000E-002    0.000000000000000E+000
 -3.700000000000000E-002    0.000000000000000E+000
 -3.690000000000000E-002    0.000000000000000E+000
 -3.680000000000000E-002    0.000000000000000E+000
 -3.670000000000000E-002    0.000000000000000E+000
 -3.660000000000000E-002    0.000000000000000E+000
 -3.650000000000000E-002    0.000000000000000E+000
 -3.640000000000000E-002    0.000000000000000E+000
 -3.630000000000000E-002    0.000000000000000E+000
 -3.620000000000000E-002    0.000000000000000E+000
 -3.610000000000000E-002    0.000000000000000E+000
 -3.600000000000000E-002    0.000000000000000E+000
 -3.590000000000000E-002    0.000000000000000E+000
 -3.580000000000000E-002    0.000000000000000E+000
 -3.570000000000000E-002    0.000000000000000E+000
 -3.560000000000000E-002    0.000000000000000E+000
 -3.550000000000000E-002    0.000000000000000E+000
 -3.540000000000000E-002    0.000000000000000E+000
 -3.530000000000000E-002    0.000000000000000E+000
 -3.520000000000000E-002    0.000000000000000E+000
 -3.510000000000000E-002    0.000000000000000E+000
 -3.500000000000000E-002    0.000000000000000E+000
 -3.490000000000000E-002    0.000000000000000E+000
 -3.480000000000000E-002    0.000000000000000E+000
 -3.470000000000000E-002    0.000000000000000E+000
 -3.460000000000000E-002    0.000000000000000E+000
 -3.450000000000000E-002    0.000000000000000E+000
 -3.440000000000000E-002    0.000000000000000E+000
 -3.430000000000000E-002    0.000000000000000E+000
 -3.420000000000000E-002    0.000000000000000E+000
 -3.410000000000000E-002    0.000000000000000E+000
 -3.400000000000000E-002    0.000000000000000E+000
 -3.390000000000000E-002    0.000000000000000E+000
 -3.380000000000000E-002    0.000000000000000E+000
 -3.370000000000000E-002    0.000000000000000E+000
 -3.360000000000000E-002    0.000000000000000E+000
 -3.350000000000000E-002    0.000000000000000E+000
 -3.340000000000000E-002    0.000000000000000E+000
 -3.330000000000000E-002    0.000000000000000E+000
 -3.320000000000000E-002    0.000000000000000E+000
 -3.310000000000000E-002    0.000000000000000E+000
 -3.300000000000000E-002    0.000000000000000E+000
 -3.290000000000000E-002    0.000000000000000E+000
 -3.280000000000000E-002    0.000000000000000E+000
 -3.270000000000000E-002    0.000000000000000E+000
 -3.260000000000000E-002    0.000000000000000E+000
 -3.250000000000000E-002    0.000000000000000E+000
 -3.240000000000000E-002    0.000000000000000E+000
 -3.230000000000000E-002    0.000000000000000E+000
 -3.220000000000000E-002    0.000000000000000E+000
 -3.210000000000000E-002    0.000000000000000E+000
 -3.200000000000000E-002    0.000000000000000E+000
 -3.190000000000000E-002    0.000000000000000E+000
 -3.180000000000000E-002    0.000000000000000E+000
 -3.170000000000000E-002    0.000000000000000E+000
 -3.160000000000000E-002    0.000000000000000E+000
 -3.150000000000000E-002    0.000000000000000E+000
 -3.140000000000000E-002    0.000000000000000E+000
 -3.130000000000000E-002    0.000000000000000E+000
 -3.120000000000000E-002    0.000000000000000E+000
 -3.110000000000000E-002    0.000000000000000E+000
 -3.100000000000000E-002    0.000000000000000E+000
 -3.090000000000000E-002    0.000000000000000E+000
 -3.080000000000000E-002    0.000000000000000E+000
 -3.070000000000000E-002    0.000000000000000E+000
 -3.060000000000000E-002    0.000000000000000E+000
 -3.050000000000000E-002    0.000000000000000E+000
 -3.040000000000000E-002    0.000000000000000E+000
 -3.030000000000000E-002    0.000000000000000E+000
 -3.020000000000000E-002    0.000000000000000E+000
 -3.010000000000000E-002    0.000000000000000E+000
 -3.000000000000000E-002    0.000000000000000E+000
 -2.990000000000000E-002    0.000000000000000E+000
 -2.980000000000000E-002    0.000000000000000E+000
 -2.970000000000000E-002    0.000000000000000E+000
 -2.960000000000000E-002    0.000000000000000E+000
 -2.950000000000000E-002    0.000000000000000E+000
 -2.940000000000000E-002    0.000000000000000E+000
 -2.930000000000000E-002    0.000000000000000E+000
 -2.920000000000000E-002    0.000000000000000E+000
 -2.910000000000000E-002    0.000000000000000E+000
 -2.900000000000000E-002    0.000000000000000E+000
 -2.890000000000000E-002    0.000000000000000E+000
 -2.880000000000000E-002    0.000000000000000E+000
 -2.870000000000000E-002    0.000000000000000E+000
 -2.860000000000000E-002    0.000000000000000E+000
 -2.850000000000000E-002    0.000000000000000E+000
 -2.840000000000000E-002    0.000000000000000E+000
 -2.830000000000000E-002    0.000000000000000E+000
 -2.820000000000000E-002    0.000000000000000E+000
 -2.810000000000000E-002    0.000000000000000E+000
 -2.800000000000000E-002    0.000000000000000E+000
 -2.790000000000000E-002    0.000000000000000E+000
 -2.780000000000000E-002    0.000000000000000E+000
 -2.770000000000000E-002    0.000000000000000E+000
 -2.760000000000000E-002    0.000000000000000E+000
 -2.750000000000000E-002    0.000000000000000E+000
 -2.740000000000000E-002    0.000000000000000E+000
 -2.730000000000000E-002    0.000000000000000E+000
 -2.720000000000000E-002    0.000000000000000E+000
 -2.710000000000000E-002    0.000000000000000E+000
 -2.700000000000000E-002    0.000000000000000E+000
 -2.690000000000000E-002    0.000000000000000E+000
 -2.680000000000000E-002    0.000000000000000E+000
 -2.670000000000000E-002    0.000000000000000E+000
 -2.660000000000000E-002    0.000000000000000E+000
 -2.650000000000000E-002    0.000000000000000E+000
 -2.640000000000000E-002    0.000000000000000E+000
 -2.630000000000000E-002    0.000000000000000E+000
 -2.620000000000000E-002    0.000000000000000E+000
 -2.610000000000000E-002    0.000000000000000E+000
 -2.600000000000000E-002    0.000000000000000E+000
 -2.590000000000000E-002    0.000000000000000E+000
 -2.580000000000000E-002    0.000000000000000E+000
 -2.570000000000000E-002    0.000000000000000E+000
 -2.560000000000000E-002    0.000000000000000E+000
 -2.550000000000000E-002    0.000000000000000E+000
 -2.540000000000000E-002    0.000000000000000E+000
 -2.530000000000000E-002    0.000000000000000E+000
 -2.520000000000000E-002    6.279011448514453E-048
 -2.510000000000000E-002    1.255802289702891E-047
 -2.500000000000000E-002    1.883703434554336E-047
 -2.490000000000000E-002    1.883703434554336E-047
 -2.480000000000000E-002    3.097645678444007E-047
 -2.470000000000000E-002    3.683686777482232E-047
 -2.460000000000000E-002    3.013925586817567E-047
 -2.450000000000000E-002   -7.534812822911054E-048
 -2.440000000000000E-002   -1.409157121929201E-046
 -2.430000000000000E-002   -2.989940568988547E-046
 -2.420000000000000E-002   -5.517136521508267E-046
 -2.410000000000000E-002   -9.132754807631899E-046
 -2.400000000000000E-002   -1.165577011102677E-045
 -2.390000000000000E-002   -1.204344673697727E-045
 -2.380000000000000E-002   -1.022662477559829E-045
 -2.370000000000000E-002    2.015226942404041E-046
 -2.360000000000000E-002    1.726247790355210E-045
 -2.350000000000000E-002    3.694898701086526E-045
 -2.340000000000000E-002    6.079087104767509E-045
 -2.330000000000000E-002    8.527779873049190E-045
 -2.320000000000000E-002    1.113203714197641E-044
 -2.310000000000000E-002    1.255873275616683E-044
 -2.300000000000000E-002    1.126449989634947E-044
 -2.290000000000000E-002    8.407664148025374E-045
 -2.280000000000000E-002    2.727056128238622E-045
 -2.270000000000000E-002   -4.656135064952593E-045
 -2.260000000000000E-002   -1.391542154909843E-044
 -2.250000000000000E-002   -2.385575441091468E-044
 -2.240000000000000E-002   -3.273352299325325E-044
 -2.230000000000000E-002   -3.745395547170002E-044
 -2.220000000000000E-002   -3.803811729093905E-044
 -2.210000000000000E-002   -3.523364307017569E-044
 -2.200000000000000E-002   -3.246881634952530E-044
 -2.190000000000000E-002   -3.653220286485254E-044
 -2.180000000000000E-002   -5.621233108868174E-044
 -2.170000000000000E-002   -9.888165304648609E-044
 -2.160000000000000E-002   -1.723281198517843E-043
 -2.150000000000000E-002   -2.745140449171543E-043
 -2.140000000000000E-002   -3.889838279654416E-043
 -2.130000000000000E-002   -4.786929154360262E-043
 -2.120000000000000E-002   -4.825559162978601E-043
 -2.110000000000000E-002   -3.160534976124628E-043
 -2.100000000000000E-002    1.215575817014879E-043
 -2.090000000000000E-002    9.227078188346200E-043
 -2.080000000000000E-002    2.144392473453225E-042
 -2.070000000000000E-002    3.760695495453063E-042
 -2.060000000000000E-002    5.619339704318458E-042
 -2.050000000000000E-002    7.399011949007837E-042
 -2.040000000000000E-002    8.593238546684761E-042
 -2.030000000000000E-002    8.532716168271480E-042
 -2.020000000000000E-002    6.464373097506922E-042
 -2.010000000000000E-002    1.698978859580631E-042
 -2.000000000000000E-002   -6.177278301673531E-042
 -1.990000000000000E-002   -1.705307674512957E-041
 -1.980000000000000E-002   -3.005197101411573E-041
 -1.970000000000000E-002   -4.338229008103110E-041
 -1.960000000000000E-002   -5.435785735519318E-041
 -1.950000000000000E-002   -5.969066206105094E-041
 -1.940000000000000E-002   -5.610205301338494E-041
 -1.930000000000000E-002   -4.124371234505554E-041
 -1.920000000000000E-002   -1.480725151121734E-041
 -1.910000000000000E-002    2.042765494671414E-041
 -1.900000000000000E-002    5.799475994621902E-041
 -1.890000000000000E-002    8.805812817018371E-041
 -1.880000000000000E-002    9.912765134779116E-041
 -1.870000000000000E-002    8.146225154425573E-041
 -1.860000000000000E-002    3.211010901631028E-041
 -1.850000000000000E-002   -3.905806417661212E-041
 -1.840000000000000E-002   -1.037015103021359E-040
 -1.830000000000000E-002   -1.119456818282230E-040
 -1.820000000000000E-002    5.312548086893600E-042
 -1.810000000000000E-002    3.257583918697312E-040
 -1.800000000000000E-002    9.143889523957802E-040
 -1.790000000000000E-002    1.791060069629904E-039
 -1.780000000000000E-002    2.889369337099580E-039
 -1.770000000000000E-002    4.013580532566642E-039
 -1.760000000000000E-002    4.805213101702175E-039
 -1.750000000000000E-002    4.735460192842639E-039
 -1.740000000000000E-002    3.142415724750367E-039
 -1.730000000000000E-002   -6.687891761871612E-040
 -1.720000000000000E-002   -7.251200693888632E-039
 -1.710000000000000E-002   -1.676826216106284E-038
 -1.700000000000000E-002   -2.869547101024252E-038
 -1.690000000000000E-002   -4.152077886038721E-038
 -1.680000000000000E-002   -5.252223409285139E-038
 -1.670000000000000E-002   -5.772657320442393E-038
 -1.660000000000000E-002   -5.216482631384514E-038
 -1.650000000000000E-002   -3.053036422135032E-038
 -1.640000000000000E-002    1.169872800667233E-038
 -1.630000000000000E-002    7.669383013121146E-038
 -1.620000000000000E-002    1.624096701960937E-037
 -1.610000000000000E-002    2.607127225575139E-037
 -1.600000000000000E-002    3.559576102975234E-037
 -1.590000000000000E-002    4.245952208994404E-037
 -1.580000000000000E-002    4.364510089679704E-037
 -1.570000000000000E-002    3.582406328185030E-037
 -1.560000000000000E-002    1.596451476163240E-037
 -1.550000000000000E-002   -1.781759272764605E-037
 -1.540000000000000E-002   -6.523919517651822E-037
 -1.530000000000000E-002   -1.228157009883259E-036
 -1.520000000000000E-002   -1.830428573770369E-036
 -1.510000000000000E-002   -2.340889661165171E-036
 -1.500000000000000E-002   -2.603155545223787E-036
 -1.490000000000000E-002   -2.439068226567170E-036
 -1.480000000000000E-002   -1.677678219910177E-036
 -1.470000000000000E-002   -1.963899599691074E-037
 -1.460000000000000E-002    2.029245574633199E-036
 -1.450000000000000E-002    4.874167415193370E-036
 -1.440000000000000E-002    8.021521243721939E-036
 -1.430000000000000E-002    1.094291904583408E-035
 -1.420000000000000E-002    1.291574485573060E-035
 -1.410000000000000E-002    1.309030772180033E-035
 -1.400000000000000E-002    1.061436903694943E-035
 -1.390000000000000E-002    4.813350705527315E-036
 -1.380000000000000E-002   -4.588271678541154E-036
 -1.370000000000000E-002   -1.723396578511733E-035
 -1.360000000000000E-002   -3.193520116761557E-035
 -1.350000000000000E-002   -4.656091304598371E-035
 -1.340000000000000E-002   -5.807727581917694E-035
 -1.330000000000000E-002   -6.279196875745662E-035
 -1.320000000000000E-002   -5.683635556746789E-035
 -1.310000000000000E-002   -3.688256377680798E-035
 -1.300000000000000E-002   -1.042518142130301E-036
 -1.290000000000000E-002    5.016303426007275E-035
 -1.280000000000000E-002    1.129356548485194E-034
 -1.270000000000000E-002    1.796465184432645E-034
 -1.260000000000000E-002    2.388343350238337E-034
 -1.250000000000000E-002    2.759658063656321E-034
 -1.240000000000000E-002    2.750960180050249E-034
 -1.230000000000000E-002    2.214362642822812E-034
 -1.220000000000000E-002    1.046575596305882E-034
 -1.210000000000000E-002   -7.745121060480602E-035
 -1.200000000000000E-002   -3.155591627893023E-034
 -1.190000000000000E-002   -5.863555898137826E-034
 -1.180000000000000E-002   -8.519206334364056E-034
 -1.170000000000000E-002   -1.061658525135255E-033
 -1.160000000000000E-002   -1.157305146502456E-033
 -1.150000000000000E-002   -1.081098208196513E-033
 -1.140000000000000E-002   -7.866143630717256E-034
 -1.130000000000000E-002   -2.510999956186571E-034
 -1.120000000000000E-002    5.125481394045002E-034
 -1.110000000000000E-002    1.446520288429218E-033
 -1.100000000000000E-002    2.444150664850913E-033
 -1.090000000000000E-002    3.353693486858547E-033
 -1.080000000000000E-002    3.991491442171904E-033
 -1.070000000000000E-002    4.164938263111212E-033
 -1.060000000000000E-002    3.703902867945886E-033
 -1.050000000000000E-002    2.497293495714696E-033
 -1.040000000000000E-002    5.295008362116643E-034
 -1.030000000000000E-002   -2.090020155653286E-033
 -1.020000000000000E-002   -5.111385519580061E-033
 -1.010000000000000E-002   -8.149856612140208E-033
 -1.000000000000000E-002   -1.071697200392775E-032
 -9.899999999999999E-003   -1.227828265978589E-032
 -9.800000000000000E-003   -1.233399954033191E-032
 -9.699999999999999E-003   -1.051354808265911E-032
 -9.599999999999999E-003   -6.670071275337681E-033
 -9.500000000000000E-003   -9.573691932259970E-034
 -9.399999999999999E-003    6.129282599667782E-033
 -9.299999999999999E-003    1.376467070751999E-032
 -9.200000000000000E-003    2.086764201693878E-032
 -9.099999999999999E-003    2.623797574782342E-032
 -8.999999999999999E-003    2.874432747910376E-032
 -8.900000000000000E-003    2.753845917572648E-032
 -8.799999999999999E-003    2.225983094975103E-032
 -8.699999999999999E-003    1.318788823265517E-032
 -8.600000000000000E-003    1.299783965506019E-033
 -8.499999999999999E-003   -1.179944050689378E-032
 -8.399999999999999E-003   -2.408874407333111E-032
 -8.300000000000000E-003   -3.347308261777986E-032
 -8.199999999999999E-003   -3.821281453617554E-032
 -8.100000000000000E-003   -3.736796474746924E-032
 -8.000000000000000E-003   -3.116236448397178E-032
 -7.899999999999999E-003   -2.116477676107292E-032
 -7.800000000000000E-003   -1.019619483053218E-032
 -7.699999999999999E-003   -1.907706211669107E-033
 -7.599999999999999E-003   -3.075886650670218E-035
 -7.499999999999999E-003   -7.375392467535171E-033
 -7.399999999999999E-003   -2.473101846903340E-032
 -7.299999999999999E-003   -4.989370599891981E-032
 -7.199999999999999E-003   -7.708566109736794E-032
 -7.100000000000000E-003   -9.703087878065460E-032
 -6.999999999999999E-003   -9.789218232630860E-032
 -6.899999999999999E-003   -6.715593257174030E-032
 -6.800000000000000E-003    5.622652203034141E-033
 -6.699999999999999E-003    1.255085024070057E-031
 -6.599999999999999E-003    2.888156646915809E-031
 -6.499999999999999E-003    4.803543151096663E-031
 -6.399999999999999E-003    6.720636795111427E-031
 -6.299999999999999E-003    8.237651122809175E-031
 -6.199999999999999E-003    8.865842475034733E-031
 -6.100000000000000E-003    8.092499418790609E-031
 -5.999999999999999E-003    5.470001458807932E-031
 -5.899999999999999E-003    7.226501566393337E-032
 -5.800000000000000E-003   -6.142632959464335E-031
 -5.699999999999999E-003   -1.474027104857578E-030
 -5.599999999999999E-003   -2.424575787305014E-030
 -5.499999999999999E-003   -3.339179544763117E-030
 -5.399999999999999E-003   -4.053744095982576E-030
 -5.299999999999999E-003   -4.381901114332613E-030
 -5.199999999999999E-003   -4.138039127973741E-030
 -5.099999999999999E-003   -3.166715095361952E-030
 -4.999999999999999E-003   -1.375517770454790E-030
 -4.899999999999999E-003    1.232741482125661E-030
 -4.799999999999999E-003    4.533452181696584E-030
 -4.699999999999999E-003    8.264417275840859E-030
 -4.599999999999999E-003    1.202555195601994E-029
 -4.499999999999999E-003    1.529755209238359E-029
 -4.399999999999999E-003    1.748111428600036E-029
 -4.299999999999999E-003    1.795591356740453E-029
 -4.199999999999999E-003    1.615591668748783E-029
 -4.099999999999999E-003    1.165510067654112E-029
 -3.999999999999999E-003    4.255517139598730E-030
 -3.899999999999999E-003   -5.931792965457931E-030
 -3.799999999999999E-003   -1.842315744891819E-029
 -3.699999999999999E-003   -3.232576674439629E-029
 -3.599999999999999E-003   -4.633710121290188E-029
 -3.499999999999999E-003   -5.878739225238666E-029
 -3.399999999999999E-003   -6.772998774283055E-029
 -3.299999999999999E-003   -7.108196301002777E-029
 -3.199999999999999E-003   -6.681427493818020E-029
 -3.099999999999999E-003   -5.318725264767992E-029
 -2.999999999999999E-003   -2.902275268938503E-029
 -2.899999999999999E-003    6.001403299998105E-030
 -2.799999999999999E-003    5.105628914124816E-029
 -2.699999999999999E-003    1.038963027717668E-028
 -2.599999999999999E-003    1.606629072021271E-028
 -2.499999999999999E-003    2.158063964447990E-028
 -2.399999999999999E-003    2.621808273522207E-028
 -2.299999999999999E-003    2.913681257695463E-028
 -2.199999999999999E-003    2.942794576366020E-028
 -2.099999999999999E-003    2.620626304036482E-028
 -1.999999999999999E-003    1.873107511220089E-028
 -1.899999999999999E-003    6.552006888151437E-029
 -1.799999999999999E-003   -1.033147524323449E-028
 -1.699999999999999E-003   -3.131448913626771E-028
 -1.599999999999999E-003   -5.505914630399067E-028
 -1.499999999999999E-003   -7.942378554104789E-028
 -1.399999999999999E-003   -1.014798623757035E-027
 -1.299999999999999E-003   -1.176450358527540E-027
 -1.199999999999999E-003   -1.239533868473924E-027
 -1.099999999999999E-003   -1.164699763286185E-027
 -9.999999999999989E-004   -9.183765002233601E-028
 -8.999999999999990E-004   -4.791991465542506E-028
 -7.999999999999990E-004    1.552233583052230E-028
 -6.999999999999989E-004    9.620723748093316E-028
 -5.999999999999990E-004    1.888677309416493E-027
 -4.999999999999989E-004    2.850616456778632E-027
 -3.999999999999989E-004    3.733652275216580E-027
 -2.999999999999989E-004    4.400355111102801E-027
 -1.999999999999989E-004    4.701835834493912E-027
 -9.999999999999892E-005    4.494395388351303E-027
  1.084202172485504E-018    3.660145270167752E-027
  1.000000000000011E-004    2.129836822897684E-027
  2.000000000000011E-004   -9.464182906002882E-029
  3.000000000000011E-004   -2.921257114864622E-027
  4.000000000000011E-004   -6.155793477516162E-027
  5.000000000000011E-004   -9.500189712495365E-027
  6.000000000000011E-004   -1.256408574261445E-026
  7.000000000000011E-004   -1.489130825682543E-026
  8.000000000000011E-004   -1.600145320684788E-026
  9.000000000000012E-004   -1.544474513194093E-026
  1.000000000000001E-003   -1.286619297921327E-026
  1.100000000000001E-003   -8.072954545276890E-027
  1.200000000000001E-003   -1.097055426124945E-027
  1.300000000000001E-003    7.755495156186968E-027
  1.400000000000001E-003    1.787834472024317E-026
  1.500000000000001E-003    2.836939747032619E-026
  1.600000000000001E-003    3.807240817683952E-026
  1.700000000000001E-003    4.565827569381416E-026
  1.800000000000001E-003    4.974441842437681E-026
  1.900000000000001E-003    4.904571262276997E-026
  2.000000000000001E-003    4.254546681046105E-026
  2.100000000000001E-003    2.967034048752175E-026
  2.200000000000001E-003    1.044972883471468E-026
  2.300000000000001E-003   -1.436164323025072E-026
  2.400000000000001E-003   -4.321874540201995E-026
  2.500000000000001E-003   -7.379690492699113E-026
  2.600000000000001E-003   -1.030907955397457E-025
  2.700000000000001E-003   -1.276069445458691E-025
  2.800000000000001E-003   -1.436457027683456E-025
  2.900000000000001E-003   -1.476583604732712E-025
  3.000000000000001E-003   -1.366550054409339E-025
  3.100000000000001E-003   -1.086293772557976E-025
  3.200000000000001E-003   -6.295995322704042E-026
  3.300000000000001E-003   -7.424627889953997E-028
  3.400000000000001E-003    7.499128281610954E-026
  3.500000000000001E-003    1.592093455910545E-025
  3.600000000000001E-003    2.450031012345748E-025
  3.700000000000001E-003    3.239183548475285E-025
  3.800000000000001E-003    3.864980932177509E-025
  3.900000000000001E-003    4.230221908052005E-025
  4.000000000000001E-003    4.244091578470850E-025
  4.100000000000001E-003    3.832246946525928E-025
  4.200000000000001E-003    2.947232617183232E-025
  4.300000000000001E-003    1.578332788299301E-025
  4.400000000000001E-003   -2.401414050299213E-026
  4.500000000000001E-003   -2.423173673583656E-025
  4.600000000000002E-003   -4.832985598655544E-025
  4.700000000000001E-003   -7.281485526408163E-025
  4.800000000000001E-003   -9.537894383004139E-025
  4.900000000000002E-003   -1.134188996707277E-024
  5.000000000000001E-003   -1.242220122506808E-024
  5.100000000000001E-003   -1.252007926487320E-024
  5.200000000000001E-003   -1.141650869823051E-024
  5.300000000000002E-003   -8.961435296252312E-025
  5.400000000000001E-003   -5.102724605437915E-025
  5.500000000000001E-003    8.792958368523231E-027
  5.600000000000002E-003    6.395264301419805E-025
  5.700000000000001E-003    1.345011543142664E-024
  5.800000000000001E-003    2.073157531441181E-024
  5.900000000000002E-003    2.758421627468045E-024
  6.000000000000001E-003    3.325207761176395E-024
  6.100000000000001E-003    3.692986147575129E-024
  6.200000000000002E-003    3.783018170400133E-024
  6.300000000000002E-003    3.526383472395574E-024
  6.400000000000001E-003    2.872811216319209E-024
  6.500000000000001E-003    1.799621064448040E-024
  6.600000000000002E-003    3.199164553178092E-025
  6.700000000000001E-003   -1.510945755392206E-024
  6.800000000000001E-003   -3.591623698230548E-024
  6.900000000000002E-003   -5.774761184929157E-024
  7.000000000000001E-003   -7.871459402731635E-024
  7.100000000000001E-003   -9.660772198902739E-024
  7.200000000000002E-003   -1.090435438392305E-023
  7.300000000000002E-003   -1.136590901470513E-023
  7.400000000000001E-003   -1.083452872439825E-023
  7.500000000000001E-003   -9.150457401125214E-024
  7.600000000000002E-003   -6.231253939118279E-024
  7.700000000000001E-003   -2.095900538399870E-024
  7.800000000000001E-003    3.115909797917195E-024
  7.900000000000001E-003    9.132143317370401E-024
  8.000000000000002E-003    1.554712614947881E-023
  8.100000000000001E-003    2.183277510854090E-023
  8.200000000000001E-003    2.736380641975063E-023
  8.300000000000002E-003    3.145731038037535E-023
  8.400000000000001E-003    3.342581644591858E-023
  8.500000000000002E-003    3.264151955112214E-023
  8.600000000000002E-003    2.860783460996602E-023
  8.700000000000001E-003    2.103303074625629E-023
  8.800000000000002E-003    9.899462286023196E-024
  8.900000000000002E-003   -4.478949675620767E-024
  9.000000000000001E-003   -2.141869550951000E-023
  9.100000000000002E-003   -3.985553449175667E-023
  9.200000000000002E-003   -5.836668528285766E-023
  9.300000000000001E-003   -7.523099182422397E-023
  9.400000000000002E-003   -8.852914998910573E-023
  9.500000000000001E-003   -9.628280955655132E-023
  9.600000000000001E-003   -9.662755771543704E-023
  9.700000000000002E-003   -8.801058059260545E-023
  9.800000000000001E-003   -6.939965315440885E-023
  9.900000000000001E-003   -4.048627690766041E-023
  1.000000000000000E-002   -1.862766215231986E-024
  1.010000000000000E-002    4.484874041095932E-023
  1.020000000000000E-002    9.693740379634757E-023
  1.030000000000000E-002    1.506350888604835E-022
  1.040000000000000E-002    2.012537877308530E-022
  1.050000000000000E-002    2.434381525303144E-022
  1.060000000000000E-002    2.715330143687137E-022
  1.070000000000000E-002    2.800547993096172E-022
  1.080000000000000E-002    2.642433841061442E-022
  1.090000000000000E-002    2.206582355040909E-022
  1.100000000000000E-002    1.477708188601677E-022
  1.110000000000000E-002    4.649569334986682E-023
  1.120000000000000E-002   -7.940344423670746E-023
  1.130000000000000E-002   -2.230972513444489E-022
  1.140000000000000E-002   -3.747231149083306E-022
  1.150000000000000E-002   -5.217134499341823E-022
  1.160000000000000E-002   -6.494476003296491E-022
  1.170000000000000E-002   -7.422289162177081E-022
  1.180000000000000E-002   -7.845568899934786E-022
  1.190000000000000E-002   -7.626300171701154E-022
  1.200000000000000E-002   -6.659790636320252E-022
  1.210000000000000E-002   -4.890990325768532E-022
  1.220000000000000E-002   -2.329225778468075E-022
  1.230000000000000E-002    9.403704089985426E-023
  1.240000000000000E-002    4.750454549873402E-022
  1.250000000000000E-002    8.851646662497587E-022
  1.260000000000000E-002    1.292049647371881E-021
  1.270000000000000E-002    1.657591715374198E-021
  1.280000000000000E-002    1.940407857544353E-021
  1.290000000000000E-002    2.099093802897734E-021
  1.300000000000000E-002    2.096071036474145E-021
  1.310000000000000E-002    1.901771053983538E-021
  1.320000000000000E-002    1.498823647729038E-021
  1.330000000000000E-002    8.858571077939434E-022
  1.340000000000000E-002    8.048694049886162E-023
  1.350000000000000E-002   -8.789265645852082E-022
  1.360000000000000E-002   -1.933127945881330E-021
  1.370000000000000E-002   -3.003713919010935E-021
  1.380000000000000E-002   -3.996941143582938E-021
  1.390000000000000E-002   -4.809593184700262E-021
  1.400000000000000E-002   -5.336717252670473E-021
  1.410000000000000E-002   -5.480836310782752E-021
  1.420000000000000E-002   -5.162041797390486E-021
  1.430000000000000E-002   -4.328197683539889E-021
  1.440000000000000E-002   -2.964346808265007E-021
  1.450000000000000E-002   -1.100337428475687E-021
  1.460000000000000E-002    1.184308758891844E-021
  1.470000000000000E-002    3.759178095381526E-021
  1.480000000000000E-002    6.446098914913157E-021
  1.490000000000000E-002    9.027050715193776E-021
  1.500000000000000E-002    1.125692013576383E-020
  1.510000000000000E-002    1.288073729059185E-020
  1.520000000000000E-002    1.365458626468609E-020
  1.530000000000000E-002    1.336891824740186E-020
  1.540000000000000E-002    1.187257920538851E-020
  1.550000000000000E-002    9.095548931677083E-021
  1.560000000000000E-002    5.068172639537301E-021
  1.570000000000000E-002   -6.535351426385814E-023
  1.580000000000000E-002   -6.041338767218194E-021
  1.590000000000000E-002   -1.248050748940874E-020
  1.600000000000000E-002   -1.890261419740137E-020
  1.610000000000000E-002   -2.475213375919434E-020
  1.620000000000000E-002   -2.943450091265092E-020
  1.630000000000000E-002   -3.236135144677329E-020
  1.640000000000000E-002   -3.300220942857886E-020
  1.650000000000000E-002   -3.093911162578408E-020
  1.660000000000000E-002   -2.591988036428888E-020
  1.670000000000000E-002   -1.790523614987883E-020
  1.680000000000000E-002   -7.104767468388232E-021
  1.690000000000000E-002    6.002998129903953E-021
  1.700000000000000E-002    2.067049262207065E-020
  1.710000000000000E-002    3.590392840088523E-020
  1.720000000000000E-002    5.051040895307663E-020
  1.730000000000000E-002    6.316890119636419E-020
  1.740000000000000E-002    7.252241406061172E-020
  1.750000000000000E-002    7.728667412525896E-020
  1.760000000000000E-002    7.636842687757417E-020
  1.770000000000000E-002    6.898478171210698E-020
  1.780000000000000E-002    5.477373533080272E-020
  1.790000000000000E-002    3.388538430479896E-020
  1.800000000000000E-002    7.043512644546838E-021
  1.810000000000000E-002   -2.443162784881640E-020
  1.820000000000000E-002   -5.864658247313462E-020
  1.830000000000000E-002   -9.320839855699773E-020
  1.840000000000000E-002   -1.253495084143199E-019
  1.850000000000000E-002   -1.521005697310515E-019
  1.860000000000000E-002   -1.705035372605842E-019
  1.870000000000000E-002   -1.778530743534853E-019