 -4.000000000000000E-002    0.000000000000000E+000
 -3.990000000000000E-002    0.000000000000000E+000
 -3.980000000000000E-002    0.000000000000000E+000
 -3.970000000000000E-002    0.000000000000000E+000
 -3.960000000000000E-002    4.078138683208444E-018
 -3.950000000000000E-002    3.810248580638097E-017
 -3.940000000000000E-002    1.965422592973804E-016
 -3.930000000000000E-002    7.359407010711318E-016
 -3.920000000000000E-002    2.223985596357703E-015
 -3.910000000000000E-002    5.726815061747032E-015
 -3.900000000000000E-002    1.297014367478546E-014
 -3.890000000000000E-002    2.634700628167760E-014
 -3.880000000000000E-002    4.858166261900077E-014
 -3.870000000000000E-002    8.182131563761139E-014
 -3.860000000000000E-002    1.259455636673643E-013
 -3.850000000000000E-002    1.759876556393959E-013
 -3.840000000000000E-002    2.187675354576097E-013
 -3.830000000000000E-002    2.291375183374653E-013
 -3.820000000000000E-002    1.666017217834270E-013
 -3.810000000000000E-002   -2.658050245699953E-014
 -3.800000000000000E-002   -4.244514602116558E-013
 -3.790000000000000E-002   -1.112177905324479E-012
 -3.780000000000000E-002   -2.175509037969146E-012
 -3.770000000000000E-002   -3.684354568409926E-012
 -3.760000000000000E-002   -5.670933040956685E-012
 -3.750000000000000E-002   -8.104171304191661E-012
 -3.740000000000000E-002   -1.086336700255877E-011
 -3.730000000000000E-002   -1.371533036237919E-011
 -3.720000000000000E-002   -1.630002192520199E-011
 -3.710000000000000E-002   -1.812985818185556E-011
 -3.700000000000000E-002   -1.860715125630737E-011
 -3.690000000000000E-002   -1.706251129488483E-011
 -3.680000000000000E-002   -1.281453876350001E-011
 -3.670000000000000E-002   -5.247986782046852E-012
 -3.660000000000000E-002    6.095752519820834E-012
 -3.650000000000000E-002    2.142508467774018E-011
 -3.640000000000000E-002    4.061298943752850E-011
 -3.630000000000000E-002    6.313245262363380E-011
 -3.620000000000000E-002    8.802388199378115E-011
 -3.610000000000000E-002    1.139032136369509E-010
 -3.600000000000000E-002    1.390149001409113E-010
 -3.590000000000000E-002    1.613283562096083E-010
 -3.580000000000000E-002    1.786703281514151E-010
 -3.570000000000000E-002    1.888801617695355E-010
 -3.560000000000000E-002    1.899706460098751E-010
 -3.550000000000000E-002    1.802754530325811E-010
 -3.540000000000000E-002    1.585652948167558E-010
 -3.530000000000000E-002    1.241189896783374E-010
 -3.520000000000000E-002    7.674258520813524E-011
 -3.510000000000000E-002    1.673856543200821E-011
 -3.500000000000000E-002   -5.516379452697118E-011
 -3.490000000000000E-002   -1.378973485327922E-010
 -3.480000000000000E-002   -2.301400950735418E-010
 -3.470000000000000E-002   -3.303652968792027E-010
 -3.460000000000000E-002   -4.368349365793674E-010
 -3.450000000000000E-002   -5.475209606395443E-010
 -3.440000000000000E-002   -6.599513093024875E-010
 -3.430000000000000E-002   -7.709933924388751E-010
 -3.420000000000000E-002   -8.766043919234775E-010
 -3.410000000000000E-002   -9.715920503508362E-010
 -3.400000000000000E-002   -1.049440589314795E-009
 -3.390000000000000E-002   -1.102259658745509E-009
 -3.380000000000000E-002   -1.120909958929067E-009
 -3.370000000000000E-002   -1.095345031659030E-009
 -3.360000000000000E-002   -1.015187808145272E-009
 -3.350000000000000E-002   -8.705316680813110E-010
 -3.340000000000000E-002   -6.529250173841126E-010
 -3.330000000000000E-002   -3.564668045899588E-010
 -3.320000000000000E-002    2.108329015051891E-011
 -3.310000000000000E-002    4.772962752030716E-010
 -3.300000000000000E-002    1.004284758566124E-009
 -3.290000000000000E-002    1.588246265500071E-009
 -3.280000000000000E-002    2.209426307626433E-009
 -3.270000000000000E-002    2.842555277500876E-009
 -3.260000000000000E-002    3.457769852269907E-009
 -3.250000000000000E-002    4.021981515363574E-009
 -3.240000000000000E-002    4.500607121891825E-009
 -3.230000000000000E-002    4.859538009709446E-009
 -3.220000000000000E-002    5.067195785438268E-009
 -3.210000000000000E-002    5.096508983990378E-009
 -3.200000000000000E-002    4.926650676625278E-009
 -3.190000000000000E-002    4.544399024099684E-009
 -3.180000000000000E-002    3.945018714923847E-009
 -3.170000000000000E-002    3.132609895357544E-009
 -3.160000000000000E-002    2.119925150818435E-009
 -3.150000000000000E-002    9.277054018347985E-010
 -3.140000000000000E-002   -4.163650324285557E-010
 -3.130000000000000E-002   -1.878953802896760E-009
 -3.120000000000000E-002   -3.422476280413382E-009
 -3.110000000000000E-002   -5.006440673023816E-009
 -3.100000000000000E-002   -6.588613329861897E-009
 -3.090000000000000E-002   -8.125908012465785E-009
 -3.080000000000000E-002   -9.574948138195733E-009
 -3.070000000000000E-002   -1.089230691640008E-008
 -3.060000000000000E-002   -1.203448615426308E-008
 -3.050000000000000E-002   -1.295774194327381E-008
 -3.040000000000000E-002   -1.361790443684910E-008
 -3.030000000000000E-002   -1.397037477974784E-008
 -3.020000000000000E-002   -1.397046644846751E-008
 -3.010000000000000E-002   -1.357426968026463E-008
 -3.000000000000000E-002   -1.274016314776670E-008
 -2.990000000000000E-002   -1.143105314863855E-008
 -2.980000000000000E-002   -9.617342926205553E-009
 -2.970000000000000E-002   -7.280558047391959E-009
 -2.960000000000000E-002   -4.417455148679511E-009
 -2.950000000000000E-002   -1.044353076840930E-009
 -2.940000000000000E-002    2.798654524159517E-009
 -2.930000000000000E-002    7.044023144699281E-009
 -2.920000000000000E-002    1.159407004641420E-008
 -2.910000000000000E-002    1.631975035568374E-008
 -2.900000000000000E-002    2.106133624824929E-008
 -2.890000000000000E-002    2.563135945448052E-008
 -2.880000000000000E-002    2.982008289332998E-008
 -2.870000000000000E-002    3.340356978943208E-008
 -2.860000000000000E-002    3.615423312632907E-008
 -2.850000000000000E-002    3.785352986034440E-008
 -2.840000000000000E-002    3.830619369714280E-008
 -2.830000000000000E-002    3.735520577859739E-008
 -2.820000000000000E-002    3.489648203820517E-008
 -2.810000000000000E-002    3.089213682450563E-008
 -2.800000000000000E-002    2.538111316959392E-008
 -2.790000000000000E-002    1.848603619408982E-008
 -2.780000000000000E-002    1.041527107652502E-008
 -2.770000000000000E-002    1.459442532974043E-009
 -2.760000000000000E-002   -8.017966022460121E-009
 -2.750000000000000E-002   -1.759588355228358E-008
 -2.740000000000000E-002   -2.681628306523360E-008
 -2.730000000000000E-002   -3.520914335803642E-008
 -2.720000000000000E-002   -4.232030831729481E-008
 -2.710000000000000E-002   -4.774046124599412E-008
 -2.700000000000000E-002   -5.113318442260635E-008
 -2.690000000000000E-002   -5.226006555112540E-008
 -2.680000000000000E-002   -5.100089297689296E-008
 -2.670000000000000E-002   -4.736734328151006E-008
 -2.660000000000000E-002   -4.150899959661482E-008
 -2.650000000000000E-002   -3.371116137490878E-008
 -2.640000000000000E-002   -2.438460939228641E-008
 -2.630000000000000E-002   -1.404817245564817E-008
 -2.620000000000000E-002   -3.305637086071506E-009
 -2.610000000000000E-002    7.180981798815123E-009
 -2.600000000000000E-002    1.671931005554897E-008
 -2.590000000000000E-002    2.461310554345265E-008
 -2.580000000000000E-002    3.018482003311543E-008
 -2.570000000000000E-002    3.279206711703072E-008
 -2.560000000000000E-002    3.183642036185553E-008
 -2.550000000000000E-002    2.676356962044498E-008
 -2.540000000000000E-002    1.705486941531801E-008
 -2.530000000000000E-002    2.211093085723161E-009
 -2.520000000000000E-002   -1.826991118411556E-008
 -2.510000000000000E-002   -4.491933337271254E-008
 -2.500000000000000E-002   -7.832413078299240E-008
 -2.490000000000000E-002   -1.191515118272970E-007
 -2.480000000000000E-002   -1.681676069583877E-007
 -2.470000000000000E-002   -2.262476747066393E-007
 -2.460000000000000E-002   -2.943754927298383E-007
 -2.450000000000000E-002   -3.736303486937388E-007
 -2.440000000000000E-002   -4.651613128528717E-007
 -2.430000000000000E-002   -5.701494825987386E-007
 -2.420000000000000E-002   -6.897598985069300E-007
 -2.410000000000000E-002   -8.250861619609822E-007
 -2.400000000000000E-002   -9.770916261492434E-007
 -2.390000000000000E-002   -1.146551626684593E-006
 -2.380000000000000E-002   -1.334001271918183E-006
 -2.370000000000000E-002   -1.539694449728186E-006
 -2.360000000000000E-002   -1.763577671219618E-006
 -2.350000000000000E-002   -2.005282788918761E-006
 -2.340000000000000E-002   -2.264141019033929E-006
 -2.330000000000000E-002   -2.539219912558977E-006
 -2.320000000000000E-002   -2.829381292202799E-006
 -2.310000000000000E-002   -3.133359985384327E-006
 -2.300000000000000E-002   -3.449856972993253E-006
 -2.290000000000000E-002   -3.777643935192884E-006
 -2.280000000000000E-002   -4.115669899147466E-006
 -2.270000000000000E-002   -4.463164409031506E-006
 -2.260000000000000E-002   -4.819728516104741E-006
 -2.250000000000000E-002   -5.185406212024830E-006
 -2.240000000000000E-002   -5.560729518468493E-006
 -2.230000000000000E-002   -5.946733569444822E-006
 -2.220000000000000E-002   -6.344936652038195E-006
 -2.210000000000000E-002   -6.757287697661123E-006
 -2.200000000000000E-002   -7.186080972384817E-006
 -2.190000000000000E-002   -7.633846675956258E-006
 -2.180000000000000E-002   -8.103221095139913E-006
 -2.170000000000000E-002   -8.596809172910829E-006
 -2.160000000000000E-002   -9.117050562476399E-006
 -2.150000000000000E-002   -9.666097916540714E-006
 -2.140000000000000E-002   -1.024572298703929E-005
 -2.130000000000000E-002   -1.085725317887499E-005
 -2.120000000000000E-002   -1.150155585489842E-005
 -2.110000000000000E-002   -1.217906326025287E-005
 -2.100000000000000E-002   -1.288984399053376E-005
 -2.090000000000000E-002   -1.363371640288307E-005
 -2.080000000000000E-002   -1.441039567234305E-005
 -2.070000000000000E-002   -1.521966143005667E-005
 -2.060000000000000E-002   -1.606153496627946E-005
 -2.050000000000000E-002   -1.693644831429571E-005
 -2.040000000000000E-002   -1.784539337853348E-005
 -2.030000000000000E-002   -1.879003073663445E-005
 -2.020000000000000E-002   -1.977275310626828E-005
 -2.010000000000000E-002   -2.079668884247626E-005
 -2.000000000000000E-002   -2.186565839945754E-005
 -1.990000000000000E-002   -2.298405687251854E-005
 -1.980000000000000E-002   -2.415670349272217E-005
 -1.970000000000000E-002   -2.538864625913549E-005
 -1.960000000000000E-002   -2.668493899406937E-005
 -1.950000000000000E-002   -2.805042837512795E-005
 -1.940000000000000E-002   -2.948954270064095E-005
 -1.930000000000000E-002   -3.100612363099939E-005
 -1.920000000000000E-002   -3.260330070415430E-005
 -1.910000000000000E-002   -3.428343395653231E-005
 -1.900000000000000E-002   -3.604811560586105E-005
 -1.890000000000000E-002   -3.789825920401645E-005
 -1.880000000000000E-002   -3.983423307589556E-005
 -1.870000000000000E-002   -4.185607795715953E-005
 -1.860000000000000E-002   -4.396373094733591E-005
 -1.850000000000000E-002   -4.615731517356342E-005
 -1.840000000000000E-002   -4.843739505574282E-005
 -1.830000000000000E-002   -5.080523649670104E-005
 -1.820000000000000E-002   -5.326302210771927E-005
 -1.810000000000000E-002   -5.581401055414902E-005
 -1.800000000000000E-002   -5.846263634810884E-005
 -1.790000000000000E-002   -6.121452377135306E-005
 -1.780000000000000E-002   -6.407644690042238E-005
 -1.770000000000000E-002   -6.705618175416241E-005
 -1.760000000000000E-002   -7.016233394463290E-005
 -1.750000000000000E-002   -7.340409819960974E-005
 -1.740000000000000E-002   -7.679098367195524E-005
 -1.730000000000000E-002   -8.033255340361920E-005
 -1.720000000000000E-002   -8.403813545389717E-005
 -1.710000000000000E-002   -8.791659748982764E-005
 -1.700000000000000E-002   -9.197615303186477E-005
 -1.690000000000000E-002   -9.622421097589183E-005
 -1.680000000000000E-002   -1.006673105357269E-004
 -1.670000000000000E-002   -1.053111281470938E-004
 -1.660000000000000E-002   -1.101605270732745E-004
 -1.650000000000000E-002   -1.152197000848421E-004
 -1.640000000000000E-002   -1.204923580624256E-004
 -1.630000000000000E-002   -1.259819288815593E-004
 -1.620000000000000E-002   -1.316917950658350E-004
 -1.610000000000000E-002   -1.376255527429434E-004
 -1.600000000000000E-002   -1.437872497693417E-004
 -1.590000000000000E-002   -1.501815489324172E-004
 -1.580000000000000E-002   -1.568139164727098E-004
 -1.570000000000000E-002   -1.636907063595733E-004
 -1.560000000000000E-002   -1.708192331063699E-004
 -1.550000000000000E-002   -1.782077225811111E-004
 -1.540000000000000E-002   -1.858652327284877E-004
 -1.530000000000000E-002   -1.938015256006356E-004
 -1.520000000000000E-002   -2.020269003781971E-004
 -1.510000000000000E-002   -2.105519563431798E-004
 -1.500000000000000E-002   -2.193873525984892E-004
 -1.490000000000000E-002   -2.285435856362963E-004
 -1.480000000000000E-002   -2.380307285362719E-004
 -1.470000000000000E-002   -2.478582476980595E-004
 -1.460000000000000E-002   -2.580347714368070E-004
 -1.450000000000000E-002   -2.685680244155783E-004
 -1.440000000000000E-002   -2.794646993091975E-004
 -1.430000000000000E-002   -2.907304300193067E-004
 -1.420000000000000E-002   -3.023697674966641E-004
 -1.410000000000000E-002   -3.143863379979865E-004
 -1.400000000000000E-002   -3.267828162026778E-004
 -1.390000000000000E-002   -3.395611624689981E-004
 -1.380000000000000E-002   -3.527227399703083E-004
 -1.370000000000000E-002   -3.662684061346963E-004
 -1.360000000000000E-002   -3.801987301386663E-004
 -1.350000000000000E-002   -3.945140795549671E-004
 -1.340000000000000E-002   -4.092146795057644E-004
 -1.330000000000000E-002   -4.243007690364022E-004
 -1.320000000000000E-002   -4.397725218252179E-004
 -1.310000000000000E-002   -4.556299896105046E-004
 -1.300000000000000E-002   -4.718730903636083E-004
 -1.290000000000000E-002   -4.885013579129420E-004
 -1.280000000000000E-002   -5.055138947508564E-004
 -1.270000000000000E-002   -5.229091622841613E-004
 -1.260000000000000E-002   -5.406845928693803E-004
 -1.250000000000000E-002   -5.588364382391409E-004
 -1.240000000000000E-002   -5.773595402168324E-004
 -1.230000000000000E-002   -5.962470569546493E-004
 -1.220000000000000E-002   -6.154902044084179E-004
 -1.210000000000000E-002   -6.350780456052008E-004
 -1.200000000000000E-002   -6.549973533879295E-004
 -1.190000000000000E-002   -6.752324164959761E-004
 -1.180000000000000E-002   -6.957648941951818E-004
 -1.170000000000000E-002   -7.165738583599996E-004
 -1.160000000000000E-002   -7.376355341476398E-004
 -1.150000000000000E-002   -7.589235050588620E-004
 -1.140000000000000E-002   -7.804084583532940E-004
 -1.130000000000000E-002   -8.020583141868176E-004
 -1.120000000000000E-002   -8.238382434921357E-004
 -1.110000000000000E-002   -8.457105385769727E-004
 -1.100000000000000E-002   -8.676346571414955E-004
 -1.090000000000000E-002   -8.895671201178516E-004
 -1.080000000000000E-002   -9.114613040681938E-004
 -1.070000000000000E-002   -9.332676476129032E-004
 -1.060000000000000E-002   -9.549330539553123E-004
 -1.050000000000000E-002   -9.764010192805585E-004
 -1.040000000000000E-002   -9.976112648729177E-004
 -1.030000000000000E-002   -1.018499466265793E-003
 -1.020000000000000E-002   -1.038997080847761E-003
 -1.010000000000000E-002   -1.059031075133337E-003
 -1.000000000000000E-002   -1.078523499058559E-003
 -9.899999999999999E-003   -1.097391073798738E-003
 -9.800000000000000E-003   -1.115545378888327E-003
 -9.699999999999999E-003   -1.132892147186184E-003
 -9.599999999999999E-003   -1.149331120106059E-003
 -9.500000000000000E-003   -1.164755674150587E-003
 -9.399999999999999E-003   -1.179052813604274E-003
 -9.299999999999999E-003   -1.192102416510567E-003
 -9.200000000000000E-003   -1.203777479038703E-003
 -9.099999999999999E-003   -1.213943336799039E-003
 -8.999999999999999E-003   -1.222457764402155E-003
 -8.900000000000000E-003   -1.229170382229347E-003
 -8.799999999999999E-003   -1.233922518345390E-003
 -8.699999999999999E-003   -1.236546691437932E-003
 -8.600000000000000E-003   -1.236866664748651E-003
 -8.499999999999999E-003   -1.234696644379032E-003
 -8.399999999999999E-003   -1.229841462741560E-003
 -8.300000000000000E-003   -1.222095859022065E-003
 -8.199999999999999E-003   -1.211244492899261E-003
 -8.100000000000000E-003   -1.197061648873067E-003
 -8.000000000000000E-003   -1.179310875551685E-003
 -7.899999999999999E-003   -1.157744795230142E-003
 -7.800000000000000E-003   -1.132104898365945E-003
 -7.699999999999999E-003   -1.102121180326719E-003
 -7.599999999999999E-003   -1.067511960263594E-003
 -7.499999999999999E-003   -1.027983672472032E-003
 -7.399999999999999E-003   -9.832306816797223E-004
 -7.299999999999999E-003   -9.329343921334990E-004
 -7.199999999999999E-003   -8.767635099421174E-004
 -7.100000000000000E-003   -8.143732473436250E-004
 -6.999999999999999E-003   -7.454050536140165E-004
 -6.899999999999999E-003   -6.694860008113817E-004
 -6.800000000000000E-003   -5.862283411916832E-004
 -6.699999999999999E-003   -4.952290514866774E-004
 -6.599999999999999E-003   -3.960691302850981E-004
 -6.499999999999999E-003   -2.883133559996601E-004
 -6.399999999999999E-003   -1.715097790016429E-004
 -6.299999999999999E-003   -4.518909546416820E-005
 -6.199999999999999E-003    9.113578027821091E-005
 -6.100000000000000E-003    2.379697791336418E-004
 -5.999999999999999E-003    3.958361129616442E-004
 -5.899999999999999E-003    5.652766173918697E-004
 -5.800000000000000E-003    7.468522402611187E-004
 -5.699999999999999E-003    9.411426227651759E-004
 -5.599999999999999E-003    1.148746840153584E-003
 -5.499999999999999E-003    1.370283369337963E-003
 -5.399999999999999E-003    1.606390143407469E-003
 -5.299999999999999E-003    1.857724902572268E-003
 -5.199999999999999E-003    2.124965414720273E-003
 -5.099999999999999E-003    2.408809640139111E-003
 -4.999999999999999E-003    2.709975820927392E-003
 -4.899999999999999E-003    3.029202487571831E-003
 -4.799999999999999E-003    3.367249535046237E-003
 -4.699999999999999E-003    3.724897433168165E-003
 -4.599999999999999E-003    4.102947952804735E-003
 -4.499999999999999E-003    4.502225346134260E-003
 -4.399999999999999E-003    4.923574528110184E-003
 -4.299999999999999E-003    5.367863051820966E-003
 -4.199999999999999E-003    5.835981259406207E-003
 -4.099999999999999E-003    6.328841322734189E-003
 -3.999999999999999E-003    6.847378673237670E-003
 -3.899999999999999E-003    7.392551306771529E-003
 -3.799999999999999E-003    7.965340478898901E-003
 -3.699999999999999E-003    8.566750225970258E-003
 -3.599999999999999E-003    9.197807726362998E-003
 -3.499999999999999E-003    9.859562747483154E-003
 -3.399999999999999E-003    1.055308800458882E-002
 -3.299999999999999E-003    1.127947916836395E-002
 -3.199999999999999E-003    1.203985283500674E-002
 -3.099999999999999E-003    1.283534818648725E-002
 -2.999999999999999E-003    1.366712635582995E-002
 -2.899999999999999E-003    1.453636895989696E-002
 -2.799999999999999E-003    1.544427832506887E-002
 -2.699999999999999E-003    1.639207660528447E-002
 -2.599999999999999E-003    1.738100537058191E-002
 -2.499999999999999E-003    1.841232581548391E-002
 -2.399999999999999E-003    1.948731728351675E-002
 -2.299999999999999E-003    2.060727877167739E-002
 -2.199999999999999E-003    2.177352410242317E-002
 -2.099999999999999E-003    2.298738537204815E-002
 -1.999999999999999E-003    2.425021107888058E-002
 -1.899999999999999E-003    2.556336655515396E-002
 -1.799999999999999E-003    2.692823031612205E-002
 -1.699999999999999E-003    2.834619793102258E-002
 -1.599999999999999E-003    2.981867559725266E-002
 -1.499999999999999E-003    3.134708478952640E-002
 -1.399999999999999E-003    3.293285557411221E-002
 -1.299999999999999E-003    3.457743158839290E-002
 -1.199999999999999E-003    3.628226485659788E-002
 -1.099999999999999E-003    3.804881312471119E-002
 -9.999999999999989E-004    3.987854271186358E-002
 -8.999999999999990E-004    4.177292427873748E-002
 -7.999999999999990E-004    4.373343051646553E-002
 -6.999999999999989E-004    4.576153926895220E-002
 -5.999999999999990E-004    4.785873005845651E-002
 -4.999999999999989E-004    5.002647426053537E-002
 -3.999999999999989E-004    5.226624691424395E-002
 -2.999999999999989E-004    5.457951672416163E-002
 -1.999999999999989E-004    5.696774964334711E-002
 -9.999999999999892E-005    5.943239766213998E-002
  1.084202172485504E-018    6.197491156170052E-002
  1.000000000000011E-004    6.459672586004944E-002
  2.000000000000011E-004    6.729926497680687E-002
  3.000000000000011E-004    7.008393573732559E-002
  4.000000000000011E-004    7.295212904880857E-002
  5.000000000000011E-004    7.590522026760728E-002
  6.000000000000011E-004    7.894455997676431E-002
  7.000000000000011E-004    8.207146982985485E-002
  8.000000000000011E-004    8.528725422570295E-002
  9.000000000000012E-004    8.859318663060163E-002
  1.000000000000001E-003    9.199050228844587E-002
  1.100000000000001E-003    9.548040327799351E-002
  1.200000000000001E-003    9.906405863872500E-002
  1.300000000000001E-003    0.102742593151036     
  1.400000000000001E-003    0.106517093840846     
  1.500000000000001E-003    0.110388600719753     
  1.600000000000001E-003    0.114358097065964     
  1.700000000000001E-003    0.118426533920972     
  1.800000000000001E-003    0.122594787136517     
  1.900000000000001E-003    0.126863690881134     
  2.000000000000001E-003    0.131234020453650     
  2.100000000000001E-003    0.135706484762640     
  2.200000000000001E-003    0.140281731773067     
  2.300000000000001E-003    0.144960331977647     
  2.400000000000001E-003    0.149742810580557     
  2.500000000000001E-003    0.154629593247367     
  2.600000000000001E-003    0.159621044608521     
  2.700000000000001E-003    0.164717443466376     
  2.800000000000001E-003    0.169919003836470     
  2.900000000000001E-003    0.175225825661775     
  3.000000000000001E-003    0.180637926842730     
  3.100000000000001E-003    0.186155248968084     
  3.200000000000001E-003    0.191777615703325     
  3.300000000000001E-003    0.197504767367614     
  3.400000000000001E-003    0.203336341103376     
  3.500000000000001E-003    0.209271846900645     
  3.600000000000001E-003    0.215310709609981     
  3.700000000000001E-003    0.221452227091275     
  3.800000000000001E-003    0.227695601550948     
  3.900000000000001E-003    0.234039891617093     
  4.000000000000001E-003    0.240484071924662     
  4.100000000000001E-003    0.247026957329872     
  4.200000000000001E-003    0.253667257147662     
  4.300000000000001E-003    0.260403557506592     
  4.400000000000001E-003    0.267234302453924     
  4.500000000000001E-003    0.274157818514971     
  4.600000000000002E-003    0.281172276314609     
  4.700000000000001E-003    0.288275714927441     
  4.800000000000001E-003    0.295466057069534     
  4.900000000000002E-003    0.302741047985017     
  5.000000000000001E-003    0.310098304596071     
  5.100000000000001E-003    0.317535312335984     
  5.200000000000001E-003    0.325049378108969     
  5.300000000000002E-003    0.332637650727600     
  5.400000000000001E-003    0.340297172490301     
  5.500000000000001E-003    0.348024801219479     
  5.600000000000002E-003    0.355817230537882     
  5.700000000000001E-003    0.363671014327168     
  5.800000000000001E-003    0.371582567039560     
  5.900000000000002E-003    0.379548094448752     
  6.000000000000001E-003    0.387563675297187     
  6.100000000000001E-003    0.395625212635469     
  6.200000000000002E-003    0.403728472022146     
  6.300000000000002E-003    0.411869036407190     
  6.400000000000001E-003    0.420042370256149     
  6.500000000000001E-003    0.428243731292774     
  6.600000000000002E-003    0.436468221877618     
  6.700000000000001E-003    0.444710772914960     
  6.800000000000001E-003    0.452966217099277     
  6.900000000000002E-003    0.461229192811854     
  7.000000000000001E-003    0.469494142827393     
  7.100000000000001E-003    0.477755417638085     
  7.200000000000002E-003    0.486007152344498     
  7.300000000000002E-003    0.494243377286907     
  7.400000000000001E-003    0.502457985122705     
  7.500000000000001E-003    0.510644650831047     
  7.600000000000002E-003    0.518796946843678     
  7.700000000000001E-003    0.526908263517654     
  7.800000000000001E-003    0.534971926945601     
  7.900000000000001E-003    0.542981079623464     
  8.000000000000002E-003    0.550928714950312     
  8.100000000000001E-003    0.558807754198741     
  8.200000000000001E-003    0.566610917999390     
  8.300000000000002E-003    0.574330852717496     
  8.400000000000001E-003    0.581960018452784     
  8.500000000000002E-003    0.589490857601803     
  8.600000000000002E-003    0.596915650681239     
  8.700000000000001E-003    0.604226587094684     
  8.800000000000002E-003    0.611415739677923     
  8.900000000000002E-003    0.618475082482552     
  9.000000000000001E-003    0.625396549910221     
  9.100000000000002E-003    0.632171924090072     
  9.200000000000002E-003    0.638792959026107     
  9.300000000000001E-003    0.645251364083139     
  9.400000000000002E-003    0.651538739792536     
  9.500000000000001E-003    0.657646605484029     
  9.600000000000001E-003    0.663566494782750     
  9.700000000000002E-003    0.669289878974182     
  9.800000000000001E-003    0.674808182186096     
  9.900000000000001E-003    0.680112761130755     
  1.000000000000000E-002    0.685195079849365     
  1.010000000000000E-002    0.690046472532284     
  1.020000000000000E-002    0.694658331633963     
  1.030000000000000E-002    0.699021980937754     
  1.040000000000000E-002    0.703128917417163     
  1.050000000000000E-002    0.706970490528220     
  1.060000000000000E-002    0.710538165727251     
  1.070000000000000E-002    0.713823472576958     
  1.080000000000000E-002    0.716817881619483     
  1.090000000000000E-002    0.719513083919154     
  1.100000000000000E-002    0.721900742964225     
  1.110000000000000E-002    0.723972558975238     
  1.120000000000000E-002    0.725720403693018     
  1.130000000000000E-002    0.727136254629020     
  1.140000000000000E-002    0.728212106059421     
  1.150000000000000E-002    0.728940194632573     
  1.160000000000000E-002    0.729312761893292     
  1.170000000000000E-002    0.729322281584391     
  1.180000000000000E-002    0.728961298963761     
  1.190000000000000E-002    0.728222604107162     
  1.200000000000000E-002    0.727099071747916     
  1.210000000000000E-002    0.725583807156847     
  1.220000000000000E-002    0.723670105868428     
  1.230000000000000E-002    0.721351459424669     
  1.240000000000000E-002    0.718621499389771     
  1.250000000000000E-002    0.715474182890258     
  1.260000000000000E-002    0.711903618750562     
  1.270000000000000E-002    0.707904195136341     
  1.280000000000000E-002    0.703470528426639     
  1.290000000000000E-002    0.698597471347510     
  1.300000000000000E-002    0.693280228959698     
  1.310000000000000E-002    0.687514203753306     
  1.320000000000000E-002    0.681295116578972     
  1.330000000000000E-002    0.674618987302949     
  1.340000000000000E-002    0.667482073053730     
  1.350000000000000E-002    0.659881049343410     
  1.360000000000000E-002    0.651812837488033     
  1.370000000000000E-002    0.643274717993495     
  1.380000000000000E-002    0.634264272555131     
  1.390000000000000E-002    0.624779482114850     
  1.400000000000000E-002    0.614818574372151     
  1.410000000000000E-002    0.604380257820275     
  1.420000000000000E-002    0.593463507505359     
  1.430000000000000E-002    0.582067752646462     
  1.440000000000000E-002    0.570192729579127     
  1.450000000000000E-002    0.557838614717692     
  1.460000000000000E-002    0.545005883588433     
  1.470000000000000E-002    0.531695508924682     
  1.480000000000000E-002    0.517908817587934     
  1.490000000000000E-002    0.503647564388144     
  1.500000000000000E-002    0.488913882679603     
  1.510000000000000E-002    0.473710330902105     
  1.520000000000000E-002    0.458039892345667     
  1.530000000000000E-002    0.441905943803605     
  1.540000000000000E-002    0.425312252596158     
  1.550000000000000E-002    0.408263073159521     
  1.560000000000000E-002    0.390763069825282     
  1.570000000000000E-002    0.372817300117142     
  1.580000000000000E-002    0.354431282016899     
  1.590000000000000E-002    0.335610925416371     
  1.600000000000000E-002    0.316362567825156     
  1.610000000000000E-002    0.296692965976985     
  1.620000000000000E-002    0.276609292236339     
  1.630000000000000E-002    0.256119163361070     
  1.640000000000000E-002    0.235230606746342     
  1.650000000000000E-002    0.213952057991345     
  1.660000000000000E-002    0.192292378445038     
  1.670000000000000E-002    0.170260809818057     
  1.680000000000000E-002    0.147867017048721     
  1.690000000000000E-002    0.125121085284386     
  1.700000000000000E-002    0.102033457102875     
  1.710000000000000E-002    7.861501132259494E-002
  1.720000000000000E-002    5.487695954585024E-002
  1.730000000000000E-002    3.083093716002481E-002
  1.740000000000000E-002    6.488921990404821E-003
  1.750000000000000E-002   -1.813674248480408E-002
  1.760000000000000E-002   -4.303336099754423E-002
  1.770000000000000E-002   -6.818787309704372E-002
  1.780000000000000E-002   -9.358691039067786E-002
  1.790000000000000E-002   -0.119216758239336     
  1.800000000000000E-002   -0.145063395031330     
  1.810000000000000E-002   -0.171112490698395     
  1.820000000000000E-002   -0.197349419869285     
  1.830000000000000E-002   -0.223759270484060     
  1.840000000000000E-002   -0.250326854889792     
  1.850000000000000E-002   -0.277036724436239     
  1.860000000000000E-002   -0.303873201183600     
  1.870000000000000E-002   -0.330820343998129     