 -4.000000000000000E-002    0.000000000000000E+000
 -3.990000000000000E-002    0.000000000000000E+000
 -3.980000000000000E-002    0.000000000000000E+000
 -3.970000000000000E-002    0.000000000000000E+000
 -3.960000000000000E-002    0.000000000000000E+000
 -3.950000000000000E-002    0.000000000000000E+000
 -3.940000000000000E-002    0.000000000000000E+000
 -3.930000000000000E-002    0.000000000000000E+000
 -3.920000000000000E-002    0.000000000000000E+000
 -3.910000000000000E-002    0.000000000000000E+000
 -3.900000000000000E-002    0.000000000000000E+000
 -3.890000000000000E-002    0.000000000000000E+000
 -3.880000000000000E-002    0.000000000000000E+000
 -3.870000000000000E-002    0.000000000000000E+000
 -3.860000000000000E-002   -1.620192554476798E-046
 -3.850000000000000E-002   -4.028686467376090E-045
 -3.840000000000000E-002   -5.345314467454905E-044
 -3.830000000000000E-002   -4.727701553565786E-043
 -3.820000000000000E-002   -3.187948504805568E-042
 -3.810000000000000E-002   -1.737795176647052E-041
 -3.800000000000000E-002   -7.939794535023027E-041
 -3.790000000000000E-002   -3.105442150793216E-040
 -3.780000000000000E-002   -1.050254695411086E-039
 -3.770000000000000E-002   -3.065224703003164E-039
 -3.760000000000000E-002   -7.550658192283499E-039
 -3.750000000000000E-002   -1.454001024406751E-038
 -3.740000000000000E-002   -1.504448375369650E-038
 -3.730000000000000E-002    3.612386469798266E-038
 -3.720000000000000E-002    2.984854753879255E-037
 -3.710000000000000E-002    1.243065781779145E-036
 -3.700000000000000E-002    4.098957541630761E-036
 -3.690000000000000E-002    1.176822108665409E-035
 -3.680000000000000E-002    3.051650097684279E-035
 -3.670000000000000E-002    7.274231807065699E-035
 -3.660000000000000E-002    1.608029997469644E-034
 -3.650000000000000E-002    3.307637268701349E-034
 -3.640000000000000E-002    6.322013640980203E-034
 -3.630000000000000E-002    1.114504065299078E-033
 -3.620000000000000E-002    1.779595026825784E-033
 -3.610000000000000E-002    2.463492993422923E-033
 -3.600000000000000E-002    2.582797918922523E-033
 -3.590000000000000E-002    6.472155017525088E-034
 -3.580000000000000E-002   -6.599555634081810E-033
 -3.570000000000000E-002   -2.557701323948603E-032
 -3.560000000000000E-002   -6.795954282161229E-032
 -3.550000000000000E-002   -1.535201839730154E-031
 -3.540000000000000E-002   -3.135187140586874E-031
 -3.530000000000000E-002   -5.938886180214148E-031
 -3.520000000000000E-002   -1.056540769705725E-030
 -3.510000000000000E-002   -1.775645780948829E-030
 -3.500000000000000E-002   -2.823718552455711E-030
 -3.490000000000000E-002   -4.239787918184995E-030
 -3.480000000000000E-002   -5.969249243839079E-030
 -3.470000000000000E-002   -7.762947375271158E-030
 -3.460000000000000E-002   -9.023017395804465E-030
 -3.450000000000000E-002   -8.587189100302991E-030
 -3.440000000000000E-002   -4.454562876831938E-030
 -3.430000000000000E-002    6.522060428860202E-030
 -3.420000000000000E-002    2.891569041057982E-029
 -3.410000000000000E-002    6.886092599899756E-029
 -3.400000000000000E-002    1.338587715578655E-028
 -3.390000000000000E-002    2.319779392764549E-028
 -3.380000000000000E-002    3.700932241928162E-028
 -3.370000000000000E-002    5.507354853712497E-028
 -3.360000000000000E-002    7.671182063049881E-028
 -3.350000000000000E-002    9.960033478163334E-028
 -3.340000000000000E-002    1.188337303502235E-027
 -3.330000000000000E-002    1.258096873499712E-027
 -3.320000000000000E-002    1.070601615535039E-027
 -3.310000000000000E-002    4.327120247326165E-028
 -3.300000000000000E-002   -9.111676602004147E-028
 -3.290000000000000E-002   -3.271628380361612E-027
 -3.280000000000000E-002   -6.987941392319678E-027
 -3.270000000000000E-002   -1.237413289030888E-026
 -3.260000000000000E-002   -1.962828890084515E-026
 -3.250000000000000E-002   -2.869725620633097E-026
 -3.240000000000000E-002   -3.909285362803241E-026
 -3.230000000000000E-002   -4.966324295698729E-026
 -3.220000000000000E-002   -5.833501487164497E-026
 -3.210000000000000E-002   -6.185828237197087E-026
 -3.200000000000000E-002   -5.560834395632258E-026
 -3.190000000000000E-002   -3.352185473773651E-026
 -3.180000000000000E-002    1.172978229908872E-026
 -3.170000000000000E-002    8.820679866746419E-026
 -3.160000000000000E-002    2.036746668353993E-025
 -3.150000000000000E-002    3.639621019944888E-025
 -3.140000000000000E-002    5.706191166894734E-025
 -3.130000000000000E-002    8.178674802883599E-025
 -3.120000000000000E-002    1.088959181989077E-024
 -3.110000000000000E-002    1.352231338999344E-024
 -3.100000000000000E-002    1.557366910187260E-024
 -3.090000000000000E-002    1.632625508267760E-024
 -3.080000000000000E-002    1.484072179149107E-024
 -3.070000000000000E-002    9.980642224371813E-025
 -3.060000000000000E-002    4.839992013692665E-026
 -3.050000000000000E-002   -1.490479356363049E-024
 -3.040000000000000E-002   -3.723092610315909E-024
 -3.030000000000000E-002   -6.704747511706192E-024
 -3.020000000000000E-002   -1.040595123409331E-023
 -3.010000000000000E-002   -1.467111430506520E-023
 -3.000000000000000E-002   -1.917499121892514E-023
 -2.990000000000000E-002   -2.338235832481182E-023
 -2.980000000000000E-002   -2.651861005101678E-023
 -2.970000000000000E-002   -2.756098552462548E-023
 -2.960000000000000E-002   -2.526163571709761E-023
 -2.950000000000000E-002   -1.821432719344302E-023
 -2.940000000000000E-002   -4.975567624659710E-024
 -2.930000000000000E-002    1.575199065308662E-023
 -2.920000000000000E-002    4.487138915026773E-023
 -2.910000000000000E-002    8.258399907371293E-023
 -2.900000000000000E-002    1.280391813197048E-022
 -2.890000000000000E-002    1.789699862730772E-022
 -2.880000000000000E-002    2.313579775979799E-022
 -2.870000000000000E-002    2.791841277565027E-022
 -2.860000000000000E-002    3.143342309618579E-022
 -2.850000000000000E-002    3.267344764753231E-022
 -2.840000000000000E-002    3.047919023587355E-022
 -2.830000000000000E-002    2.362048855090057E-022
 -2.820000000000000E-002    1.091850142798956E-022
 -2.810000000000000E-002   -8.590356609534817E-023
 -2.800000000000000E-002   -3.545322519727525E-022
 -2.790000000000000E-002   -6.957303527169180E-022
 -2.780000000000000E-002   -1.099719015076985E-021
 -2.770000000000000E-002   -1.545706940992903E-021
 -2.760000000000000E-002   -2.000164332837630E-021
 -2.750000000000000E-002   -2.415941772062112E-021
 -2.740000000000000E-002   -2.732623559825708E-021
 -2.730000000000000E-002   -2.878488630066690E-021
 -2.720000000000000E-002   -2.774387761735877E-021
 -2.710000000000000E-002   -2.339727108237855E-021
 -2.700000000000000E-002   -1.500571149767272E-021
 -2.690000000000000E-002   -1.996490639971413E-022
 -2.680000000000000E-002    1.592218554691798E-021
 -2.670000000000000E-002    3.864050209788020E-021
 -2.660000000000000E-002    6.553054664887727E-021
 -2.650000000000000E-002    9.534713019390741E-021
 -2.640000000000000E-002    1.261608557974514E-020
 -2.630000000000000E-002    1.553389634547977E-020
 -2.620000000000000E-002    1.795888899245641E-020
 -2.610000000000000E-002    1.950769905466870E-020
 -2.600000000000000E-002    1.976307600644408E-020
 -2.590000000000000E-002    1.830271383658325E-020
 -2.580000000000000E-002    1.473619643915873E-020
 -2.570000000000000E-002    8.748716897729637E-021
 -2.560000000000000E-002    1.493308437232181E-022
 -2.550000000000000E-002   -1.107938187641079E-020
 -2.540000000000000E-002   -2.473418270600198E-020
 -2.530000000000000E-002   -4.035108864565660E-020
 -2.520000000000000E-002   -5.717723340531187E-020
 -2.510000000000000E-002   -7.415959068690126E-020
 -2.500000000000000E-002   -8.995512477028548E-020
 -2.490000000000000E-002   -1.029662357113624E-019
 -2.480000000000000E-002   -1.114041186842380E-019
 -2.470000000000000E-002   -1.133812602878223E-019
 -2.460000000000000E-002   -1.070323260263584E-019
 -2.450000000000000E-002   -9.066062587662475E-020
 -2.440000000000000E-002   -6.290505534271115E-020
 -2.430000000000000E-002   -2.292001989970534E-020
 -2.420000000000000E-002    2.944145946689647E-020
 -2.410000000000000E-002    9.345344017976872E-020
 -2.400000000000000E-002    1.673653230327325E-019
 -2.390000000000000E-002    2.482879313774527E-019
 -2.380000000000000E-002    3.321332983249607E-019
 -2.370000000000000E-002    4.136240014013483E-019
 -2.360000000000000E-002    4.863868916656802E-019
 -2.350000000000000E-002    5.431434720785211E-019
 -2.340000000000000E-002    5.760058754102321E-019
 -2.330000000000000E-002    5.768818088456901E-019
 -2.320000000000000E-002    5.379853459791185E-019
 -2.310000000000000E-002    4.524422151662271E-019
 -2.300000000000000E-002    3.149688055668043E-019
 -2.290000000000000E-002    1.225941199269580E-019
 -2.280000000000000E-002   -1.246161330135889E-019
 -2.270000000000000E-002   -4.228841050797353E-019
 -2.260000000000000E-002   -7.641507455575931E-019
 -2.250000000000000E-002   -1.135676438627092E-018
 -2.240000000000000E-002   -1.519875082036589E-018
 -2.230000000000000E-002   -1.894442527263562E-018
 -2.220000000000000E-002   -2.232830012095644E-018
 -2.210000000000000E-002   -2.505099102364065E-018
 -2.200000000000000E-002   -2.679173570569885E-018
 -2.190000000000000E-002   -2.722478372684576E-018
 -2.180000000000000E-002   -2.603927655970693E-018
 -2.170000000000000E-002   -2.296192086621410E-018
 -2.160000000000000E-002   -1.778144918643053E-018
 -2.150000000000000E-002   -1.037362218556725E-018
 -2.140000000000000E-002   -7.252683428042863E-020
 -2.130000000000000E-002    1.104425603185713E-018
 -2.120000000000000E-002    2.466586979512688E-018
 -2.110000000000000E-002    3.970945386435867E-018
 -2.100000000000000E-002    5.557988489537176E-018
 -2.090000000000000E-002    7.152163404764003E-018
 -2.080000000000000E-002    8.663279497379348E-018
 -2.070000000000000E-002    9.988904600665483E-018
 -2.060000000000000E-002    1.101775618919946E-017
 -2.050000000000000E-002    1.163405541162976E-017
 -2.040000000000000E-002    1.172276113968512E-017
 -2.030000000000000E-002    1.117557035043251E-017
 -2.020000000000000E-002    9.897538391280435E-018
 -2.010000000000000E-002    7.814134976216769E-018
 -2.000000000000000E-002    4.878537709194771E-018
 -1.990000000000000E-002    1.078926544716439E-018
 -1.980000000000000E-002   -3.554481279836367E-018
 -1.970000000000000E-002   -8.942960257923463E-018
 -1.960000000000000E-002   -1.495371215772213E-017
 -1.950000000000000E-002   -2.139561801440509E-017
 -1.940000000000000E-002   -2.801676555659411E-017
 -1.930000000000000E-002   -3.450429812796681E-017
 -1.920000000000000E-002   -4.048717525425995E-017
 -1.910000000000000E-002   -4.554247930855948E-017
 -1.900000000000000E-002   -4.920591785009626E-017
 -1.890000000000000E-002   -5.098712572398009E-017
 -1.880000000000000E-002   -5.039023889242579E-017
 -1.870000000000000E-002   -4.693999793375713E-017
 -1.860000000000000E-002   -4.021333669486410E-017
 -1.850000000000000E-002   -2.987597006127392E-017
 -1.840000000000000E-002   -1.572291748550334E-017
 -1.830000000000000E-002    2.278676079365714E-018
 -1.820000000000000E-002    2.394682451732042E-017
 -1.810000000000000E-002    4.884515292061350E-017
 -1.800000000000000E-002    7.625025001023976E-017
 -1.790000000000000E-002    1.051301329064370E-016
 -1.780000000000000E-002    1.341382965417662E-016
 -1.770000000000000E-002    1.616277443450432E-016
 -1.760000000000000E-002    1.856889293626313E-016
 -1.750000000000000E-002    2.042145071297439E-016
 -1.740000000000000E-002    2.149923492829132E-016
 -1.730000000000000E-002    2.158262961578775E-016
 -1.720000000000000E-002    2.046816948445258E-016
 -1.710000000000000E-002    1.798501086231380E-016
 -1.700000000000000E-002    1.401248515300333E-016
 -1.690000000000000E-002    8.497633017028403E-017
 -1.680000000000000E-002    1.471411677387972E-017
 -1.670000000000000E-002   -6.937881482054163E-017
 -1.660000000000000E-002   -1.649544891797800E-016
 -1.650000000000000E-002   -2.685651137925401E-016
 -1.640000000000000E-002   -3.756966928314064E-016
 -1.630000000000000E-002   -4.808792494206186E-016
 -1.620000000000000E-002   -5.778769324194115E-016
 -1.610000000000000E-002   -6.599553900787765E-016
 -1.600000000000000E-002   -7.202175592540761E-016
 -1.590000000000000E-002   -7.519925704003333E-016
 -1.580000000000000E-002   -7.492569635842910E-016
 -1.570000000000000E-002   -7.070628112470268E-016
 -1.560000000000000E-002   -6.219451508240332E-016
 -1.550000000000000E-002   -4.922805392335236E-016
 -1.540000000000000E-002   -3.185706139392961E-016
 -1.530000000000000E-002   -1.036294683226850E-016
 -1.520000000000000E-002    1.473404142905944E-016
 -1.510000000000000E-002    4.267905247219231E-016
 -1.500000000000000E-002    7.249860027410787E-016
 -1.490000000000000E-002    1.030272919603382E-015
 -1.480000000000000E-002    1.329438105120100E-015
 -1.470000000000000E-002    1.608140802957446E-015
 -1.460000000000000E-002    1.851395097112317E-015
 -1.450000000000000E-002    2.044083377830442E-015
 -1.440000000000000E-002    2.171485400945259E-015
 -1.430000000000000E-002    2.219813939531533E-015
 -1.420000000000000E-002    2.176755230111093E-015
 -1.410000000000000E-002    2.032018507192296E-015
 -1.400000000000000E-002    1.777903857420612E-015
 -1.390000000000000E-002    1.409896616559942E-015
 -1.380000000000000E-002    9.272927273713520E-016
 -1.370000000000000E-002    3.338488748759986E-016
 -1.360000000000000E-002   -3.615645472605644E-016
 -1.350000000000000E-002   -1.144348392217909E-015
 -1.340000000000000E-002   -1.993659060170061E-015
 -1.330000000000000E-002   -2.882074278376553E-015
 -1.320000000000000E-002   -3.775535818683242E-015
 -1.310000000000000E-002   -4.633671492884873E-015
 -1.300000000000000E-002   -5.410595618632286E-015
 -1.290000000000000E-002   -6.056264307685297E-015
 -1.280000000000000E-002   -6.518433503720978E-015
 -1.270000000000000E-002   -6.745214698655396E-015
 -1.260000000000000E-002   -6.688172450430632E-015
 -1.250000000000000E-002   -6.305833845429429E-015
 -1.240000000000000E-002   -5.567422716226071E-015
 -1.230000000000000E-002   -4.456569785101498E-015
 -1.220000000000000E-002   -2.974703859418305E-015
 -1.210000000000000E-002   -1.143807865027824E-015
 -1.200000000000000E-002    9.917732591031093E-016
 -1.190000000000000E-002    3.364754904264063E-015
 -1.180000000000000E-002    5.885783097847002E-015
 -1.170000000000000E-002    8.445880643815892E-015
 -1.160000000000000E-002    1.092048796901097E-014
 -1.150000000000000E-002    1.317498794222960E-014
 -1.140000000000000E-002    1.507148134385887E-014
 -1.130000000000000E-002    1.647646305851558E-014
 -1.120000000000000E-002    1.726894540344667E-014
 -1.110000000000000E-002    1.734851227435910E-014
 -1.100000000000000E-002    1.664276269137894E-014
 -1.090000000000000E-002    1.511359741733701E-014
 -1.080000000000000E-002    1.276187652868369E-014
 -1.070000000000000E-002    9.630045529746822E-015
 -1.060000000000000E-002    5.802467294989223E-015
 -1.050000000000000E-002    1.403325242095021E-015
 -1.040000000000000E-002   -3.407872898649395E-015
 -1.030000000000000E-002   -8.443011783672811E-015
 -1.020000000000000E-002   -1.349398585730159E-014
 -1.010000000000000E-002   -1.834276245342756E-014
 -1.000000000000000E-002   -2.277234616417827E-014
 -9.899999999999999E-003   -2.657802495162522E-014
 -9.800000000000000E-003   -2.957822781810029E-014
 -9.699999999999999E-003   -3.162434061728779E-014
 -9.599999999999999E-003   -3.260881969368405E-014
 -9.500000000000000E-003   -3.247102221929160E-014
 -9.399999999999999E-003   -3.120025781135301E-014
 -9.299999999999999E-003   -2.883569846698842E-014
 -9.200000000000000E-003   -2.546293846807515E-014
 -9.099999999999999E-003   -2.120722700077907E-014
 -8.999999999999999E-003   -1.622362686945092E-014
 -8.900000000000000E-003   -1.068461765054032E-014
 -8.799999999999999E-003   -4.765972603147206E-015
 -8.699999999999999E-003    1.368010058422415E-015
 -8.600000000000000E-003    7.578538110163243E-015
 -8.499999999999999E-003    1.376415504076142E-014
 -8.399999999999999E-003    1.986873462368272E-014
 -8.300000000000000E-003    2.588414233098879E-014
 -8.199999999999999E-003    3.184633338606824E-014
 -8.100000000000000E-003    3.782405890640868E-014
 -8.000000000000000E-003    4.390002553907546E-014
 -7.899999999999999E-003    5.014512889835932E-014
 -7.800000000000000E-003    5.658733906990810E-014
 -7.699999999999999E-003    6.317766927049806E-014
 -7.599999999999999E-003    6.975665853412967E-014
 -7.499999999999999E-003    7.602540604273094E-014
 -7.399999999999999E-003    8.152560812362912E-014
 -7.299999999999999E-003    8.563310244535495E-014
 -7.199999999999999E-003    8.756887470534034E-014
 -7.100000000000000E-003    8.643048682724196E-014
 -6.999999999999999E-003    8.124542430807298E-014
 -6.899999999999999E-003    7.104578623071633E-014
 -6.800000000000000E-003    5.496160357200604E-014
 -6.699999999999999E-003    3.232756205729847E-014
 -6.599999999999999E-003    2.795663928108134E-015
 -6.499999999999999E-003   -3.355551225669399E-014
 -6.399999999999999E-003   -7.612574419838279E-014
 -6.299999999999999E-003   -1.237234327834673E-013
 -6.199999999999999E-003   -1.745319815468868E-013
 -6.100000000000000E-003   -2.261213099874488E-013
 -5.999999999999999E-003   -2.755111074690106E-013
 -5.899999999999999E-003   -3.192886166609910E-013
 -5.800000000000000E-003   -3.537797015386888E-013
 -5.699999999999999E-003   -3.752670126954154E-013
 -5.599999999999999E-003   -3.802446766143635E-013
 -5.499999999999999E-003   -3.656944653431501E-013
 -5.399999999999999E-003   -3.293651441050154E-013
 -5.299999999999999E-003   -2.700343633063206E-013
 -5.199999999999999E-003   -1.877318682732560E-013
 -5.099999999999999E-003   -8.390354006870145E-014
 -4.999999999999999E-003    3.850149319254381E-014
 -4.899999999999999E-003    1.750344574373109E-013
 -4.799999999999999E-003    3.198496435101743E-013
 -4.699999999999999E-003    4.659081613783527E-013
 -4.599999999999999E-003    6.052783187133677E-013
 -4.499999999999999E-003    7.295208202188324E-013
 -4.399999999999999E-003    8.301415220094603E-013
 -4.299999999999999E-003    8.990885041759019E-013
 -4.199999999999999E-003    9.292663980058280E-013
 -4.099999999999999E-003    9.150388431074489E-013
 -3.999999999999999E-003    8.526880924648674E-013
 -3.899999999999999E-003    7.408026617597005E-013
 -3.799999999999999E-003    5.805656034921829E-013
 -3.699999999999999E-003    3.759200630529187E-013
 -3.599999999999999E-003    1.335940910817499E-013
 -3.499999999999999E-003   -1.370275156125765E-013
 -3.399999999999999E-003   -4.241894949842778E-013
 -3.299999999999999E-003   -7.142076123797843E-013
 -3.199999999999999E-003   -9.920548849870374E-013
 -3.099999999999999E-003   -1.242073612993880E-012
 -2.999999999999999E-003   -1.448786121256537E-012
 -2.899999999999999E-003   -1.597768479589736E-012
 -2.799999999999999E-003   -1.676545812563008E-012
 -2.699999999999999E-003   -1.675459767300880E-012
 -2.599999999999999E-003   -1.588456823887626E-012
 -2.499999999999999E-003   -1.413741750557510E-012
 -2.399999999999999E-003   -1.154244860288549E-012
 -2.299999999999999E-003   -8.178536030707237E-013
 -2.199999999999999E-003   -4.173690549295018E-013
 -2.099999999999999E-003    2.983797017885199E-014
 -1.999999999999999E-003    5.024824082004160E-013
 -1.899999999999999E-003    9.763210915644021E-013
 -1.799999999999999E-003    1.425377333663802E-012
 -1.699999999999999E-003    1.823378538693265E-012
 -1.599999999999999E-003    2.145331182391724E-012
 -1.499999999999999E-003    2.369136234313498E-012
 -1.399999999999999E-003    2.477137728966602E-012
 -1.299999999999999E-003    2.457489553475439E-012
 -1.199999999999999E-003    2.305227974968590E-012
 -1.099999999999999E-003    2.022950753445494E-012
 -9.999999999999989E-004    1.621023210233325E-012
 -8.999999999999990E-004    1.117265173306403E-012
 -7.999999999999990E-004    5.361070434330844E-013
 -6.999999999999989E-004   -9.275275260165421E-014
 -5.999999999999990E-004   -7.361139062230828E-013
 -4.999999999999989E-004   -1.359350143164762E-012
 -3.999999999999989E-004   -1.928645166348028E-012
 -2.999999999999989E-004   -2.413217845997513E-012
 -1.999999999999989E-004   -2.787355588123882E-012
 -9.999999999999892E-005   -3.032081115209475E-012
  1.084202172485504E-018   -3.136298713077171E-012
  1.000000000000011E-004   -3.097306853967809E-012
  2.000000000000011E-004   -2.920614378336590E-012
  3.000000000000011E-004   -2.619055990130131E-012
  4.000000000000011E-004   -2.211273281477646E-012
  5.000000000000011E-004   -1.719688915146193E-012
  6.000000000000011E-004   -1.168160084545420E-012
  7.000000000000011E-004   -5.795409460435277E-013
  8.000000000000011E-004    2.658954260795899E-014
  9.000000000000012E-004    6.357761624242853E-013
  1.000000000000001E-003    1.239876152215999E-012
  1.100000000000001E-003    1.837393111714613E-012
  1.200000000000001E-003    2.432842559635399E-012
  1.300000000000001E-003    3.035108617539492E-012
  1.400000000000001E-003    3.654862167877390E-012
  1.500000000000001E-003    4.301205956184659E-012
  1.600000000000001E-003    4.977821444667441E-012
  1.700000000000001E-003    5.678967713429702E-012
  1.800000000000001E-003    6.385749614297077E-012
  1.900000000000001E-003    7.063105148377981E-012
  2.000000000000001E-003    7.657955400435567E-012
  2.100000000000001E-003    8.098920054383424E-012
  2.200000000000001E-003    8.297913667841209E-012
  2.300000000000001E-003    8.153826564707007E-012
  2.400000000000001E-003    7.558335417507138E-012
  2.500000000000001E-003    6.403721392632611E-012
  2.600000000000001E-003    4.592388174959386E-012
  2.700000000000001E-003    2.047599009032896E-012
  2.800000000000001E-003   -1.275223736459250E-012
  2.900000000000001E-003   -5.377412927229007E-012
  3.000000000000001E-003   -1.020706078775120E-011
  3.100000000000001E-003   -1.565102444868743E-011
  3.200000000000001E-003   -2.152981372667716E-011
  3.300000000000001E-003   -2.759615621498961E-011
  3.400000000000001E-003   -3.353788034452856E-011
  3.500000000000001E-003   -3.898555150570397E-011
  3.600000000000001E-003   -4.352500876711346E-011
  3.700000000000001E-003   -4.671468672973169E-011
  3.800000000000001E-003   -4.810724457563481E-011
  3.900000000000001E-003   -4.727474945692458E-011
  4.000000000000001E-003   -4.383633282473437E-011
  4.100000000000001E-003   -3.748700205733739E-011
  4.200000000000001E-003   -2.802606710046160E-011
  4.300000000000001E-003   -1.538355895267831E-011
  4.400000000000001E-003    3.570158105169196E-013
  4.500000000000001E-003    1.894125249216176E-011
  4.600000000000002E-003    3.993314308759638E-011
  4.700000000000001E-003    6.271234194127892E-011
  4.800000000000001E-003    8.648025059882340E-011
  4.900000000000002E-003    1.102754140718126E-010
  5.000000000000001E-003    1.329982903465822E-010
  5.100000000000001E-003    1.534449963491073E-010
  5.200000000000001E-003    1.703491596788281E-010
  5.300000000000002E-003    1.824306701713902E-010
  5.400000000000001E-003    1.884495756097104E-010
  5.500000000000001E-003    1.872632836477348E-010
  5.600000000000002E-003    1.778848435877426E-010
  5.700000000000001E-003    1.595400416844298E-010
  5.800000000000001E-003    1.317210623456956E-010
  5.900000000000002E-003    9.423417592506102E-011
  6.000000000000001E-003    4.723971919668167E-011
  6.100000000000001E-003   -8.717674619273759E-012
  6.200000000000002E-003   -7.269021776773326E-011
  6.300000000000002E-003   -1.433205116545828E-010
  6.400000000000001E-003   -2.188483396492001E-010
  6.500000000000001E-003   -2.971310981737037E-010
  6.600000000000002E-003   -3.756778995464078E-010
  6.700000000000001E-003   -4.516966624293970E-010
  6.800000000000001E-003   -5.221535230964582E-010
  6.900000000000002E-003   -5.838434548642727E-010
  7.000000000000001E-003   -6.334706916030743E-010
  7.100000000000001E-003   -6.677370528620568E-010
  7.200000000000002E-003   -6.834367501179638E-010
  7.300000000000002E-003   -6.775556473181356E-010
  7.400000000000001E-003   -6.473732045862135E-010
  7.500000000000001E-003   -5.905654218908464E-010
  7.600000000000002E-003   -5.053068315711918E-010
  7.700000000000001E-003   -3.903701276668267E-010
  7.800000000000001E-003   -2.452222762919607E-010
  7.900000000000001E-003   -7.011489455127930E-011
  8.000000000000002E-003    1.338317304362191E-010
  8.100000000000001E-003    3.645528791205875E-010
  8.200000000000001E-003    6.189735836183473E-010
  8.300000000000002E-003    8.929550839844891E-010
  8.400000000000001E-003    1.181255665629745E-009
  8.500000000000002E-003    1.477509745915268E-009
  8.600000000000002E-003    1.774228769002615E-009
  8.700000000000001E-003    2.062828942000773E-009
  8.800000000000002E-003    2.333690213536487E-009
  8.900000000000002E-003    2.576254234165785E-009
  9.000000000000001E-003    2.779166279386071E-009
  9.100000000000002E-003    2.930467044427540E-009
  9.200000000000002E-003    3.017841410678754E-009
  9.300000000000001E-003    3.028927933841443E-009
  9.400000000000002E-003    2.951691434462017E-009
  9.500000000000001E-003    2.774861477434020E-009
  9.600000000000001E-003    2.488432509277927E-009
  9.700000000000002E-003    2.084218577150828E-009
  9.800000000000001E-003    1.556456608345866E-009
  9.900000000000001E-003    9.024401115424378E-010
  1.000000000000000E-002    1.231646398945976E-010
  1.010000000000000E-002   -7.760365623941596E-010
  1.020000000000000E-002   -1.784895755565838E-009
  1.030000000000000E-002   -2.887683372136445E-009
  1.040000000000000E-002   -4.062784204981963E-009
  1.050000000000000E-002   -5.282408506621515E-009
  1.060000000000000E-002   -6.512478070105197E-009
  1.070000000000000E-002   -7.712714049333527E-009
  1.080000000000000E-002   -8.836960215238942E-009
  1.090000000000000E-002   -9.833765864914332E-009
  1.100000000000000E-002   -1.064724597229815E-008
  1.110000000000000E-002   -1.121823379911399E-008
  1.120000000000000E-002   -1.148572348613280E-008
  1.130000000000000E-002   -1.138861099685869E-008
  1.140000000000000E-002   -1.086770205316498E-008
  1.150000000000000E-002   -9.867982568678246E-009
  1.160000000000000E-002   -8.341115480174342E-009
  1.170000000000000E-002   -6.248124498470835E-009
  1.180000000000000E-002   -3.562233108921509E-009
  1.190000000000000E-002   -2.718068999812909E-010
  1.200000000000000E-002    3.616644260355648E-009
  1.210000000000000E-002    8.075454772677497E-009
  1.220000000000000E-002    1.305282171421529E-008
  1.230000000000000E-002    1.846990713353228E-008
  1.240000000000000E-002    2.421805118503124E-008
  1.250000000000000E-002    3.015613969290834E-008
  1.260000000000000E-002    3.610815348540714E-008
  1.270000000000000E-002    4.186091666492601E-008
  1.280000000000000E-002    4.716206617688515E-008
  1.290000000000000E-002    5.171825064028850E-008
  1.300000000000000E-002    5.519356365708670E-008
  1.310000000000000E-002    5.720820815433407E-008
  1.320000000000000E-002    5.733739657586326E-008
  1.330000000000000E-002    5.511048448575317E-008
  1.340000000000000E-002    5.001028776795597E-008
  1.350000000000000E-002    4.147264500948451E-008
  1.360000000000000E-002    2.888612787233932E-008
  1.370000000000000E-002    1.159197152572189E-008
  1.380000000000000E-002   -1.111585753349318E-008
  1.390000000000000E-002   -3.999041976654643E-008
  1.400000000000000E-002   -7.583143761361701E-008
  1.410000000000000E-002   -1.194847753575278E-007
  1.420000000000000E-002   -1.718418214489222E-007
  1.430000000000000E-002   -2.338387795065145E-007
  1.440000000000000E-002   -3.064558333868665E-007
  1.450000000000000E-002   -3.907162542933021E-007
  1.460000000000000E-002   -4.876854711112423E-007
  1.470000000000000E-002   -5.984700859427290E-007
  1.480000000000000E-002   -7.242168433343263E-007
  1.490000000000000E-002   -8.661117564695653E-007
  1.500000000000000E-002   -1.025379044542807E-006
  1.510000000000000E-002   -1.203280426371168E-006
  1.520000000000000E-002   -1.401114253059995E-006
  1.530000000000000E-002   -1.620214869620660E-006
  1.540000000000000E-002   -1.861952625183830E-006
  1.550000000000000E-002   -2.127733189543330E-006
  1.560000000000000E-002   -2.418998277167599E-006
  1.570000000000000E-002   -2.737225953522009E-006
  1.580000000000000E-002   -3.083931490183228E-006
  1.590000000000000E-002   -3.460669378768921E-006
  1.600000000000000E-002   -3.869034616691321E-006
  1.610000000000000E-002   -4.310665886922490E-006
  1.620000000000000E-002   -4.787248619006528E-006
  1.630000000000000E-002   -5.300519690217801E-006
  1.640000000000000E-002   -5.852271010256874E-006
  1.650000000000000E-002   -6.444356511793521E-006
  1.660000000000000E-002   -7.078697867779496E-006
  1.670000000000000E-002   -7.757292331440830E-006
  1.680000000000000E-002   -8.482221522959892E-006
  1.690000000000000E-002   -9.255659605658638E-006
  1.700000000000000E-002   -1.007988464737612E-005
  1.710000000000000E-002   -1.095728950073085E-005
  1.720000000000000E-002   -1.189039355371667E-005
  1.730000000000000E-002   -1.288185516932296E-005
  1.740000000000000E-002   -1.393448581892114E-005
  1.750000000000000E-002   -1.505126281994206E-005
  1.760000000000000E-002   -1.623534651760189E-005
  1.770000000000000E-002   -1.749009559775511E-005
  1.780000000000000E-002   -1.881907752068435E-005
  1.790000000000000E-002   -2.022609102728672E-005
  1.800000000000000E-002   -2.171517898531729E-005
  1.810000000000000E-002   -2.329064237508234E-005
  1.820000000000000E-002   -2.495705916837797E-005
  1.830000000000000E-002   -2.671929866263144E-005
  1.840000000000000E-002   -2.858254104010103E-005
  1.850000000000000E-002   -3.055228606064156E-005
  1.860000000000000E-002   -3.263437417684698E-005
  1.870000000000000E-002   -3.483499844353861E-005