 -4.000000000000000E-002    0.000000000000000E+000
 -3.990000000000000E-002    0.000000000000000E+000
 -3.980000000000000E-002    0.000000000000000E+000
 -3.970000000000000E-002    0.000000000000000E+000
 -3.960000000000000E-002    0.000000000000000E+000
 -3.950000000000000E-002    0.000000000000000E+000
 -3.940000000000000E-002    0.000000000000000E+000
 -3.930000000000000E-002    1.005197428368128E-027
 -3.920000000000000E-002    1.882404507437569E-026
 -3.910000000000000E-002    1.786958946053132E-025
 -3.900000000000000E-002    1.154051686859639E-024
 -3.890000000000000E-002    5.721668119005797E-024
 -3.880000000000000E-002    2.325670601807920E-023
 -3.870000000000000E-002    8.073569745448611E-023
 -3.860000000000000E-002    2.460606027207931E-022
 -3.850000000000000E-002    6.713594978859220E-022
 -3.840000000000000E-002    1.663423621745616E-021
 -3.830000000000000E-002    3.782602147042981E-021
 -3.820000000000000E-002    7.956778906102717E-021
 -3.810000000000000E-002    1.557082150047638E-020
 -3.800000000000000E-002    2.845445242295861E-020
 -3.790000000000000E-002    4.864870259362006E-020
 -3.780000000000000E-002    7.779641568811438E-020
 -3.770000000000000E-002    1.159970877347783E-019
 -3.760000000000000E-002    1.600174157182150E-019
 -3.750000000000000E-002    2.008815741414884E-019
 -3.740000000000000E-002    2.210937551397483E-019
 -3.730000000000000E-002    1.920595614309688E-019
 -3.720000000000000E-002    7.262772297714799E-020
 -3.710000000000000E-002   -1.900177062134438E-019
 -3.700000000000000E-002   -6.557427982461328E-019
 -3.690000000000000E-002   -1.381918738931627E-018
 -3.680000000000000E-002   -2.408329112282589E-018
 -3.670000000000000E-002   -3.736978029181537E-018
 -3.660000000000000E-002   -5.308733606977896E-018
 -3.650000000000000E-002   -6.980426544197264E-018
 -3.640000000000000E-002   -8.507529847343326E-018
 -3.630000000000000E-002   -9.538385314837820E-018
 -3.620000000000000E-002   -9.625536031531588E-018
 -3.610000000000000E-002   -8.257715323526945E-018
 -3.600000000000000E-002   -4.912180045541714E-018
 -3.590000000000000E-002    8.781586002795111E-019
 -3.580000000000000E-002    9.454298442981241E-018
 -3.570000000000000E-002    2.097372310707264E-017
 -3.560000000000000E-002    3.538444110647651E-017
 -3.550000000000000E-002    5.244597517784339E-017
 -3.540000000000000E-002    7.180345084328722E-017
 -3.530000000000000E-002    9.310433556003827E-017
 -3.520000000000000E-002    1.161251055565011E-016
 -3.510000000000000E-002    1.408499330288376E-016
 -3.500000000000000E-002    1.674218405374446E-016
 -3.490000000000000E-002    1.958759290330450E-016
 -3.480000000000000E-002    2.255721058176656E-016
 -3.470000000000000E-002    2.542806515339167E-016
 -3.460000000000000E-002    2.769413238554495E-016
 -3.450000000000000E-002    2.842145217360820E-016
 -3.440000000000000E-002    2.610664534090450E-016
 -3.430000000000000E-002    1.857574435079271E-016
 -3.420000000000000E-002    2.971518093096987E-017
 -3.410000000000000E-002   -2.411674693446625E-016
 -3.400000000000000E-002   -6.632908305189250E-016
 -3.390000000000000E-002   -1.269784009476517E-015
 -3.380000000000000E-002   -2.082504156521681E-015
 -3.370000000000000E-002   -3.101895956454794E-015
 -3.360000000000000E-002   -4.295511178220427E-015
 -3.350000000000000E-002   -5.586557642383158E-015
 -3.340000000000000E-002   -6.844382551325820E-015
 -3.330000000000000E-002   -7.879198035577622E-015
 -3.320000000000000E-002   -8.443505646278519E-015
 -3.310000000000000E-002   -8.242506033383509E-015
 -3.300000000000000E-002   -6.955123641430465E-015
 -3.290000000000000E-002   -4.266236381470723E-015
 -3.280000000000000E-002    9.079047679596963E-017
 -3.270000000000000E-002    6.283929081149117E-015
 -3.260000000000000E-002    1.432913720626381E-014
 -3.250000000000000E-002    2.403996097681643E-014
 -3.240000000000000E-002    3.498728745181210E-014
 -3.230000000000000E-002    4.647684844044813E-014
 -3.220000000000000E-002    5.755127404974642E-014
 -3.210000000000000E-002    6.702175858907621E-014
 -3.200000000000000E-002    7.353133836549453E-014
 -3.190000000000000E-002    7.564810256012997E-014
 -3.180000000000000E-002    7.198249944640250E-014
 -3.170000000000000E-002    6.131867899125376E-014
 -3.160000000000000E-002    4.274703776294543E-014
 -3.150000000000000E-002    1.578337087773317E-014
 -3.140000000000000E-002   -1.953943616996135E-014
 -3.130000000000000E-002   -6.261804450026097E-014
 -3.120000000000000E-002   -1.122696851752642E-013
 -3.110000000000000E-002   -1.667660901606868E-013
 -3.100000000000000E-002   -2.239016427295760E-013
 -3.090000000000000E-002   -2.810793986001055E-013
 -3.080000000000000E-002   -3.353940388645568E-013
 -3.070000000000000E-002   -3.836889890473483E-013
 -3.060000000000000E-002   -4.225685907969542E-013
 -3.050000000000000E-002   -4.483558962883607E-013
 -3.040000000000000E-002   -4.569999254612832E-013
 -3.030000000000000E-002   -4.439555787899376E-013
 -3.020000000000000E-002   -4.040787623631577E-013
 -3.010000000000000E-002   -3.315971635167630E-013
 -3.000000000000000E-002   -2.202301473265556E-013
 -2.990000000000000E-002   -6.353247161651849E-014
 -2.980000000000000E-002    1.444736808189934E-013
 -2.970000000000000E-002    4.083416234424048E-013
 -2.960000000000000E-002    7.299223264519432E-013
 -2.950000000000000E-002    1.106828972226824E-012
 -2.940000000000000E-002    1.530768713579234E-012
 -2.930000000000000E-002    1.985934685752337E-012
 -2.920000000000000E-002    2.447706017864547E-012
 -2.910000000000000E-002    2.881941349611302E-012
 -2.900000000000000E-002    3.245155658490045E-012
 -2.890000000000000E-002    3.485839288242387E-012
 -2.880000000000000E-002    3.547097425288636E-012
 -2.870000000000000E-002    3.370673622176330E-012
 -2.860000000000000E-002    2.902253754190690E-012
 -2.850000000000000E-002    2.097776233477352E-012
 -2.840000000000000E-002    9.302782770284268E-013
 -2.830000000000000E-002   -6.033559718928078E-013
 -2.820000000000000E-002   -2.476500766565779E-012
 -2.810000000000000E-002   -4.628557972899286E-012
 -2.800000000000000E-002   -6.963169876828847E-012
 -2.790000000000000E-002   -9.349508319226407E-012
 -2.780000000000000E-002   -1.162705053714814E-011
 -2.770000000000000E-002   -1.361391787131919E-011
 -2.760000000000000E-002   -1.511847392684583E-011
 -2.750000000000000E-002   -1.595347463497397E-011
 -2.740000000000000E-002   -1.595168358005629E-011
 -2.730000000000000E-002   -1.498157073024194E-011
 -2.720000000000000E-002   -1.296153139534688E-011
 -2.710000000000000E-002   -9.871074089339263E-012
 -2.700000000000000E-002   -5.757602325960871E-012
 -2.690000000000000E-002   -7.377852461552733E-013
 -2.680000000000000E-002    5.006944596919364E-012
 -2.670000000000000E-002    1.124056859503071E-011
 -2.660000000000000E-002    1.768746133039610E-011
 -2.650000000000000E-002    2.405063919854451E-011
 -2.640000000000000E-002    3.003126920725790E-011
 -2.630000000000000E-002    3.534712019141039E-011
 -2.620000000000000E-002    3.974769340293973E-011
 -2.610000000000000E-002    4.302408889576079E-011
 -2.600000000000000E-002    4.501234330820659E-011
 -2.590000000000000E-002    4.558990309795744E-011
 -2.580000000000000E-002    4.466596530764763E-011
 -2.570000000000000E-002    4.216758061172236E-011
 -2.560000000000000E-002    3.802434247087592E-011
 -2.550000000000000E-002    3.215521059143865E-011
 -2.540000000000000E-002    2.446125282849720E-011
 -2.530000000000000E-002    1.482774927068913E-011
 -2.520000000000000E-002    3.138223422768557E-012
 -2.510000000000000E-002   -1.069847903705003E-011
 -2.500000000000000E-002   -2.670885635614703E-011
 -2.490000000000000E-002   -4.480614265110838E-011
 -2.480000000000000E-002   -6.473739967847910E-011
 -2.470000000000000E-002   -8.603320422278488E-011
 -2.460000000000000E-002   -1.079679021948412E-010
 -2.450000000000000E-002   -1.295387690590599E-010
 -2.440000000000000E-002   -1.494715797614860E-010
 -2.430000000000000E-002   -1.662583028180857E-010
 -2.420000000000000E-002   -1.782294965231933E-010
 -2.410000000000000E-002   -1.836604679381765E-010
 -2.400000000000000E-002   -1.809058425668858E-010
 -2.390000000000000E-002   -1.685530777758134E-010
 -2.380000000000000E-002   -1.455816792147747E-010
 -2.370000000000000E-002   -1.115123975853995E-010
 -2.360000000000000E-002   -6.652968815610957E-011
 -2.350000000000000E-002   -1.156124842534961E-011
 -2.340000000000000E-002    5.169838126376475E-011
 -2.330000000000000E-002    1.208286716165265E-010
 -2.320000000000000E-002    1.927907320490972E-010
 -2.310000000000000E-002    2.640968567806583E-010
 -2.300000000000000E-002    3.310299286992616E-010
 -2.290000000000000E-002    3.898941028487638E-010
 -2.280000000000000E-002    4.372732887589366E-010
 -2.270000000000000E-002    4.702716739256852E-010
 -2.260000000000000E-002    4.867106074870187E-010
 -2.250000000000000E-002    4.852603409961730E-010
 -2.240000000000000E-002    4.654909756222571E-010
 -2.230000000000000E-002    4.278368584761162E-010
 -2.220000000000000E-002    3.734782804147629E-010
 -2.210000000000000E-002    3.041557548482206E-010
 -2.200000000000000E-002    2.219414004808052E-010
 -2.190000000000000E-002    1.289992787192396E-010
 -2.180000000000000E-002    2.736982971525776E-011
 -2.170000000000000E-002   -8.118708861216549E-011
 -2.160000000000000E-002   -1.952622325659905E-010
 -2.150000000000000E-002   -3.137616450169891E-010
 -2.140000000000000E-002   -4.357616285436737E-010
 -2.130000000000000E-002   -5.602654080474914E-010
 -2.120000000000000E-002   -6.858894866023725E-010
 -2.110000000000000E-002   -8.105210958997782E-010
 -2.100000000000000E-002   -9.309995780957628E-010
 -2.090000000000000E-002   -1.042877799170706E-009
 -2.080000000000000E-002   -1.140318140022466E-009
 -2.070000000000000E-002   -1.216167206963782E-009
 -2.060000000000000E-002   -1.262236049255861E-009
 -2.050000000000000E-002   -1.269790945741380E-009
 -2.040000000000000E-002   -1.230233440967833E-009
 -2.030000000000000E-002   -1.135922079658394E-009
 -2.020000000000000E-002   -9.810647452798377E-010
 -2.010000000000000E-002   -7.625934779964143E-010
 -2.000000000000000E-002   -4.809246901453974E-010
 -1.990000000000000E-002   -1.405090033125280E-010
 -1.980000000000000E-002    2.499104517992379E-010
 -1.970000000000000E-002    6.773899970678780E-010
 -1.960000000000000E-002    1.125252233899594E-009
 -1.950000000000000E-002    1.573914715244420E-009
 -1.940000000000000E-002    2.002027286967519E-009
 -1.930000000000000E-002    2.387828699317768E-009
 -1.920000000000000E-002    2.710603323700758E-009
 -1.910000000000000E-002    2.952103769436727E-009
 -1.900000000000000E-002    3.097799881100247E-009
 -1.890000000000000E-002    3.137830573966747E-009
 -1.880000000000000E-002    3.067562379833622E-009
 -1.870000000000000E-002    2.887698101297042E-009
 -1.860000000000000E-002    2.603930721934029E-009
 -1.850000000000000E-002    2.226189102927629E-009
 -1.840000000000000E-002    1.767566065557761E-009
 -1.830000000000000E-002    1.243066747290327E-009
 -1.820000000000000E-002    6.683290385343757E-010
 -1.810000000000000E-002    5.847979664645088E-011
 -1.800000000000000E-002   -5.727272661647328E-010
 -1.790000000000000E-002   -1.213382641012655E-009
 -1.780000000000000E-002   -1.853440306446788E-009
 -1.770000000000000E-002   -2.484286962680451E-009
 -1.760000000000000E-002   -3.097927440922519E-009
 -1.750000000000000E-002   -3.685912234097005E-009
 -1.740000000000000E-002   -4.238179682269273E-009
 -1.730000000000000E-002   -4.742009809608135E-009
 -1.720000000000000E-002   -5.181293613734115E-009
 -1.710000000000000E-002   -5.536291537017365E-009
 -1.700000000000000E-002   -5.784008555569938E-009
 -1.690000000000000E-002   -5.899243282780144E-009
 -1.680000000000000E-002   -5.856283975711682E-009
 -1.670000000000000E-002   -5.631136541606342E-009
 -1.660000000000000E-002   -5.204094647988636E-009
 -1.650000000000000E-002   -4.562392384603656E-009
 -1.640000000000000E-002   -3.702652879842346E-009
 -1.630000000000000E-002   -2.632834202346389E-009
 -1.620000000000000E-002   -1.373409213220412E-009
 -1.610000000000000E-002    4.241819139248696E-011
 -1.600000000000000E-002    1.569574251202853E-009
 -1.590000000000000E-002    3.153049747669051E-009
 -1.580000000000000E-002    4.730794858926715E-009
 -1.570000000000000E-002    6.237352557393100E-009
 -1.560000000000000E-002    7.607921322125924E-009
 -1.550000000000000E-002    8.782480778957174E-009
 -1.540000000000000E-002    9.709601684862430E-009
 -1.530000000000000E-002    1.034958299843033E-008
 -1.520000000000000E-002    1.067662379966821E-008
 -1.510000000000000E-002    1.067984482178991E-008
 -1.500000000000000E-002    1.036308878537605E-008
 -1.490000000000000E-002    9.743566053217957E-009
 -1.480000000000000E-002    8.849532034548407E-009
 -1.470000000000000E-002    7.717297042887332E-009
 -1.460000000000000E-002    6.387921507996024E-009
 -1.450000000000000E-002    4.903992244050634E-009
 -1.440000000000000E-002    3.306844491236351E-009
 -1.430000000000000E-002    1.634526974186713E-009
 -1.420000000000000E-002   -7.928682474912902E-011
 -1.410000000000000E-002   -1.805382647251884E-009
 -1.400000000000000E-002   -3.518149037621956E-009
 -1.390000000000000E-002   -5.193986617904462E-009
 -1.380000000000000E-002   -6.809291829341112E-009
 -1.370000000000000E-002   -8.338390107369478E-009
 -1.360000000000000E-002   -9.751816844476211E-009
 -1.350000000000000E-002   -1.101530661297513E-008
 -1.340000000000000E-002   -1.208977621567966E-008
 -1.330000000000000E-002   -1.293245633270836E-008
 -1.320000000000000E-002   -1.349918749886482E-008
 -1.310000000000000E-002   -1.374773188814424E-008
 -1.300000000000000E-002   -1.364180630016002E-008
 -1.290000000000000E-002   -1.315542692219684E-008
 -1.280000000000000E-002   -1.227708273149590E-008
 -1.270000000000000E-002   -1.101322645735366E-008
 -1.260000000000000E-002   -9.390627251520251E-009
 -1.250000000000000E-002   -7.457208843393232E-009
 -1.240000000000000E-002   -5.281145960038539E-009
 -1.230000000000000E-002   -2.948164746095600E-009
 -1.220000000000000E-002   -5.571713624927457E-010
 -1.210000000000000E-002    1.785491269345663E-009
 -1.200000000000000E-002    3.972703463683139E-009
 -1.190000000000000E-002    5.903603103638966E-009
 -1.180000000000000E-002    7.490398596588053E-009
 -1.170000000000000E-002    8.664379880473709E-009
 -1.160000000000000E-002    9.380628701970202E-009
 -1.150000000000000E-002    9.621057560155184E-009
 -1.140000000000000E-002    9.395558092971147E-009
 -1.130000000000000E-002    8.741246783848842E-009
 -1.120000000000000E-002    7.719939144124611E-009
 -1.110000000000000E-002    6.414171118151609E-009
 -1.100000000000000E-002    4.922204451064245E-009
 -1.090000000000000E-002    3.352507709689478E-009
 -1.080000000000000E-002    1.818239565590222E-009
 -1.070000000000000E-002    4.322214513409013E-010
 -1.060000000000000E-002   -6.971914651833364E-010
 -1.050000000000000E-002   -1.469072699729928E-009
 -1.040000000000000E-002   -1.791546200168094E-009
 -1.030000000000000E-002   -1.582078308760255E-009
 -1.020000000000000E-002   -7.665130559297555E-010
 -1.010000000000000E-002    7.228629984739039E-010
 -1.000000000000000E-002    2.950035285146851E-009
 -9.899999999999999E-003    5.978395108807498E-009
 -9.800000000000000E-003    9.873995779189428E-009
 -9.699999999999999E-003    1.470869470091561E-008
 -9.599999999999999E-003    2.056306695811276E-008
 -9.500000000000000E-003    2.752886734649754E-008
 -9.399999999999999E-003    3.571106701399268E-008
 -9.299999999999999E-003    4.522961123158230E-008
 -9.200000000000000E-003    5.622075038419724E-008
 -9.099999999999999E-003    6.883833115727612E-008
 -8.999999999999999E-003    8.325497016908364E-008
 -8.900000000000000E-003    9.966321201718819E-008
 -8.799999999999999E-003    1.182767940037909E-007
 -8.699999999999999E-003    1.393320007831487E-007
 -8.600000000000000E-003    1.630888581304131E-007
 -8.499999999999999E-003    1.898324929836291E-007
 -8.399999999999999E-003    2.198741529464692E-007
 -8.300000000000000E-003    2.535517934551990E-007
 -8.199999999999999E-003    2.912305011176125E-007
 -8.100000000000000E-003    3.333024993341946E-007
 -8.000000000000000E-003    3.801862678015050E-007
 -7.899999999999999E-003    4.323256215880695E-007
 -7.800000000000000E-003    4.901882119649228E-007
 -7.699999999999999E-003    5.542634814292372E-007
 -7.599999999999999E-003    6.250610297402542E-007
 -7.499999999999999E-003    7.031080540210589E-007
 -7.399999999999999E-003    7.889474397059279E-007
 -7.299999999999999E-003    8.831353194437842E-007
 -7.199999999999999E-003    9.862390945085189E-007
 -7.100000000000000E-003    1.098834975636865E-006
 -6.999999999999999E-003    1.221506013515301E-006
 -6.899999999999999E-003    1.354839829597271E-006
 -6.800000000000000E-003    1.499425569357807E-006
 -6.699999999999999E-003    1.655852194820745E-006
 -6.599999999999999E-003    1.824704993465489E-006
 -6.499999999999999E-003    2.006563626195601E-006
 -6.399999999999999E-003    2.201999402559984E-006
 -6.299999999999999E-003    2.411574021648579E-006
 -6.199999999999999E-003    2.635838350863951E-006
 -6.100000000000000E-003    2.875332867189833E-006
 -5.999999999999999E-003    3.130589660216475E-006
 -5.899999999999999E-003    3.402136150055807E-006
 -5.800000000000000E-003    3.690499759443269E-006
 -5.699999999999999E-003    3.996217093568103E-006
 -5.599999999999999E-003    4.319842364397688E-006
 -5.499999999999999E-003    4.661958640076416E-006
 -5.399999999999999E-003    5.023190647411385E-006
 -5.299999999999999E-003    5.404217699999976E-006
 -5.199999999999999E-003    5.805787122257633E-006
 -5.099999999999999E-003    6.228729194791728E-006
 -4.999999999999999E-003    6.673967326784788E-006
 -4.899999999999999E-003    7.142532050055381E-006
 -4.799999999999999E-003    7.635568161328600E-006
 -4.699999999999999E-003    8.154345121224942E-006
 -4.599999999999999E-003    8.700260661521813E-006
 -4.499999999999999E-003    9.274847717010879E-006
 -4.399999999999999E-003    9.879776040745005E-006
 -4.299999999999999E-003    1.051685367335594E-005
 -4.199999999999999E-003    1.118803027372458E-005
 -4.099999999999999E-003    1.189539648496162E-005
 -3.999999999999999E-003    1.264118686634220E-005
 -3.899999999999999E-003    1.342778251820831E-005
 -3.799999999999999E-003    1.425770951733017E-005
 -3.699999999999999E-003    1.513364677633518E-005
 -3.599999999999999E-003    1.605842982732099E-005
 -3.499999999999999E-003    1.703505110763150E-005
 -3.399999999999999E-003    1.806666932030686E-005
 -3.299999999999999E-003    1.915661046639785E-005
 -3.199999999999999E-003    2.030836993874843E-005
 -3.099999999999999E-003    2.152561902087425E-005
 -2.999999999999999E-003    2.281220315735535E-005
 -2.899999999999999E-003    2.417213968917930E-005
 -2.799999999999999E-003    2.560962163075100E-005
 -2.699999999999999E-003    2.712900742174285E-005
 -2.599999999999999E-003    2.873482467992721E-005
 -2.499999999999999E-003    3.043176293392789E-005
 -2.399999999999999E-003    3.222468053369856E-005
 -2.299999999999999E-003    3.411859241995801E-005
 -2.199999999999999E-003    3.611867903972220E-005
 -2.099999999999999E-003    3.823029046580017E-005
 -1.999999999999999E-003    4.045895096211674E-005
 -1.899999999999999E-003    4.281037379022765E-005
 -1.799999999999999E-003    4.529047709129380E-005
 -1.699999999999999E-003    4.790539519495992E-005
 -1.599999999999999E-003    5.066150519960332E-005
 -1.499999999999999E-003    5.356544322254349E-005
 -1.399999999999999E-003    5.662412845683803E-005
 -1.299999999999999E-003    5.984479691086585E-005
 -1.199999999999999E-003    6.323500861913134E-005
 -1.099999999999999E-003    6.680268616118439E-005
 -9.999999999999989E-004    7.055612863252341E-005
 -8.999999999999990E-004    7.450402662469277E-005
 -7.999999999999990E-004    7.865548963771123E-005
 -6.999999999999989E-004    8.302005501873657E-005
 -5.999999999999990E-004    8.760769926539746E-005
 -4.999999999999989E-004    9.242884278277125E-005
 -3.999999999999989E-004    9.749437409042080E-005
 -2.999999999999989E-004    1.028156381428357E-004
 -1.999999999999989E-004    1.084044453613012E-004
 -9.999999999999892E-005    1.142730802179256E-004
  1.084202172485504E-018    1.204342976729992E-004
  1.000000000000011E-004    1.269013147409702E-004
  2.000000000000011E-004    1.336878235850306E-004
  3.000000000000011E-004    1.408080034097390E-004
  4.000000000000011E-004    1.482765058221132E-004
  5.000000000000011E-004    1.561084641186053E-004
  6.000000000000011E-004    1.643195050220353E-004
  7.000000000000011E-004    1.729257702851193E-004
  8.000000000000011E-004    1.819439295011280E-004
  9.000000000000012E-004    1.913911843553589E-004
  1.000000000000001E-003    2.012853495513214E-004
  1.100000000000001E-003    2.116448476041165E-004
  1.200000000000001E-003    2.224887795538390E-004
  1.300000000000001E-003    2.338369810249637E-004
  1.400000000000001E-003    2.457100732590340E-004
  1.500000000000001E-003    2.581295543483819E-004
  1.600000000000001E-003    2.711178026735032E-004
  1.700000000000001E-003    2.846982069481234E-004
  1.800000000000001E-003    2.988952276459750E-004
  1.900000000000001E-003    3.137344398804452E-004
  2.000000000000001E-003    3.292425778002502E-004
  2.100000000000001E-003    3.454475828871635E-004
  2.200000000000001E-003    3.623786307271924E-004
  2.300000000000001E-003    3.800661500306296E-004
  2.400000000000001E-003    3.985417932293526E-004
  2.500000000000001E-003    4.178384801782929E-004
  2.600000000000001E-003    4.379903139990970E-004
  2.700000000000001E-003    4.590325728545395E-004
  2.800000000000001E-003    4.810017051467330E-004
  2.900000000000001E-003    5.039352477501809E-004
  3.000000000000001E-003    5.278718186443964E-004
  3.100000000000001E-003    5.528510808133658E-004
  3.200000000000001E-003    5.789137251888169E-004
  3.300000000000001E-003    6.061014800517768E-004
  3.400000000000001E-003    6.344571262999464E-004
  3.500000000000001E-003    6.640244293117607E-004
  3.600000000000001E-003    6.948484320645056E-004
  3.700000000000001E-003    7.269751715669634E-004
  3.800000000000001E-003    7.604519280453905E-004
  3.900000000000001E-003    7.953272575420905E-004
  4.000000000000001E-003    8.316510435628865E-004
  4.100000000000001E-003    8.694745336831355E-004
  4.200000000000001E-003    9.088504109245025E-004
  4.300000000000001E-003    9.498326829489755E-004
  4.400000000000001E-003    9.924769142681015E-004
  4.500000000000001E-003    1.036840048721416E-003
  4.600000000000002E-003    1.082980520117916E-003
  4.700000000000001E-003    1.130958247066788E-003
  4.800000000000001E-003    1.180834299875687E-003
  4.900000000000002E-003    1.232671231531886E-003
  5.000000000000001E-003    1.286533066106761E-003
  5.100000000000001E-003    1.342484885663508E-003
  5.200000000000001E-003    1.400593221260754E-003
  5.300000000000002E-003    1.460925830287195E-003
  5.400000000000001E-003    1.523551808528242E-003
  5.500000000000001E-003    1.588541743859586E-003
  5.600000000000002E-003    1.655967376324454E-003
  5.700000000000001E-003    1.725902028472508E-003
  5.800000000000001E-003    1.798420575936954E-003
  5.900000000000002E-003    1.873599592457596E-003
  6.000000000000001E-003    1.951517267454908E-003
  6.100000000000001E-003    2.032253627461525E-003
  6.200000000000002E-003    2.115890261180864E-003
  6.300000000000002E-003    2.202511094838695E-003
  6.400000000000001E-003    2.292201766114705E-003
  6.500000000000001E-003    2.385049682695787E-003
  6.600000000000002E-003    2.481144197433486E-003
  6.700000000000001E-003    2.580576868712987E-003
  6.800000000000001E-003    2.683440654731797E-003
  6.900000000000002E-003    2.789830535500100E-003
  7.000000000000001E-003    2.899843033220455E-003
  7.100000000000001E-003    3.013576090428482E-003
  7.200000000000002E-003    3.131129412753634E-003
  7.300000000000002E-003    3.252604058461552E-003
  7.400000000000001E-003    3.378102455667726E-003
  7.500000000000001E-003    3.507728207542601E-003
  7.600000000000002E-003    3.641586402793139E-003
  7.700000000000001E-003    3.779783322779941E-003
  7.800000000000001E-003    3.922426427219928E-003
  7.900000000000001E-003    4.069624747767176E-003
  8.000000000000002E-003    4.221488285749044E-003
  8.100000000000001E-003    4.378128802747384E-003
  8.200000000000001E-003    4.539659399564859E-003
  8.300000000000002E-003    4.706194541191072E-003
  8.400000000000001E-003    4.877850473534988E-003
  8.500000000000002E-003    5.054744323878604E-003
  8.600000000000002E-003    5.236995290500870E-003
  8.700000000000001E-003    5.424724341262742E-003
  8.800000000000002E-003    5.618052938001679E-003
  8.900000000000002E-003    5.817104080403838E-003
  9.000000000000001E-003    6.022002316460497E-003
  9.100000000000002E-003    6.232872876750015E-003
  9.200000000000002E-003    6.449841851707763E-003
  9.300000000000001E-003    6.673036046575296E-003
  9.400000000000002E-003    6.902581457806070E-003
  9.500000000000001E-003    7.138605958041947E-003
  9.600000000000001E-003    7.381235554539355E-003
  9.700000000000002E-003    7.630596606444368E-003
  9.800000000000001E-003    7.886815075574127E-003
  9.900000000000001E-003    8.150016138344001E-003
  1.000000000000000E-002    8.420324640678989E-003
  1.010000000000000E-002    8.697863342161131E-003
  1.020000000000000E-002    8.982754934956930E-003
  1.030000000000000E-002    9.275120076091605E-003
  1.040000000000000E-002    9.575078235391311E-003
  1.050000000000000E-002    9.882747544018590E-003
  1.060000000000000E-002    1.019824502271054E-002
  1.070000000000000E-002    1.052168482721614E-002
  1.080000000000000E-002    1.085317980822615E-002
  1.090000000000000E-002    1.119284135255717E-002
  1.100000000000000E-002    1.154077837128558E-002
  1.110000000000000E-002    1.189709733503809E-002
  1.120000000000000E-002    1.226190178922116E-002
  1.130000000000000E-002    1.263529332870915E-002
  1.140000000000000E-002    1.301736949637266E-002
  1.150000000000000E-002    1.340822591791450E-002
  1.160000000000000E-002    1.380795368340303E-002
  1.170000000000000E-002    1.421663937030062E-002
  1.180000000000000E-002    1.463436810241507E-002
  1.190000000000000E-002    1.506121910190139E-002
  1.200000000000000E-002    1.549726759660462E-002
  1.210000000000000E-002    1.594258568018518E-002
  1.220000000000000E-002    1.639723886968093E-002
  1.230000000000000E-002    1.686129136296555E-002
  1.240000000000000E-002    1.733479901658656E-002
  1.250000000000000E-002    1.781781566296026E-002
  1.260000000000000E-002    1.831038899944147E-002
  1.270000000000000E-002    1.881256328347311E-002
  1.280000000000000E-002    1.932437407310912E-002
  1.290000000000000E-002    1.984585409450524E-002
  1.300000000000000E-002    2.037703027083016E-002
  1.310000000000000E-002    2.091792302849689E-002
  1.320000000000000E-002    2.146854794776742E-002
  1.330000000000000E-002    2.202891397450851E-002
  1.340000000000000E-002    2.259902464066659E-002
  1.350000000000000E-002    2.317887529683689E-002
  1.360000000000000E-002    2.376845577952179E-002
  1.370000000000000E-002    2.436774819061557E-002
  1.380000000000000E-002    2.497672808107746E-002
  1.390000000000000E-002    2.559536232497777E-002
  1.400000000000000E-002    2.622361371654625E-002
  1.410000000000000E-002    2.686143458578190E-002
  1.420000000000000E-002    2.750876887858178E-002
  1.430000000000000E-002    2.816555631376351E-002
  1.440000000000000E-002    2.883172644106175E-002
  1.450000000000000E-002    2.950720090766247E-002
  1.460000000000000E-002    3.019189349893699E-002
  1.470000000000000E-002    3.088570911834597E-002
  1.480000000000000E-002    3.158854724580717E-002
  1.490000000000000E-002    3.230029453516858E-002
  1.500000000000000E-002    3.302083411865910E-002
  1.510000000000000E-002    3.375003578827843E-002
  1.520000000000000E-002    3.448776578913403E-002
  1.530000000000000E-002    3.523387873931618E-002
  1.540000000000000E-002    3.598821935125050E-002
  1.550000000000000E-002    3.675062525305735E-002
  1.560000000000000E-002    3.752092546101343E-002
  1.570000000000000E-002    3.829893832597486E-002
  1.580000000000000E-002    3.908447427934011E-002
  1.590000000000000E-002    3.987733757300304E-002
  1.600000000000000E-002    4.067731749805111E-002
  1.610000000000000E-002    4.148419766785658E-002
  1.620000000000000E-002    4.229775552641554E-002
  1.630000000000000E-002    4.311775323800926E-002
  1.640000000000000E-002    4.394395047521566E-002
  1.650000000000000E-002    4.477609342592782E-002
  1.660000000000000E-002    4.561391876943569E-002
  1.670000000000000E-002    4.645715947097801E-002
  1.680000000000000E-002    4.730553867143227E-002
  1.690000000000000E-002    4.815877018373471E-002
  1.700000000000000E-002    4.901655826835771E-002
  1.710000000000000E-002    4.987860217343080E-002
  1.720000000000000E-002    5.074459320440849E-002
  1.730000000000000E-002    5.161421481946447E-002
  1.740000000000000E-002    5.248714430426827E-002
  1.750000000000000E-002    5.336304553137169E-002
  1.760000000000000E-002    5.424158518677857E-002
  1.770000000000000E-002    5.512241613138336E-002
  1.780000000000000E-002    5.600518809550056E-002
  1.790000000000000E-002    5.688954694112805E-002
  1.800000000000000E-002    5.777512809507682E-002
  1.810000000000000E-002    5.866156509447175E-002
  1.820000000000000E-002    5.954848796141381E-002
  1.830000000000000E-002    6.043551659820767E-002
  1.840000000000000E-002    6.132227484368653E-002
  1.850000000000000E-002    6.220837338459282E-002
  1.860000000000000E-002    6.309343288609626E-002
  1.870000000000000E-002    6.397705977526383E-002