 -4.000000000000000E-002    0.000000000000000E+000
 -3.990000000000000E-002    0.000000000000000E+000
 -3.980000000000000E-002    0.000000000000000E+000
 -3.970000000000000E-002    0.000000000000000E+000
 -3.960000000000000E-002    0.000000000000000E+000
 -3.950000000000000E-002    0.000000000000000E+000
 -3.940000000000000E-002    0.000000000000000E+000
 -3.930000000000000E-002    0.000000000000000E+000
 -3.920000000000000E-002    0.000000000000000E+000
 -3.910000000000000E-002    0.000000000000000E+000
 -3.900000000000000E-002    0.000000000000000E+000
 -3.890000000000000E-002    0.000000000000000E+000
 -3.880000000000000E-002    0.000000000000000E+000
 -3.870000000000000E-002    0.000000000000000E+000
 -3.860000000000000E-002   -2.819974474418188E-047
 -3.850000000000000E-002   -1.117466740068199E-045
 -3.840000000000000E-002   -1.758025670177515E-044
 -3.830000000000000E-002   -1.850225601850326E-043
 -3.820000000000000E-002   -1.465754804440189E-042
 -3.810000000000000E-002   -9.424821261070701E-042
 -3.800000000000000E-002   -5.130989874561022E-041
 -3.790000000000000E-002   -2.430088685644547E-040
 -3.780000000000000E-002   -1.021084966803513E-039
 -3.770000000000000E-002   -3.862619152800253E-039
 -3.760000000000000E-002   -1.330269070873603E-038
 -3.750000000000000E-002   -4.207164764786337E-038
 -3.740000000000000E-002   -1.230072941592787E-037
 -3.730000000000000E-002   -3.341608102536664E-037
 -3.720000000000000E-002   -8.464979481541975E-037
 -3.710000000000000E-002   -2.003948345084634E-036
 -3.700000000000000E-002   -4.436074331453511E-036
 -3.690000000000000E-002   -9.169766569680400E-036
 -3.680000000000000E-002   -1.762347352660865E-035
 -3.670000000000000E-002   -3.120072222440317E-035
 -3.660000000000000E-002   -4.991132019009062E-035
 -3.650000000000000E-002   -6.901944051082092E-035
 -3.640000000000000E-002   -7.218897144323589E-035
 -3.630000000000000E-002   -1.913831969203405E-035
 -3.620000000000000E-002    1.741862988110781E-034
 -3.610000000000000E-002    6.637775441664348E-034
 -3.600000000000000E-002    1.711666202493472E-033
 -3.590000000000000E-002    3.716952390131620E-033
 -3.580000000000000E-002    7.223832145802194E-033
 -3.570000000000000E-002    1.287124897335939E-032
 -3.560000000000000E-002    2.123067677797944E-032
 -3.550000000000000E-002    3.246268824527853E-032
 -3.540000000000000E-002    4.571856597966218E-032
 -3.530000000000000E-002    5.823376966950942E-032
 -3.520000000000000E-002    6.412122970436663E-032
 -3.510000000000000E-002    5.298759820173105E-032
 -3.500000000000000E-002    8.665993470956609E-033
 -3.490000000000000E-002   -9.143727332560668E-032
 -3.480000000000000E-002   -2.757041075165680E-031
 -3.470000000000000E-002   -5.756434799268091E-031
 -3.460000000000000E-002   -1.020688668488964E-030
 -3.450000000000000E-002   -1.630561643563363E-030
 -3.440000000000000E-002   -2.406446292883047E-030
 -3.430000000000000E-002   -3.323783847529679E-030
 -3.420000000000000E-002   -4.331140643108078E-030
 -3.410000000000000E-002   -5.360503034951763E-030
 -3.400000000000000E-002   -6.353206712170670E-030
 -3.390000000000000E-002   -7.300666963816606E-030
 -3.380000000000000E-002   -8.288246769991171E-030
 -3.370000000000000E-002   -9.512429499715502E-030
 -3.360000000000000E-002   -1.121598076902443E-029
 -3.350000000000000E-002   -1.345636532804156E-029
 -3.340000000000000E-002   -1.559662863026546E-029
 -3.330000000000000E-002   -1.539953014249474E-029
 -3.320000000000000E-002   -7.635840878378634E-030
 -3.310000000000000E-002    1.778882569594184E-029
 -3.300000000000000E-002    7.799803282994116E-029
 -3.290000000000000E-002    1.991097356367802E-028
 -3.280000000000000E-002    4.170980527280284E-028
 -3.270000000000000E-002    7.761405877956681E-028
 -3.260000000000000E-002    1.322528559494692E-027
 -3.250000000000000E-002    2.091830150462891E-027
 -3.240000000000000E-002    3.086957987555758E-027
 -3.230000000000000E-002    4.245364061096740E-027
 -3.220000000000000E-002    5.395080783443556E-027
 -3.210000000000000E-002    6.202043762899036E-027
 -3.200000000000000E-002    6.115217466972011E-027
 -3.190000000000000E-002    4.321534784899558E-027
 -3.180000000000000E-002   -2.709091696325800E-028
 -3.170000000000000E-002   -8.996352896902914E-027
 -3.160000000000000E-002   -2.331104919342072E-026
 -3.150000000000000E-002   -4.455633067223548E-026
 -3.140000000000000E-002   -7.357545126025209E-026
 -3.130000000000000E-002   -1.101656696522350E-025
 -3.120000000000000E-002   -1.523686153969223E-025
 -3.110000000000000E-002   -1.956356947353907E-025
 -3.100000000000000E-002   -2.319509900011599E-025
 -3.090000000000000E-002   -2.490507068980726E-025
 -3.080000000000000E-002   -2.299410057238211E-025
 -3.070000000000000E-002   -1.529775166241916E-025
 -3.060000000000000E-002    7.180014802646269E-027
 -3.050000000000000E-002    2.774001056026941E-025
 -3.040000000000000E-002    6.823747032421633E-025
 -3.030000000000000E-002    1.239127247551153E-024
 -3.020000000000000E-002    1.949624122283360E-024
 -3.010000000000000E-002    2.791608512180749E-024
 -3.000000000000000E-002    3.708102179564591E-024
 -2.990000000000000E-002    4.596424576499822E-024
 -2.980000000000000E-002    5.298092473942740E-024
 -2.970000000000000E-002    5.591521921642895E-024
 -2.960000000000000E-002    5.190054368222560E-024
 -2.950000000000000E-002    3.748390548337259E-024
 -2.940000000000000E-002    8.809713167792803E-025
 -2.930000000000000E-002   -3.803958717335928E-024
 -2.920000000000000E-002   -1.065103143243274E-023
 -2.910000000000000E-002   -1.988239356562748E-023
 -2.900000000000000E-002   -3.149916158164313E-023
 -2.890000000000000E-002   -4.516121012138804E-023
 -2.880000000000000E-002   -6.005083796715546E-023
 -2.870000000000000E-002   -7.473134302722550E-023
 -2.860000000000000E-002   -8.701845224238536E-023
 -2.850000000000000E-002   -9.389054273875004E-023
 -2.840000000000000E-002   -9.147206799023903E-023
 -2.830000000000000E-002   -7.513239732594512E-023
 -2.820000000000000E-002   -3.974719960523087E-023
 -2.810000000000000E-002    1.982998493044885E-023
 -2.800000000000000E-002    1.080458532380491E-022
 -2.790000000000000E-002    2.276530603169483E-022
 -2.780000000000000E-002    3.784525862816761E-022
 -2.770000000000000E-002    5.558274642146016E-022
 -2.760000000000000E-002    7.491837140310096E-022
 -2.750000000000000E-002    9.404857885343545E-022
 -2.740000000000000E-002    1.103151863884573E-021
 -2.730000000000000E-002    1.201646894053081E-021
 -2.720000000000000E-002    1.192164736014974E-021
 -2.710000000000000E-002    1.024806365055682E-021
 -2.700000000000000E-002    6.476215281487718E-022
 -2.690000000000000E-002    1.276539436659257E-023
 -2.680000000000000E-002   -9.151823420027247E-022
 -2.670000000000000E-002   -2.148989895590654E-021
 -2.660000000000000E-002   -3.667274194487400E-021
 -2.650000000000000E-002   -5.402823393659206E-021
 -2.640000000000000E-002   -7.232294825201400E-021
 -2.630000000000000E-002   -8.969262711837731E-021
 -2.620000000000000E-002   -1.036289543882150E-020
 -2.610000000000000E-002   -1.110459207101095E-020
 -2.600000000000000E-002   -1.084468419803440E-020
 -2.590000000000000E-002   -9.220683357108078E-021
 -2.580000000000000E-002   -5.897483239334514E-021
 -2.570000000000000E-002   -6.184701628866526E-022
 -2.560000000000000E-002    6.735348240370985E-021
 -2.550000000000000E-002    1.608309098787387E-020
 -2.540000000000000E-002    2.708549375072285E-020
 -2.530000000000000E-002    3.909873575400909E-020
 -2.520000000000000E-002    5.115012341254601E-020
 -2.510000000000000E-002    6.194523664460558E-020
 -2.500000000000000E-002    6.991491261302011E-020
 -2.490000000000000E-002    7.330771433572595E-020
 -2.480000000000000E-002    7.032944270171200E-020
 -2.470000000000000E-002    5.932584059658893E-020
 -2.460000000000000E-002    3.899837280479313E-020
 -2.450000000000000E-002    8.636526793482803E-021
 -2.440000000000000E-002   -3.165575253942039E-020
 -2.430000000000000E-002   -8.076618480256737E-020
 -2.420000000000000E-002   -1.364412900805579E-019
 -2.410000000000000E-002   -1.952417557361018E-019
 -2.400000000000000E-002   -2.526080713068395E-019
 -2.390000000000000E-002   -3.030499229019097E-019
 -2.380000000000000E-002   -3.404610800078480E-019
 -2.370000000000000E-002   -3.585475524225165E-019
 -2.360000000000000E-002   -3.513424877225665E-019
 -2.350000000000000E-002   -3.137686221626462E-019
 -2.340000000000000E-002   -2.421996416403735E-019
 -2.330000000000000E-002   -1.349674815608903E-019
 -2.320000000000000E-002    7.234399263320143E-021
 -2.310000000000000E-002    1.810928406474398E-019
 -2.300000000000000E-002    3.805872588092066E-019
 -2.290000000000000E-002    5.970774127713457E-019
 -2.280000000000000E-002    8.195511676758817E-019
 -2.270000000000000E-002    1.034997236544279E-018
 -2.260000000000000E-002    1.228856299902746E-018
 -2.250000000000000E-002    1.385500814119347E-018
 -2.240000000000000E-002    1.488703364907640E-018
 -2.230000000000000E-002    1.522077334057941E-018
 -2.220000000000000E-002    1.469503966978515E-018
 -2.210000000000000E-002    1.315599460388471E-018
 -2.200000000000000E-002    1.046311662325324E-018
 -2.190000000000000E-002    6.497601808571467E-019
 -2.180000000000000E-002    1.174386125982020E-019
 -2.170000000000000E-002   -5.541268360441801E-019
 -2.160000000000000E-002   -1.361227623214014E-018
 -2.150000000000000E-002   -2.290388644674481E-018
 -2.140000000000000E-002   -3.315532692706733E-018
 -2.130000000000000E-002   -4.395207927376144E-018
 -2.120000000000000E-002   -5.470332143866070E-018
 -2.110000000000000E-002   -6.463014609937194E-018
 -2.100000000000000E-002   -7.277061279390745E-018
 -2.090000000000000E-002   -7.800751555023013E-018
 -2.080000000000000E-002   -7.912341964307093E-018
 -2.070000000000000E-002   -7.488522182693838E-018
 -2.060000000000000E-002   -6.415720774854337E-018
 -2.050000000000000E-002   -4.603751384154919E-018
 -2.040000000000000E-002   -2.000843041364317E-018
 -2.030000000000000E-002    1.391317863639677E-018
 -2.020000000000000E-002    5.504248543303788E-018
 -2.010000000000000E-002    1.019294083152941E-017
 -2.000000000000000E-002    1.523161001573386E-017
 -1.990000000000000E-002    2.031655997600484E-017
 -1.980000000000000E-002    2.507722651185382E-017
 -1.970000000000000E-002    2.909575509933157E-017
 -1.960000000000000E-002    3.193446664342529E-017
 -1.950000000000000E-002    3.316961427387171E-017
 -1.940000000000000E-002    3.242881242058868E-017
 -1.930000000000000E-002    2.942876245345584E-017
 -1.920000000000000E-002    2.400940658273561E-017
 -1.910000000000000E-002    1.616062409004917E-017
 -1.900000000000000E-002    6.038022653080148E-018
 -1.890000000000000E-002   -6.034659689233619E-018
 -1.880000000000000E-002   -1.957764619826800E-017
 -1.870000000000000E-002   -3.398111623661763E-017
 -1.860000000000000E-002   -4.854275187115012E-017
 -1.850000000000000E-002   -6.251282962050720E-017
 -1.840000000000000E-002   -7.514168170920425E-017
 -1.830000000000000E-002   -8.572369323545069E-017
 -1.820000000000000E-002   -9.363223728366633E-017
 -1.810000000000000E-002   -9.834117334613953E-017
 -1.800000000000000E-002   -9.943016600240083E-017
 -1.790000000000000E-002   -9.657405282508812E-017
 -1.780000000000000E-002   -8.951904280220005E-017
 -1.770000000000000E-002   -7.805171070708953E-017
 -1.760000000000000E-002   -6.196882693414099E-017
 -1.750000000000000E-002   -4.105775144044090E-017
 -1.740000000000000E-002   -1.509699111533697E-017
 -1.730000000000000E-002    1.611484631089945E-017
 -1.720000000000000E-002    5.269663011157216E-017
 -1.710000000000000E-002    9.458816655048180E-017
 -1.700000000000000E-002    1.414247140004207E-016
 -1.690000000000000E-002    1.923932697398525E-016
 -1.680000000000000E-002    2.460875662326517E-016
 -1.670000000000000E-002    3.003826673649762E-016
 -1.660000000000000E-002    3.523530550954269E-016
 -1.650000000000000E-002    3.982578916818314E-016
 -1.640000000000000E-002    4.336140159915499E-016
 -1.630000000000000E-002    4.533715539562641E-016
 -1.620000000000000E-002    4.521975962555414E-016
 -1.610000000000000E-002    4.248628064105705E-016
 -1.600000000000000E-002    3.667135618337237E-016
 -1.590000000000000E-002    2.741999367335183E-016
 -1.580000000000000E-002    1.454189781264066E-016
 -1.570000000000000E-002   -1.937502662080928E-017
 -1.560000000000000E-002   -2.173462082487698E-016
 -1.550000000000000E-002   -4.427907086746420E-016
 -1.540000000000000E-002   -6.870347275786088E-016
 -1.530000000000000E-002   -9.385529279984730E-016
 -1.520000000000000E-002   -1.183326219635801E-015
 -1.510000000000000E-002   -1.405442014455019E-015
 -1.500000000000000E-002   -1.587913921986570E-015
 -1.490000000000000E-002   -1.713682084498991E-015
 -1.480000000000000E-002   -1.766731243938293E-015
 -1.470000000000000E-002   -1.733250881118057E-015
 -1.460000000000000E-002   -1.602748529294052E-015
 -1.450000000000000E-002   -1.369027907791993E-015
 -1.440000000000000E-002   -1.030946697303036E-015
 -1.430000000000000E-002   -5.928826191247610E-016
 -1.420000000000000E-002   -6.486007172429211E-017
 -1.410000000000000E-002    5.376834370056643E-016
 -1.400000000000000E-002    1.194475498093130E-015
 -1.390000000000000E-002    1.881285558675131E-015
 -1.380000000000000E-002    2.571016286173557E-015
 -1.370000000000000E-002    3.234906881447826E-015
 -1.360000000000000E-002    3.843722226366815E-015
 -1.350000000000000E-002    4.368807825471488E-015
 -1.340000000000000E-002    4.782908406526871E-015
 -1.330000000000000E-002    5.060673299437669E-015
 -1.320000000000000E-002    5.178834509043964E-015
 -1.310000000000000E-002    5.116097920308318E-015
 -1.300000000000000E-002    4.852862277806722E-015
 -1.290000000000000E-002    4.370943236768727E-015
 -1.280000000000000E-002    3.653529662129658E-015
 -1.270000000000000E-002    2.685627955281305E-015
 -1.260000000000000E-002    1.455232460526095E-015
 -1.250000000000000E-002   -4.459181273432265E-017
 -1.240000000000000E-002   -1.812634283444548E-015
 -1.230000000000000E-002   -3.835541927670364E-015
 -1.220000000000000E-002   -6.083146459951633E-015
 -1.210000000000000E-002   -8.503571029715542E-015
 -1.200000000000000E-002   -1.101874659946160E-014
 -1.190000000000000E-002   -1.352113094356294E-014
 -1.180000000000000E-002   -1.587249561628259E-014
 -1.170000000000000E-002   -1.790562225944555E-014
 -1.160000000000000E-002   -1.942963145082297E-014
 -1.150000000000000E-002   -2.023936741395820E-014
 -1.140000000000000E-002   -2.012889228227387E-014
 -1.130000000000000E-002   -1.890864755806005E-014
 -1.120000000000000E-002   -1.642528936752874E-014
 -1.110000000000000E-002   -1.258267160390383E-014
 -1.100000000000000E-002   -7.361986549860519E-015
 -1.090000000000000E-002   -8.387692817028352E-016
 -1.080000000000000E-002    6.805617056819229E-015
 -1.070000000000000E-002    1.528020696920852E-014
 -1.060000000000000E-002    2.419006975542802E-014
 -1.050000000000000E-002    3.305226931800580E-014
 -1.040000000000000E-002    4.132206824444230E-014
 -1.030000000000000E-002    4.842809527226223E-014
 -1.020000000000000E-002    5.381404220060865E-014
 -1.010000000000000E-002    5.698337314473316E-014
 -1.000000000000000E-002    5.754277583746967E-014
 -9.899999999999999E-003    5.523972936461478E-014
 -9.800000000000000E-003    4.998974009775448E-014
 -9.699999999999999E-003    4.188955563470186E-014
 -9.599999999999999E-003    3.121399503376207E-014
 -9.500000000000000E-003    1.839579737758582E-014
 -9.399999999999999E-003    3.989942482358734E-015
 -9.299999999999999E-003   -1.137401758458455E-014
 -9.200000000000000E-003   -2.704623215499289E-014
 -9.099999999999999E-003   -4.241072120223864E-014
 -8.999999999999999E-003   -5.693222118356392E-014
 -8.900000000000000E-003   -7.018882775128668E-014
 -8.799999999999999E-003   -8.188508982740071E-014
 -8.699999999999999E-003   -9.184250839531185E-014
 -8.600000000000000E-003   -9.996753879418633E-014
 -8.499999999999999E-003   -1.062007494224155E-013
 -8.399999999999999E-003   -1.104541941312630E-013
 -8.300000000000000E-003   -1.125470109871266E-013
 -8.199999999999999E-003   -1.121510392152624E-013
 -8.100000000000000E-003   -1.087587317367881E-013
 -8.000000000000000E-003   -1.016841008911413E-013
 -7.899999999999999E-003   -9.010437597831325E-014
 -7.800000000000000E-003   -7.314520904318625E-014
 -7.699999999999999E-003   -5.000620498834042E-014
 -7.599999999999999E-003   -2.011706246858088E-014
 -7.499999999999999E-003    1.669166297261889E-014
 -7.399999999999999E-003    6.002420578366898E-014
 -7.299999999999999E-003    1.087856642490127E-013
 -7.199999999999999E-003    1.611027671843045E-013
 -7.100000000000000E-003    2.143205441808084E-013
 -6.999999999999999E-003    2.650899875138632E-013
 -6.899999999999999E-003    3.095526528707652E-013
 -6.800000000000000E-003    3.436168300430529E-013
 -6.699999999999999E-003    3.633080779663125E-013
 -6.599999999999999E-003    3.651649982368081E-013
 -6.499999999999999E-003    3.466419914282583E-013
 -6.399999999999999E-003    3.064742892463647E-013
 -6.299999999999999E-003    2.449598466813407E-013
 -6.199999999999999E-003    1.641163466929080E-013
 -6.100000000000000E-003    6.768154424914963E-014
 -5.999999999999999E-003   -3.906046556882763E-014
 -5.899999999999999E-003   -1.496260820194674E-013
 -5.800000000000000E-003   -2.568312647049969E-013
 -5.699999999999999E-003   -3.534025692628269E-013
 -5.599999999999999E-003   -4.326432212503942E-013
 -5.499999999999999E-003   -4.890862690470421E-013
 -5.399999999999999E-003   -5.190623529486833E-013
 -5.299999999999999E-003   -5.211140224417217E-013
 -5.199999999999999E-003   -4.962007263294388E-013
 -5.099999999999999E-003   -4.476584603911959E-013
 -4.999999999999999E-003   -3.809043441094822E-013
 -4.899999999999999E-003   -3.029045473027844E-013
 -4.799999999999999E-003   -2.214521698974477E-013
 -4.699999999999999E-003   -1.443276112588626E-013
 -4.599999999999999E-003   -7.842992763360467E-014
 -4.499999999999999E-003   -2.897709693157265E-014
 -4.399999999999999E-003    1.131087946445813E-015
 -4.299999999999999E-003    1.170758687580548E-014
 -4.199999999999999E-003    5.375741827188354E-015
 -4.099999999999999E-003   -1.265206939466877E-014
 -3.999999999999999E-003   -3.510003469679062E-014
 -3.899999999999999E-003   -5.340774264461829E-014
 -3.799999999999999E-003   -5.867963806029726E-014
 -3.699999999999999E-003   -4.269989371423819E-014
 -3.599999999999999E-003    1.101728949740270E-015
 -3.499999999999999E-003    7.684497551106364E-014
 -3.399999999999999E-003    1.856470068199452E-013
 -3.299999999999999E-003    3.253858612605820E-013
 -3.199999999999999E-003    4.908035838156158E-013
 -3.099999999999999E-003    6.739270690776471E-013
 -2.999999999999999E-003    8.647474337537736E-013
 -2.899999999999999E-003    1.052063065828324E-012
 -2.799999999999999E-003    1.224369624989806E-012
 -2.699999999999999E-003    1.370678695526268E-012
 -2.599999999999999E-003    1.481154994193524E-012
 -2.499999999999999E-003    1.547495748969975E-012
 -2.399999999999999E-003    1.563015615802500E-012
 -2.299999999999999E-003    1.522453482283029E-012
 -2.199999999999999E-003    1.421567520045609E-012
 -2.099999999999999E-003    1.256632173355220E-012
 -1.999999999999999E-003    1.023979354143321E-012
 -1.899999999999999E-003    7.197397167990087E-013
 -1.799999999999999E-003    3.399261450280374E-013
 -1.699999999999999E-003   -1.190367364311831E-013
 -1.599999999999999E-003   -6.592904311100391E-013
 -1.499999999999999E-003   -1.280060077953296E-012
 -1.399999999999999E-003   -1.975826384623069E-012
 -1.299999999999999E-003   -2.734347535550948E-012
 -1.199999999999999E-003   -3.534795397217647E-012
 -1.099999999999999E-003   -4.346311417463926E-012
 -9.999999999999989E-004   -5.127300568456369E-012
 -8.999999999999990E-004   -5.825748726153763E-012
 -7.999999999999990E-004   -6.380781230530789E-012
 -6.999999999999989E-004   -6.725577055080909E-012
 -5.999999999999990E-004   -6.791614014862728E-012
 -4.999999999999989E-004   -6.514075808759593E-012
 -3.999999999999989E-004   -5.838092379356906E-012
 -2.999999999999989E-004   -4.725355385691837E-012
 -1.999999999999989E-004   -3.160536295356575E-012
 -9.999999999999892E-005   -1.156881414603185E-012
  1.084202172485504E-018    1.239653592067704E-012
  1.000000000000011E-004    3.948305524496458E-012
  2.000000000000011E-004    6.853908945868422E-012
  3.000000000000011E-004    9.810090888093553E-012
  4.000000000000011E-004    1.264534001401547E-011
  5.000000000000011E-004    1.517178874027251E-011
  6.000000000000011E-004    1.719630822953142E-011
  7.000000000000011E-004    1.853329359766521E-011
  8.000000000000011E-004    1.901832217058112E-011
  9.000000000000012E-004    1.852173032172909E-011
  1.000000000000001E-003    1.696110051709573E-011
  1.100000000000001E-003    1.431164888211701E-011
  1.200000000000001E-003    1.061360029626106E-011
  1.300000000000001E-003    5.975790129378230E-012
  1.400000000000001E-003    5.749724404787186E-013
  1.500000000000001E-003   -5.349429306358326E-012
  1.600000000000001E-003   -1.150507970963771E-011
  1.700000000000001E-003   -1.756064495683252E-011
  1.800000000000001E-003   -2.316321676715858E-011
  1.900000000000001E-003   -2.795833834357330E-011
  2.000000000000001E-003   -3.161151006510910E-011
  2.100000000000001E-003   -3.382992775690607E-011
  2.200000000000001E-003   -3.438309661772810E-011
  2.300000000000001E-003   -3.312103057996263E-011
  2.400000000000001E-003   -2.998876901397058E-011
  2.500000000000001E-003   -2.503615249666987E-011
  2.600000000000001E-003   -1.842199973556039E-011
  2.700000000000001E-003   -1.041212229259074E-011
  2.800000000000001E-003   -1.370925798978239E-012
  2.900000000000001E-003    8.253293296290039E-012
  3.000000000000001E-003    1.794889382828718E-011
  3.100000000000001E-003    2.716646988199051E-011
  3.200000000000001E-003    3.534831827726693E-011
  3.300000000000001E-003    4.196037153132846E-011
  3.400000000000001E-003    4.652494560085853E-011
  3.500000000000001E-003    4.865249266001306E-011
  3.600000000000001E-003    4.807048654965160E-011
  3.700000000000001E-003    4.464758815144671E-011
  3.800000000000001E-003    3.841138053929890E-011
  3.900000000000001E-003    2.955815462795400E-011
  4.000000000000001E-003    1.845360970925947E-011
  4.100000000000001E-003    5.623706393335187E-012
  4.200000000000001E-003   -8.264561313613064E-012
  4.300000000000001E-003   -2.243218056452943E-011
  4.400000000000001E-003   -3.602601953806059E-011
  4.500000000000001E-003   -4.816413699229578E-011
  4.600000000000002E-003   -5.798647562342408E-011
  4.700000000000001E-003   -6.470840951930998E-011
  4.800000000000001E-003   -6.767425298252691E-011
  4.900000000000002E-003   -6.640754382674269E-011
  5.000000000000001E-003   -6.065486936718296E-011
  5.100000000000001E-003   -5.042004897242850E-011
  5.200000000000001E-003   -3.598576831011692E-011
  5.300000000000002E-003   -1.792029015742088E-011
  5.400000000000001E-003    2.932545137952653E-012
  5.500000000000001E-003    2.548090379252858E-011
  5.600000000000002E-003    4.843007975535562E-011
  5.700000000000001E-003    7.034401295795939E-011
  5.800000000000001E-003    8.972098009956641E-011
  5.900000000000002E-003    1.050801592440361E-010
  6.000000000000001E-003    1.150547611953376E-010
  6.100000000000001E-003    1.184866768228706E-010
  6.200000000000002E-003    1.145169507957897E-010
  6.300000000000002E-003    1.026661727264356E-010
  6.400000000000001E-003    8.289886318228709E-011
  6.500000000000001E-003    5.566651385931991E-011
  6.600000000000002E-003    2.192459976881952E-011
  6.700000000000001E-003   -1.687974541993788E-011
  6.800000000000001E-003   -5.885131809118429E-011
  6.900000000000002E-003   -1.017217150812565E-010
  7.000000000000001E-003   -1.429536478553023E-010
  7.100000000000001E-003   -1.798707408376400E-010
  7.200000000000002E-003   -2.098070170483469E-010
  7.300000000000002E-003   -2.302685094414058E-010
  7.400000000000001E-003   -2.390979930157662E-010
  7.500000000000001E-003   -2.346330491896009E-010
  7.600000000000002E-003   -2.158470942487598E-010
  7.700000000000001E-003   -1.824635721991277E-010
  7.800000000000001E-003   -1.350341776960381E-010
  7.900000000000001E-003   -7.497363824766472E-011
  8.000000000000002E-003   -4.545912324782332E-012
  8.100000000000001E-003    7.320095589837592E-011
  8.200000000000001E-003    1.545508509439366E-010
  8.300000000000002E-003    2.352829237425548E-010
  8.400000000000001E-003    3.108755593529781E-010
  8.500000000000002E-003    3.767412965405749E-010
  8.600000000000002E-003    4.284805813034673E-010
  8.700000000000001E-003    4.621404021339252E-010
  8.800000000000002E-003    4.744627293957316E-010
  8.900000000000002E-003    4.631074108546519E-010
  9.000000000000001E-003    4.268349317504601E-010
  9.100000000000002E-003    3.656363564599692E-010
  9.200000000000002E-003    2.807997901993569E-010
  9.300000000000001E-003    1.749067870291721E-010
  9.400000000000002E-003    5.175521765289640E-011
  9.500000000000001E-003   -8.378978591402238E-011
  9.600000000000001E-003   -2.260113641500381E-010
  9.700000000000002E-003   -3.686127237717984E-010
  9.800000000000001E-003   -5.050315676653817E-010
  9.900000000000001E-003   -6.287797013388596E-010
  1.000000000000000E-002   -7.337888006701822E-010
  1.010000000000000E-002   -8.147415801684351E-010
  1.020000000000000E-002   -8.673677751906828E-010
  1.030000000000000E-002   -8.886858780158970E-010
  1.040000000000000E-002   -8.771741393441612E-010
  1.050000000000000E-002   -8.328579234514623E-010
  1.060000000000000E-002   -7.573055744364272E-010
  1.070000000000000E-002   -6.535303877660361E-010
  1.080000000000000E-002   -5.258023441747171E-010
  1.090000000000000E-002   -3.793790242204978E-010
  1.100000000000000E-002   -2.201712477892738E-010
  1.110000000000000E-002   -5.436366711671945E-011
  1.120000000000000E-002    1.119854928232550E-010
  1.130000000000000E-002    2.733386943300652E-010
  1.140000000000000E-002    4.250391434538626E-010
  1.150000000000000E-002    5.636105188000401E-010
  1.160000000000000E-002    6.869711729830826E-010
  1.170000000000000E-002    7.945435860100056E-010
  1.180000000000000E-002    8.872434737561759E-010
  1.190000000000000E-002    9.673429304783396E-010
  1.200000000000000E-002    1.038207049675649E-009
  1.210000000000000E-002    1.103913139343523E-009
  1.220000000000000E-002    1.168769879332826E-009
  1.230000000000000E-002    1.236760549192728E-009
  1.240000000000000E-002    1.310942560144889E-009
  1.250000000000000E-002    1.392838519820416E-009
  1.260000000000000E-002    1.481860372580372E-009
  1.270000000000000E-002    1.574806638895579E-009
  1.280000000000000E-002    1.665476125991695E-009
  1.290000000000000E-002    1.744435249855957E-009
  1.300000000000000E-002    1.798974153175744E-009
  1.310000000000000E-002    1.813279881794474E-009
  1.320000000000000E-002    1.768846942803983E-009
  1.330000000000000E-002    1.645136608153906E-009
  1.340000000000000E-002    1.420485578468659E-009
  1.350000000000000E-002    1.073257095169366E-009
  1.360000000000000E-002    5.832132702096583E-010
  1.370000000000000E-002   -6.692304102851225E-011
  1.380000000000000E-002   -8.897534028663541E-010
  1.390000000000000E-002   -1.891387730366793E-009
  1.400000000000000E-002   -3.069582408734397E-009
  1.410000000000000E-002   -4.411893138546855E-009
  1.420000000000000E-002   -5.893907649148556E-009
  1.430000000000000E-002   -7.477626916819586E-009
  1.440000000000000E-002   -9.110053475256094E-009
  1.450000000000000E-002   -1.072204535534024E-008
  1.460000000000000E-002   -1.222749216999499E-008
  1.470000000000000E-002   -1.352284387102416E-008
  1.480000000000000E-002   -1.448701865003008E-008
  1.490000000000000E-002   -1.498170309952780E-008
  1.500000000000000E-002   -1.485202904258778E-008
  1.510000000000000E-002   -1.392760852044612E-008
  1.520000000000000E-002   -1.202386831673680E-008
  1.530000000000000E-002   -8.943632399384363E-009
  1.540000000000000E-002   -4.478867373680727E-009
  1.550000000000000E-002    1.587493362810369E-009
  1.560000000000000E-002    9.479742011194781E-009
  1.570000000000000E-002    1.942770947711769E-008
  1.580000000000000E-002    3.166529457867545E-008
  1.590000000000000E-002    4.642927035604119E-008
  1.600000000000000E-002    6.395850396509806E-008
  1.610000000000000E-002    8.449356440017682E-008
  1.620000000000000E-002    1.082768076618264E-007
  1.630000000000000E-002    1.355529591784047E-007
  1.640000000000000E-002    1.665701118377957E-007
  1.650000000000000E-002    2.015811947954568E-007
  1.660000000000000E-002    2.408458202218473E-007
  1.670000000000000E-002    2.846323783295635E-007
  1.680000000000000E-002    3.332204029488005E-007
  1.690000000000000E-002    3.869029985019696E-007
  1.700000000000000E-002    4.459893254274312E-007
  1.710000000000000E-002    5.108070931172561E-007
  1.720000000000000E-002    5.817047335466216E-007
  1.730000000000000E-002    6.590533815476304E-007
  1.740000000000000E-002    7.432487693084406E-007
  1.750000000000000E-002    8.347124526829823E-007
  1.760000000000000E-002    9.338930909560823E-007
  1.770000000000000E-002    1.041267064857936E-006
  1.780000000000000E-002    1.157338913037324E-006
  1.790000000000000E-002    1.282641582955889E-006
  1.800000000000000E-002    1.417736341916351E-006
  1.810000000000000E-002    1.563212825545535E-006
  1.820000000000000E-002    1.719688332192513E-006
  1.830000000000000E-002    1.887808243830557E-006
  1.840000000000000E-002    2.068245420102082E-006
  1.850000000000000E-002    2.261700730634961E-006
  1.860000000000000E-002    2.468902965002361E-006
  1.870000000000000E-002    2.690610386242365E-006