 -4.000000000000000E-002    0.000000000000000E+000
 -3.990000000000000E-002    0.000000000000000E+000
 -3.980000000000000E-002    0.000000000000000E+000
 -3.970000000000000E-002    0.000000000000000E+000
 -3.960000000000000E-002    0.000000000000000E+000
 -3.950000000000000E-002    0.000000000000000E+000
 -3.940000000000000E-002    0.000000000000000E+000
 -3.930000000000000E-002    0.000000000000000E+000
 -3.920000000000000E-002    0.000000000000000E+000
 -3.910000000000000E-002    0.000000000000000E+000
 -3.900000000000000E-002    0.000000000000000E+000
 -3.890000000000000E-002    0.000000000000000E+000
 -3.880000000000000E-002    0.000000000000000E+000
 -3.870000000000000E-002    0.000000000000000E+000
 -3.860000000000000E-002    0.000000000000000E+000
 -3.850000000000000E-002    0.000000000000000E+000
 -3.840000000000000E-002    0.000000000000000E+000
 -3.830000000000000E-002    0.000000000000000E+000
 -3.820000000000000E-002    0.000000000000000E+000
 -3.810000000000000E-002    0.000000000000000E+000
 -3.800000000000000E-002    0.000000000000000E+000
 -3.790000000000000E-002    0.000000000000000E+000
 -3.780000000000000E-002    0.000000000000000E+000
 -3.770000000000000E-002    0.000000000000000E+000
 -3.760000000000000E-002    0.000000000000000E+000
 -3.750000000000000E-002    0.000000000000000E+000
 -3.740000000000000E-002    0.000000000000000E+000
 -3.730000000000000E-002    0.000000000000000E+000
 -3.720000000000000E-002    1.439227483925885E-048
 -3.710000000000000E-002    1.285582418617540E-047
 -3.700000000000000E-002    3.818122949055095E-047
 -3.690000000000000E-002    1.204798176300837E-046
 -3.680000000000000E-002    3.510641402177761E-046
 -3.670000000000000E-002    9.639835190616024E-046
 -3.660000000000000E-002    2.553644867293402E-045
 -3.650000000000000E-002    7.742790574593358E-045
 -3.640000000000000E-002    1.893735532506900E-044
 -3.630000000000000E-002    4.320454389864773E-044
 -3.620000000000000E-002    9.444268006561809E-044
 -3.610000000000000E-002    1.972613294458326E-043
 -3.600000000000000E-002    3.953701980759744E-043
 -3.590000000000000E-002    7.541520586200940E-043
 -3.580000000000000E-002    1.362847719327783E-042
 -3.570000000000000E-002    2.316786811197729E-042
 -3.560000000000000E-002    3.651591064545568E-042
 -3.550000000000000E-002    5.189734893331580E-042
 -3.540000000000000E-002    6.212250372538103E-042
 -3.530000000000000E-002    4.850690589679333E-042
 -3.520000000000000E-002   -2.962126246635787E-042
 -3.510000000000000E-002   -2.513793284962745E-041
 -3.500000000000000E-002   -7.580062572977041E-041
 -3.490000000000000E-002   -1.783054670685544E-040
 -3.480000000000000E-002   -3.684692043888421E-040
 -3.470000000000000E-002   -6.968206183012639E-040
 -3.460000000000000E-002   -1.227566285417838E-039
 -3.450000000000000E-002   -2.030344812466354E-039
 -3.440000000000000E-002   -3.158912888626848E-039
 -3.430000000000000E-002   -4.609057283151752E-039
 -3.420000000000000E-002   -6.247147356808164E-039
 -3.410000000000000E-002   -7.702170962060342E-039
 -3.400000000000000E-002   -8.220000819098044E-039
 -3.390000000000000E-002   -6.491135528308749E-039
 -3.380000000000000E-002   -4.845613745436030E-040
 -3.370000000000000E-002    1.264896590054402E-038
 -3.360000000000000E-002    3.650358458927319E-038
 -3.350000000000000E-002    7.503893598792825E-038
 -3.340000000000000E-002    1.317418389091582E-037
 -3.330000000000000E-002    2.082044319289909E-037
 -3.320000000000000E-002    3.021022956720824E-037
 -3.310000000000000E-002    4.047849512090407E-037
 -3.300000000000000E-002    4.990672634901707E-037
 -3.290000000000000E-002    5.583368561551522E-037
 -3.280000000000000E-002    5.487099513034821E-037
 -3.270000000000000E-002    4.365105028445363E-037
 -3.260000000000000E-002    2.035341719878995E-037
 -3.250000000000000E-002   -1.280670962911650E-037
 -3.240000000000000E-002   -4.614508771406544E-037
 -3.230000000000000E-002   -5.855479329600869E-037
 -3.220000000000000E-002   -1.411799003848520E-037
 -3.210000000000000E-002    1.386864252330779E-036
 -3.200000000000000E-002    4.619851453462137E-036
 -3.190000000000000E-002    1.013330204250659E-035
 -3.180000000000000E-002    1.814986861004139E-035
 -3.170000000000000E-002    2.802258569075929E-035
 -3.160000000000000E-002    3.746744135247190E-035
 -3.150000000000000E-002    4.154174196547963E-035
 -3.140000000000000E-002    3.143340843822798E-035
 -3.130000000000000E-002   -6.766481401977926E-036
 -3.120000000000000E-002   -9.298772851401798E-035
 -3.110000000000000E-002   -2.532985710372513E-034
 -3.100000000000000E-002   -5.185065124245675E-034
 -3.090000000000000E-002   -9.203335384313413E-034
 -3.080000000000000E-002   -1.484095699906847E-033
 -3.070000000000000E-002   -2.216740169252833E-033
 -3.060000000000000E-002   -3.089167895474611E-033
 -3.050000000000000E-002   -4.012050007245373E-033
 -3.040000000000000E-002   -4.804894745011871E-033
 -3.030000000000000E-002   -5.159048040182190E-033
 -3.020000000000000E-002   -4.596820132507572E-033
 -3.010000000000000E-002   -2.431011567038321E-033
 -3.000000000000000E-002    2.267552455446831E-033
 -2.990000000000000E-002    1.068226019632591E-032
 -2.980000000000000E-002    2.422380741452934E-032
 -2.970000000000000E-002    4.443603411533714E-032
 -2.960000000000000E-002    7.279509010580966E-032
 -2.950000000000000E-002    1.103484986139908E-031
 -2.940000000000000E-002    1.571280387171418E-031
 -2.930000000000000E-002    2.112611303449031E-031
 -2.920000000000000E-002    2.677111711562840E-031
 -2.910000000000000E-002    3.166027481112133E-031
 -2.900000000000000E-002    3.411584203937800E-031
 -2.890000000000000E-002    3.153973475454648E-031
 -2.880000000000000E-002    2.019476671438356E-031
 -2.870000000000000E-002   -4.938459966763124E-032
 -2.860000000000000E-002   -5.012770172875587E-031
 -2.850000000000000E-002   -1.225336880050644E-030
 -2.840000000000000E-002   -2.293466670011648E-030
 -2.830000000000000E-002   -3.761993832934673E-030
 -2.820000000000000E-002   -5.646417100324907E-030
 -2.810000000000000E-002   -7.885169277197314E-030
 -2.800000000000000E-002   -1.029215807167281E-029
 -2.790000000000000E-002   -1.250027709284598E-029
 -2.780000000000000E-002   -1.390177734697091E-029
 -2.770000000000000E-002   -1.359644988368654E-029
 -2.760000000000000E-002   -1.036467019115918E-029
 -2.750000000000000E-002   -2.688848450938047E-030
 -2.740000000000000E-002    1.114730112529111E-029
 -2.730000000000000E-002    3.284917047010462E-029
 -2.720000000000000E-002    6.376040064216170E-029
 -2.710000000000000E-002    1.043491316143253E-028
 -2.700000000000000E-002    1.535295488635069E-028
 -2.690000000000000E-002    2.078491318434512E-028
 -2.680000000000000E-002    2.606180439180106E-028
 -2.670000000000000E-002    3.011153381911859E-028
 -2.660000000000000E-002    3.140720282754042E-028
 -2.650000000000000E-002    2.796956929808399E-028
 -2.640000000000000E-002    1.745507698560055E-028
 -2.630000000000000E-002   -2.637439470981765E-029
 -2.620000000000000E-002   -3.461187169244451E-028
 -2.610000000000000E-002   -8.005353103666666E-028
 -2.600000000000000E-002   -1.391435806295907E-027
 -2.590000000000000E-002   -2.098424180771334E-027
 -2.580000000000000E-002   -2.870159093853061E-027
 -2.570000000000000E-002   -3.616268112132034E-027
 -2.560000000000000E-002   -4.201639159872412E-027
 -2.550000000000000E-002   -4.445273823432334E-027
 -2.540000000000000E-002   -4.126162838188339E-027
 -2.530000000000000E-002   -2.998655276382853E-027
 -2.520000000000000E-002   -8.193631941312627E-028
 -2.510000000000000E-002    2.613315383590604E-027
 -2.500000000000000E-002    7.407544950917663E-027
 -2.490000000000000E-002    1.351697396045632E-026
 -2.480000000000000E-002    2.067562176397391E-026
 -2.470000000000000E-002    2.833713202679243E-026
 -2.460000000000000E-002    3.562971989034281E-026
 -2.450000000000000E-002    4.134040957773836E-026
 -2.440000000000000E-002    4.394329083346230E-026
 -2.430000000000000E-002    4.168570817719289E-026
 -2.420000000000000E-002    3.274308880332926E-026
 -2.410000000000000E-002    1.544694509428220E-026
 -2.400000000000000E-002   -1.141860854961316E-026
 -2.390000000000000E-002   -4.826826554163984E-026
 -2.380000000000000E-002   -9.434510680944909E-026
 -2.370000000000000E-002   -1.473726916627692E-025
 -2.360000000000000E-002   -2.032864787162943E-025
 -2.350000000000000E-002   -2.561098219192280E-025
 -2.340000000000000E-002   -2.980418338936931E-025
 -2.330000000000000E-002   -3.198167219482701E-025
 -2.320000000000000E-002   -3.113764551377760E-025
 -2.310000000000000E-002   -2.628685525137793E-025
 -2.300000000000000E-002   -1.659401527105666E-025
 -2.290000000000000E-002   -1.525051454090186E-026
 -2.280000000000000E-002    1.899276733094911E-025
 -2.270000000000000E-002    4.441979318103662E-025
 -2.260000000000000E-002    7.348374528848304E-025
 -2.250000000000000E-002    1.041139225511718E-024
 -2.240000000000000E-002    1.334525727594934E-024
 -2.230000000000000E-002    1.579620619906353E-024
 -2.220000000000000E-002    1.736386879745362E-024
 -2.210000000000000E-002    1.763328904092746E-024
 -2.200000000000000E-002    1.621620546924746E-024
 -2.190000000000000E-002    1.279874069430723E-024
 -2.180000000000000E-002    7.191205006039430E-025
 -2.170000000000000E-002   -6.253544516811961E-026
 -2.160000000000000E-002   -1.046191027821611E-024
 -2.150000000000000E-002   -2.189941319561202E-024
 -2.140000000000000E-002   -3.428696385897134E-024
 -2.130000000000000E-002   -4.676339080924245E-024
 -2.120000000000000E-002   -5.830286821184425E-024
 -2.110000000000000E-002   -6.778213311323623E-024
 -2.100000000000000E-002   -7.406367945697901E-024
 -2.090000000000000E-002   -7.608640882630781E-024
 -2.080000000000000E-002   -7.295331411370756E-024
 -2.070000000000000E-002   -6.400540388522600E-024
 -2.060000000000000E-002   -4.887204859372620E-024
 -2.050000000000000E-002   -2.749153720977657E-024
 -2.040000000000000E-002   -1.004636472937695E-026
 -2.030000000000000E-002    3.280304688478722E-024
 -2.020000000000000E-002    7.051051247917470E-024
 -2.010000000000000E-002    1.121509572784923E-023
 -2.000000000000000E-002    1.567141494078076E-023
 -1.990000000000000E-002    2.030274133096182E-023
 -1.980000000000000E-002    2.496690288617233E-023
 -1.970000000000000E-002    2.948106196270341E-023
 -1.960000000000000E-002    3.359959950992663E-023
 -1.950000000000000E-002    3.698822451547063E-023
 -1.940000000000000E-002    3.919901341036962E-023
 -1.930000000000000E-002    3.965290185874216E-023
 -1.920000000000000E-002    3.763760728975821E-023
 -1.910000000000000E-002    3.232944948100427E-023
 -1.900000000000000E-002    2.284661195288031E-023
 -1.890000000000000E-002    8.339023507647547E-024
 -1.880000000000000E-002   -1.188411760626581E-023
 -1.870000000000000E-002   -3.819377357999697E-023
 -1.860000000000000E-002   -7.045883319130487E-023
 -1.850000000000000E-002   -1.078607730875171E-022
 -1.840000000000000E-002   -1.487302518429267E-022
 -1.830000000000000E-002   -1.904355331951771E-022
 -1.820000000000000E-002   -2.293544114924214E-022
 -1.810000000000000E-002   -2.609591420744323E-022
 -1.800000000000000E-002   -2.800366041378900E-022
 -1.790000000000000E-002   -2.810540600467480E-022
 -1.780000000000000E-002   -2.586641501296431E-022
 -1.770000000000000E-002   -2.083224191469129E-022
 -1.760000000000000E-002   -1.269700583469155E-022
 -1.750000000000000E-002   -1.371376584986999E-023
 -1.740000000000000E-002    1.295794097285425E-022
 -1.730000000000000E-002    2.978624877663941E-022
 -1.720000000000000E-002    4.827500031956230E-022
 -1.710000000000000E-002    6.726909695676261E-022
 -1.700000000000000E-002    8.535126515980482E-022
 -1.690000000000000E-002    1.009334988830490E-021
 -1.680000000000000E-002    1.123804599437752E-021
 -1.670000000000000E-002    1.181545064668180E-021
 -1.660000000000000E-002    1.169673304875785E-021
 -1.650000000000000E-002    1.079197845276620E-021
 -1.640000000000000E-002    9.060975244014927E-022
 -1.630000000000000E-002    6.518992459934845E-022
 -1.620000000000000E-002    3.236148653728329E-022
 -1.610000000000000E-002   -6.702238435592272E-023
 -1.600000000000000E-002   -5.049765687210681E-022
 -1.590000000000000E-002   -9.738168232283258E-022
 -1.580000000000000E-002   -1.457827957393446E-021
 -1.570000000000000E-002   -1.943936339339388E-021
 -1.560000000000000E-002   -2.423004244770250E-021
 -1.550000000000000E-002   -2.890049558909903E-021
 -1.540000000000000E-002   -3.343034940458648E-021
 -1.530000000000000E-002   -3.780029499485479E-021
 -1.520000000000000E-002   -4.194806716433672E-021
 -1.510000000000000E-002   -4.571251435517798E-021
 -1.500000000000000E-002   -4.877290696584568E-021
 -1.490000000000000E-002   -5.059390175830932E-021
 -1.480000000000000E-002   -5.038911110480421E-021
 -1.470000000000000E-002   -4.711731499041611E-021
 -1.460000000000000E-002   -3.952463689343751E-021
 -1.450000000000000E-002   -2.624290049103921E-021
 -1.440000000000000E-002   -5.948805971889228E-022
 -1.430000000000000E-002    2.241932627706630E-021
 -1.420000000000000E-002    5.940014436646621E-021
 -1.410000000000000E-002    1.047265815434219E-020
 -1.400000000000000E-002    1.570552056293930E-020
 -1.390000000000000E-002    2.137487627787096E-020
 -1.380000000000000E-002    2.707573744465072E-020
 -1.370000000000000E-002    3.226424832001457E-020
 -1.360000000000000E-002    3.627806337467451E-020
 -1.350000000000000E-002    3.837694173571308E-020
 -1.340000000000000E-002    3.780377112044894E-020
 -1.330000000000000E-002    3.386362273840171E-020
 -1.320000000000000E-002    2.601560301949506E-020
 -1.310000000000000E-002    1.396942368673058E-020
 -1.300000000000000E-002   -2.223707227847928E-021
 -1.290000000000000E-002   -2.209786330280161E-020
 -1.280000000000000E-002   -4.472914321251297E-020
 -1.270000000000000E-002   -6.873351114140939E-020
 -1.260000000000000E-002   -9.231406510179335E-020
 -1.250000000000000E-002   -1.133617396942513E-019
 -1.240000000000000E-002   -1.296076906805330E-019
 -1.230000000000000E-002   -1.388192337875683E-019
 -1.220000000000000E-002   -1.390245600835333E-019
 -1.210000000000000E-002   -1.287457237834356E-019
 -1.200000000000000E-002   -1.072148986088205E-019
 -1.190000000000000E-002   -7.454736180697049E-020
 -1.180000000000000E-002   -3.184570067775555E-020
 -1.170000000000000E-002    1.878577582124725E-020
 -1.160000000000000E-002    7.432957807022228E-020
 -1.150000000000000E-002    1.310490040914154E-019
 -1.140000000000000E-002    1.847779145117316E-019
 -1.130000000000000E-002    2.312837647712313E-019
 -1.120000000000000E-002    2.666697575074768E-019
 -1.110000000000000E-002    2.877733539717366E-019
 -1.100000000000000E-002    2.925139433693839E-019
 -1.090000000000000E-002    2.801435467498246E-019
 -1.080000000000000E-002    2.513620847387413E-019
 -1.070000000000000E-002    2.082714415887507E-019
 -1.060000000000000E-002    1.541612618072969E-019
 -1.050000000000000E-002    9.314017901446799E-020
 -1.040000000000000E-002    2.964849065456756E-020
 -1.030000000000000E-002   -3.209238426375969E-020
 -1.020000000000000E-002   -8.862398279877891E-020
 -1.010000000000000E-002   -1.377118667234347E-019
 -1.000000000000000E-002   -1.786508938273478E-019
 -9.899999999999999E-003   -2.123554405474518E-019
 -9.800000000000000E-003   -2.411995145597898E-019
 -9.699999999999999E-003   -2.686032250002634E-019
 -9.599999999999999E-003   -2.983990949078158E-019
 -9.500000000000000E-003   -3.340477742984168E-019
 -9.399999999999999E-003   -3.778045866663936E-019
 -9.299999999999999E-003   -4.299591249576730E-019
 -9.200000000000000E-003   -4.882769118928355E-019
 -9.099999999999999E-003   -5.477612371722249E-019
 -8.999999999999999E-003   -6.008218713616195E-019
 -8.900000000000000E-003   -6.378911465618090E-019
 -8.799999999999999E-003   -6.484672285504630E-019
 -8.699999999999999E-003   -6.224946682403296E-019
 -8.600000000000000E-003   -5.519300393283673E-019
 -8.499999999999999E-003   -4.322827864344116E-019
 -8.399999999999999E-003   -2.638892380841340E-019
 -8.300000000000000E-003   -5.267314476058469E-020
 -8.199999999999999E-003    1.898233609990258E-019
 -8.100000000000000E-003    4.472861916907378E-019
 -8.000000000000000E-003    7.003988867705660E-019
 -7.899999999999999E-003    9.294518546999667E-019
 -7.800000000000000E-003    1.117561747535725E-018
 -7.699999999999999E-003    1.254130985383306E-018
 -7.599999999999999E-003    1.338059002162183E-018
 -7.499999999999999E-003    1.380132772035607E-018
 -7.399999999999999E-003    1.404010782186158E-018
 -7.299999999999999E-003    1.445278263968748E-018
 -7.199999999999999E-003    1.548191840264225E-018
 -7.100000000000000E-003    1.759959657854251E-018
 -6.999999999999999E-003    2.122717736382771E-018
 -6.899999999999999E-003    2.663712544738733E-018
 -6.800000000000000E-003    3.384578449285747E-018
 -6.699999999999999E-003    4.250954553010301E-018
 -6.599999999999999E-003    5.183964951881709E-018
 -6.499999999999999E-003    6.055244639880430E-018
 -6.399999999999999E-003    6.687185648474775E-018
 -6.299999999999999E-003    6.859851330320828E-018
 -6.199999999999999E-003    6.325560644842509E-018
 -6.100000000000000E-003    4.831481728416045E-018
 -5.999999999999999E-003    2.149642706291512E-018
 -5.899999999999999E-003   -1.887163458029757E-018
 -5.800000000000000E-003   -7.346297141710280E-018
 -5.699999999999999E-003   -1.415666668860500E-017
 -5.599999999999999E-003   -2.207514802215132E-017
 -5.499999999999999E-003   -3.066309414555846E-017
 -5.399999999999999E-003   -3.927807015774359E-017
 -5.299999999999999E-003   -4.708545955289449E-017
 -5.199999999999999E-003   -5.309349721882256E-017
 -5.099999999999999E-003   -5.621356300299006E-017
 -4.999999999999999E-003   -5.534520655510002E-017
 -4.899999999999999E-003   -4.948269153208945E-017
 -4.799999999999999E-003   -3.783686256317689E-017
 -4.699999999999999E-003   -1.996319402965293E-017
 -4.599999999999999E-003    4.115587584998781E-018
 -4.499999999999999E-003    3.380576775640170E-017
 -4.399999999999999E-003    6.787196657723061E-017
 -4.299999999999999E-003    1.044130977567474E-016
 -4.199999999999999E-003    1.408964872449767E-016
 -4.099999999999999E-003    1.742579043088833E-016
 -3.999999999999999E-003    2.010702976542968E-016
 -3.899999999999999E-003    2.177777244295437E-016
 -3.799999999999999E-003    2.209839286320559E-016
 -3.699999999999999E-003    2.077782787022180E-016
 -3.599999999999999E-003    1.760750502476076E-016
 -3.499999999999999E-003    1.249372295254308E-016
 -3.399999999999999E-003    5.485310932781840E-017
 -3.299999999999999E-003   -3.206665044724402E-017
 -3.199999999999999E-003   -1.320007051137400E-016
 -3.099999999999999E-003   -2.394611408792113E-016
 -2.999999999999999E-003   -3.474845971120173E-016
 -2.899999999999999E-003   -4.479738252956012E-016
 -2.799999999999999E-003   -5.321802644176857E-016
 -2.699999999999999E-003   -5.913045845375833E-016
 -2.599999999999999E-003   -6.171795633178806E-016
 -2.499999999999999E-003   -6.029887119047333E-016
 -2.399999999999999E-003   -5.439664688656811E-016
 -2.299999999999999E-003   -4.380219128502981E-016
 -2.199999999999999E-003   -2.862290784505703E-016
 -2.099999999999999E-003   -9.313310682071179E-017
 -1.999999999999999E-003    1.331687983719244E-016
 -1.899999999999999E-003    3.811972992544033E-016
 -1.799999999999999E-003    6.365211412960531E-016
 -1.699999999999999E-003    8.824379276038610E-016
 -1.599999999999999E-003    1.100878135068111E-015
 -1.499999999999999E-003    1.273486904267781E-015
 -1.399999999999999E-003    1.382825907224866E-015
 -1.299999999999999E-003    1.413626951239246E-015
 -1.199999999999999E-003    1.354022337685264E-015
 -1.099999999999999E-003    1.196677662117940E-015
 -9.999999999999989E-004    9.397545551077297E-016
 -8.999999999999990E-004    5.876371182993852E-016
 -7.999999999999990E-004    1.513649988303946E-016
 -6.999999999999989E-004   -3.512733125897647E-016
 -5.999999999999990E-004   -8.960220478966422E-016
 -4.999999999999989E-004   -1.452837644473486E-015
 -3.999999999999989E-004   -1.986975981947882E-015
 -2.999999999999989E-004   -2.460483278959999E-015
 -1.999999999999989E-004   -2.834070170554495E-015
 -9.999999999999892E-005   -3.069330096354541E-015
  1.084202172485504E-018   -3.131239624633167E-015
  1.000000000000011E-004   -2.990852155522120E-015
  2.000000000000011E-004   -2.628064850781649E-015
  3.000000000000011E-004   -2.034309975317365E-015
  4.000000000000011E-004   -1.214984290170269E-015
  5.000000000000011E-004   -1.914083805691874E-016
  6.000000000000011E-004    9.979148290790049E-016
  7.000000000000011E-004    2.296974240937042E-015
  8.000000000000011E-004    3.633075701895609E-015
  9.000000000000012E-004    4.918997445368150E-015
  1.000000000000001E-003    6.056591061102503E-015
  1.100000000000001E-003    6.941845550364002E-015
  1.200000000000001E-003    7.471328733586142E-015
  1.300000000000001E-003    7.549772221540759E-015
  1.400000000000001E-003    7.098435384978072E-015
  1.500000000000001E-003    6.063733008837871E-015
  1.600000000000001E-003    4.425501245992443E-015
  1.700000000000001E-003    2.204177205319545E-015
  1.800000000000001E-003   -5.338721375137423E-016
  1.900000000000001E-003   -3.673618649342317E-015
  2.000000000000001E-003   -7.051900631327144E-015
  2.100000000000001E-003   -1.046171797350999E-014
  2.200000000000001E-003   -1.366056870043458E-014
  2.300000000000001E-003   -1.638283055631301E-014
  2.400000000000001E-003   -1.835584366282969E-014
  2.500000000000001E-003   -1.931902008940865E-014
  2.600000000000001E-003   -1.904495123685886E-014
  2.700000000000001E-003   -1.736118863241525E-014
  2.800000000000001E-003   -1.417113119978517E-014
  2.900000000000001E-003   -9.472302432180342E-015
  3.000000000000001E-003   -3.370291347556367E-015
  3.100000000000001E-003    3.913278445507382E-015
  3.200000000000001E-003    1.204013973164302E-014
  3.300000000000001E-003    2.056313635318597E-014
  3.400000000000001E-003    2.894286199097831E-014
  3.500000000000001E-003    3.657309808187018E-014
  3.600000000000001E-003    4.281435462310898E-014
  3.700000000000001E-003    4.703410533910621E-014
  3.800000000000001E-003    4.865175056898122E-014
  3.900000000000001E-003    4.718570664799760E-014
  4.000000000000001E-003    4.229965972685856E-014
  4.100000000000001E-003    3.384469695426059E-014
  4.200000000000001E-003    2.189398811272846E-014
  4.300000000000001E-003    6.766781726824623E-015
  4.400000000000001E-003   -1.096113188278493E-014
  4.500000000000001E-003   -3.046279030786111E-014
  4.600000000000002E-003   -5.068278940667442E-014
  4.700000000000001E-003   -7.037793573599684E-014
  4.800000000000001E-003   -8.817529925041380E-014
  4.900000000000002E-003   -1.026460401821814E-013
  5.000000000000001E-003   -1.123920833168980E-013
  5.100000000000001E-003   -1.161416900487273E-013
  5.200000000000001E-003   -1.128488469138077E-013
  5.300000000000002E-003   -1.017906077207494E-013
  5.400000000000001E-003   -8.265588711330087E-014
  5.500000000000001E-003   -5.561897746512313E-014
  5.600000000000002E-003   -2.139108476723207E-014
  5.700000000000001E-003    1.875616004906108E-014
  5.800000000000001E-003    6.300040427932703E-014
  5.900000000000002E-003    1.090152138202173E-013
  6.000000000000001E-003    1.540554663304522E-013
  6.100000000000001E-003    1.950811703422133E-013
  6.200000000000002E-003    2.289167831459615E-013
  6.300000000000002E-003    2.524404629444094E-013
  6.400000000000001E-003    2.627949006553030E-013
  6.500000000000001E-003    2.576089299100626E-013
  6.600000000000002E-003    2.352166587269079E-013
  6.700000000000001E-003    1.948595333866265E-013
  6.800000000000001E-003    1.368554308166956E-013
  6.900000000000002E-003    6.271908071956214E-014
  7.000000000000001E-003   -2.478088009833949E-014
  7.100000000000001E-003   -1.216407317208985E-013
  7.200000000000002E-003   -2.227255498697204E-013
  7.300000000000002E-003   -3.219626708761588E-013
  7.400000000000001E-003   -4.126240483296444E-013
  7.500000000000001E-003   -4.876901703943495E-013
  7.600000000000002E-003   -5.402821095759021E-013
  7.700000000000001E-003   -5.641411154027582E-013
  7.800000000000001E-003   -5.541295550990350E-013
  7.900000000000001E-003   -5.067212549058154E-013
  8.000000000000002E-003   -4.204462624911910E-013
  8.100000000000001E-003   -2.962529618074020E-013
  8.200000000000001E-003   -1.377513838772345E-013
  8.300000000000002E-003    4.869479089560096E-014
  8.400000000000001E-003    2.540541589597722E-013
  8.500000000000002E-003    4.669086181150220E-013
  8.600000000000002E-003    6.739352260900083E-013
  8.700000000000001E-003    8.605814080783010E-013
  8.800000000000002E-003    1.011910388779716E-012
  8.900000000000002E-003    1.113579491218790E-012
  9.000000000000001E-003    1.152899041451857E-012
  9.100000000000002E-003    1.119907095245021E-012
  9.200000000000002E-003    1.008385506980740E-012
  9.300000000000001E-003    8.167389333308093E-013
  9.400000000000002E-003    5.486562775992053E-013
  9.500000000000001E-003    2.134815825265510E-013
  9.600000000000001E-003   -1.737672835998626E-013
  9.700000000000002E-003   -5.927762191218139E-013
  9.800000000000001E-003   -1.018728843652636E-012
  9.900000000000001E-003   -1.423509531792178E-012
  1.000000000000000E-002   -1.777277648523132E-012
  1.010000000000000E-002   -2.050343212657636E-012
  1.020000000000000E-002   -2.215246065424794E-012
  1.030000000000000E-002   -2.248910989493968E-012
  1.040000000000000E-002   -2.134736107773966E-012
  1.050000000000000E-002   -1.864455801414707E-012
  1.060000000000000E-002   -1.439622046169673E-012
  1.070000000000000E-002   -8.725557578271491E-013
  1.080000000000000E-002   -1.866439279178737E-013
  1.090000000000000E-002    5.841091070747770E-013
  1.100000000000000E-002    1.396322397524998E-012
  1.110000000000000E-002    2.199266157883803E-012
  1.120000000000000E-002    2.937613525850264E-012
  1.130000000000000E-002    3.554795244886134E-012
  1.140000000000000E-002    3.996780163232246E-012
  1.150000000000000E-002    4.216055792492618E-012
  1.160000000000000E-002    4.175549849275769E-012
  1.170000000000000E-002    3.852206862761714E-012
  1.180000000000000E-002    3.239937694907683E-012
  1.190000000000000E-002    2.351672279380141E-012
  1.200000000000000E-002    1.220288930965570E-012
  1.210000000000000E-002   -1.017512599328644E-013
  1.220000000000000E-002   -1.544156980986140E-012
  1.230000000000000E-002   -3.021951400581685E-012
  1.240000000000000E-002   -4.439914521458353E-012
  1.250000000000000E-002   -5.698129288722512E-012
  1.260000000000000E-002   -6.698343496487923E-012
  1.270000000000000E-002   -7.350777739694243E-012
  1.280000000000000E-002   -7.580946889342085E-012
  1.290000000000000E-002   -7.336022531795967E-012
  1.300000000000000E-002   -6.590264207508107E-012
  1.310000000000000E-002   -5.349063325613877E-012
  1.320000000000000E-002   -3.651208771204909E-012
  1.330000000000000E-002   -1.569076238562975E-012
  1.340000000000000E-002    7.934424173650071E-013
  1.350000000000000E-002    3.305307623478884E-012
  1.360000000000000E-002    5.814882476356348E-012
  1.370000000000000E-002    8.158391530845293E-012
  1.380000000000000E-002    1.016985920691074E-011
  1.390000000000000E-002    1.169197090363919E-011
  1.400000000000000E-002    1.258718901939621E-011
  1.410000000000000E-002    1.274839200747914E-011
  1.420000000000000E-002    1.210828699366690E-011
  1.430000000000000E-002    1.064686403811221E-011
  1.440000000000000E-002    8.396253039656229E-012
  1.450000000000000E-002    5.442464039903932E-012
  1.460000000000000E-002    1.923668009228421E-012
  1.470000000000000E-002   -1.975110253178944E-012
  1.480000000000000E-002   -6.030793489404971E-012
  1.490000000000000E-002   -9.994202852656863E-012
  1.500000000000000E-002   -1.360458034594823E-011
  1.510000000000000E-002   -1.660590004354332E-011
  1.520000000000000E-002   -1.876399809685686E-011
  1.530000000000000E-002   -1.988344121985209E-011
  1.540000000000000E-002   -1.982299608593618E-011
  1.550000000000000E-002   -1.850857234692172E-011
  1.560000000000000E-002   -1.594260919235426E-011
  1.570000000000000E-002   -1.220904110609813E-011
  1.580000000000000E-002   -7.473217851669212E-012
  1.590000000000000E-002   -1.976440730835430E-012
  1.600000000000000E-002    3.974882428544516E-012
  1.610000000000000E-002    1.002510532397051E-011
  1.620000000000000E-002    1.578952172330968E-011
  1.630000000000000E-002    2.087780479304206E-011
  1.640000000000000E-002    2.491937373914097E-011
  1.650000000000000E-002    2.758914448593657E-011
  1.660000000000000E-002    2.863197320043582E-011
  1.670000000000000E-002    2.788409596477149E-011
  1.680000000000000E-002    2.528995200820030E-011
  1.690000000000000E-002    2.091294484198166E-011
  1.700000000000000E-002    1.493904105264224E-011
  1.710000000000000E-002    7.672475566407165E-012
  1.720000000000000E-002   -4.766900384267348E-013
  1.730000000000000E-002   -9.012886678603809E-012
  1.740000000000000E-002   -1.738242990917395E-011
  1.750000000000000E-002   -2.500665943930478E-011
  1.760000000000000E-002   -3.131903964705776E-011
  1.770000000000000E-002   -3.580403273396812E-011
  1.780000000000000E-002   -3.803531571825204E-011
  1.790000000000000E-002   -3.771076688727653E-011
  1.800000000000000E-002   -3.468170127884477E-011
  1.810000000000000E-002   -2.897401002867146E-011
  1.820000000000000E-002   -2.079926406054612E-011
  1.830000000000000E-002   -1.055433345598452E-011
  1.840000000000000E-002    1.191260375447348E-012
  1.850000000000000E-002    1.372031564819294E-011
  1.860000000000000E-002    2.620447846422099E-011
  1.870000000000000E-002    3.775078139324881E-011