 -4.000000000000000E-002    0.000000000000000E+000
 -3.990000000000000E-002    0.000000000000000E+000
 -3.980000000000000E-002    0.000000000000000E+000
 -3.970000000000000E-002    0.000000000000000E+000
 -3.960000000000000E-002    0.000000000000000E+000
 -3.950000000000000E-002    0.000000000000000E+000
 -3.940000000000000E-002    0.000000000000000E+000
 -3.930000000000000E-002    0.000000000000000E+000
 -3.920000000000000E-002    0.000000000000000E+000
 -3.910000000000000E-002    0.000000000000000E+000
 -3.900000000000000E-002    0.000000000000000E+000
 -3.890000000000000E-002    0.000000000000000E+000
 -3.880000000000000E-002    0.000000000000000E+000
 -3.870000000000000E-002    0.000000000000000E+000
 -3.860000000000000E-002    0.000000000000000E+000
 -3.850000000000000E-002    0.000000000000000E+000
 -3.840000000000000E-002    0.000000000000000E+000
 -3.830000000000000E-002    0.000000000000000E+000
 -3.820000000000000E-002    0.000000000000000E+000
 -3.810000000000000E-002    0.000000000000000E+000
 -3.800000000000000E-002    0.000000000000000E+000
 -3.790000000000000E-002    0.000000000000000E+000
 -3.780000000000000E-002    0.000000000000000E+000
 -3.770000000000000E-002    0.000000000000000E+000
 -3.760000000000000E-002    0.000000000000000E+000
 -3.750000000000000E-002    0.000000000000000E+000
 -3.740000000000000E-002    0.000000000000000E+000
 -3.730000000000000E-002    0.000000000000000E+000
 -3.720000000000000E-002    0.000000000000000E+000
 -3.710000000000000E-002    0.000000000000000E+000
 -3.700000000000000E-002    0.000000000000000E+000
 -3.690000000000000E-002    0.000000000000000E+000
 -3.680000000000000E-002    0.000000000000000E+000
 -3.670000000000000E-002    0.000000000000000E+000
 -3.660000000000000E-002    0.000000000000000E+000
 -3.650000000000000E-002    0.000000000000000E+000
 -3.640000000000000E-002    0.000000000000000E+000
 -3.630000000000000E-002    0.000000000000000E+000
 -3.620000000000000E-002    0.000000000000000E+000
 -3.610000000000000E-002    0.000000000000000E+000
 -3.600000000000000E-002    0.000000000000000E+000
 -3.590000000000000E-002    0.000000000000000E+000
 -3.580000000000000E-002    0.000000000000000E+000
 -3.570000000000000E-002    0.000000000000000E+000
 -3.560000000000000E-002    0.000000000000000E+000
 -3.550000000000000E-002    0.000000000000000E+000
 -3.540000000000000E-002    0.000000000000000E+000
 -3.530000000000000E-002    0.000000000000000E+000
 -3.520000000000000E-002    0.000000000000000E+000
 -3.510000000000000E-002    0.000000000000000E+000
 -3.500000000000000E-002    0.000000000000000E+000
 -3.490000000000000E-002    0.000000000000000E+000
 -3.480000000000000E-002    0.000000000000000E+000
 -3.470000000000000E-002    0.000000000000000E+000
 -3.460000000000000E-002    0.000000000000000E+000
 -3.450000000000000E-002    0.000000000000000E+000
 -3.440000000000000E-002    0.000000000000000E+000
 -3.430000000000000E-002    0.000000000000000E+000
 -3.420000000000000E-002    0.000000000000000E+000
 -3.410000000000000E-002    0.000000000000000E+000
 -3.400000000000000E-002    0.000000000000000E+000
 -3.390000000000000E-002    0.000000000000000E+000
 -3.380000000000000E-002    0.000000000000000E+000
 -3.370000000000000E-002    0.000000000000000E+000
 -3.360000000000000E-002    0.000000000000000E+000
 -3.350000000000000E-002    0.000000000000000E+000
 -3.340000000000000E-002    0.000000000000000E+000
 -3.330000000000000E-002    0.000000000000000E+000
 -3.320000000000000E-002    0.000000000000000E+000
 -3.310000000000000E-002    0.000000000000000E+000
 -3.300000000000000E-002    0.000000000000000E+000
 -3.290000000000000E-002    0.000000000000000E+000
 -3.280000000000000E-002    0.000000000000000E+000
 -3.270000000000000E-002    0.000000000000000E+000
 -3.260000000000000E-002    0.000000000000000E+000
 -3.250000000000000E-002    0.000000000000000E+000
 -3.240000000000000E-002    0.000000000000000E+000
 -3.230000000000000E-002    0.000000000000000E+000
 -3.220000000000000E-002    0.000000000000000E+000
 -3.210000000000000E-002    0.000000000000000E+000
 -3.200000000000000E-002    0.000000000000000E+000
 -3.190000000000000E-002    0.000000000000000E+000
 -3.180000000000000E-002    0.000000000000000E+000
 -3.170000000000000E-002    0.000000000000000E+000
 -3.160000000000000E-002    0.000000000000000E+000
 -3.150000000000000E-002    0.000000000000000E+000
 -3.140000000000000E-002    0.000000000000000E+000
 -3.130000000000000E-002    0.000000000000000E+000
 -3.120000000000000E-002    0.000000000000000E+000
 -3.110000000000000E-002    0.000000000000000E+000
 -3.100000000000000E-002    0.000000000000000E+000
 -3.090000000000000E-002    0.000000000000000E+000
 -3.080000000000000E-002    0.000000000000000E+000
 -3.070000000000000E-002    0.000000000000000E+000
 -3.060000000000000E-002    0.000000000000000E+000
 -3.050000000000000E-002    0.000000000000000E+000
 -3.040000000000000E-002    0.000000000000000E+000
 -3.030000000000000E-002    0.000000000000000E+000
 -3.020000000000000E-002    0.000000000000000E+000
 -3.010000000000000E-002    0.000000000000000E+000
 -3.000000000000000E-002    0.000000000000000E+000
 -2.990000000000000E-002    0.000000000000000E+000
 -2.980000000000000E-002    0.000000000000000E+000
 -2.970000000000000E-002    0.000000000000000E+000
 -2.960000000000000E-002    0.000000000000000E+000
 -2.950000000000000E-002    0.000000000000000E+000
 -2.940000000000000E-002    0.000000000000000E+000
 -2.930000000000000E-002    0.000000000000000E+000
 -2.920000000000000E-002    0.000000000000000E+000
 -2.910000000000000E-002    0.000000000000000E+000
 -2.900000000000000E-002    0.000000000000000E+000
 -2.890000000000000E-002    3.387119842271409E-048
 -2.880000000000000E-002    6.774239684542818E-048
 -2.870000000000000E-002    3.376858638786933E-047
 -2.860000000000000E-002    1.080424542168929E-046
 -2.850000000000000E-002    1.991493092224288E-046
 -2.840000000000000E-002    3.067401477895178E-046
 -2.830000000000000E-002    4.312290409367059E-046
 -2.820000000000000E-002    5.282264922013113E-046
 -2.810000000000000E-002    4.888120784492888E-046
 -2.800000000000000E-002    1.978125744678570E-046
 -2.790000000000000E-002   -3.917558330467361E-046
 -2.780000000000000E-002   -1.638362324601086E-045
 -2.770000000000000E-002   -3.428616424354777E-045
 -2.760000000000000E-002   -5.725275298009270E-045
 -2.750000000000000E-002   -8.478552699666455E-045
 -2.740000000000000E-002   -1.119530695617581E-044
 -2.730000000000000E-002   -1.304043577961430E-044
 -2.720000000000000E-002   -1.231430835835595E-044
 -2.710000000000000E-002   -9.143504998719898E-045
 -2.700000000000000E-002   -7.650355159549059E-046
 -2.690000000000000E-002    1.610389440818447E-044
 -2.680000000000000E-002    4.207020972900475E-044
 -2.670000000000000E-002    7.757623191285489E-044
 -2.660000000000000E-002    1.218100511007940E-043
 -2.650000000000000E-002    1.713390648440687E-043
 -2.640000000000000E-002    2.198991264146769E-043
 -2.630000000000000E-002    2.528708932701065E-043
 -2.620000000000000E-002    2.529571404855374E-043
 -2.610000000000000E-002    1.983985892634018E-043
 -2.600000000000000E-002    6.473972157560610E-044
 -2.590000000000000E-002   -1.728821144543968E-043
 -2.580000000000000E-002   -5.334163220186121E-043
 -2.570000000000000E-002   -1.025048257073187E-042
 -2.560000000000000E-002   -1.638118721658769E-042
 -2.550000000000000E-002   -2.339533484422558E-042
 -2.540000000000000E-002   -3.067788300900463E-042
 -2.530000000000000E-002   -3.731703401517134E-042
 -2.520000000000000E-002   -4.208430663430165E-042
 -2.510000000000000E-002   -4.340947705541083E-042
 -2.500000000000000E-002   -3.938827519030482E-042
 -2.490000000000000E-002   -2.761505539816020E-042
 -2.480000000000000E-002   -4.971659021045565E-043
 -2.470000000000000E-002    3.278571420204794E-042
 -2.460000000000000E-002    9.153759760723441E-042
 -2.450000000000000E-002    1.791690317091295E-041
 -2.440000000000000E-002    3.055668642116316E-041
 -2.430000000000000E-002    4.814773768422899E-041
 -2.420000000000000E-002    7.155585277152735E-041
 -2.410000000000000E-002    1.008507513243879E-040
 -2.400000000000000E-002    1.343550158529655E-040
 -2.390000000000000E-002    1.672803813996102E-040
 -2.380000000000000E-002    1.900392740219554E-040
 -2.370000000000000E-002    1.864682212340027E-040
 -2.360000000000000E-002    1.324819469611595E-040
 -2.350000000000000E-002   -4.041346532506503E-042
 -2.340000000000000E-002   -2.610214010653929E-040
 -2.330000000000000E-002   -6.762662358029869E-040
 -2.320000000000000E-002   -1.276583829783752E-039
 -2.310000000000000E-002   -2.061028573636680E-039
 -2.300000000000000E-002   -2.978394128386114E-039
 -2.290000000000000E-002   -3.900767193181129E-039
 -2.280000000000000E-002   -4.597433881956829E-039
 -2.270000000000000E-002   -4.716487811173841E-039
 -2.260000000000000E-002   -3.784762970675314E-039
 -2.250000000000000E-002   -1.239404386236842E-039
 -2.240000000000000E-002    3.494595563410484E-039
 -2.230000000000000E-002    1.086865320985893E-038
 -2.220000000000000E-002    2.101104746773155E-038
 -2.210000000000000E-002    3.347059185499777E-038
 -2.200000000000000E-002    4.692958815234551E-038
 -2.190000000000000E-002    5.893699171499963E-038
 -2.180000000000000E-002    6.574070625400180E-038
 -2.170000000000000E-002    6.232401943893742E-038
 -2.160000000000000E-002    4.276758782918362E-038
 -2.150000000000000E-002    1.055166223204538E-039
 -2.140000000000000E-002   -6.759278052320867E-038
 -2.130000000000000E-002   -1.648484627518814E-037
 -2.120000000000000E-002   -2.869822986248774E-037
 -2.110000000000000E-002   -4.224254673371681E-037
 -2.100000000000000E-002   -5.496699265418106E-037
 -2.090000000000000E-002   -6.361885623285544E-037
 -2.080000000000000E-002   -6.392168392020806E-037
 -2.070000000000000E-002   -5.092900339923206E-037
 -2.060000000000000E-002   -1.973060778351356E-037
 -2.050000000000000E-002    3.344873781118828E-037
 -2.040000000000000E-002    1.097850231435760E-036
 -2.030000000000000E-002    2.061493862554154E-036
 -2.020000000000000E-002    3.134072706477905E-036
 -2.010000000000000E-002    4.151006735621662E-036
 -2.000000000000000E-002    4.870097520580159E-036
 -1.990000000000000E-002    4.981594744062309E-036
 -1.980000000000000E-002    4.138174263546138E-036
 -1.970000000000000E-002    2.008782640952666E-036
 -1.960000000000000E-002   -1.642848460198523E-036
 -1.950000000000000E-002   -6.859156273476624E-036
 -1.940000000000000E-002   -1.337985685285140E-035
 -1.930000000000000E-002   -2.054142329463631E-035
 -1.920000000000000E-002   -2.721051126917976E-035
 -1.910000000000000E-002   -3.178241847956366E-035
 -1.900000000000000E-002   -3.227724255134462E-035
 -1.890000000000000E-002   -2.656181530362289E-035
 -1.880000000000000E-002   -1.271269750078791E-035
 -1.870000000000000E-002    1.048661200688838E-035
 -1.860000000000000E-002    4.295233263666219E-035
 -1.850000000000000E-002    8.268719627519045E-035
 -1.840000000000000E-002    1.252637508373512E-034
 -1.830000000000000E-002    1.635555173230043E-034
 -1.820000000000000E-002    1.878871975597019E-034
 -1.810000000000000E-002    1.867691742528029E-034
 -1.800000000000000E-002    1.483391856591719E-034
 -1.790000000000000E-002    6.254754798710369E-035
 -1.780000000000000E-002   -7.601002921969763E-035
 -1.770000000000000E-002   -2.648811273673949E-034
 -1.760000000000000E-002   -4.906306465404287E-034
 -1.750000000000000E-002   -7.264536007760926E-034
 -1.740000000000000E-002   -9.313229233255283E-034
 -1.730000000000000E-002   -1.051517251576652E-033
 -1.720000000000000E-002   -1.025278112250574E-033
 -1.710000000000000E-002   -7.910655478588043E-034
 -1.700000000000000E-002   -2.993891872901553E-034
 -1.690000000000000E-002    4.724992019550791E-034
 -1.680000000000000E-002    1.504611800845234E-033
 -1.670000000000000E-002    2.719389530867371E-033
 -1.660000000000000E-002    3.971289198732760E-033
 -1.650000000000000E-002    5.044585967264957E-033
 -1.640000000000000E-002    5.663210744958015E-033
 -1.630000000000000E-002    5.515784410441994E-033
 -1.620000000000000E-002    4.297509051680139E-033
 -1.610000000000000E-002    1.768170701695766E-033
 -1.600000000000000E-002   -2.177691366522709E-033
 -1.590000000000000E-002   -7.436144942624010E-033
 -1.580000000000000E-002   -1.362626954590308E-032
 -1.570000000000000E-002   -2.004435847827133E-032
 -1.560000000000000E-002   -2.565656123920836E-032
 -1.550000000000000E-002   -2.914628641697143E-032
 -1.540000000000000E-002   -2.902942602863625E-032
 -1.530000000000000E-002   -2.384373074186231E-032
 -1.520000000000000E-002   -1.240835506832476E-032
 -1.510000000000000E-002    5.863800679271995E-033
 -1.500000000000000E-002    3.063371395715928E-032
 -1.490000000000000E-002    6.033209038694021E-032
 -1.480000000000000E-002    9.194474954807639E-032
 -1.470000000000000E-002    1.209565134703358E-031
 -1.460000000000000E-002    1.415216687023026E-031
 -1.450000000000000E-002    1.469169156916160E-031
 -1.440000000000000E-002    1.303069843004040E-031
 -1.430000000000000E-002    8.581397448968957E-032
 -1.420000000000000E-002    9.829509916871812E-033
 -1.410000000000000E-002   -9.755130801744716E-032
 -1.400000000000000E-002   -2.311574066714827E-031
 -1.390000000000000E-002   -3.796695544260748E-031
 -1.380000000000000E-002   -5.251248930247605E-031
 -1.370000000000000E-002   -6.432831998265937E-031
 -1.360000000000000E-002   -7.051076075790616E-031
 -1.350000000000000E-002   -6.795310883311066E-031
 -1.340000000000000E-002   -5.375435177687865E-031
 -1.330000000000000E-002   -2.574458948477071E-031
 -1.320000000000000E-002    1.691124258148551E-031
 -1.310000000000000E-002    7.309534391412291E-031
 -1.300000000000000E-002    1.391933097465240E-030
 -1.290000000000000E-002    2.087338279382730E-030
 -1.280000000000000E-002    2.723320113490224E-030
 -1.270000000000000E-002    3.180540429033754E-030
 -1.260000000000000E-002    3.322994916520810E-030
 -1.250000000000000E-002    3.012550023659636E-030
 -1.240000000000000E-002    2.129062570210993E-030
 -1.230000000000000E-002    5.950715289835054E-031
 -1.220000000000000E-002   -1.597001762176309E-030
 -1.210000000000000E-002   -4.358327332652413E-030
 -1.200000000000000E-002   -7.482044120738563E-030
 -1.190000000000000E-002   -1.063157086661741E-029
 -1.180000000000000E-002   -1.334419322763518E-029
 -1.170000000000000E-002   -1.505490231590506E-029
 -1.160000000000000E-002   -1.514420926138413E-029
 -1.150000000000000E-002   -1.301135462587200E-029
 -1.140000000000000E-002   -8.171022159437483E-030
 -1.130000000000000E-002   -3.673900916247062E-031
 -1.120000000000000E-002    1.030549133496714E-029
 -1.110000000000000E-002    2.329292601744673E-029
 -1.100000000000000E-002    3.749858347543955E-029
 -1.090000000000000E-002    5.125612800295946E-029
 -1.080000000000000E-002    6.237640448238874E-029
 -1.070000000000000E-002    6.828967183203323E-029
 -1.060000000000000E-002    6.629479156202525E-029
 -1.050000000000000E-002    5.391506514148403E-029
 -1.040000000000000E-002    2.934407594438525E-029
 -1.030000000000000E-002   -8.054630333832354E-030
 -1.020000000000000E-002   -5.725088461370599E-029
 -1.010000000000000E-002   -1.151300836036583E-028
 -1.000000000000000E-002   -1.762438390021592E-028
 -9.899999999999999E-003   -2.328234859251801E-028
 -9.800000000000000E-003   -2.751425248883532E-028
 -9.699999999999999E-003   -2.922899260726228E-028
 -9.599999999999999E-003   -2.733747144437092E-028
 -9.500000000000000E-003   -2.091237673941342E-028
 -9.399999999999999E-003   -9.376346643173400E-029
 -9.299999999999999E-003    7.300214628216391E-029
 -9.200000000000000E-003    2.841781001554917E-028
 -9.099999999999999E-003    5.241499789999924E-028
 -8.999999999999999E-003    7.681882204467695E-028
 -8.900000000000000E-003    9.831179779328927E-028
 -8.799999999999999E-003    1.129418555988559E-027
 -8.699999999999999E-003    1.164885354012432E-027
 -8.600000000000000E-003    1.049800716437051E-027
 -8.499999999999999E-003    7.533216582199162E-028
 -8.399999999999999E-003    2.605307984347060E-028
 -8.300000000000000E-003   -4.206628980109050E-028
 -8.199999999999999E-003   -1.253800328114974E-027
 -8.100000000000000E-003   -2.170480867165924E-027
 -8.000000000000000E-003   -3.070452218240987E-027
 -7.899999999999999E-003   -3.826163732758971E-027
 -7.800000000000000E-003   -4.292406253793682E-027
 -7.699999999999999E-003   -4.321120091570048E-027
 -7.599999999999999E-003   -3.780753872399623E-027
 -7.499999999999999E-003   -2.578758064382673E-027
 -7.399999999999999E-003   -6.849863003084349E-028
 -7.299999999999999E-003    1.846935984161882E-027
 -7.199999999999999E-003    4.863706556733182E-027
 -7.100000000000000E-003    8.105483245803404E-027
 -6.999999999999999E-003    1.121133966601171E-026
 -6.899999999999999E-003    1.373949954968040E-026
 -6.800000000000000E-003    1.520345913259020E-026
 -6.699999999999999E-003    1.512330140900133E-026
 -6.599999999999999E-003    1.308933052468316E-026
 -6.499999999999999E-003    8.832879298489440E-027
 -6.399999999999999E-003    2.296978960062710E-027
 -6.299999999999999E-003   -6.302148174272541E-027
 -6.199999999999999E-003   -1.643274378085810E-026
 -6.100000000000000E-003   -2.723423490639192E-026
 -5.999999999999999E-003   -3.754157843099334E-026
 -5.899999999999999E-003   -4.595312252121097E-026
 -5.800000000000000E-003   -5.094387009271365E-026
 -5.699999999999999E-003   -5.102098423606643E-026
 -5.599999999999999E-003   -4.491254860542621E-026
 -5.499999999999999E-003   -3.177472222512909E-026
 -5.399999999999999E-003   -1.139692628830154E-026
 -5.299999999999999E-003    1.561951053935927E-026
 -5.199999999999999E-003    4.773615592922823E-026
 -5.099999999999999E-003    8.243232440581008E-026
 -4.999999999999999E-003    1.162633374064914E-025
 -4.899999999999999E-003    1.450389785210007E-025
 -4.799999999999999E-003    1.641291853060427E-025
 -4.699999999999999E-003    1.688913783458234E-025
 -4.599999999999999E-003    1.551992925157542E-025
 -4.499999999999999E-003    1.200375407386137E-025
 -4.399999999999999E-003    6.211097078862636E-026
 -4.299999999999999E-003   -1.759508294930634E-026
 -4.199999999999999E-003   -1.153768548748354E-025
 -4.099999999999999E-003   -2.245731780235585E-025
 -3.999999999999999E-003   -3.355985392358560E-025
 -3.899999999999999E-003   -4.363088762202650E-025
 -3.799999999999999E-003   -5.127392272272590E-025
 -3.699999999999999E-003   -5.502217556221007E-025
 -3.599999999999999E-003   -5.348529030611837E-025
 -3.499999999999999E-003   -4.552334606361491E-025
 -3.399999999999999E-003   -3.043560603990727E-025
 -3.299999999999999E-003   -8.146787156810371E-026
 -3.199999999999999E-003    2.063046297526284E-025
 -3.099999999999999E-003    5.428083379716023E-025
 -2.999999999999999E-003    9.024410065450936E-025
 -2.899999999999999E-003    1.250681959967369E-024
 -2.799999999999999E-003    1.545754385968163E-024
 -2.699999999999999E-003    1.741515832580522E-024
 -2.599999999999999E-003    1.791556401859862E-024
 -2.499999999999999E-003    1.654342812924403E-024
 -2.399999999999999E-003    1.299083299308874E-024
 -2.299999999999999E-003    7.118261714762777E-025
 -2.199999999999999E-003   -9.884761192820371E-026
 -2.099999999999999E-003   -1.097287892894028E-024
 -1.999999999999999E-003   -2.218197470644195E-024
 -1.899999999999999E-003   -3.366786321761133E-024
 -1.799999999999999E-003   -4.422304323951601E-024
 -1.699999999999999E-003   -5.245359802092306E-024
 -1.599999999999999E-003   -5.689095879800837E-024
 -1.499999999999999E-003   -5.613859354054300E-024
 -1.399999999999999E-003   -4.904514018823231E-024
 -1.299999999999999E-003   -3.489040038323209E-024
 -1.199999999999999E-003   -1.356606821890915E-024
 -1.099999999999999E-003    1.427054309186361E-024
 -9.999999999999989E-004    4.709324082238349E-024
 -8.999999999999990E-004    8.247719622143945E-024
 -7.999999999999990E-004    1.171623423143300E-023
 -6.999999999999989E-004    1.472234752176102E-023
 -5.999999999999990E-004    1.683512980782758E-023
 -4.999999999999989E-004    1.762373995584407E-023
 -3.999999999999989E-004    1.670428237267373E-023
 -2.999999999999989E-004    1.379166323462211E-023
 -1.999999999999989E-004    8.751827929202729E-024
 -9.999999999999892E-005    1.648790428439871E-024
  1.084202172485504E-018   -7.219702115938193E-024
  1.000000000000011E-004   -1.730401492456866E-023
  2.000000000000011E-004   -2.780748818111601E-023
  3.000000000000011E-004   -3.771841191921877E-023
  4.000000000000011E-004   -4.587118840806477E-023
  5.000000000000011E-004   -5.103606720453797E-023
  6.000000000000011E-004   -5.203375056493189E-023
  7.000000000000011E-004   -4.786792414658154E-023
  8.000000000000011E-004   -3.786559798509231E-023
  9.000000000000012E-004   -2.181244688499398E-023
  1.000000000000001E-003   -6.847246364190910E-026
  1.100000000000001E-003    2.635151344004620E-023
  1.200000000000001E-003    5.574743626700458E-023
  1.300000000000001E-003    8.576626262661353E-023
  1.400000000000001E-003    1.135059922665685E-022
  1.500000000000001E-003    1.356949422891376E-022
  1.600000000000001E-003    1.489433353039547E-022
  1.700000000000001E-003    1.500565676690122E-022
  1.800000000000001E-003    1.363916091454451E-022
  1.900000000000001E-003    1.062303395462424E-022
  2.000000000000001E-003    5.913676465692290E-023
  2.100000000000001E-003   -3.739677719348063E-024
  2.200000000000001E-003   -7.945488267784258E-023
  2.300000000000001E-003   -1.631938858344124E-022
  2.400000000000001E-003   -2.483619213530089E-022
  2.500000000000001E-003   -3.268675630200682E-022
  2.600000000000001E-003   -3.896093696001931E-022
  2.700000000000001E-003   -4.271601942148413E-022
  2.800000000000001E-003   -4.306228817899332E-022
  2.900000000000001E-003   -3.926091887491284E-022
  3.000000000000001E-003   -3.082715471534005E-022
  3.100000000000001E-003   -1.762976301815791E-022
  3.200000000000001E-003    2.372817731698320E-025
  3.300000000000001E-003    2.132733050580908E-022
  3.400000000000001E-003    4.495354230821937E-022
  3.500000000000001E-003    6.907676226393004E-022
  3.600000000000001E-003    9.145042362686947E-022
  3.700000000000001E-003    1.095411753429550E-021
  3.800000000000001E-003    1.207185421026689E-021
  3.900000000000001E-003    1.224925553372484E-021
  4.000000000000001E-003    1.127855064031325E-021
  4.100000000000001E-003    9.021780609546708E-022
  4.200000000000001E-003    5.438244693613836E-022
  4.300000000000001E-003    6.078609897227756E-023
  4.400000000000001E-003   -5.252680674237789E-022
  4.500000000000001E-003   -1.178398623838070E-021
  4.600000000000002E-003   -1.849083334934266E-021
  4.700000000000001E-003   -2.476365834744235E-021
  4.800000000000001E-003   -2.991535689597645E-021
  4.900000000000002E-003   -3.323271512166120E-021
  5.000000000000001E-003   -3.404020918134926E-021
  5.100000000000001E-003   -3.177227237881649E-021
  5.200000000000001E-003   -2.604858222575624E-021
  5.300000000000002E-003   -1.674561492224123E-021
  5.400000000000001E-003   -4.056863765504216E-022
  5.500000000000001E-003    1.146615307077831E-021
  5.600000000000002E-003    2.889951976513716E-021
  5.700000000000001E-003    4.696535942897937E-021
  5.800000000000001E-003    6.408720703893384E-021
  5.900000000000002E-003    7.848363416031066E-021
  6.000000000000001E-003    8.829807638713575E-021
  6.100000000000001E-003    9.175898728164635E-021
  6.200000000000002E-003    8.736068552165517E-021
  6.300000000000002E-003    7.405158409014128E-021
  6.400000000000001E-003    5.141362402454034E-021
  6.500000000000001E-003    1.981477398361493E-021
  6.600000000000002E-003   -1.948412428147325E-021
  6.700000000000001E-003   -6.428585790656475E-021
  6.800000000000001E-003   -1.114915844563395E-020
  6.900000000000002E-003   -1.572241028688082E-020
  7.000000000000001E-003   -1.970436299337442E-020
  7.100000000000001E-003   -2.262524499061507E-020
  7.200000000000002E-003   -2.402760645103674E-020
  7.300000000000002E-003   -2.350996840213587E-020
  7.400000000000001E-003   -2.077301290495785E-020
  7.500000000000001E-003   -1.566460790403490E-020
  7.600000000000002E-003   -8.219418514359418E-021
  7.700000000000001E-003    1.311384387998413E-021
  7.800000000000001E-003    1.244467888254552E-020
  7.900000000000001E-003    2.446806309888930E-020
  8.000000000000002E-003    3.646353340670809E-020
  8.100000000000001E-003    4.735367728618952E-020
  8.200000000000001E-003    5.597016049516333E-020
  8.300000000000002E-003    6.114222756315026E-020
  8.400000000000001E-003    6.180076879324427E-020
  8.500000000000002E-003    5.709136011716892E-020
  8.600000000000002E-003    4.648769234086761E-020
  8.700000000000001E-003    2.989534339190646E-020
  8.800000000000002E-003    7.734947309175956E-021
  8.900000000000002E-003   -1.900623727277298E-020
  9.000000000000001E-003   -4.876433667042495E-020
  9.100000000000002E-003   -7.943853540339238E-020
  9.200000000000002E-003   -1.084852095844504E-019
  9.300000000000001E-003   -1.330675287801321E-019
  9.400000000000002E-003   -1.502563882618661E-019
  9.500000000000001E-003   -1.572735418532268E-019
  9.600000000000001E-003   -1.517622757187267E-019
  9.700000000000002E-003   -1.320661182765239E-019
  9.800000000000001E-003   -9.749222480941150E-020
  9.900000000000001E-003   -4.853343018515552E-020
  1.000000000000000E-002    1.297749580539848E-020
  1.010000000000000E-002    8.380607743679314E-020
  1.020000000000000E-002    1.593674478943144E-019
  1.030000000000000E-002    2.339044614532141E-019
  1.040000000000000E-002    3.007973669067106E-019
  1.050000000000000E-002    3.529989138809074E-019
  1.060000000000000E-002    3.835768312887940E-019
  1.070000000000000E-002    3.863330329459375E-019
  1.080000000000000E-002    3.564581723377441E-019
  1.090000000000000E-002    2.911695020968295E-019
  1.100000000000000E-002    1.902747469529484E-019
  1.110000000000000E-002    5.660133789092499E-020
  1.120000000000000E-002   -1.037667545560686E-019
  1.130000000000000E-002   -2.814946071037678E-019
  1.140000000000000E-002   -4.642811119705226E-019
  1.150000000000000E-002   -6.374411682108084E-019
  1.160000000000000E-002   -7.847811451299310E-019
  1.170000000000000E-002   -8.897375526583457E-019
  1.180000000000000E-002   -9.367219033471056E-019
  1.190000000000000E-002   -9.125892281900050E-019
  1.200000000000000E-002   -8.081246253182686E-019
  1.210000000000000E-002   -6.194249615242211E-019
  1.220000000000000E-002   -3.490441163749635E-019
  1.230000000000000E-002   -6.769390641011001E-021
  1.240000000000000E-002    3.900902977768331E-019
  1.250000000000000E-002    8.170026016138257E-019
  1.260000000000000E-002    1.243157575216728E-018
  1.270000000000000E-002    1.633079635782434E-018
  1.280000000000000E-002    1.948869556819417E-018
  1.290000000000000E-002    2.152984132524078E-018
  1.300000000000000E-002    2.211401552488395E-018
  1.310000000000000E-002    2.096967001415537E-018
  1.320000000000000E-002    1.792667710563660E-018
  1.330000000000000E-002    1.294555985729950E-018
  1.340000000000000E-002    6.140261185599277E-019
  1.350000000000000E-002   -2.208366255882682E-019
  1.360000000000000E-002   -1.165084009444730E-018
  1.370000000000000E-002   -2.158093360966626E-018
  1.380000000000000E-002   -3.126219103700787E-018
  1.390000000000000E-002   -3.986900962672815E-018
  1.400000000000000E-002   -4.654100369016989E-018
  1.410000000000000E-002   -5.044813280720135E-018
  1.420000000000000E-002   -5.086277857696235E-018
  1.430000000000000E-002   -4.723386885294055E-018
  1.440000000000000E-002   -3.925728721921948E-018
  1.450000000000000E-002   -2.693627793461208E-018
  1.460000000000000E-002   -1.062550107355675E-018
  1.470000000000000E-002    8.947155080768418E-019
  1.480000000000000E-002    3.068590584416063E-018
  1.490000000000000E-002    5.316293624312447E-018
  1.500000000000000E-002    7.468611686101112E-018
  1.510000000000000E-002    9.339754909282887E-018
  1.520000000000000E-002    1.073992487923464E-017
  1.530000000000000E-002    1.148995300739755E-017
  1.540000000000000E-002    1.143712232005802E-017
  1.550000000000000E-002    1.047105669736192E-017
  1.560000000000000E-002    8.538416174455593E-018
  1.570000000000000E-002    5.655061727045536E-018
  1.580000000000000E-002    1.914370594637641E-018
  1.590000000000000E-002   -2.509472570079780E-018
  1.600000000000000E-002   -7.364150132201644E-018
  1.610000000000000E-002   -1.232843474241516E-017
  1.620000000000000E-002   -1.702810435380531E-017
  1.630000000000000E-002   -2.105817893038949E-017
  1.640000000000000E-002   -2.401056681169817E-017
  1.650000000000000E-002   -2.550565237693817E-017
  1.660000000000000E-002   -2.522585845609435E-017
  1.670000000000000E-002   -2.294881632306067E-017
  1.680000000000000E-002   -1.857749099190431E-017
  1.690000000000000E-002   -1.216450730156157E-017
  1.700000000000000E-002   -3.928021074091089E-018
  1.710000000000000E-002    5.743194042859995E-018
  1.720000000000000E-002    1.629725104613754E-017
  1.730000000000000E-002    2.704026438510521E-017
  1.740000000000000E-002    3.717123010452915E-017
  1.750000000000000E-002    4.582970822190970E-017
  1.760000000000000E-002    5.215429102087916E-017
  1.770000000000000E-002    5.534870471539078E-017
  1.780000000000000E-002    5.475143900991087E-017
  1.790000000000000E-002    4.990399133716562E-017
  1.800000000000000E-002    4.061231043316277E-017
  1.810000000000000E-002    2.699585797756282E-017
  1.820000000000000E-002    9.518959213287973E-018
  1.830000000000000E-002   -1.100016458565427E-017
  1.840000000000000E-002   -3.340621918078787E-017
  1.850000000000000E-002   -5.625141453710833E-017
  1.860000000000000E-002   -7.786793121928616E-017
  1.870000000000000E-002   -9.646620507366914E-017