 -4.000000000000000E-002    0.000000000000000E+000
 -3.990000000000000E-002    0.000000000000000E+000
 -3.980000000000000E-002    0.000000000000000E+000
 -3.970000000000000E-002    0.000000000000000E+000
 -3.960000000000000E-002    0.000000000000000E+000
 -3.950000000000000E-002    0.000000000000000E+000
 -3.940000000000000E-002    0.000000000000000E+000
 -3.930000000000000E-002    0.000000000000000E+000
 -3.920000000000000E-002    0.000000000000000E+000
 -3.910000000000000E-002    0.000000000000000E+000
 -3.900000000000000E-002    0.000000000000000E+000
 -3.890000000000000E-002    0.000000000000000E+000
 -3.880000000000000E-002    0.000000000000000E+000
 -3.870000000000000E-002    0.000000000000000E+000
 -3.860000000000000E-002    0.000000000000000E+000
 -3.850000000000000E-002    0.000000000000000E+000
 -3.840000000000000E-002    0.000000000000000E+000
 -3.830000000000000E-002    0.000000000000000E+000
 -3.820000000000000E-002    0.000000000000000E+000
 -3.810000000000000E-002    0.000000000000000E+000
 -3.800000000000000E-002    0.000000000000000E+000
 -3.790000000000000E-002    0.000000000000000E+000
 -3.780000000000000E-002    0.000000000000000E+000
 -3.770000000000000E-002    0.000000000000000E+000
 -3.760000000000000E-002    0.000000000000000E+000
 -3.750000000000000E-002    0.000000000000000E+000
 -3.740000000000000E-002    0.000000000000000E+000
 -3.730000000000000E-002    0.000000000000000E+000
 -3.720000000000000E-002    0.000000000000000E+000
 -3.710000000000000E-002    0.000000000000000E+000
 -3.700000000000000E-002    0.000000000000000E+000
 -3.690000000000000E-002    0.000000000000000E+000
 -3.680000000000000E-002    0.000000000000000E+000
 -3.670000000000000E-002    0.000000000000000E+000
 -3.660000000000000E-002    0.000000000000000E+000
 -3.650000000000000E-002    0.000000000000000E+000
 -3.640000000000000E-002    0.000000000000000E+000
 -3.630000000000000E-002    0.000000000000000E+000
 -3.620000000000000E-002    0.000000000000000E+000
 -3.610000000000000E-002    0.000000000000000E+000
 -3.600000000000000E-002    0.000000000000000E+000
 -3.590000000000000E-002    0.000000000000000E+000
 -3.580000000000000E-002    0.000000000000000E+000
 -3.570000000000000E-002    0.000000000000000E+000
 -3.560000000000000E-002    0.000000000000000E+000
 -3.550000000000000E-002    0.000000000000000E+000
 -3.540000000000000E-002    0.000000000000000E+000
 -3.530000000000000E-002    0.000000000000000E+000
 -3.520000000000000E-002    0.000000000000000E+000
 -3.510000000000000E-002    0.000000000000000E+000
 -3.500000000000000E-002    0.000000000000000E+000
 -3.490000000000000E-002    0.000000000000000E+000
 -3.480000000000000E-002    0.000000000000000E+000
 -3.470000000000000E-002    0.000000000000000E+000
 -3.460000000000000E-002    0.000000000000000E+000
 -3.450000000000000E-002    0.000000000000000E+000
 -3.440000000000000E-002    0.000000000000000E+000
 -3.430000000000000E-002    0.000000000000000E+000
 -3.420000000000000E-002    0.000000000000000E+000
 -3.410000000000000E-002    0.000000000000000E+000
 -3.400000000000000E-002    0.000000000000000E+000
 -3.390000000000000E-002    0.000000000000000E+000
 -3.380000000000000E-002    0.000000000000000E+000
 -3.370000000000000E-002    0.000000000000000E+000
 -3.360000000000000E-002    0.000000000000000E+000
 -3.350000000000000E-002    0.000000000000000E+000
 -3.340000000000000E-002    0.000000000000000E+000
 -3.330000000000000E-002    0.000000000000000E+000
 -3.320000000000000E-002    0.000000000000000E+000
 -3.310000000000000E-002    0.000000000000000E+000
 -3.300000000000000E-002    0.000000000000000E+000
 -3.290000000000000E-002    0.000000000000000E+000
 -3.280000000000000E-002    0.000000000000000E+000
 -3.270000000000000E-002    0.000000000000000E+000
 -3.260000000000000E-002    0.000000000000000E+000
 -3.250000000000000E-002    0.000000000000000E+000
 -3.240000000000000E-002    0.000000000000000E+000
 -3.230000000000000E-002    0.000000000000000E+000
 -3.220000000000000E-002    0.000000000000000E+000
 -3.210000000000000E-002    0.000000000000000E+000
 -3.200000000000000E-002    0.000000000000000E+000
 -3.190000000000000E-002    0.000000000000000E+000
 -3.180000000000000E-002    0.000000000000000E+000
 -3.170000000000000E-002    0.000000000000000E+000
 -3.160000000000000E-002    0.000000000000000E+000
 -3.150000000000000E-002    0.000000000000000E+000
 -3.140000000000000E-002    0.000000000000000E+000
 -3.130000000000000E-002    0.000000000000000E+000
 -3.120000000000000E-002    0.000000000000000E+000
 -3.110000000000000E-002    0.000000000000000E+000
 -3.100000000000000E-002    0.000000000000000E+000
 -3.090000000000000E-002    0.000000000000000E+000
 -3.080000000000000E-002    0.000000000000000E+000
 -3.070000000000000E-002    0.000000000000000E+000
 -3.060000000000000E-002    0.000000000000000E+000
 -3.050000000000000E-002    0.000000000000000E+000
 -3.040000000000000E-002    0.000000000000000E+000
 -3.030000000000000E-002    0.000000000000000E+000
 -3.020000000000000E-002    0.000000000000000E+000
 -3.010000000000000E-002    0.000000000000000E+000
 -3.000000000000000E-002    0.000000000000000E+000
 -2.990000000000000E-002    0.000000000000000E+000
 -2.980000000000000E-002    0.000000000000000E+000
 -2.970000000000000E-002    0.000000000000000E+000
 -2.960000000000000E-002    0.000000000000000E+000
 -2.950000000000000E-002    0.000000000000000E+000
 -2.940000000000000E-002    0.000000000000000E+000
 -2.930000000000000E-002    0.000000000000000E+000
 -2.920000000000000E-002    0.000000000000000E+000
 -2.910000000000000E-002    0.000000000000000E+000
 -2.900000000000000E-002    0.000000000000000E+000
 -2.890000000000000E-002    0.000000000000000E+000
 -2.880000000000000E-002    0.000000000000000E+000
 -2.870000000000000E-002    0.000000000000000E+000
 -2.860000000000000E-002    0.000000000000000E+000
 -2.850000000000000E-002    0.000000000000000E+000
 -2.840000000000000E-002    0.000000000000000E+000
 -2.830000000000000E-002    0.000000000000000E+000
 -2.820000000000000E-002    0.000000000000000E+000
 -2.810000000000000E-002    0.000000000000000E+000
 -2.800000000000000E-002    0.000000000000000E+000
 -2.790000000000000E-002    0.000000000000000E+000
 -2.780000000000000E-002    0.000000000000000E+000
 -2.770000000000000E-002    0.000000000000000E+000
 -2.760000000000000E-002    0.000000000000000E+000
 -2.750000000000000E-002    0.000000000000000E+000
 -2.740000000000000E-002   -7.093907425442562E-047
 -2.730000000000000E-002   -1.385530292090057E-046
 -2.720000000000000E-002   -2.061669841635858E-046
 -2.710000000000000E-002   -2.838772377337842E-046
 -2.700000000000000E-002   -3.040698349650209E-046
 -2.690000000000000E-002   -3.309126707959487E-046
 -2.680000000000000E-002   -2.862691767947674E-046
 -2.670000000000000E-002   -2.471477020249620E-046
 -2.660000000000000E-002    1.498766098777499E-046
 -2.650000000000000E-002    4.526989121408972E-046
 -2.640000000000000E-002    1.010228174385559E-045
 -2.630000000000000E-002    1.982962012304005E-045
 -2.620000000000000E-002    3.373089360263210E-045
 -2.610000000000000E-002    5.289433897886195E-045
 -2.600000000000000E-002    7.553447234257582E-045
 -2.590000000000000E-002    1.007583848772333E-044
 -2.580000000000000E-002    1.261446643035456E-044
 -2.570000000000000E-002    1.445545678346234E-044
 -2.560000000000000E-002    1.407437497292653E-044
 -2.550000000000000E-002    9.672669283489647E-045
 -2.540000000000000E-002    2.944578177756406E-046
 -2.530000000000000E-002   -1.896755190749001E-044
 -2.520000000000000E-002   -5.144673359501463E-044
 -2.510000000000000E-002   -1.005963185061572E-043
 -2.500000000000000E-002   -1.691090654863528E-043
 -2.490000000000000E-002   -2.548638111739030E-043
 -2.480000000000000E-002   -3.496611699455568E-043
 -2.470000000000000E-002   -4.364056131114631E-043
 -2.460000000000000E-002   -4.839328241725259E-043
 -2.450000000000000E-002   -4.452550251270526E-043
 -2.440000000000000E-002   -2.579850152904632E-043
 -2.430000000000000E-002    1.543684733989513E-043
 -2.420000000000000E-002    8.683199401552751E-043
 -2.410000000000000E-002    1.942527666011229E-042
 -2.400000000000000E-002    3.387499991853329E-042
 -2.390000000000000E-002    5.121788229900204E-042
 -2.380000000000000E-002    6.925168174826225E-042
 -2.370000000000000E-002    8.392915655955606E-042
 -2.360000000000000E-002    8.901305580299681E-042
 -2.350000000000000E-002    7.603809072944271E-042
 -2.340000000000000E-002    3.495902236991113E-042
 -2.330000000000000E-002   -4.445980845003774E-042
 -2.320000000000000E-002   -1.701153726796699E-041
 -2.310000000000000E-002   -3.439063088704826E-041
 -2.300000000000000E-002   -5.570358317551266E-041
 -2.290000000000000E-002   -7.848882846807747E-041
 -2.280000000000000E-002   -9.823670152938092E-041
 -2.270000000000000E-002   -1.081318762864486E-040
 -2.260000000000000E-002   -9.922006653897355E-041
 -2.250000000000000E-002   -6.120649111009866E-041
 -2.240000000000000E-002    1.586077830000541E-041
 -2.230000000000000E-002    1.389100691279832E-040
 -2.220000000000000E-002    3.081788251487419E-040
 -2.210000000000000E-002    5.128664870852450E-040
 -2.200000000000000E-002    7.267636059365820E-040
 -2.190000000000000E-002    9.049353684224558E-040
 -2.180000000000000E-002    9.829646992520199E-040
 -2.170000000000000E-002    8.805200931355250E-040
 -2.160000000000000E-002    5.110644569453463E-040
 -2.150000000000000E-002   -2.009480893979964E-040
 -2.140000000000000E-002   -1.295026145734958E-039
 -2.130000000000000E-002   -2.743153743257504E-039
 -2.120000000000000E-002   -4.415675302331416E-039
 -2.110000000000000E-002   -6.051315197164264E-039
 -2.100000000000000E-002   -7.241075203119291E-039
 -2.090000000000000E-002   -7.438160257473565E-039
 -2.080000000000000E-002   -6.006874466697361E-039
 -2.070000000000000E-002   -2.321593420871456E-039
 -2.060000000000000E-002    4.078675947714525E-039
 -2.050000000000000E-002    1.328476365943644E-038
 -2.040000000000000E-002    2.478019397627777E-038
 -2.030000000000000E-002    3.721031527691197E-038
 -2.020000000000000E-002    4.821547480799085E-038
 -2.010000000000000E-002    5.440353545315607E-038
 -2.000000000000000E-002    5.154644368662390E-038
 -1.990000000000000E-002    3.508069301333285E-038
 -1.980000000000000E-002    9.653638801582642E-040
 -1.970000000000000E-002   -5.310116432052198E-038
 -1.960000000000000E-002   -1.261859053807369E-037
 -1.950000000000000E-002   -2.125338041849034E-037
 -1.940000000000000E-002   -3.001951628444958E-037
 -1.930000000000000E-002   -3.702905386417531E-037
 -1.920000000000000E-002   -3.974168355093563E-037
 -1.910000000000000E-002   -3.517098049993335E-037
 -1.900000000000000E-002   -2.029832866001960E-037
 -1.890000000000000E-002    7.287247041331951E-038
 -1.880000000000000E-002    4.854476112065226E-037
 -1.870000000000000E-002    1.020089425278202E-036
 -1.860000000000000E-002    1.628326035519769E-036
 -1.850000000000000E-002    2.220549285285184E-036
 -1.840000000000000E-002    2.663643449246572E-036
 -1.830000000000000E-002    2.786532524718640E-036
 -1.820000000000000E-002    2.396424950136860E-036
 -1.810000000000000E-002    1.307660860254743E-036
 -1.800000000000000E-002   -6.166123156964152E-037
 -1.790000000000000E-002   -3.412239639019483E-036
 -1.780000000000000E-002   -6.956874097848929E-036
 -1.770000000000000E-002   -1.091698597345196E-035
 -1.760000000000000E-002   -1.471170447616556E-035
 -1.750000000000000E-002   -1.750863544673732E-035
 -1.740000000000000E-002   -1.826745117026529E-035
 -1.730000000000000E-002   -1.584486988223360E-035
 -1.720000000000000E-002   -9.168754557508774E-036
 -1.710000000000000E-002    2.520887208105557E-036
 -1.700000000000000E-002    1.938015870582350E-035
 -1.690000000000000E-002    4.065197694894276E-035
 -1.680000000000000E-002    6.439029000400636E-035
 -1.670000000000000E-002    8.728506585897390E-035
 -1.660000000000000E-002    1.046654299574338E-034
 -1.650000000000000E-002    1.107584802039672E-034
 -1.640000000000000E-002    9.926696692578988E-035
 -1.630000000000000E-002    6.429691755559003E-035
 -1.620000000000000E-002    1.615204910090022E-036
 -1.610000000000000E-002   -8.985133263886202E-035
 -1.600000000000000E-002   -2.064449538716583E-034
 -1.590000000000000E-002   -3.383862967003167E-034
 -1.580000000000000E-002   -4.688885262751532E-034
 -1.570000000000000E-002   -5.741434502437620E-034
 -1.560000000000000E-002   -6.245427297484442E-034
 -1.550000000000000E-002   -5.874276963903571E-034
 -1.540000000000000E-002   -4.315124319689009E-034
 -1.530000000000000E-002   -1.328941806952680E-034
 -1.520000000000000E-002    3.177423364437020E-034
 -1.510000000000000E-002    9.074808786528435E-034
 -1.500000000000000E-002    1.594213099370686E-033
 -1.490000000000000E-002    2.301813273716113E-033
 -1.480000000000000E-002    2.919108028646968E-033
 -1.470000000000000E-002    3.304311141012770E-033
 -1.460000000000000E-002    3.296342231835508E-033
 -1.450000000000000E-002    2.733856172516913E-033
 -1.440000000000000E-002    1.481863108284359E-033
 -1.430000000000000E-002   -5.354521707991889E-034
 -1.420000000000000E-002   -3.298663795666809E-033
 -1.410000000000000E-002   -6.658371163639209E-033
 -1.400000000000000E-002   -1.030793943125522E-032
 -1.390000000000000E-002   -1.377098227173925E-032
 -1.380000000000000E-002   -1.641128246936030E-032
 -1.370000000000000E-002   -1.747219157368770E-032
 -1.360000000000000E-002   -1.615059179478925E-032
 -1.350000000000000E-002   -1.170690712100843E-032
 -1.340000000000000E-002   -3.607629103025484E-033
 -1.330000000000000E-002    8.309773612163928E-033
 -1.320000000000000E-002    2.366690442854365E-032
 -1.310000000000000E-002    4.139429666573784E-032
 -1.300000000000000E-002    5.963221534847312E-032
 -1.290000000000000E-002    7.571733811207779E-032
 -1.280000000000000E-002    8.629020792084410E-032
 -1.270000000000000E-002    8.755259707722561E-032
 -1.260000000000000E-002    7.569157799318666E-032
 -1.250000000000000E-002    4.746744262321256E-032
 -1.240000000000000E-002    9.359960579087101E-034
 -1.230000000000000E-002   -6.375667642073174E-032
 -1.220000000000000E-002   -1.436031050865996E-031
 -1.210000000000000E-002   -2.321162014030689E-031
 -1.200000000000000E-002   -3.190173370314040E-031
 -1.190000000000000E-002   -3.903942112436752E-031
 -1.180000000000000E-002   -4.294794091958936E-031
 -1.170000000000000E-002   -4.181606157705238E-031
 -1.160000000000000E-002   -3.392588134761898E-031
 -1.150000000000000E-002   -1.795064120354705E-031
 -1.140000000000000E-002    6.697941903743288E-032
 -1.130000000000000E-002    3.950830719686417E-031
 -1.120000000000000E-002    7.854449984645472E-031
 -1.110000000000000E-002    1.202218734119421E-030
 -1.100000000000000E-002    1.592538656310796E-030
 -1.090000000000000E-002    1.888395227506416E-030
 -1.080000000000000E-002    2.011490490586313E-030
 -1.070000000000000E-002    1.881385397223212E-030
 -1.060000000000000E-002    1.426854614071936E-030
 -1.050000000000000E-002    5.998368439795300E-031
 -1.040000000000000E-002   -6.092441393319774E-031
 -1.030000000000000E-002   -2.156639537773840E-030
 -1.020000000000000E-002   -3.933341758212782E-030
 -1.010000000000000E-002   -5.758845966632179E-030
 -1.000000000000000E-002   -7.383482904533431E-030
 -9.899999999999999E-003   -8.501840746783418E-030
 -9.800000000000000E-003   -8.778964256646153E-030
 -9.699999999999999E-003   -7.889638538778107E-030
 -9.599999999999999E-003   -5.569187501277367E-030
 -9.500000000000000E-003   -1.671998883441077E-030
 -9.399999999999999E-003    3.768376859228514E-030
 -9.299999999999999E-003    1.048592096645925E-029
 -9.200000000000000E-003    1.794555141267276E-029
 -9.099999999999999E-003    2.533386206068115E-029
 -8.999999999999999E-003    3.158701264823576E-029
 -8.900000000000000E-003    3.546317959301081E-029
 -8.799999999999999E-003    3.566273357548815E-029
 -8.699999999999999E-003    3.099340123436312E-029
 -8.600000000000000E-003    2.057032908318409E-029
 -8.499999999999999E-003    4.033105016629083E-030
 -8.399999999999999E-003   -1.824583302835649E-029
 -8.300000000000000E-003   -4.499302395641353E-029
 -8.199999999999999E-003   -7.394104256901096E-029
 -8.100000000000000E-003   -1.018450073418976E-028
 -8.000000000000000E-003   -1.246371674395456E-028
 -7.899999999999999E-003   -1.377369702382351E-028
 -7.800000000000000E-003   -1.365176742954065E-028
 -7.699999999999999E-003   -1.169096255772788E-028
 -7.599999999999999E-003   -7.609664362121918E-029
 -7.499999999999999E-003   -1.323840462019509E-029
 -7.399999999999999E-003    6.986909806607356E-029
 -7.299999999999999E-003    1.682976142958352E-028
 -7.199999999999999E-003    2.737617432338057E-028
 -7.100000000000000E-003    3.747643776832981E-028
 -6.999999999999999E-003    4.571883972738021E-028
 -6.899999999999999E-003    5.053738919071127E-028
 -6.800000000000000E-003    5.036683189215362E-028
 -6.699999999999999E-003    4.383768934380914E-028
 -6.599999999999999E-003    2.999734578614306E-028
 -6.499999999999999E-003    8.536813680757345E-029
 -6.399999999999999E-003   -2.000271840508816E-028
 -6.299999999999999E-003   -5.407302213921318E-028
 -6.199999999999999E-003   -9.104235368277079E-028
 -6.100000000000000E-003   -1.272279008492349E-027
 -5.999999999999999E-003   -1.580597356656419E-027
 -5.899999999999999E-003   -1.783897968320118E-027
 -5.800000000000000E-003   -1.829455176573708E-027
 -5.699999999999999E-003   -1.669127138311875E-027
 -5.599999999999999E-003   -1.266135400818736E-027
 -5.499999999999999E-003   -6.022734757041832E-028
 -5.399999999999999E-003    3.151512895626687E-028
 -5.299999999999999E-003    1.447477986838085E-027
 -5.199999999999999E-003    2.720879342179554E-027
 -5.099999999999999E-003    4.025514943407016E-027
 -4.999999999999999E-003    5.218509020194065E-027
 -4.899999999999999E-003    6.131420425980782E-027
 -4.799999999999999E-003    6.582566828326718E-027
 -4.699999999999999E-003    6.394122960473239E-027
 -4.599999999999999E-003    5.413388671981485E-027
 -4.499999999999999E-003    3.536967845048855E-027
 -4.399999999999999E-003    7.359610159219391E-028
 -4.299999999999999E-003   -2.920410391791799E-027
 -4.199999999999999E-003   -7.245852929568739E-027
 -4.099999999999999E-003   -1.192619782366721E-026
 -3.999999999999999E-003   -1.652028180485974E-026
 -3.899999999999999E-003   -2.047570238379365E-026
 -3.799999999999999E-003   -2.316183283067164E-026
 -3.699999999999999E-003   -2.392111075529953E-026
 -3.599999999999999E-003   -2.213779757119426E-026
 -3.499999999999999E-003   -1.732098640520868E-026
 -3.399999999999999E-003   -9.196123423142141E-027
 -3.299999999999999E-003    2.203479831055681E-027
 -3.199999999999999E-003    1.645601454429011E-026
 -3.099999999999999E-003    3.269410393201480E-026
 -2.999999999999999E-003    4.958465869453887E-026
 -2.899999999999999E-003    6.535821145598049E-026
 -2.799999999999999E-003    7.789784158938120E-026
 -2.699999999999999E-003    8.489313948691004E-026
 -2.599999999999999E-003    8.405841036740961E-026
 -2.499999999999999E-003    7.340611468293749E-026
 -2.399999999999999E-003    5.155745979712882E-026
 -2.299999999999999E-003    1.806289470993210E-026
 -2.199999999999999E-003   -2.630302363264113E-026
 -2.099999999999999E-003   -7.931424211520227E-026
 -1.999999999999999E-003   -1.371771874061473E-025
 -1.899999999999999E-003   -1.945681919708872E-025
 -1.799999999999999E-003   -2.448581112058414E-025
 -1.699999999999999E-003   -2.805445054554575E-025
 -1.599999999999999E-003   -2.938916702619730E-025
 -1.499999999999999E-003   -2.777545723838453E-025
 -1.399999999999999E-003   -2.265361090673253E-025
 -1.299999999999999E-003   -1.371990226882238E-025
 -1.199999999999999E-003   -1.022993910916493E-026
 -1.099999999999999E-003    1.495653495798859E-025
 -9.999999999999989E-004    3.325642163693820E-025
 -8.999999999999990E-004    5.242510519701643E-025
 -7.999999999999990E-004    7.056676721589010E-025
 -6.999999999999989E-004    8.544581330550400E-025
 -5.999999999999990E-004    9.465269510672891E-025
 -4.999999999999989E-004    9.582648823761066E-025
 -3.999999999999989E-004    8.692258507052013E-025
 -2.999999999999989E-004    6.650655101082738E-025
 -1.999999999999989E-004    3.404814610510686E-025
 -9.999999999999892E-005   -9.815559885261896E-026
  1.084202172485504E-018   -6.308275545877190E-025
  1.000000000000011E-004   -1.222901033012716E-024
  2.000000000000011E-004   -1.825483518554827E-024
  3.000000000000011E-004   -2.377354076676575E-024
  4.000000000000011E-004   -2.808604331627642E-024
  5.000000000000011E-004   -3.045987925673846E-024
  6.000000000000011E-004   -3.019793950116549E-024
  7.000000000000011E-004   -2.671874256452434E-024
  8.000000000000011E-004   -1.964254097659634E-024
  9.000000000000012E-004   -8.875795896374483E-025
  1.000000000000001E-003    5.314884238712030E-025
  1.100000000000001E-003    2.224918412048378E-024
  1.200000000000001E-003    4.080976713399103E-024
  1.300000000000001E-003    5.945828677599209E-024
  1.400000000000001E-003    7.629780614676949E-024
  1.500000000000001E-003    8.918574137506683E-024
  1.600000000000001E-003    9.589715865794096E-024
  1.700000000000001E-003    9.433327086296359E-024
  1.800000000000001E-003    8.276412022955205E-024
  1.900000000000001E-003    6.008864715992163E-024
  2.000000000000001E-003    2.608936281354216E-024
  2.100000000000001E-003   -1.834532607929656E-024
  2.200000000000001E-003   -7.106152390993816E-024
  2.300000000000001E-003   -1.285734967841610E-023
  2.400000000000001E-003   -1.861187393944447E-023
  2.500000000000001E-003   -2.378563035929927E-023
  2.600000000000001E-003   -2.772208142547373E-023
  2.700000000000001E-003   -2.974305102634163E-023
  2.800000000000001E-003   -2.921319209728054E-023
  2.900000000000001E-003   -2.561450617853791E-023
  3.000000000000001E-003   -1.862543527506413E-023
  3.100000000000001E-003   -8.197356277324639E-024
  3.200000000000001E-003    5.380062486465238E-024
  3.300000000000001E-003    2.143384706834727E-023
  3.400000000000001E-003    3.889223191583783E-023
  3.500000000000001E-003    5.630671647088860E-023
  3.600000000000001E-003    7.191754923033100E-023
  3.700000000000001E-003    8.376515241927602E-023
  3.800000000000001E-003    8.984588148623240E-023
  3.900000000000001E-003    8.830541259914081E-023
  4.000000000000001E-003    7.765779523865311E-023
  4.100000000000001E-003    5.701305409322390E-023
  4.200000000000001E-003    2.629198455057933E-023
  4.300000000000001E-003   -1.359656774443397E-023
  4.400000000000001E-003   -6.064141531941329E-023
  4.500000000000001E-003   -1.117020738270388E-022
  4.600000000000002E-003   -1.625893366293795E-022
  4.700000000000001E-003   -2.082666470030795E-022
  4.800000000000001E-003   -2.431759707594703E-022
  4.900000000000002E-003   -2.616802693775262E-022
  5.000000000000001E-003   -2.586010660303077E-022
  5.100000000000001E-003   -2.298169242336963E-022
  5.200000000000001E-003   -1.728755497169206E-022
  5.300000000000002E-003   -8.756235730868385E-023
  5.400000000000001E-003    2.363796949306591E-023
  5.500000000000001E-003    1.552517997718418E-022
  5.600000000000002E-003    2.987590177063014E-022
  5.700000000000001E-003    4.428166390876434E-022
  5.800000000000001E-003    5.737948118567569E-022
  5.900000000000002E-003    6.766322753456703E-022
  6.000000000000001E-003    7.359898948578359E-022
  6.100000000000001E-003    7.376490466096139E-022
  6.200000000000002E-003    6.700685604517525E-022
  6.300000000000002E-003    5.259839103146820E-022
  6.400000000000001E-003    3.039079747875159E-022
  6.500000000000001E-003    9.374669027231866E-024
  6.600000000000002E-003   -3.442373926138879E-022
  6.700000000000001E-003   -7.354549625948494E-022
  6.800000000000001E-003   -1.135164724875124E-021
  6.900000000000002E-003   -1.507860490420172E-021
  7.000000000000001E-003   -1.813717177760429E-021
  7.100000000000001E-003   -2.011454639552978E-021
  7.200000000000002E-003   -2.061875634265258E-021
  7.300000000000002E-003   -1.931878984969697E-021
  7.400000000000001E-003   -1.598669542312513E-021
  7.500000000000001E-003   -1.053813263825444E-021
  7.600000000000002E-003   -3.067366517378030E-022
  7.700000000000001E-003    6.127556269848656E-022
  7.800000000000001E-003    1.653363012794856E-021
  7.900000000000001E-003    2.742934723360078E-021
  8.000000000000002E-003    3.791155628496631E-021
  8.100000000000001E-003    4.694404559112763E-021
  8.200000000000001E-003    5.342746120913384E-021
  8.300000000000002E-003    5.628813322582372E-021
  8.400000000000001E-003    5.458115139911490E-021
  8.500000000000002E-003    4.760082906256842E-021
  8.600000000000002E-003    3.498975009416335E-021
  8.700000000000001E-003    1.683611027115599E-021
  8.800000000000002E-003   -6.251833331461845E-022
  8.900000000000002E-003   -3.310518370300142E-021
  9.000000000000001E-003   -6.199774042321831E-021
  9.100000000000002E-003   -9.070080488339141E-021
  9.200000000000002E-003   -1.165938585641232E-020
  9.300000000000001E-003   -1.368309698294281E-020
  9.400000000000002E-003   -1.485576337472641E-020
  9.500000000000001E-003   -1.491672918521310E-020
  9.600000000000001E-003   -1.365810624359437E-020
  9.700000000000002E-003   -1.095293780076392E-020
  9.800000000000001E-003   -6.781010831384611E-021
  9.900000000000001E-003   -1.249587442206615E-021
  1.000000000000000E-002    5.393714202624775E-021
  1.010000000000000E-002    1.275839183118166E-020
  1.020000000000000E-002    2.032089836644442E-020
  1.030000000000000E-002    2.744803694550900E-020
  1.040000000000000E-002    3.343415998211879E-020
  1.050000000000000E-002    3.755113901439156E-020
  1.060000000000000E-002    3.910882452496535E-020
  1.070000000000000E-002    3.752238605300170E-020
  1.080000000000000E-002    3.238171577012818E-020
  1.090000000000000E-002    2.351714225013493E-020
  1.100000000000000E-002    1.105505215002305E-020
  1.110000000000000E-002   -4.543081016585373E-021
  1.120000000000000E-002   -2.246441202239071E-020
  1.130000000000000E-002   -4.155629275259448E-020
  1.140000000000000E-002   -6.036924422934813E-020
  1.150000000000000E-002   -7.723272581953640E-020
  1.160000000000000E-002   -9.036245985462489E-020
  1.170000000000000E-002   -9.799517761548673E-020
  1.180000000000000E-002   -9.854373746880181E-020
  1.190000000000000E-002   -9.076243341433130E-020
  1.200000000000000E-002   -7.391017494697594E-020
  1.210000000000000E-002   -4.789713242693692E-020
  1.220000000000000E-002   -1.339971308154464E-020
  1.230000000000000E-002    2.807104617816008E-020
  1.240000000000000E-002    7.416095611266430E-020
  1.250000000000000E-002    1.217344148869054E-019
  1.260000000000000E-002    1.670125018019202E-019
  1.270000000000000E-002    2.057879962049171E-019
  1.280000000000000E-002    2.337114302315055E-019
  1.290000000000000E-002    2.466354342515304E-019
  1.300000000000000E-002    2.409976084290182E-019
  1.310000000000000E-002    2.142157133619240E-019
  1.320000000000000E-002    1.650636973297636E-019
  1.330000000000000E-002    9.399404932847429E-020
  1.340000000000000E-002    3.370321325247001E-021
  1.350000000000000E-002   -1.024238293684781E-019
  1.360000000000000E-002   -2.170279147762955E-019
  1.370000000000000E-002   -3.323207639474327E-019
  1.380000000000000E-002   -4.388188515346777E-019
  1.390000000000000E-002   -5.262516111324213E-019
  1.400000000000000E-002   -5.842935698471655E-019
  1.410000000000000E-002   -6.034165364393884E-019
  1.420000000000000E-002   -5.758085884625614E-019
  1.430000000000000E-002   -4.962939202197621E-019
  1.440000000000000E-002   -3.631759249328001E-019
  1.450000000000000E-002   -1.789222197764347E-019
  1.460000000000000E-002    4.939093518461601E-020
  1.470000000000000E-002    3.099479118955799E-019
  1.480000000000000E-002    5.864359186816527E-019
  1.490000000000000E-002    8.586962748250109E-019
  1.500000000000000E-002    1.103793080515092E-018
  1.510000000000000E-002    1.297472747044157E-018
  1.520000000000000E-002    1.415953415730813E-018
  1.530000000000000E-002    1.437945117110583E-018
  1.540000000000000E-002    1.346768849570906E-018
  1.550000000000000E-002    1.132415081180949E-018
  1.560000000000000E-002    7.933637396319521E-019
  1.570000000000000E-002    3.379817399001584E-019
  1.580000000000000E-002   -2.146779154292614E-019
  1.590000000000000E-002   -8.348278318548389E-019
  1.600000000000000E-002   -1.482762052343533E-018
  1.610000000000000E-002   -2.110594636333152E-018
  1.620000000000000E-002   -2.664913536366988E-018
  1.630000000000000E-002   -3.090266098425852E-018
  1.640000000000000E-002   -3.333316030975371E-018
  1.650000000000000E-002   -3.347432210110325E-018
  1.660000000000000E-002   -3.097401549924525E-018
  1.670000000000000E-002   -2.563904619525226E-018
  1.680000000000000E-002   -1.747366431666624E-018
  1.690000000000000E-002   -6.707805005751350E-019
  1.700000000000000E-002    6.188606467438177E-019
  1.710000000000000E-002    2.050840620226732E-018
  1.720000000000000E-002    3.532916387333394E-018
  1.730000000000000E-002    4.955537902408260E-018
  1.740000000000000E-002    6.198030098118808E-018
  1.750000000000000E-002    7.136533514061884E-018
  1.760000000000000E-002    7.653311834505534E-018
  1.770000000000000E-002    7.646888648274466E-018
  1.780000000000000E-002    7.042324598577326E-018
  1.790000000000000E-002    5.800847679086052E-018
  1.800000000000000E-002    3.927989272094718E-018
  1.810000000000000E-002    1.479381640931173E-018
  1.820000000000000E-002   -1.436567644289944E-018
  1.830000000000000E-002   -4.659752949095466E-018
  1.840000000000000E-002   -7.983643119039669E-018
  1.850000000000000E-002   -1.116489561394342E-017
  1.860000000000000E-002   -1.393717383335059E-017
  1.870000000000000E-002   -1.602864797721175E-017