 -4.000000000000000E-002    0.000000000000000E+000
 -3.990000000000000E-002    0.000000000000000E+000
 -3.980000000000000E-002    0.000000000000000E+000
 -3.970000000000000E-002    0.000000000000000E+000
 -3.960000000000000E-002    0.000000000000000E+000
 -3.950000000000000E-002    0.000000000000000E+000
 -3.940000000000000E-002    0.000000000000000E+000
 -3.930000000000000E-002    0.000000000000000E+000
 -3.920000000000000E-002    0.000000000000000E+000
 -3.910000000000000E-002    0.000000000000000E+000
 -3.900000000000000E-002    0.000000000000000E+000
 -3.890000000000000E-002    0.000000000000000E+000
 -3.880000000000000E-002    0.000000000000000E+000
 -3.870000000000000E-002    0.000000000000000E+000
 -3.860000000000000E-002    0.000000000000000E+000
 -3.850000000000000E-002    0.000000000000000E+000
 -3.840000000000000E-002    0.000000000000000E+000
 -3.830000000000000E-002    0.000000000000000E+000
 -3.820000000000000E-002    0.000000000000000E+000
 -3.810000000000000E-002    0.000000000000000E+000
 -3.800000000000000E-002    0.000000000000000E+000
 -3.790000000000000E-002    0.000000000000000E+000
 -3.780000000000000E-002    0.000000000000000E+000
 -3.770000000000000E-002    0.000000000000000E+000
 -3.760000000000000E-002    0.000000000000000E+000
 -3.750000000000000E-002    0.000000000000000E+000
 -3.740000000000000E-002    0.000000000000000E+000
 -3.730000000000000E-002    0.000000000000000E+000
 -3.720000000000000E-002    0.000000000000000E+000
 -3.710000000000000E-002    2.220228788458727E-047
 -3.700000000000000E-002    2.207283688797088E-046
 -3.690000000000000E-002    9.195919696447509E-046
 -3.680000000000000E-002    2.849500300858776E-045
 -3.670000000000000E-002    8.311904946289803E-045
 -3.660000000000000E-002    2.273934899486478E-044
 -3.650000000000000E-002    5.990909131636261E-044
 -3.640000000000000E-002    1.480882257360122E-043
 -3.630000000000000E-002    3.473714829907357E-043
 -3.620000000000000E-002    7.746259212488262E-043
 -3.610000000000000E-002    1.640379512319754E-042
 -3.600000000000000E-002    3.294954821073276E-042
 -3.590000000000000E-002    6.260402882815956E-042
 -3.580000000000000E-002    1.118105175518445E-041
 -3.570000000000000E-002    1.854983563755296E-041
 -3.560000000000000E-002    2.794074001099381E-041
 -3.550000000000000E-002    3.623677630654930E-041
 -3.540000000000000E-002    3.409481571052569E-041
 -3.530000000000000E-002   -4.528943563341002E-043
 -3.520000000000000E-002   -1.125123684015391E-040
 -3.510000000000000E-002   -3.860067803159979E-040
 -3.500000000000000E-002   -9.643007574575108E-040
 -3.490000000000000E-002   -2.072539006678032E-039
 -3.480000000000000E-002   -4.032405853317227E-039
 -3.470000000000000E-002   -7.249749807126293E-039
 -3.460000000000000E-002   -1.213999960935568E-038
 -3.450000000000000E-002   -1.893579203406069E-038
 -3.440000000000000E-002   -2.729848044053479E-038
 -3.430000000000000E-002   -3.563759686356627E-038
 -3.420000000000000E-002   -4.004415962173253E-038
 -3.410000000000000E-002   -3.278825737188303E-038
 -3.400000000000000E-002   -4.519859662243568E-040
 -3.390000000000000E-002    7.799349531699713E-038
 -3.380000000000000E-002    2.324623830153295E-037
 -3.370000000000000E-002    5.010967742529565E-037
 -3.360000000000000E-002    9.256496892919922E-037
 -3.350000000000000E-002    1.540069629594312E-036
 -3.340000000000000E-002    2.348793951908357E-036
 -3.330000000000000E-002    3.291166664881273E-036
 -3.320000000000000E-002    4.189470027289816E-036
 -3.310000000000000E-002    4.681111528817723E-036
 -3.300000000000000E-002    4.141453363844346E-036
 -3.290000000000000E-002    1.613444921198656E-036
 -3.280000000000000E-002   -4.225994843052958E-036
 -3.270000000000000E-002   -1.501557462129117E-035
 -3.260000000000000E-002   -3.250934191056433E-035
 -3.250000000000000E-002   -5.814538151889847E-035
 -3.240000000000000E-002   -9.229823259688618E-035
 -3.230000000000000E-002   -1.331477293949693E-034
 -3.220000000000000E-002   -1.751510204804219E-034
 -3.210000000000000E-002   -2.072095897603613E-034
 -3.200000000000000E-002   -2.107918292495841E-034
 -3.190000000000000E-002   -1.585088507705459E-034
 -3.180000000000000E-002   -1.393577822979105E-035
 -3.170000000000000E-002    2.662124775349458E-034
 -3.160000000000000E-002    7.261730438612269E-034
 -3.150000000000000E-002    1.400004950078837E-033
 -3.140000000000000E-002    2.293948810728329E-033
 -3.130000000000000E-002    3.361685029736979E-033
 -3.120000000000000E-002    4.473291122992988E-033
 -3.110000000000000E-002    5.380945749822814E-033
 -3.100000000000000E-002    5.687588038920549E-033
 -3.090000000000000E-002    4.828695652347003E-033
 -3.080000000000000E-002    2.081670231011848E-033
 -3.070000000000000E-002   -3.378765176278299E-033
 -3.060000000000000E-002   -1.235850373173179E-032
 -3.050000000000000E-002   -2.543579722897541E-032
 -3.040000000000000E-002   -4.265381671303971E-032
 -3.030000000000000E-002   -6.311516435185962E-032
 -3.020000000000000E-002   -8.450306223607904E-032
 -3.010000000000000E-002   -1.025877566674658E-031
 -3.000000000000000E-002   -1.108200160119442E-031
 -2.990000000000000E-002   -1.001626124132273E-031
 -2.980000000000000E-002   -5.935845833780679E-032
 -2.970000000000000E-002    2.413092446421995E-032
 -2.960000000000000E-002    1.622762460662910E-031
 -2.950000000000000E-002    3.635210767102563E-031
 -2.940000000000000E-002    6.286215120312216E-031
 -2.930000000000000E-002    9.453896765381104E-031
 -2.920000000000000E-002    1.282739089063026E-030
 -2.910000000000000E-002    1.584819540440429E-030
 -2.900000000000000E-002    1.766490368472694E-030
 -2.890000000000000E-002    1.711864965688151E-030
 -2.880000000000000E-002    1.278078458030187E-030
 -2.870000000000000E-002    3.066682534448923E-031
 -2.860000000000000E-002   -1.355138430342021E-030
 -2.850000000000000E-002   -3.821533865540671E-030
 -2.840000000000000E-002   -7.123191332728904E-030
 -2.830000000000000E-002   -1.115187711748124E-029
 -2.820000000000000E-002   -1.559905860959093E-029
 -2.810000000000000E-002   -1.989652781548511E-029
 -2.800000000000000E-002   -2.317104312352548E-029
 -2.790000000000000E-002   -2.422891593827441E-029
 -2.780000000000000E-002   -2.158951773840190E-029
 -2.770000000000000E-002   -1.358791315766015E-029
 -2.760000000000000E-002    1.434906588928739E-030
 -2.750000000000000E-002    2.484164318812421E-029
 -2.740000000000000E-002    5.730663697047274E-029
 -2.730000000000000E-002    9.833735749768666E-029
 -2.720000000000000E-002    1.457470217002371E-028
 -2.710000000000000E-002    1.951425228019874E-028
 -2.700000000000000E-002    2.395204879421379E-028
 -2.690000000000000E-002    2.690904956994123E-028
 -2.680000000000000E-002    2.714635411648443E-028
 -2.670000000000000E-002    2.323485622542950E-028
 -2.660000000000000E-002    1.368836526253707E-028
 -2.650000000000000E-002   -2.831582980182438E-029
 -2.640000000000000E-002   -2.723861877684957E-028
 -2.630000000000000E-002   -5.968273414793677E-028
 -2.620000000000000E-002   -9.917448797612495E-028
 -2.610000000000000E-002   -1.432135683737464E-027
 -2.600000000000000E-002   -1.874797392590469E-027
 -2.590000000000000E-002   -2.256594304095100E-027
 -2.580000000000000E-002   -2.494911320599416E-027
 -2.570000000000000E-002   -2.491143557283429E-027
 -2.560000000000000E-002   -2.137961140955889E-027
 -2.550000000000000E-002   -1.330835805169767E-027
 -2.540000000000000E-002    1.611694078170379E-029
 -2.530000000000000E-002    1.950521585983354E-027
 -2.520000000000000E-002    4.459643333539286E-027
 -2.510000000000000E-002    7.447931417001086E-027
 -2.500000000000000E-002    1.071718615534635E-026
 -2.490000000000000E-002    1.395304158990433E-026
 -2.480000000000000E-002    1.672195439553237E-026
 -2.470000000000000E-002    1.848293740042444E-026
 -2.460000000000000E-002    1.861778908072131E-026
 -2.450000000000000E-002    1.648239254633045E-026
 -2.440000000000000E-002    1.147976943201062E-026
 -2.430000000000000E-002    3.152897107023542E-027
 -2.420000000000000E-002   -8.707887475013824E-027
 -2.410000000000000E-002   -2.395174398818097E-026
 -2.400000000000000E-002   -4.196081706542536E-026
 -2.390000000000000E-002   -6.156603106196586E-026
 -2.380000000000000E-002   -8.100286560701813E-026
 -2.370000000000000E-002   -9.792555409488134E-026
 -2.360000000000000E-002   -1.094965423420039E-025
 -2.350000000000000E-002   -1.125640552480974E-025
 -2.340000000000000E-002   -1.039338118617314E-025
 -2.330000000000000E-002   -8.073133152053790E-026
 -2.320000000000000E-002   -4.083945489474894E-026
 -2.310000000000000E-002    1.661813487511529E-026
 -2.300000000000000E-002    9.079043245151340E-026
 -2.290000000000000E-002    1.786660517247318E-025
 -2.280000000000000E-002    2.747602096648893E-025
 -2.270000000000000E-002    3.709941300100496E-025
 -2.260000000000000E-002    4.568377515039275E-025
 -2.250000000000000E-002    5.197772946189590E-025
 -2.240000000000000E-002    5.461491573918289E-025
 -2.230000000000000E-002    5.223518335617297E-025
 -2.220000000000000E-002    4.364063038838130E-025
 -2.210000000000000E-002    2.797865402410146E-025
 -2.200000000000000E-002    4.938686853184530E-026
 -2.190000000000000E-002   -2.505643084781553E-025
 -2.180000000000000E-002   -6.068833776441299E-025
 -2.170000000000000E-002   -9.963827387218540E-025
 -2.160000000000000E-002   -1.385688040123260E-024
 -2.150000000000000E-002   -1.732201944731084E-024
 -2.140000000000000E-002   -1.986440602163378E-024
 -2.130000000000000E-002   -2.095871438495056E-024
 -2.120000000000000E-002   -2.010233385008040E-024
 -2.110000000000000E-002   -1.688130610103400E-024
 -2.100000000000000E-002   -1.104464515826602E-024
 -2.090000000000000E-002   -2.580262564575737E-025
 -2.080000000000000E-002    8.216590812128416E-025
 -2.070000000000000E-002    2.069333214716713E-024
 -2.060000000000000E-002    3.382047866079849E-024
 -2.050000000000000E-002    4.621416743757335E-024
 -2.040000000000000E-002    5.621051361521351E-024
 -2.030000000000000E-002    6.199760483298309E-024
 -2.020000000000000E-002    6.180497980656352E-024
 -2.010000000000000E-002    5.414262848069444E-024
 -2.000000000000000E-002    3.807234425885603E-024
 -1.990000000000000E-002    1.348465742747793E-024
 -1.980000000000000E-002   -1.865429570890056E-024
 -1.970000000000000E-002   -5.612819328394901E-024
 -1.960000000000000E-002   -9.541300429433679E-024
 -1.950000000000000E-002   -1.317783364542745E-023
 -1.940000000000000E-002   -1.595797183297402E-023
 -1.930000000000000E-002   -1.727565647303543E-023
 -1.920000000000000E-002   -1.655263724539018E-023
 -1.910000000000000E-002   -1.332355430236297E-023
 -1.900000000000000E-002   -7.329452417807261E-024
 -1.890000000000000E-002    1.390695341199444E-024
 -1.880000000000000E-002    1.242346933841716E-023
 -1.870000000000000E-002    2.493392209738150E-023
 -1.860000000000000E-002    3.766217256774566E-023
 -1.850000000000000E-002    4.897562302704276E-023
 -1.840000000000000E-002    5.698418661751264E-023
 -1.830000000000000E-002    5.971912346521648E-023
 -1.820000000000000E-002    5.536758530949598E-023
 -1.810000000000000E-002    4.254533136067238E-023
 -1.800000000000000E-002    2.058073398261676E-023
 -1.790000000000000E-002   -1.022476614323429E-023
 -1.780000000000000E-002   -4.839946399614089E-023
 -1.770000000000000E-002   -9.120770021963749E-023
 -1.760000000000000E-002   -1.346950384674631E-022
 -1.750000000000000E-002   -1.738967682552901E-022
 -1.740000000000000E-002   -2.032176940688259E-022
 -1.730000000000000E-002   -2.169701928262176E-022
 -1.720000000000000E-002   -2.100340178423513E-022
 -1.710000000000000E-002   -1.785782696104468E-022
 -1.700000000000000E-002   -1.207665129988484E-022
 -1.690000000000000E-002   -3.735358799546259E-023
 -1.680000000000000E-002    6.791939353035336E-023
 -1.670000000000000E-002    1.882157948036085E-022
 -1.660000000000000E-002    3.138410045457058E-022
 -1.650000000000000E-002    4.328536024795457E-022
 -1.640000000000000E-002    5.320335312321630E-022
 -1.630000000000000E-002    5.981439489039296E-022
 -1.620000000000000E-002    6.193772653513946E-022
 -1.610000000000000E-002    5.868390553455132E-022
 -1.600000000000000E-002    4.959005512208656E-022
 -1.590000000000000E-002    3.472468444156500E-022
 -1.580000000000000E-002    1.474646042860786E-022
 -1.570000000000000E-002   -9.094590013027087E-023
 -1.560000000000000E-002   -3.501952563726064E-022
 -1.550000000000000E-002   -6.084568493527885E-022
 -1.540000000000000E-002   -8.416671672660479E-022
 -1.530000000000000E-002   -1.025730880709522E-021
 -1.520000000000000E-002   -1.138936245752218E-021
 -1.510000000000000E-002   -1.164359544877856E-021
 -1.500000000000000E-002   -1.092031345231504E-021
 -1.490000000000000E-002   -9.206580500002598E-022
 -1.480000000000000E-002   -6.587259883557160E-022
 -1.470000000000000E-002   -3.248639989988954E-022
 -1.460000000000000E-002    5.261444324143665E-023
 -1.450000000000000E-002    4.370310918368189E-022
 -1.440000000000000E-002    7.855372315245267E-022
 -1.430000000000000E-002    1.052181121489821E-021
 -1.420000000000000E-002    1.191831318046448E-021
 -1.410000000000000E-002    1.164910896429314E-021
 -1.400000000000000E-002    9.428414564002098E-022
 -1.390000000000000E-002    5.139864001645755E-022
 -1.380000000000000E-002   -1.102747339578836E-022
 -1.370000000000000E-002   -8.899377336165830E-022
 -1.360000000000000E-002   -1.752073886732472E-021
 -1.350000000000000E-002   -2.588929404255555E-021
 -1.340000000000000E-002   -3.259695157451844E-021
 -1.330000000000000E-002   -3.597242950315045E-021
 -1.320000000000000E-002   -3.420938422733927E-021
 -1.310000000000000E-002   -2.556146864092403E-021
 -1.300000000000000E-002   -8.602526768726525E-022
 -1.290000000000000E-002    1.746113964712474E-021
 -1.280000000000000E-002    5.245285748820017E-021
 -1.270000000000000E-002    9.490262887669380E-021
 -1.260000000000000E-002    1.417924663592340E-020
 -1.250000000000000E-002    1.884318540320204E-020
 -1.240000000000000E-002    2.285266192038969E-020
 -1.230000000000000E-002    2.544963469681205E-020
 -1.220000000000000E-002    2.580759485607567E-020
 -1.210000000000000E-002    2.312056712273249E-020
 -1.200000000000000E-002    1.671721149121069E-020
 -1.190000000000000E-002    6.191468444377152E-021
 -1.180000000000000E-002   -8.463789900694602E-021
 -1.170000000000000E-002   -2.673793608429675E-020
 -1.160000000000000E-002   -4.751931207046226E-020
 -1.150000000000000E-002   -6.906879752048612E-020
 -1.140000000000000E-002   -8.906915042260519E-020
 -1.130000000000000E-002   -1.047633246898979E-019
 -1.120000000000000E-002   -1.131859090539277E-019
 -1.110000000000000E-002   -1.114800150511327E-019
 -1.100000000000000E-002   -9.727837081126364E-020
 -1.090000000000000E-002   -6.911363091034969E-020
 -1.080000000000000E-002   -2.681097324658907E-020
 -1.070000000000000E-002    2.819200585806178E-020
 -1.060000000000000E-002    9.265540981858310E-020
 -1.050000000000000E-002    1.615293961602839E-019
 -1.040000000000000E-002    2.281679524465587E-019
 -1.030000000000000E-002    2.847822513938238E-019
 -1.020000000000000E-002    3.231243461475345E-019
 -1.010000000000000E-002    3.353607584552608E-019
 -1.000000000000000E-002    3.150638845049907E-019
 -9.899999999999999E-003    2.582213132354118E-019
 -9.800000000000000E-003    1.641433872896313E-019
 -9.699999999999999E-003    3.614225745740557E-020
 -9.599999999999999E-003   -1.181375793943996E-019
 -9.500000000000000E-003   -2.868331528787434E-019
 -9.399999999999999E-003   -4.544783471839341E-019
 -9.299999999999999E-003   -6.031260848102146E-019
 -9.200000000000000E-003   -7.139232856110567E-019
 -9.099999999999999E-003   -7.690241793755325E-019
 -8.999999999999999E-003   -7.536731271774015E-019
 -8.900000000000000E-003   -6.582475232544313E-019
 -8.799999999999999E-003   -4.800308242565741E-019
 -8.699999999999999E-003   -2.244894394121766E-019
 -8.600000000000000E-003    9.414276632405771E-020
 -8.499999999999999E-003    4.531135579932813E-019
 -8.399999999999999E-003    8.223017469578750E-019
 -8.300000000000000E-003    1.166245814820589E-018
 -8.199999999999999E-003    1.446939123275222E-018
 -8.100000000000000E-003    1.627193834310755E-018
 -8.000000000000000E-003    1.674306707256785E-018
 -7.899999999999999E-003    1.563712661732571E-018
 -7.800000000000000E-003    1.282294323876401E-018
 -7.699999999999999E-003    8.310257937017219E-019
 -7.599999999999999E-003    2.266674024121651E-019
 -7.499999999999999E-003   -4.977110727335673E-019
 -7.399999999999999E-003   -1.293523559035336E-018
 -7.299999999999999E-003   -2.098836452317637E-018
 -7.199999999999999E-003   -2.841881446988930E-018
 -7.100000000000000E-003   -3.445793765226120E-018
 -6.999999999999999E-003   -3.834371701603816E-018
 -6.899999999999999E-003   -3.938572651282155E-018
 -6.800000000000000E-003   -3.703382231609280E-018
 -6.699999999999999E-003   -3.094617441725912E-018
 -6.599999999999999E-003   -2.105148440556505E-018
 -6.499999999999999E-003   -7.599653522557383E-019
 -6.399999999999999E-003    8.805364593592556E-019
 -6.299999999999999E-003    2.719682724456169E-018
 -6.199999999999999E-003    4.626650358366155E-018
 -6.100000000000000E-003    6.442071275360486E-018
 -5.999999999999999E-003    7.987376282294558E-018
 -5.899999999999999E-003    9.077834238587958E-018
 -5.800000000000000E-003    9.538843437952420E-018
 -5.699999999999999E-003    9.224558286633522E-018
 -5.599999999999999E-003    8.037432562145341E-018
 -5.499999999999999E-003    5.946796576923197E-018
 -5.399999999999999E-003    3.004223083678356E-018
 -5.299999999999999E-003   -6.467335540586772E-019
 -5.199999999999999E-003   -4.768735437835721E-018
 -5.099999999999999E-003   -9.038693305529181E-018
 -4.999999999999999E-003   -1.306675538403246E-017
 -4.899999999999999E-003   -1.642628600514902E-017
 -4.799999999999999E-003   -1.869350688211347E-017
 -4.699999999999999E-003   -1.949402601827145E-017
 -4.599999999999999E-003   -1.855202636180051E-017
 -4.499999999999999E-003   -1.573673311789771E-017
 -4.399999999999999E-003   -1.110007395376120E-017
 -4.299999999999999E-003   -4.899371881096146E-018
 -4.199999999999999E-003    2.400329572538615E-018
 -4.099999999999999E-003    1.014815155249620E-017
 -3.999999999999999E-003    1.755494782619727E-017
 -3.899999999999999E-003    2.376505686505014E-017
 -3.799999999999999E-003    2.794743823094172E-017
 -3.699999999999999E-003    2.939812785792784E-017
 -3.599999999999999E-003    2.764321579546759E-017
 -3.499999999999999E-003    2.252968003567265E-017
 -3.399999999999999E-003    1.429094516837836E-017
 -3.299999999999999E-003    3.575083301521633E-018
 -3.199999999999999E-003   -8.573593516746341E-018
 -3.099999999999999E-003   -2.078446737575979E-017
 -2.999999999999999E-003   -3.148127568975950E-017
 -2.899999999999999E-003   -3.904633892950952E-017
 -2.799999999999999E-003   -4.201476970748850E-017
 -2.699999999999999E-003   -3.927938741319755E-017
 -2.599999999999999E-003   -3.028305855316979E-017
 -2.499999999999999E-003   -1.517332599049473E-017
 -2.399999999999999E-003    5.104696014906602E-018
 -2.299999999999999E-003    2.879716156884380E-017
 -2.199999999999999E-003    5.342504127606042E-017
 -2.099999999999999E-003    7.596602563081071E-017
 -1.999999999999999E-003    9.312726106825579E-017
 -1.899999999999999E-003    1.016902150837946E-016
 -1.799999999999999E-003    9.889797192607644E-017
 -1.699999999999999E-003    8.284712906434010E-017
 -1.599999999999999E-003    5.284095139995949E-017
 -1.499999999999999E-003    9.659758346415667E-018
 -1.399999999999999E-003   -4.429187411475333E-017
 -1.299999999999999E-003   -1.049928457534812E-016
 -1.199999999999999E-003   -1.669870030130508E-016
 -1.099999999999999E-003   -2.237413008436601E-016
 -9.999999999999989E-004   -2.681654706382057E-016
 -8.999999999999990E-004   -2.932599983140135E-016
 -7.999999999999990E-004   -2.928428994613982E-016
 -6.999999999999989E-004   -2.622929832632117E-016
 -5.999999999999990E-004   -1.992391452276558E-016
 -4.999999999999989E-004   -1.041237075569794E-016
 -3.999999999999989E-004    1.942791172212627E-017
 -2.999999999999989E-004    1.644873288159914E-016
 -1.999999999999989E-004    3.209922748857864E-016
 -9.999999999999892E-005    4.762219922645572E-016
  1.084202172485504E-018    6.155713829516081E-016
  1.000000000000011E-004    7.235899770467701E-016
  2.000000000000011E-004    7.852272321743340E-016
  3.000000000000011E-004    7.872021990572168E-016
  4.000000000000011E-004    7.193989731120328E-016
  5.000000000000011E-004    5.761769503731126E-016
  6.000000000000011E-004    3.574809833477179E-016
  7.000000000000011E-004    6.964057813101339E-017
  8.000000000000011E-004   -2.742411808054996E-016
  9.000000000000012E-004   -6.543874641901292E-016
  1.000000000000001E-003   -1.044988615958602E-015
  1.100000000000001E-003   -1.415400919469519E-015
  1.200000000000001E-003   -1.731883802825956E-015
  1.300000000000001E-003   -1.959813159899343E-015
  1.400000000000001E-003   -2.066268444678921E-015
  1.500000000000001E-003   -2.022850741450635E-015
  1.600000000000001E-003   -1.808555056062916E-015
  1.700000000000001E-003   -1.412492548314760E-015
  1.800000000000001E-003   -8.362425651285283E-016
  1.900000000000001E-003   -9.561136276506774E-017
  2.000000000000001E-003    7.784165809668234E-016
  2.100000000000001E-003    1.739717377753413E-015
  2.200000000000001E-003    2.728197140908888E-015
  2.300000000000001E-003    3.672172135219136E-015
  2.400000000000001E-003    4.491962319858429E-015
  2.500000000000001E-003    5.104616921056236E-015
  2.600000000000001E-003    5.429599289147001E-015
  2.700000000000001E-003    5.395159117580587E-015
  2.800000000000001E-003    4.945039800032559E-015
  2.900000000000001E-003    4.045080961148065E-015
  3.000000000000001E-003    2.689228852601589E-015
  3.100000000000001E-003    9.044259216668220E-016
  3.200000000000001E-003   -1.246145238359310E-015
  3.300000000000001E-003   -3.661955855682760E-015
  3.400000000000001E-003   -6.206577909525708E-015
  3.500000000000001E-003   -8.711987605887692E-015
  3.600000000000001E-003   -1.098586769379911E-014
  3.700000000000001E-003   -1.282186780770615E-014
  3.800000000000001E-003   -1.401255612522009E-014
  3.900000000000001E-003   -1.436455865293866E-014
  4.000000000000001E-003   -1.371514024979884E-014
  4.100000000000001E-003   -1.194924697602497E-014
  4.200000000000001E-003   -9.015826277902751E-015
  4.300000000000001E-003   -4.942092171060692E-015
  4.400000000000001E-003    1.556835146631827E-016
  4.500000000000001E-003    6.066251666264098E-015
  4.600000000000002E-003    1.248362423889605E-014
  4.700000000000001E-003    1.901449962836785E-014
  4.800000000000001E-003    2.519354415704397E-014
  4.900000000000002E-003    3.050669701596196E-014
  5.000000000000001E-003    3.442206679480193E-014
  5.100000000000001E-003    3.642731212759746E-014
  5.200000000000001E-003    3.607169336350094E-014
  5.300000000000002E-003    3.301028285925684E-014
  5.400000000000001E-003    2.704722253337412E-014
  5.500000000000001E-003    1.817443422017797E-014
  5.600000000000002E-003    6.601990424091871E-015
  5.700000000000001E-003   -7.223650261197657E-015
  5.800000000000001E-003   -2.261696329965944E-014
  5.900000000000002E-003   -3.866893858205628E-014
  6.000000000000001E-003   -5.428258115203320E-014
  6.100000000000001E-003   -6.822861151665414E-014
  6.200000000000002E-003   -7.922004028495479E-014
  6.300000000000002E-003   -8.600252326548009E-014
  6.400000000000001E-003   -8.745565611419543E-014
  6.500000000000001E-003   -8.269869565497785E-014
  6.600000000000002E-003   -7.119295294744055E-014
  6.700000000000001E-003   -5.283211893737874E-014
  6.800000000000001E-003   -2.801164990347440E-014
  6.900000000000002E-003    2.331289841782896E-015
  7.000000000000001E-003    3.671458092605972E-014
  7.100000000000001E-003    7.314983465261394E-014
  7.200000000000002E-003    1.092255750785961E-013
  7.300000000000002E-003    1.422342131333581E-013
  7.400000000000001E-003    1.693384837043141E-013
  7.500000000000001E-003    1.877692919755046E-013
  7.600000000000002E-003    1.950434489751674E-013
  7.700000000000001E-003    1.891866853642055E-013
  7.800000000000001E-003    1.689453141326407E-013
  7.900000000000001E-003    1.339687333505569E-013
  8.000000000000002E-003    8.494525331826859E-014
  8.100000000000001E-003    2.367550685564080E-014
  8.200000000000001E-003   -4.692930951395693E-014
  8.300000000000002E-003   -1.229325551487576E-013
  8.400000000000001E-003   -1.995432125157912E-013
  8.500000000000002E-003   -2.713692805195204E-013
  8.600000000000002E-003   -3.327430134176932E-013
  8.700000000000001E-003   -3.781012430367834E-013
  8.800000000000002E-003   -4.023979303900645E-013
  8.900000000000002E-003   -4.015219030652744E-013
  9.000000000000001E-003   -3.726893953131683E-013
  9.100000000000002E-003   -3.147804723057452E-013
  9.200000000000002E-003   -2.285896348688059E-013
  9.300000000000001E-003   -1.169646633233161E-013
  9.400000000000002E-003    1.518624183701800E-014
  9.500000000000001E-003    1.610312762304827E-013
  9.600000000000001E-003    3.120986125973705E-013
  9.700000000000002E-003    4.586993232214853E-013
  9.800000000000001E-003    5.904721742290040E-013
  9.900000000000001E-003    6.970225412074780E-013
  1.000000000000000E-002    7.686198033747486E-013
  1.010000000000000E-002    7.969103637832841E-013
  1.020000000000000E-002    7.756001677041092E-013
  1.030000000000000E-002    7.010588337997817E-013
  1.040000000000000E-002    5.727999211737121E-013
  1.050000000000000E-002    3.937965586438507E-013
  1.060000000000000E-002    1.706000693914295E-013
  1.070000000000000E-002   -8.676079706216074E-014
  1.080000000000000E-002   -3.651099754730174E-013
  1.090000000000000E-002   -6.486798802451611E-013
  1.100000000000000E-002   -9.198754937506563E-013
  1.110000000000000E-002   -1.160215687328338E-012
  1.120000000000000E-002   -1.351408187738185E-012
  1.130000000000000E-002   -1.476504061136421E-012
  1.140000000000000E-002   -1.521069395746167E-012
  1.150000000000000E-002   -1.474306384488710E-012
  1.160000000000000E-002   -1.330053935092755E-012
  1.170000000000000E-002   -1.087599938689441E-012
  1.180000000000000E-002   -7.522408951818516E-013
  1.190000000000000E-002   -3.355354685160291E-013
  1.200000000000000E-002    1.447917219716304E-013
  1.210000000000000E-002    6.653229456280125E-013
  1.220000000000000E-002    1.197806247711085E-012
  1.230000000000000E-002    1.710389108172404E-012
  1.240000000000000E-002    2.169193988568121E-012
  1.250000000000000E-002    2.540179585475243E-012
  1.260000000000000E-002    2.791208800704561E-012
  1.270000000000000E-002    2.894223917469741E-012
  1.280000000000000E-002    2.827411410316754E-012
  1.290000000000000E-002    2.577222851232112E-012
  1.300000000000000E-002    2.140112775516263E-012
  1.310000000000000E-002    1.523852367096721E-012
  1.320000000000000E-002    7.482859663792665E-013
  1.330000000000000E-002   -1.545850670492587E-013
  1.340000000000000E-002   -1.141278900668074E-012
  1.350000000000000E-002   -2.158319693566881E-012
  1.360000000000000E-002   -3.144538536315341E-012
  1.370000000000000E-002   -4.034138617310097E-012
  1.380000000000000E-002   -4.760418263289788E-012
  1.390000000000000E-002   -5.259984358994430E-012
  1.400000000000000E-002   -5.477237439221641E-012
  1.410000000000000E-002   -5.368858620777561E-012
  1.420000000000000E-002   -4.907997989209133E-012
  1.430000000000000E-002   -4.087841342033659E-012
  1.440000000000000E-002   -2.924241948369738E-012
  1.450000000000000E-002   -1.457125632420401E-012
  1.460000000000000E-002    2.495692870200445E-013
  1.470000000000000E-002    2.109581433593850E-012
  1.480000000000000E-002    4.017711484766437E-012
  1.490000000000000E-002    5.854859368108552E-012
  1.500000000000000E-002    7.494543601582904E-012
  1.510000000000000E-002    8.810611565503711E-012
  1.520000000000000E-002    9.685729742432861E-012
  1.530000000000000E-002    1.002014283023600E-011
  1.540000000000000E-002    9.740118674553096E-012
  1.550000000000000E-002    8.805455839898005E-012
  1.560000000000000E-002    7.215436126024725E-012
  1.570000000000000E-002    5.012652391530716E-012
  1.580000000000000E-002    2.284236897957030E-012
  1.590000000000000E-002   -8.398409514478745E-013
  1.600000000000000E-002   -4.191561549389734E-012
  1.610000000000000E-002   -7.572678045968316E-012
  1.620000000000000E-002   -1.076530098536372E-011
  1.630000000000000E-002   -1.354475138719222E-011
  1.640000000000000E-002   -1.569398858783128E-011
  1.650000000000000E-002   -1.701874570589865E-011
  1.660000000000000E-002   -1.736238643823461E-011
  1.670000000000000E-002   -1.661943420490641E-011
  1.680000000000000E-002   -1.474674581697847E-011
  1.690000000000000E-002   -1.177137775942182E-011
  1.700000000000000E-002   -7.794362206772460E-012
  1.710000000000000E-002   -2.989836129539157E-012
  1.720000000000000E-002    2.400752729510683E-012
  1.730000000000000E-002    8.079313595406077E-012
  1.740000000000000E-002    1.370626905158036E-011
  1.750000000000000E-002    1.891948492749013E-011
  1.760000000000000E-002    2.335596141689765E-011
  1.770000000000000E-002    2.667502383264234E-011
  1.780000000000000E-002    2.858158215857614E-011
  1.790000000000000E-002    2.884794477917136E-011
  1.800000000000000E-002    2.733269957392897E-011
  1.810000000000000E-002    2.399528356821814E-011
  1.820000000000000E-002    1.890508111030113E-011
  1.830000000000000E-002    1.224419903503827E-011
  1.840000000000000E-002    4.303430398903077E-012
  1.850000000000000E-002   -4.528670582394574E-012
  1.860000000000000E-002   -1.378324323374075E-011
  1.870000000000000E-002   -2.293433814691651E-011