 -4.000000000000000E-002    0.000000000000000E+000
 -3.990000000000000E-002    0.000000000000000E+000
 -3.980000000000000E-002    0.000000000000000E+000
 -3.970000000000000E-002    0.000000000000000E+000
 -3.960000000000000E-002    0.000000000000000E+000
 -3.950000000000000E-002    0.000000000000000E+000
 -3.940000000000000E-002    0.000000000000000E+000
 -3.930000000000000E-002    8.367372587797693E-028
 -3.920000000000000E-002    1.270044211960182E-026
 -3.910000000000000E-002    1.020481972225521E-025
 -3.900000000000000E-002    5.755168764770913E-025
 -3.890000000000000E-002    2.549982558279569E-024
 -3.880000000000000E-002    9.424542931097428E-024
 -3.870000000000000E-002    3.013490751279104E-023
 -3.860000000000000E-002    8.538452192387082E-023
 -3.850000000000000E-002    2.179299422079092E-022
 -3.840000000000000E-002    5.067622934075249E-022
 -3.830000000000000E-002    1.081691549252842E-021
 -3.820000000000000E-002    2.128335493871703E-021
 -3.810000000000000E-002    3.863171053773180E-021
 -3.800000000000000E-002    6.444610738758924E-021
 -3.790000000000000E-002    9.771723672661161E-021
 -3.780000000000000E-002    1.311307898538343E-020
 -3.770000000000000E-002    1.451386487737377E-020
 -3.760000000000000E-002    9.962829028476056E-021
 -3.750000000000000E-002   -7.624009679619378E-021
 -3.740000000000000E-002   -4.941703084492972E-020
 -3.730000000000000E-002   -1.313130043661858E-019
 -3.720000000000000E-002   -2.736020622006073E-019
 -3.710000000000000E-002   -4.988282250735037E-019
 -3.700000000000000E-002   -8.268368183360174E-019
 -3.690000000000000E-002   -1.265984398173464E-018
 -3.680000000000000E-002   -1.799743771486172E-018
 -3.670000000000000E-002   -2.368588507133361E-018
 -3.660000000000000E-002   -2.848183857597978E-018
 -3.650000000000000E-002   -3.026576074775740E-018
 -3.640000000000000E-002   -2.585184924400128E-018
 -3.630000000000000E-002   -1.090727938112941E-018
 -3.620000000000000E-002    1.992640150210669E-018
 -3.610000000000000E-002    7.260308161455330E-018
 -3.600000000000000E-002    1.528271322825117E-017
 -3.590000000000000E-002    2.647109019757187E-017
 -3.580000000000000E-002    4.089039017255324E-017
 -3.570000000000000E-002    5.802479682174236E-017
 -3.560000000000000E-002    7.651308372663282E-017
 -3.550000000000000E-002    9.388542130547155E-017
 -3.540000000000000E-002    1.063487595932019E-016
 -3.530000000000000E-002    1.086823847130670E-016
 -3.520000000000000E-002    9.431559969704186E-017
 -3.510000000000000E-002    5.566241518716268E-017
 -3.500000000000000E-002   -1.521979373004177E-017
 -3.490000000000000E-002   -1.256023378903387E-016
 -3.480000000000000E-002   -2.806797543867861E-016
 -3.470000000000000E-002   -4.818308424027213E-016
 -3.460000000000000E-002   -7.246553273500230E-016
 -3.450000000000000E-002   -9.969674090863918E-016
 -3.440000000000000E-002   -1.276999599439904E-015
 -3.430000000000000E-002   -1.532131664159884E-015
 -3.420000000000000E-002   -1.718498686834604E-015
 -3.410000000000000E-002   -1.781839168723424E-015
 -3.400000000000000E-002   -1.659907145295686E-015
 -3.390000000000000E-002   -1.286686005898535E-015
 -3.380000000000000E-002   -5.985069216530057E-016
 -3.370000000000000E-002    4.580115027158397E-016
 -3.360000000000000E-002    1.916503691713481E-015
 -3.350000000000000E-002    3.780416818569821E-015
 -3.340000000000000E-002    6.012370362701714E-015
 -3.330000000000000E-002    8.524300979242293E-015
 -3.320000000000000E-002    1.116954835992496E-014
 -3.310000000000000E-002    1.373811975304062E-014
 -3.300000000000000E-002    1.595637571244811E-014
 -3.290000000000000E-002    1.749229266546759E-014
 -3.280000000000000E-002    1.796724021647963E-014
 -3.270000000000000E-002    1.697495300017201E-014
 -3.260000000000000E-002    1.410796787633165E-014
 -3.250000000000000E-002    8.991371925999305E-015
 -3.240000000000000E-002    1.323181213881913E-015
 -3.230000000000000E-002   -9.079897987652435E-015
 -3.220000000000000E-002   -2.223318610344462E-014
 -3.210000000000000E-002   -3.793376679203594E-014
 -3.200000000000000E-002   -5.571250238247134E-014
 -3.190000000000000E-002   -7.479235425675308E-014
 -3.180000000000000E-002   -9.405779635168109E-014
 -3.170000000000000E-002   -1.120408599432353E-013
 -3.160000000000000E-002   -1.269299068950597E-013
 -3.150000000000000E-002   -1.366075700239691E-013
 -3.140000000000000E-002   -1.387241682204887E-013
 -3.130000000000000E-002   -1.308120755331703E-013
 -3.120000000000000E-002   -1.104449299032697E-013
 -3.110000000000000E-002   -7.544275337663993E-014
 -3.100000000000000E-002   -2.412027820118245E-014
 -3.090000000000000E-002    4.442940746854634E-014
 -3.080000000000000E-002    1.300298915390413E-013
 -3.070000000000000E-002    2.311158281317084E-013
 -3.060000000000000E-002    3.444544090215628E-013
 -3.050000000000000E-002    4.649277411923679E-013
 -3.040000000000000E-002    5.854145305969701E-013
 -3.030000000000000E-002    6.968112393141398E-013
 -3.020000000000000E-002    7.882310638939317E-013
 -3.010000000000000E-002    8.474121194927354E-013
 -3.000000000000000E-002    8.613545001953500E-013
 -2.990000000000000E-002    8.171884175992914E-013
 -2.980000000000000E-002    7.032535928986276E-013
 -2.970000000000000E-002    5.103438195446550E-013
 -2.960000000000000E-002    2.330438861620986E-013
 -2.950000000000000E-002   -1.289409582622362E-013
 -2.940000000000000E-002   -5.695844953504549E-013
 -2.930000000000000E-002   -1.075604692700986E-012
 -2.920000000000000E-002   -1.625933762607834E-012
 -2.910000000000000E-002   -2.191724122387707E-012
 -2.900000000000000E-002   -2.736994311228463E-012
 -2.890000000000000E-002   -3.219979741705569E-012
 -2.880000000000000E-002   -3.595199384692529E-012
 -2.870000000000000E-002   -3.816181947163136E-012
 -2.860000000000000E-002   -3.838728435236675E-012
 -2.850000000000000E-002   -3.624515455830480E-012
 -2.840000000000000E-002   -3.144787239107213E-012
 -2.830000000000000E-002   -2.383838649345976E-012
 -2.820000000000000E-002   -1.341974183117752E-012
 -2.810000000000000E-002   -3.763679175848952E-014
 -2.800000000000000E-002    1.491555502391187E-012
 -2.790000000000000E-002    3.189057919223294E-012
 -2.780000000000000E-002    4.981019916769963E-012
 -2.770000000000000E-002    6.779251530284152E-012
 -2.760000000000000E-002    8.485383113698578E-012
 -2.750000000000000E-002    9.995946982819873E-012
 -2.740000000000000E-002    1.120801094496953E-011
 -2.730000000000000E-002    1.202493456812961E-011
 -2.720000000000000E-002    1.236180333687670E-011
 -2.710000000000000E-002    1.215012435882566E-011
 -2.700000000000000E-002    1.134145679996112E-011
 -2.690000000000000E-002    9.909779150895289E-012
 -2.680000000000000E-002    7.852549044484008E-012
 -2.670000000000000E-002    5.190584405918640E-012
 -2.660000000000000E-002    1.967043191975555E-012
 -2.650000000000000E-002   -1.754096995841410E-012
 -2.640000000000000E-002   -5.889609565697809E-012
 -2.630000000000000E-002   -1.033820662584812E-011
 -2.620000000000000E-002   -1.498100897111996E-011
 -2.610000000000000E-002   -1.968115432422652E-011
 -2.600000000000000E-002   -2.428263777241410E-011
 -2.590000000000000E-002   -2.860875883050313E-011
 -2.580000000000000E-002   -3.246082491759765E-011
 -2.570000000000000E-002   -3.561799547629405E-011
 -2.560000000000000E-002   -3.783925308032471E-011
 -2.550000000000000E-002   -3.886853848596958E-011
 -2.540000000000000E-002   -3.844387564680207E-011
 -2.530000000000000E-002   -3.631103297916330E-011
 -2.520000000000000E-002   -3.224174546333237E-011
 -2.510000000000000E-002   -2.605595311439366E-011
 -2.500000000000000E-002   -1.764682373713457E-011
 -2.490000000000000E-002   -7.006690593182402E-012
 -2.480000000000000E-002    5.748518919814002E-012
 -2.470000000000000E-002    2.035916307188397E-011
 -2.460000000000000E-002    3.640895760938949E-011
 -2.450000000000000E-002    5.332194689005258E-011
 -2.440000000000000E-002    7.037149637474524E-011
 -2.430000000000000E-002    8.670260055179192E-011
 -2.420000000000000E-002    1.013676339088039E-010
 -2.410000000000000E-002    1.133744073614797E-010
 -2.400000000000000E-002    1.217440257275669E-010
 -2.390000000000000E-002    1.255748560035572E-010
 -2.380000000000000E-002    1.241078931430171E-010
 -2.370000000000000E-002    1.167883051054213E-010
 -2.360000000000000E-002    1.033177920326966E-010
 -2.350000000000000E-002    8.369295239764934E-011
 -2.340000000000000E-002    5.822573773625427E-011
 -2.330000000000000E-002    2.754374199110472E-011
 -2.320000000000000E-002   -7.430340023182279E-012
 -2.310000000000000E-002   -4.551857284027704E-011
 -2.300000000000000E-002   -8.534374943367024E-011
 -2.290000000000000E-002   -1.253965671873954E-010
 -2.280000000000000E-002   -1.641081049352189E-010
 -2.270000000000000E-002   -1.999211862728143E-010
 -2.260000000000000E-002   -2.313546962189596E-010
 -2.250000000000000E-002   -2.570558644628639E-010
 -2.240000000000000E-002   -2.758373228959348E-010
 -2.230000000000000E-002   -2.866979868173094E-010
 -2.220000000000000E-002   -2.888289693742835E-010
 -2.210000000000000E-002   -2.816083337161992E-010
 -2.200000000000000E-002   -2.645900473163512E-010
 -2.190000000000000E-002   -2.374938244560248E-010
 -2.180000000000000E-002   -2.002026177973210E-010
 -2.170000000000000E-002   -1.527736350682782E-010
 -2.160000000000000E-002   -9.546712659108009E-011
 -2.150000000000000E-002   -2.879399645296348E-011
 -2.140000000000000E-002    4.641975460330600E-011
 -2.130000000000000E-002    1.289575330363441E-010
 -2.120000000000000E-002    2.171348135296730E-010
 -2.110000000000000E-002    3.087317952648470E-010
 -2.100000000000000E-002    4.009495159227749E-010
 -2.090000000000000E-002    4.904032333530758E-010
 -2.080000000000000E-002    5.731649351228285E-010
 -2.070000000000000E-002    6.448642230294946E-010
 -2.060000000000000E-002    7.008516360490643E-010
 -2.050000000000000E-002    7.364228047331478E-010
 -2.040000000000000E-002    7.470955779058034E-010
 -2.030000000000000E-002    7.289252838559837E-010
 -2.020000000000000E-002    6.788379022776819E-010
 -2.010000000000000E-002    5.949561709834395E-010
 -2.000000000000000E-002    4.768912995033382E-010
 -1.990000000000000E-002    3.259724633513547E-010
 -1.980000000000000E-002    1.453888836854982E-010
 -1.970000000000000E-002   -5.977620362189876E-011
 -1.960000000000000E-002   -2.826331831962315E-010
 -1.950000000000000E-002   -5.147001267603728E-010
 -1.940000000000000E-002   -7.462384158476521E-010
 -1.930000000000000E-002   -9.666950742097915E-010
 -1.920000000000000E-002   -1.165227976796083E-009
 -1.910000000000000E-002   -1.331282790359556E-009
 -1.900000000000000E-002   -1.455184023527422E-009
 -1.890000000000000E-002   -1.528702074694455E-009
 -1.880000000000000E-002   -1.545556749626497E-009
 -1.870000000000000E-002   -1.501823156971556E-009
 -1.860000000000000E-002   -1.396211554364759E-009
 -1.850000000000000E-002   -1.230201768909409E-009
 -1.840000000000000E-002   -1.008023895899947E-009
 -1.830000000000000E-002   -7.364875202421942E-010
 -1.820000000000000E-002   -4.246725713285831E-010
 -1.810000000000000E-002   -8.350529140090122E-011
 -1.800000000000000E-002    2.747508062716095E-010
 -1.790000000000000E-002    6.370528440092753E-010
 -1.780000000000000E-002    9.901493110617909E-010
 -1.770000000000000E-002    1.321127294668555E-009
 -1.760000000000000E-002    1.617905674316495E-009
 -1.750000000000000E-002    1.869650375787656E-009
 -1.740000000000000E-002    2.067096910892164E-009
 -1.730000000000000E-002    2.202775331053368E-009
 -1.720000000000000E-002    2.271141509155128E-009
 -1.710000000000000E-002    2.268629274275835E-009
 -1.700000000000000E-002    2.193641774336017E-009
 -1.690000000000000E-002    2.046506001275610E-009
 -1.680000000000000E-002    1.829413761513344E-009
 -1.670000000000000E-002    1.546369574950682E-009
 -1.660000000000000E-002    1.203158972068545E-009
 -1.650000000000000E-002    8.073433749778553E-010
 -1.640000000000000E-002    3.682754433205910E-010
 -1.630000000000000E-002   -1.028797377001816E-010
 -1.620000000000000E-002   -5.931435695181801E-010
 -1.610000000000000E-002   -1.087774932531363E-009
 -1.600000000000000E-002   -1.570407596375520E-009
 -1.590000000000000E-002   -2.023309555745345E-009
 -1.580000000000000E-002   -2.427791157683563E-009
 -1.570000000000000E-002   -2.764778482086111E-009
 -1.560000000000000E-002   -3.015552845495758E-009
 -1.550000000000000E-002   -3.162638841337585E-009
 -1.540000000000000E-002   -3.190803501075621E-009
 -1.530000000000000E-002   -3.088111439975971E-009
 -1.520000000000000E-002   -2.846962506784046E-009
 -1.510000000000000E-002   -2.465032710471095E-009
 -1.500000000000000E-002   -1.946031181797688E-009
 -1.490000000000000E-002   -1.300194749882100E-009
 -1.480000000000000E-002   -5.444516562032750E-010
 -1.470000000000000E-002    2.977896563806002E-010
 -1.460000000000000E-002    1.197246773054792E-009
 -1.450000000000000E-002    2.119749880061014E-009
 -1.440000000000000E-002    3.027567399252727E-009
 -1.430000000000000E-002    3.880991795413016E-009
 -1.420000000000000E-002    4.640091672200181E-009
 -1.410000000000000E-002    5.266515434785674E-009
 -1.400000000000000E-002    5.725230377867304E-009
 -1.390000000000000E-002    5.986085037375158E-009
 -1.380000000000000E-002    6.025102750160113E-009
 -1.370000000000000E-002    5.825444154978823E-009
 -1.360000000000000E-002    5.378003989216914E-009
 -1.350000000000000E-002    4.681649547140766E-009
 -1.340000000000000E-002    3.743138260772030E-009
 -1.330000000000000E-002    2.576784257380415E-009
 -1.320000000000000E-002    1.203956811116427E-009
 -1.310000000000000E-002   -3.474946526106414E-010
 -1.300000000000000E-002   -2.043808270415438E-009
 -1.290000000000000E-002   -3.845804288776567E-009
 -1.280000000000000E-002   -5.709277267811758E-009
 -1.270000000000000E-002   -7.585290137008929E-009
 -1.260000000000000E-002   -9.420412829621484E-009
 -1.250000000000000E-002   -1.115699056761639E-008
 -1.240000000000000E-002   -1.273353950931938E-008
 -1.230000000000000E-002   -1.408539188739219E-008
 -1.220000000000000E-002   -1.514570155935891E-008
 -1.210000000000000E-002   -1.584689046413055E-008
 -1.200000000000000E-002   -1.612260094613280E-008
 -1.190000000000000E-002   -1.591014170133441E-008
 -1.180000000000000E-002   -1.515338934672201E-008
 -1.170000000000000E-002   -1.380603114000375E-008
 -1.160000000000000E-002   -1.183500722282762E-008
 -1.150000000000000E-002   -9.223978335442454E-009
 -1.140000000000000E-002   -5.976648940105727E-009
 -1.130000000000000E-002   -2.119774681527258E-009
 -1.120000000000000E-002    2.294252602753903E-009
 -1.110000000000000E-002    7.185288018968645E-009
 -1.100000000000000E-002    1.244378692324043E-008
 -1.090000000000000E-002    1.792949837003911E-008
 -1.080000000000000E-002    2.347037169112459E-008
 -1.070000000000000E-002    2.886142897497595E-008
 -1.060000000000000E-002    3.386338547713077E-008
 -1.050000000000000E-002    3.820079733976659E-008
 -1.040000000000000E-002    4.155957284618532E-008
 -1.030000000000000E-002    4.358372230260706E-008
 -1.020000000000000E-002    4.387149454058856E-008
 -1.010000000000000E-002    4.197089433332300E-008
 -1.000000000000000E-002    3.737506612890569E-008
 -9.899999999999999E-003    2.951778009156547E-008
 -9.800000000000000E-003    1.776963882460453E-008
 -9.699999999999999E-003    1.435473872515428E-009
 -9.599999999999999E-003   -2.024654704726009E-008
 -9.500000000000000E-003   -4.810375597840313E-008
 -9.399999999999999E-003   -8.302535405260720E-008
 -9.299999999999999E-003   -1.259564351326751E-007
 -9.200000000000000E-003   -1.778896166737797E-007
 -9.099999999999999E-003   -2.398547841065085E-007
 -8.999999999999999E-003   -3.129076918448067E-007
 -8.900000000000000E-003   -3.981179022588985E-007
 -8.799999999999999E-003   -4.965570572966297E-007
 -8.699999999999999E-003   -6.092887516639817E-007
 -8.600000000000000E-003   -7.373604930663470E-007
 -8.499999999999999E-003   -8.817986672345212E-007
 -8.399999999999999E-003   -1.043606813487271E-006
 -8.300000000000000E-003   -1.223767848858605E-006
 -8.199999999999999E-003   -1.423249131765948E-006
 -8.100000000000000E-003   -1.643011902141398E-006
 -8.000000000000000E-003   -1.884021504838480E-006
 -7.899999999999999E-003   -2.147259291833170E-006
 -7.800000000000000E-003   -2.433735525895307E-006
 -7.699999999999999E-003   -2.744500154020860E-006
 -7.599999999999999E-003   -3.080652684982244E-006
 -7.499999999999999E-003   -3.443346872307312E-006
 -7.399999999999999E-003   -3.833795269865149E-006
 -7.299999999999999E-003   -4.253267277197359E-006
 -7.199999999999999E-003   -4.703085322960023E-006
 -7.100000000000000E-003   -5.184618545727042E-006
 -6.999999999999999E-003   -5.699274929826690E-006
 -6.899999999999999E-003   -6.248492144733188E-006
 -6.800000000000000E-003   -6.833730854044114E-006
 -6.699999999999999E-003   -7.456472957941901E-006
 -6.599999999999999E-003   -8.118218505557973E-006
 -6.499999999999999E-003   -8.820493786663326E-006
 -6.399999999999999E-003   -9.564862218992938E-006
 -6.299999999999999E-003   -1.035294083989403E-005
 -6.199999999999999E-003   -1.118642611289853E-005
 -6.100000000000000E-003   -1.206711845957583E-005
 -5.999999999999999E-003   -1.299695787654538E-005
 -5.899999999999999E-003   -1.397805104189724E-005
 -5.800000000000000E-003   -1.501271298668775E-005
 -5.699999999999999E-003   -1.610349096953360E-005
 -5.599999999999999E-003   -1.725319528438468E-005
 -5.499999999999999E-003   -1.846492067540058E-005
 -5.399999999999999E-003   -1.974206517340863E-005
 -5.299999999999999E-003   -2.108833472548962E-005
 -5.199999999999999E-003   -2.250774970793265E-005
 -5.099999999999999E-003   -2.400464283465213E-005
 -4.999999999999999E-003   -2.558364789318167E-005
 -4.899999999999999E-003   -2.724969562002378E-005
 -4.799999999999999E-003   -2.900800058746436E-005
 -4.699999999999999E-003   -3.086405152978666E-005
 -4.599999999999999E-003   -3.282359898505152E-005
 -4.499999999999999E-003   -3.489266589536234E-005
 -4.399999999999999E-003   -3.707753764112273E-005
 -4.299999999999999E-003   -3.938478118994114E-005
 -4.199999999999999E-003   -4.182125087411291E-005
 -4.099999999999999E-003   -4.439412636488746E-005
 -3.999999999999999E-003   -4.711092194588012E-005
 -3.899999999999999E-003   -4.997953205052010E-005
 -3.799999999999999E-003   -5.300824679204687E-005
 -3.699999999999999E-003   -5.620580268805303E-005
 -3.599999999999999E-003   -5.958138750072450E-005
 -3.499999999999999E-003   -6.314468245083090E-005
 -3.399999999999999E-003   -6.690587519862153E-005
 -3.299999999999999E-003   -7.087566130947589E-005
 -3.199999999999999E-003   -7.506527820450433E-005
 -3.099999999999999E-003   -7.948647522788865E-005
 -2.999999999999999E-003   -8.415152029174543E-005
 -2.899999999999999E-003   -8.907318952403326E-005
 -2.799999999999999E-003   -9.426477180957569E-005
 -2.699999999999999E-003   -9.974003434222439E-005
 -2.599999999999999E-003   -1.055132420860376E-004
 -2.499999999999999E-003   -1.115991648419416E-004
 -2.399999999999999E-003   -1.180130745022971E-004
 -2.299999999999999E-003   -1.247707599428099E-004
 -2.199999999999999E-003   -1.318885990048687E-004
 -2.099999999999999E-003   -1.393835664338032E-004
 -1.999999999999999E-003   -1.472733088590032E-004
 -1.899999999999999E-003   -1.555762113715359E-004
 -1.799999999999999E-003   -1.643114794237713E-004
 -1.699999999999999E-003   -1.734991944750703E-004
 -1.599999999999999E-003   -1.831604140689047E-004
 -1.499999999999999E-003   -1.933172750892346E-004
 -1.399999999999999E-003   -2.039930425706675E-004
 -1.299999999999999E-003   -2.152121922300390E-004
 -1.199999999999999E-003   -2.270004648134587E-004
 -1.099999999999999E-003   -2.393849071588386E-004
 -9.999999999999989E-004   -2.523939400285594E-004
 -8.999999999999990E-004   -2.660573609221079E-004
 -7.999999999999990E-004   -2.804063170040494E-004
 -6.999999999999989E-004   -2.954733623889863E-004
 -5.999999999999990E-004   -3.112924285764582E-004
 -4.999999999999989E-004   -3.278987720649865E-004
 -3.999999999999989E-004   -3.453289382561639E-004
 -2.999999999999989E-004   -3.636208208359775E-004
 -1.999999999999989E-004   -3.828135610616191E-004
 -9.999999999999892E-005   -4.029475641949062E-004
  1.084202172485504E-018   -4.240644849793542E-004
  1.000000000000011E-004   -4.462073149324846E-004
  2.000000000000011E-004   -4.694202953829178E-004
  3.000000000000011E-004   -4.937490365897613E-004
  4.000000000000011E-004   -5.192406325049872E-004
  5.000000000000011E-004   -5.459436533590744E-004
  6.000000000000011E-004   -5.739082686316155E-004
  7.000000000000011E-004   -6.031864456851855E-004
  8.000000000000011E-004   -6.338318974839477E-004
  9.000000000000012E-004   -6.659004301358473E-004
  1.000000000000001E-003   -6.994497743165523E-004
  1.100000000000001E-003   -7.345399649065622E-004
  1.200000000000001E-003   -7.712333436175088E-004
  1.300000000000001E-003   -8.095947045271303E-004
  1.400000000000001E-003   -8.496911785904004E-004
  1.500000000000001E-003   -8.915924421070398E-004
  1.600000000000001E-003   -9.353709219780198E-004
  1.700000000000001E-003   -9.811014068716020E-004
  1.800000000000001E-003   -1.028861346210385E-003
  1.900000000000001E-003   -1.078730833424094E-003
  2.000000000000001E-003   -1.130792544989481E-003
  2.100000000000001E-003   -1.185131562704155E-003
  2.200000000000001E-003   -1.241835767069022E-003
  2.300000000000001E-003   -1.300995319772177E-003
  2.400000000000001E-003   -1.362703159690516E-003
  2.500000000000001E-003   -1.427054738282010E-003
  2.600000000000001E-003   -1.494148202679203E-003
  2.700000000000001E-003   -1.564084266553860E-003
  2.800000000000001E-003   -1.636966623871275E-003
  2.900000000000001E-003   -1.712901893620446E-003
  3.000000000000001E-003   -1.791999623759121E-003
  3.100000000000001E-003   -1.874372360160195E-003
  3.200000000000001E-003   -1.960136180988573E-003
  3.300000000000001E-003   -2.049410319288282E-003
  3.400000000000001E-003   -2.142317674088132E-003
  3.500000000000001E-003   -2.238984332417871E-003
  3.600000000000001E-003   -2.339540132141811E-003
  3.700000000000001E-003   -2.444118591346693E-003
  3.800000000000001E-003   -2.552856681571749E-003
  3.900000000000001E-003   -2.665894881105460E-003
  4.000000000000001E-003   -2.783377225874519E-003
  4.100000000000001E-003   -2.905450932383371E-003
  4.200000000000001E-003   -3.032266492181022E-003
  4.300000000000001E-003   -3.163977877665323E-003
  4.400000000000001E-003   -3.300741734978781E-003
  4.500000000000001E-003   -3.442717941271963E-003
  4.600000000000002E-003   -3.590069657925468E-003
  4.700000000000001E-003   -3.742962153911292E-003
  4.800000000000001E-003   -3.901564576281452E-003
  4.900000000000002E-003   -4.066048570514996E-003
  5.000000000000001E-003   -4.236589259274903E-003
  5.100000000000001E-003   -4.413364662643139E-003
  5.200000000000001E-003   -4.596556146735596E-003
  5.300000000000002E-003   -4.786348845741624E-003
  5.400000000000001E-003   -4.982931696184049E-003
  5.500000000000001E-003   -5.186496826036270E-003
  5.600000000000002E-003   -5.397241094171971E-003
  5.700000000000001E-003   -5.615364674059019E-003
  5.800000000000001E-003   -5.841072074073923E-003
  5.900000000000002E-003   -6.074571510238351E-003
  6.000000000000001E-003   -6.316074629885145E-003
  6.100000000000001E-003   -6.565797135234297E-003
  6.200000000000002E-003   -6.823957514138656E-003
  6.300000000000002E-003   -7.090777563946188E-003
  6.400000000000001E-003   -7.366481928384575E-003
  6.500000000000001E-003   -7.651296697059763E-003
  6.600000000000002E-003   -7.945450334285436E-003
  6.700000000000001E-003   -8.249173337651168E-003
  6.800000000000001E-003   -8.562696283500161E-003
  6.900000000000002E-003   -8.886252238182435E-003
  7.000000000000001E-003   -9.220073322248397E-003
  7.100000000000001E-003   -9.564393580961818E-003
  7.200000000000002E-003   -9.919446330013716E-003
  7.300000000000002E-003   -1.028546716703143E-002
  7.400000000000001E-003   -1.066269010377995E-002
  7.500000000000001E-003   -1.105135101460761E-002
  7.600000000000002E-003   -1.145168513334308E-002
  7.700000000000001E-003   -1.186392974768248E-002
  7.800000000000001E-003   -1.228832146867202E-002
  7.900000000000001E-003   -1.272509775789806E-002
  8.000000000000002E-003   -1.317449733821160E-002
  8.100000000000001E-003   -1.363675732808663E-002
  8.200000000000001E-003   -1.411211719639590E-002
  8.300000000000002E-003   -1.460081447122960E-002
  8.400000000000001E-003   -1.510308408136960E-002
  8.500000000000002E-003   -1.561916441179718E-002
  8.600000000000002E-003   -1.614928554297390E-002
  8.700000000000001E-003   -1.669368049266435E-002
  8.800000000000002E-003   -1.725257597427610E-002
  8.900000000000002E-003   -1.782619524306274E-002
  9.000000000000001E-003   -1.841475772261737E-002
  9.100000000000002E-003   -1.901847710564541E-002
  9.200000000000002E-003   -1.963756024973537E-002
  9.300000000000001E-003   -2.027221010914269E-002
  9.400000000000002E-003   -2.092262328047808E-002
  9.500000000000001E-003   -2.158898535049736E-002
  9.600000000000001E-003   -2.227148152598300E-002
  9.700000000000002E-003   -2.297028316131949E-002
  9.800000000000001E-003   -2.368555618297339E-002
  9.900000000000001E-003   -2.441745927832284E-002
  1.000000000000000E-002   -2.516614250824805E-002
  1.010000000000000E-002   -2.593174748266642E-002
  1.020000000000000E-002   -2.671440736466417E-002
  1.030000000000000E-002   -2.751424334700020E-002
  1.040000000000000E-002   -2.833137007069288E-002
  1.050000000000000E-002   -2.916588848005365E-002
  1.060000000000000E-002   -3.001788875839799E-002
  1.070000000000000E-002   -3.088745048046868E-002
  1.080000000000000E-002   -3.177463710050029E-002
  1.090000000000000E-002   -3.267950234564947E-002
  1.100000000000000E-002   -3.360208097040396E-002
  1.110000000000000E-002   -3.454239272836122E-002
  1.120000000000000E-002   -3.550044323590675E-002
  1.130000000000000E-002   -3.647621523462773E-002
  1.140000000000000E-002   -3.746967661096808E-002
  1.150000000000000E-002   -3.848077696239517E-002
  1.160000000000000E-002   -3.950944817563062E-002
  1.170000000000000E-002   -4.055559573498391E-002
  1.180000000000000E-002   -4.161910962178249E-002
  1.190000000000000E-002   -4.269985913446964E-002
  1.200000000000000E-002   -4.379768595399694E-002
  1.210000000000000E-002   -4.491241898456255E-002
  1.220000000000000E-002   -4.604385891430290E-002
  1.230000000000000E-002   -4.719178626679162E-002
  1.240000000000000E-002   -4.835596032232569E-002
  1.250000000000000E-002   -4.953611227654108E-002
  1.260000000000000E-002   -5.073194923534705E-002
  1.270000000000000E-002   -5.194315301470456E-002
  1.280000000000000E-002   -5.316938209045966E-002
  1.290000000000000E-002   -5.441026630493007E-002
  1.300000000000000E-002   -5.566540892876318E-002
  1.310000000000000E-002   -5.693438210985988E-002
  1.320000000000000E-002   -5.821673056590174E-002
  1.330000000000000E-002   -5.951196880391565E-002
  1.340000000000000E-002   -6.081957833322037E-002
  1.350000000000000E-002   -6.213900834920433E-002
  1.360000000000000E-002   -6.346967281572907E-002
  1.370000000000000E-002   -6.481095934608587E-002
  1.380000000000000E-002   -6.616222049642347E-002
  1.390000000000000E-002   -6.752277171187754E-002
  1.400000000000000E-002   -6.889189997545996E-002
  1.410000000000000E-002   -7.026884758654621E-002
  1.420000000000000E-002   -7.165282675645038E-002
  1.430000000000000E-002   -7.304302027092449E-002
  1.440000000000000E-002   -7.443856951155858E-002
  1.450000000000000E-002   -7.583857704891600E-002
  1.460000000000000E-002   -7.724212029336305E-002
  1.470000000000000E-002   -7.864823203036940E-002
  1.480000000000000E-002   -8.005590813979201E-002
  1.490000000000000E-002   -8.146410875978130E-002
  1.500000000000000E-002   -8.287175964035490E-002
  1.510000000000000E-002   -8.427774780218768E-002
  1.520000000000000E-002   -8.568092268104735E-002
  1.530000000000000E-002   -8.708009254018452E-002
  1.540000000000000E-002   -8.847403351086716E-002
  1.550000000000000E-002   -8.986147578951974E-002
  1.560000000000000E-002   -9.124111595822225E-002
  1.570000000000000E-002   -9.261161773351698E-002
  1.580000000000000E-002   -9.397159160124480E-002
  1.590000000000000E-002   -9.531962871698341E-002
  1.600000000000000E-002   -9.665427062490965E-002
  1.610000000000000E-002   -9.797402950375135E-002
  1.620000000000000E-002   -9.927737807334650E-002
  1.630000000000000E-002   -0.100562759643017     
  1.640000000000000E-002   -0.101828572800819     
  1.650000000000000E-002   -0.103073189890846     
  1.660000000000000E-002   -0.104294952457224     
  1.670000000000000E-002   -0.105492157484395     
  1.680000000000000E-002   -0.106663075180128     
  1.690000000000000E-002   -0.107805945491210     
  1.700000000000000E-002   -0.108918972061958     
  1.710000000000000E-002   -0.110000335400589     
  1.720000000000000E-002   -0.111048179759023     
  1.730000000000000E-002   -0.112060626238791     
  1.740000000000000E-002   -0.113035758971239     
  1.750000000000000E-002   -0.113971636778318     
  1.760000000000000E-002   -0.114866299574348     
  1.770000000000000E-002   -0.115717756592800     
  1.780000000000000E-002   -0.116523986324684     
  1.790000000000000E-002   -0.117282959284403     
  1.800000000000000E-002   -0.117992612772632     
  1.810000000000000E-002   -0.118650870380391     
  1.820000000000000E-002   -0.119255638752517     
  1.830000000000000E-002   -0.119804807963659     
  1.840000000000000E-002   -0.120296251352029     
  1.850000000000000E-002   -0.120727839700648     
  1.860000000000000E-002   -0.121097421653201     
  1.870000000000000E-002   -0.121402856952519     