 -4.000000000000000E-002    0.000000000000000E+000
 -3.990000000000000E-002    0.000000000000000E+000
 -3.980000000000000E-002    0.000000000000000E+000
 -3.970000000000000E-002    0.000000000000000E+000
 -3.960000000000000E-002    0.000000000000000E+000
 -3.950000000000000E-002    0.000000000000000E+000
 -3.940000000000000E-002    0.000000000000000E+000
 -3.930000000000000E-002    0.000000000000000E+000
 -3.920000000000000E-002    0.000000000000000E+000
 -3.910000000000000E-002    0.000000000000000E+000
 -3.900000000000000E-002    0.000000000000000E+000
 -3.890000000000000E-002    0.000000000000000E+000
 -3.880000000000000E-002    0.000000000000000E+000
 -3.870000000000000E-002    0.000000000000000E+000
 -3.860000000000000E-002    0.000000000000000E+000
 -3.850000000000000E-002    0.000000000000000E+000
 -3.840000000000000E-002    0.000000000000000E+000
 -3.830000000000000E-002    0.000000000000000E+000
 -3.820000000000000E-002    0.000000000000000E+000
 -3.810000000000000E-002    0.000000000000000E+000
 -3.800000000000000E-002    0.000000000000000E+000
 -3.790000000000000E-002    0.000000000000000E+000
 -3.780000000000000E-002    0.000000000000000E+000
 -3.770000000000000E-002    0.000000000000000E+000
 -3.760000000000000E-002    0.000000000000000E+000
 -3.750000000000000E-002    0.000000000000000E+000
 -3.740000000000000E-002    0.000000000000000E+000
 -3.730000000000000E-002    0.000000000000000E+000
 -3.720000000000000E-002    0.000000000000000E+000
 -3.710000000000000E-002    0.000000000000000E+000
 -3.700000000000000E-002    0.000000000000000E+000
 -3.690000000000000E-002    0.000000000000000E+000
 -3.680000000000000E-002    0.000000000000000E+000
 -3.670000000000000E-002    0.000000000000000E+000
 -3.660000000000000E-002    0.000000000000000E+000
 -3.650000000000000E-002    0.000000000000000E+000
 -3.640000000000000E-002    0.000000000000000E+000
 -3.630000000000000E-002    0.000000000000000E+000
 -3.620000000000000E-002    0.000000000000000E+000
 -3.610000000000000E-002    0.000000000000000E+000
 -3.600000000000000E-002    0.000000000000000E+000
 -3.590000000000000E-002    0.000000000000000E+000
 -3.580000000000000E-002    0.000000000000000E+000
 -3.570000000000000E-002    0.000000000000000E+000
 -3.560000000000000E-002    0.000000000000000E+000
 -3.550000000000000E-002    0.000000000000000E+000
 -3.540000000000000E-002    0.000000000000000E+000
 -3.530000000000000E-002    0.000000000000000E+000
 -3.520000000000000E-002    0.000000000000000E+000
 -3.510000000000000E-002    0.000000000000000E+000
 -3.500000000000000E-002    0.000000000000000E+000
 -3.490000000000000E-002    0.000000000000000E+000
 -3.480000000000000E-002    0.000000000000000E+000
 -3.470000000000000E-002    0.000000000000000E+000
 -3.460000000000000E-002    0.000000000000000E+000
 -3.450000000000000E-002    0.000000000000000E+000
 -3.440000000000000E-002    0.000000000000000E+000
 -3.430000000000000E-002    0.000000000000000E+000
 -3.420000000000000E-002    0.000000000000000E+000
 -3.410000000000000E-002    0.000000000000000E+000
 -3.400000000000000E-002    0.000000000000000E+000
 -3.390000000000000E-002    0.000000000000000E+000
 -3.380000000000000E-002    0.000000000000000E+000
 -3.370000000000000E-002    0.000000000000000E+000
 -3.360000000000000E-002    0.000000000000000E+000
 -3.350000000000000E-002    0.000000000000000E+000
 -3.340000000000000E-002    0.000000000000000E+000
 -3.330000000000000E-002    0.000000000000000E+000
 -3.320000000000000E-002    0.000000000000000E+000
 -3.310000000000000E-002    0.000000000000000E+000
 -3.300000000000000E-002    0.000000000000000E+000
 -3.290000000000000E-002    0.000000000000000E+000
 -3.280000000000000E-002    0.000000000000000E+000
 -3.270000000000000E-002    0.000000000000000E+000
 -3.260000000000000E-002    0.000000000000000E+000
 -3.250000000000000E-002    0.000000000000000E+000
 -3.240000000000000E-002    0.000000000000000E+000
 -3.230000000000000E-002    0.000000000000000E+000
 -3.220000000000000E-002    0.000000000000000E+000
 -3.210000000000000E-002    0.000000000000000E+000
 -3.200000000000000E-002    0.000000000000000E+000
 -3.190000000000000E-002    0.000000000000000E+000
 -3.180000000000000E-002    0.000000000000000E+000
 -3.170000000000000E-002    0.000000000000000E+000
 -3.160000000000000E-002    0.000000000000000E+000
 -3.150000000000000E-002    0.000000000000000E+000
 -3.140000000000000E-002    0.000000000000000E+000
 -3.130000000000000E-002    0.000000000000000E+000
 -3.120000000000000E-002    0.000000000000000E+000
 -3.110000000000000E-002    0.000000000000000E+000
 -3.100000000000000E-002    0.000000000000000E+000
 -3.090000000000000E-002    0.000000000000000E+000
 -3.080000000000000E-002    0.000000000000000E+000
 -3.070000000000000E-002    0.000000000000000E+000
 -3.060000000000000E-002    0.000000000000000E+000
 -3.050000000000000E-002    0.000000000000000E+000
 -3.040000000000000E-002    0.000000000000000E+000
 -3.030000000000000E-002    0.000000000000000E+000
 -3.020000000000000E-002    0.000000000000000E+000
 -3.010000000000000E-002    0.000000000000000E+000
 -3.000000000000000E-002    0.000000000000000E+000
 -2.990000000000000E-002    0.000000000000000E+000
 -2.980000000000000E-002    0.000000000000000E+000
 -2.970000000000000E-002    0.000000000000000E+000
 -2.960000000000000E-002    0.000000000000000E+000
 -2.950000000000000E-002    0.000000000000000E+000
 -2.940000000000000E-002    0.000000000000000E+000
 -2.930000000000000E-002    0.000000000000000E+000
 -2.920000000000000E-002    0.000000000000000E+000
 -2.910000000000000E-002    0.000000000000000E+000
 -2.900000000000000E-002    0.000000000000000E+000
 -2.890000000000000E-002    0.000000000000000E+000
 -2.880000000000000E-002    0.000000000000000E+000
 -2.870000000000000E-002    0.000000000000000E+000
 -2.860000000000000E-002    0.000000000000000E+000
 -2.850000000000000E-002    0.000000000000000E+000
 -2.840000000000000E-002    0.000000000000000E+000
 -2.830000000000000E-002    0.000000000000000E+000
 -2.820000000000000E-002    0.000000000000000E+000
 -2.810000000000000E-002    0.000000000000000E+000
 -2.800000000000000E-002    0.000000000000000E+000
 -2.790000000000000E-002    0.000000000000000E+000
 -2.780000000000000E-002    0.000000000000000E+000
 -2.770000000000000E-002    0.000000000000000E+000
 -2.760000000000000E-002    0.000000000000000E+000
 -2.750000000000000E-002    0.000000000000000E+000
 -2.740000000000000E-002    0.000000000000000E+000
 -2.730000000000000E-002    0.000000000000000E+000
 -2.720000000000000E-002    0.000000000000000E+000
 -2.710000000000000E-002    0.000000000000000E+000
 -2.700000000000000E-002    0.000000000000000E+000
 -2.690000000000000E-002    0.000000000000000E+000
 -2.680000000000000E-002    0.000000000000000E+000
 -2.670000000000000E-002    0.000000000000000E+000
 -2.660000000000000E-002    0.000000000000000E+000
 -2.650000000000000E-002    0.000000000000000E+000
 -2.640000000000000E-002    0.000000000000000E+000
 -2.630000000000000E-002    0.000000000000000E+000
 -2.620000000000000E-002    0.000000000000000E+000
 -2.610000000000000E-002    0.000000000000000E+000
 -2.600000000000000E-002    0.000000000000000E+000
 -2.590000000000000E-002    0.000000000000000E+000
 -2.580000000000000E-002    0.000000000000000E+000
 -2.570000000000000E-002    0.000000000000000E+000
 -2.560000000000000E-002    0.000000000000000E+000
 -2.550000000000000E-002    0.000000000000000E+000
 -2.540000000000000E-002    0.000000000000000E+000
 -2.530000000000000E-002    0.000000000000000E+000
 -2.520000000000000E-002    0.000000000000000E+000
 -2.510000000000000E-002    0.000000000000000E+000
 -2.500000000000000E-002    0.000000000000000E+000
 -2.490000000000000E-002    0.000000000000000E+000
 -2.480000000000000E-002    0.000000000000000E+000
 -2.470000000000000E-002    0.000000000000000E+000
 -2.460000000000000E-002    0.000000000000000E+000
 -2.450000000000000E-002    0.000000000000000E+000
 -2.440000000000000E-002    0.000000000000000E+000
 -2.430000000000000E-002    0.000000000000000E+000
 -2.420000000000000E-002    0.000000000000000E+000
 -2.410000000000000E-002    0.000000000000000E+000
 -2.400000000000000E-002    0.000000000000000E+000
 -2.390000000000000E-002    0.000000000000000E+000
 -2.380000000000000E-002    0.000000000000000E+000
 -2.370000000000000E-002    0.000000000000000E+000
 -2.360000000000000E-002    0.000000000000000E+000
 -2.350000000000000E-002    0.000000000000000E+000
 -2.340000000000000E-002    0.000000000000000E+000
 -2.330000000000000E-002    0.000000000000000E+000
 -2.320000000000000E-002    0.000000000000000E+000
 -2.310000000000000E-002    0.000000000000000E+000
 -2.300000000000000E-002    0.000000000000000E+000
 -2.290000000000000E-002    0.000000000000000E+000
 -2.280000000000000E-002    0.000000000000000E+000
 -2.270000000000000E-002    0.000000000000000E+000
 -2.260000000000000E-002    0.000000000000000E+000
 -2.250000000000000E-002    0.000000000000000E+000
 -2.240000000000000E-002    0.000000000000000E+000
 -2.230000000000000E-002    0.000000000000000E+000
 -2.220000000000000E-002    0.000000000000000E+000
 -2.210000000000000E-002    0.000000000000000E+000
 -2.200000000000000E-002    0.000000000000000E+000
 -2.190000000000000E-002    0.000000000000000E+000
 -2.180000000000000E-002    0.000000000000000E+000
 -2.170000000000000E-002    0.000000000000000E+000
 -2.160000000000000E-002    0.000000000000000E+000
 -2.150000000000000E-002    0.000000000000000E+000
 -2.140000000000000E-002    0.000000000000000E+000
 -2.130000000000000E-002    0.000000000000000E+000
 -2.120000000000000E-002    0.000000000000000E+000
 -2.110000000000000E-002    0.000000000000000E+000
 -2.100000000000000E-002    0.000000000000000E+000
 -2.090000000000000E-002    0.000000000000000E+000
 -2.080000000000000E-002    0.000000000000000E+000
 -2.070000000000000E-002    0.000000000000000E+000
 -2.060000000000000E-002    0.000000000000000E+000
 -2.050000000000000E-002    0.000000000000000E+000
 -2.040000000000000E-002    0.000000000000000E+000
 -2.030000000000000E-002    0.000000000000000E+000
 -2.020000000000000E-002    0.000000000000000E+000
 -2.010000000000000E-002    0.000000000000000E+000
 -2.000000000000000E-002    0.000000000000000E+000
 -1.990000000000000E-002    0.000000000000000E+000
 -1.980000000000000E-002    0.000000000000000E+000
 -1.970000000000000E-002    0.000000000000000E+000
 -1.960000000000000E-002    0.000000000000000E+000
 -1.950000000000000E-002    0.000000000000000E+000
 -1.940000000000000E-002    0.000000000000000E+000
 -1.930000000000000E-002    0.000000000000000E+000
 -1.920000000000000E-002    0.000000000000000E+000
 -1.910000000000000E-002    0.000000000000000E+000
 -1.900000000000000E-002    0.000000000000000E+000
 -1.890000000000000E-002    0.000000000000000E+000
 -1.880000000000000E-002    0.000000000000000E+000
 -1.870000000000000E-002    0.000000000000000E+000
 -1.860000000000000E-002    0.000000000000000E+000
 -1.850000000000000E-002    0.000000000000000E+000
 -1.840000000000000E-002    0.000000000000000E+000
 -1.830000000000000E-002    0.000000000000000E+000
 -1.820000000000000E-002   -2.992788674099091E-048
 -1.810000000000000E-002   -5.985577348198182E-048
 -1.800000000000000E-002   -5.985577348198182E-048
 -1.790000000000000E-002   -2.992788674099091E-048
 -1.780000000000000E-002    1.208000793523913E-047
 -1.770000000000000E-002    3.014559321867644E-047
 -1.760000000000000E-002    5.120396717621284E-047
 -1.750000000000000E-002    7.494675746948758E-047
 -1.740000000000000E-002    8.660953982752320E-047
 -1.730000000000000E-002    7.106202543592939E-047
 -1.720000000000000E-002    8.921795265264450E-047
 -1.710000000000000E-002    7.112370319990424E-047
 -1.700000000000000E-002    1.421386684455101E-047
 -1.690000000000000E-002   -1.781100877978781E-046
 -1.680000000000000E-002   -4.502391496861314E-046
 -1.670000000000000E-002   -7.569099851169901E-046
 -1.660000000000000E-002   -1.063274942040422E-045
 -1.650000000000000E-002   -1.293493031888321E-045
 -1.640000000000000E-002   -1.194393418317370E-045
 -1.630000000000000E-002   -7.479557371187148E-046
 -1.620000000000000E-002   -5.025666689816450E-047
 -1.610000000000000E-002    1.267198945147503E-045
 -1.600000000000000E-002    2.803397082513822E-045
 -1.590000000000000E-002    5.072082655162439E-045
 -1.580000000000000E-002    7.430957818105803E-045
 -1.570000000000000E-002    1.060042095130828E-044
 -1.560000000000000E-002    1.212523477137318E-044
 -1.550000000000000E-002    1.208345196314367E-044
 -1.540000000000000E-002    1.023855454947509E-044
 -1.530000000000000E-002    5.183095693207147E-045
 -1.520000000000000E-002   -4.847561107719083E-045
 -1.510000000000000E-002   -1.910105359460723E-044
 -1.500000000000000E-002   -3.765479140486696E-044
 -1.490000000000000E-002   -5.874812250030515E-044
 -1.480000000000000E-002   -7.913099217864982E-044
 -1.470000000000000E-002   -9.491388658231224E-044
 -1.460000000000000E-002   -1.000296029029179E-043
 -1.450000000000000E-002   -8.766967047074514E-044
 -1.440000000000000E-002   -4.911007352553262E-044
 -1.430000000000000E-002    2.055829342857754E-044
 -1.420000000000000E-002    1.254099258440766E-043
 -1.410000000000000E-002    2.626901198409874E-043
 -1.400000000000000E-002    4.217060789627317E-043
 -1.390000000000000E-002    5.823992380909941E-043
 -1.380000000000000E-002    7.123433714784884E-043
 -1.370000000000000E-002    7.679668113958604E-043
 -1.360000000000000E-002    6.980386634801381E-043
 -1.350000000000000E-002    4.493106212943275E-043
 -1.340000000000000E-002   -2.329488430992238E-044
 -1.330000000000000E-002   -7.462938234141908E-043
 -1.320000000000000E-002   -1.707331042908141E-042
 -1.310000000000000E-002   -2.840706839444522E-042
 -1.300000000000000E-002   -4.012570522982281E-042
 -1.290000000000000E-002   -5.010328481336777E-042
 -1.280000000000000E-002   -5.547479111248673E-042
 -1.270000000000000E-002   -5.277607460540177E-042
 -1.260000000000000E-002   -3.834972205653247E-042
 -1.250000000000000E-002   -8.943602187960363E-043
 -1.240000000000000E-002    3.743126444407476E-042
 -1.230000000000000E-002    1.004858852004753E-041
 -1.220000000000000E-002    1.765543216911179E-041
 -1.210000000000000E-002    2.575912536931981E-041
 -1.200000000000000E-002    3.305391314846727E-041
 -1.190000000000000E-002    3.773161353499186E-041
 -1.180000000000000E-002    3.758158913834061E-041
 -1.170000000000000E-002    3.021245048911307E-041
 -1.160000000000000E-002    1.342211639000881E-041
 -1.150000000000000E-002   -1.429049604938995E-041
 -1.140000000000000E-002   -5.309187243348517E-041
 -1.130000000000000E-002   -1.011326023053672E-040
 -1.120000000000000E-002   -1.539123627674898E-040
 -1.110000000000000E-002   -2.038456226679929E-040
 -1.100000000000000E-002   -2.402023009181388E-040
 -1.090000000000000E-002   -2.496116306172813E-040
 -1.080000000000000E-002   -2.173128548250357E-040
 -1.070000000000000E-002   -1.292557683376154E-040
 -1.060000000000000E-002    2.492911664873046E-041
 -1.050000000000000E-002    2.482567293390095E-040
 -1.040000000000000E-002    5.323557360060028E-040
 -1.030000000000000E-002    8.536899934793534E-040
 -1.020000000000000E-002    1.170841740741033E-039
 -1.010000000000000E-002    1.423866381693638E-039
 -1.000000000000000E-002    1.536790612391051E-039
 -9.899999999999999E-003    1.424225196097492E-039
 -9.800000000000000E-003    1.002734198146308E-039
 -9.699999999999999E-003    2.069987451545380E-040
 -9.599999999999999E-003   -9.900455356697223E-040
 -9.500000000000000E-003   -2.555053966239052E-039
 -9.399999999999999E-003   -4.373283848592220E-039
 -9.299999999999999E-003   -6.233133157914285E-039
 -9.200000000000000E-003   -7.821488999965233E-039
 -9.099999999999999E-003   -8.735457214903847E-039
 -8.999999999999999E-003   -8.515452833971556E-039
 -8.900000000000000E-003   -6.702863321384007E-039
 -8.799999999999999E-003   -2.922385655740666E-039
 -8.699999999999999E-003    3.015335261991138E-039
 -8.600000000000000E-003    1.100065254139784E-038
 -8.499999999999999E-003    2.051739016217650E-038
 -8.399999999999999E-003    3.056239947040890E-038
 -8.300000000000000E-003    3.961782913496885E-038
 -8.199999999999999E-003    4.570278415064279E-038
 -8.100000000000000E-003    4.652771961260276E-038
 -8.000000000000000E-003    3.976608737672593E-038
 -7.899999999999999E-003    2.344270887251654E-038
 -7.800000000000000E-003   -3.582493966382652E-039
 -7.699999999999999E-003   -4.108209923931153E-038
 -7.599999999999999E-003   -8.695364756762550E-038
 -7.499999999999999E-003   -1.368348581668795E-037
 -7.399999999999999E-003   -1.839559413854488E-037
 -7.299999999999999E-003   -2.193459192101991E-037
 -7.199999999999999E-003   -2.324931917359906E-037
 -7.100000000000000E-003   -2.125200069261404E-037
 -6.999999999999999E-003   -1.498645411031148E-037
 -6.899999999999999E-003   -3.837532809916992E-038
 -6.800000000000000E-003    1.223828465258053E-037
 -6.699999999999999E-003    3.249210598937222E-037
 -6.599999999999999E-003    5.521220101827228E-037
 -6.499999999999999E-003    7.765046257051641E-037
 -6.399999999999999E-003    9.609268900605585E-037
 -6.299999999999999E-003    1.061121174958056E-036
 -6.199999999999999E-003    1.030290662541897E-036
 -6.100000000000000E-003    8.257336467657134E-037
 -5.999999999999999E-003    4.171190794228610E-037
 -5.899999999999999E-003   -2.043598441788456E-037
 -5.800000000000000E-003   -1.017129669191675E-036
 -5.699999999999999E-003   -1.962194903504515E-036
 -5.599999999999999E-003   -2.939633186525275E-036
 -5.499999999999999E-003   -3.810344045773884E-036
 -5.399999999999999E-003   -4.404486274816857E-036
 -5.299999999999999E-003   -4.537436348243156E-036
 -5.199999999999999E-003   -4.033183964467130E-036
 -5.099999999999999E-003   -2.753899955761315E-036
 -4.999999999999999E-003   -6.330589415728158E-037
 -4.899999999999999E-003    2.291826225638451E-036
 -4.799999999999999E-003    5.851929757476603E-036
 -4.699999999999999E-003    9.731033504654314E-036
 -4.599999999999999E-003    1.346636872581515E-035
 -4.499999999999999E-003    1.647122125431849E-035
 -4.399999999999999E-003    1.808230044646279E-035
 -4.299999999999999E-003    1.763208597052647E-035
 -4.199999999999999E-003    1.454278167841156E-035
 -4.099999999999999E-003    8.434504952599616E-036
 -3.999999999999999E-003   -7.636704907203967E-037
 -3.899999999999999E-003   -1.271458517411136E-035
 -3.799999999999999E-003   -2.660270348684554E-035
 -3.699999999999999E-003   -4.110993529089210E-035
 -3.599999999999999E-003   -5.445286704270450E-035
 -3.499999999999999E-003   -6.449225829912947E-035
 -3.399999999999999E-003   -6.891870191261686E-035
 -3.299999999999999E-003   -6.550934035688396E-035
 -3.199999999999999E-003   -5.244024322859417E-035
 -3.099999999999999E-003   -2.862844599976134E-035
 -2.999999999999999E-003    5.931836858942381E-036
 -2.899999999999999E-003    4.988162607406244E-035
 -2.799999999999999E-003    1.003045348770999E-034
 -2.699999999999999E-003    1.526744434934283E-034
 -2.599999999999999E-003    2.009825739842568E-034
 -2.499999999999999E-003    2.380715210885667E-034
 -2.399999999999999E-003    2.561869538799381E-034
 -2.299999999999999E-003    2.477370137766038E-034
 -2.199999999999999E-003    2.062255449079022E-034
 -2.099999999999999E-003    1.273000703925741E-034
 -1.999999999999999E-003    9.830839988139228E-036
 -1.899999999999999E-003   -1.430855949943653E-034
 -1.799999999999999E-003   -3.233228041145187E-034
 -1.699999999999999E-003   -5.172576317278850E-034
 -1.599999999999999E-003   -7.057799475985818E-034
 -1.499999999999999E-003   -8.649103054903247E-034
 -1.399999999999999E-003   -9.671344813283970E-034
 -1.299999999999999E-003   -9.835225857986634E-034
 -1.199999999999999E-003   -8.866399003900620E-034
 -1.099999999999999E-003   -6.541721820881819E-034
 -9.999999999999989E-004   -2.730823086407873E-034
 -8.999999999999990E-004    2.560089307320583E-034
 -7.999999999999990E-004    9.146609208013068E-034
 -6.999999999999989E-004    1.663241993944494E-033
 -5.999999999999990E-004    2.439028952847434E-033
 -4.999999999999989E-004    3.156511294505982E-033
 -3.999999999999989E-004    3.710612886192338E-033
 -2.999999999999989E-004    3.983412695905932E-033
 -1.999999999999989E-004    3.854685249046895E-033
 -9.999999999999892E-005    3.216178226774525E-033
  1.084202172485504E-018    1.989009737350685E-033
  1.000000000000011E-004    1.429254370317798E-034
  2.000000000000011E-004   -2.284523757527651E-033
  3.000000000000011E-004   -5.171465535076905E-033
  4.000000000000011E-004   -8.300911816892372E-033
  5.000000000000011E-004   -1.135895559107238E-032
  6.000000000000011E-004   -1.394503003183307E-032
  7.000000000000011E-004   -1.559660228180660E-032
  8.000000000000011E-004   -1.582942837818730E-032
  9.000000000000012E-004   -1.419271064082054E-032
  1.000000000000001E-003   -1.033626996038055E-032
  1.100000000000001E-003   -4.084378459285532E-033
  1.200000000000001E-003    4.491536570724337E-033
  1.300000000000001E-003    1.501113175394636E-032
  1.400000000000001E-003    2.674540286131846E-032
  1.500000000000001E-003    3.861010268336285E-032
  1.600000000000001E-003    4.920207964101852E-032
  1.700000000000001E-003    5.688524941105342E-032
  1.800000000000001E-003    5.992823588309705E-032
  1.900000000000001E-003    5.668966367649649E-032
  2.000000000000001E-003    4.584011235945369E-032
  2.100000000000001E-003    2.660259016749653E-032
  2.200000000000001E-003   -1.013082213740019E-033
  2.300000000000001E-003   -3.601141428115460E-032
  2.400000000000001E-003   -7.627962976172131E-032
  2.500000000000001E-003   -1.185539595789441E-031
  2.600000000000001E-003   -1.585096717165254E-031
  2.700000000000001E-003   -1.909920986254841E-031
  2.800000000000001E-003   -2.103935904006623E-031
  2.900000000000001E-003   -2.111667092479868E-031
  3.000000000000001E-003   -1.884474912194577E-031
  3.100000000000001E-003   -1.387464199177457E-031
  3.200000000000001E-003   -6.064993207212460E-032
  3.300000000000001E-003    4.453631509919889E-032
  3.400000000000001E-003    1.722783643255781E-031
  3.500000000000001E-003    3.145167890500804E-031
  3.600000000000001E-003    4.596546970710423E-031
  3.700000000000001E-003    5.928933920127835E-031
  3.800000000000001E-003    6.969609871303979E-031
  3.900000000000001E-003    7.532556163513139E-031
  4.000000000000001E-003    7.433952313363390E-031
  4.100000000000001E-003    6.511302416168743E-031
  4.200000000000001E-003    4.645340968850634E-031
  4.300000000000001E-003    1.783412857147579E-031
  4.400000000000001E-003   -2.037481167508734E-031
  4.500000000000001E-003   -6.670264625973236E-031
  4.600000000000002E-003   -1.184275437651368E-030
  4.700000000000001E-003   -1.715112273706764E-030
  4.800000000000001E-003   -2.206510055857828E-030
  4.900000000000002E-003   -2.594803094090515E-030
  5.000000000000001E-003   -2.809429480259941E-030
  5.100000000000001E-003   -2.778553189141643E-030
  5.200000000000001E-003   -2.436539613679164E-030
  5.300000000000002E-003   -1.733029385041621E-030
  5.400000000000001E-003   -6.430728148259349E-031
  5.500000000000001E-003    8.225236310448928E-031
  5.600000000000002E-003    2.607802575118594E-030
  5.700000000000001E-003    4.604645401272919E-030
  5.800000000000001E-003    6.649748891586002E-030
  5.900000000000002E-003    8.527207502230603E-030
  6.000000000000001E-003    9.978127083676141E-030
  6.100000000000001E-003    1.071824074855995E-029
  6.200000000000002E-003    1.046378784437606E-029
  6.300000000000002E-003    8.964931437161696E-030
  6.400000000000001E-003    6.044820121119880E-030
  6.500000000000001E-003    1.641112869796715E-030
  6.600000000000002E-003   -4.154441083099737E-030
  6.700000000000001E-003   -1.106379292906938E-029
  6.800000000000001E-003   -1.860377782018048E-029
  6.900000000000002E-003   -2.608668606549889E-029
  7.000000000000001E-003   -3.264543526500655E-029
  7.100000000000001E-003   -3.728688257700738E-029
  7.200000000000002E-003   -3.897427515692155E-029
  7.300000000000002E-003   -3.673650451635693E-029
  7.400000000000001E-003   -2.979798632724944E-029
  7.500000000000001E-003   -1.771890583749617E-029
  7.600000000000002E-003   -5.318053414375851E-031
  7.700000000000001E-003    2.114250040430901E-029
  7.800000000000001E-003    4.601829441003668E-029
  7.900000000000001E-003    7.212605695730338E-029
  8.000000000000002E-003    9.686722496630128E-029
  8.100000000000001E-003    1.171537274250853E-028
  8.200000000000001E-003    1.296361577799656E-028
  8.300000000000002E-003    1.310152502449701E-028
  8.400000000000001E-003    1.184206578438218E-028
  8.500000000000002E-003    8.983003287375739E-029
  8.600000000000002E-003    4.449104428343681E-029
  8.700000000000001E-003   -1.669946520276205E-029
  8.800000000000002E-003   -9.091006114795001E-029
  8.900000000000002E-003   -1.732346154836724E-028
  9.000000000000001E-003   -2.567445451369108E-028
  9.100000000000002E-003   -3.327696376069046E-028
  9.200000000000002E-003   -3.914274707649941E-028
  9.300000000000001E-003   -4.223994104240949E-028
  9.400000000000002E-003   -4.159252241265104E-028
  9.500000000000001E-003   -3.639599452786433E-028
  9.600000000000001E-003   -2.614076025520311E-028
  9.700000000000002E-003   -1.073214824709307E-028
  9.800000000000001E-003    9.406061332173868E-029
  9.900000000000001E-003    3.325882110496134E-028
  1.000000000000000E-002    5.919191306132541E-028
  1.010000000000000E-002    8.498171834771040E-028
  1.020000000000000E-002    1.079123552986340E-027
  1.030000000000000E-002    1.249452818663918E-027
  1.040000000000000E-002    1.329601990817442E-027
  1.050000000000000E-002    1.290587110946862E-027
  1.060000000000000E-002    1.109138184103697E-027
  1.070000000000000E-002    7.713981360830387E-028
  1.080000000000000E-002    2.764929021631153E-028
  1.090000000000000E-002   -3.604239308683645E-028
  1.100000000000000E-002   -1.106087444860264E-027
  1.110000000000000E-002   -1.908434085663103E-027
  1.120000000000000E-002   -2.697705040264362E-027
  1.130000000000000E-002   -3.389637287083472E-027
  1.140000000000000E-002   -3.890892031818437E-027
  1.150000000000000E-002   -4.106669191377334E-027
  1.160000000000000E-002   -3.950211766452929E-027
  1.170000000000000E-002   -3.353637646249702E-027
  1.180000000000000E-002   -2.279258940243631E-027
  1.190000000000000E-002   -7.303078560790861E-028
  1.200000000000000E-002    1.240203344223333E-027
  1.210000000000000E-002    3.523849238806415E-027
  1.220000000000000E-002    5.955712033898620E-027
  1.230000000000000E-002    8.318996158651566E-027
  1.240000000000000E-002    1.035611784905599E-026
  1.250000000000000E-002    1.178652686506399E-026
  1.260000000000000E-002    1.233085931018949E-026
  1.270000000000000E-002    1.174023710587815E-026
  1.280000000000000E-002    9.828728456704253E-027
  1.290000000000000E-002    6.506210841081071E-027
  1.300000000000000E-002    1.808240485576924E-027
  1.310000000000000E-002   -4.080857951085934E-027
  1.320000000000000E-002   -1.081555877849210E-026
  1.330000000000000E-002   -1.789088398651640E-026
  1.340000000000000E-002   -2.466110049236592E-026
  1.350000000000000E-002   -3.037688747851418E-026
  1.360000000000000E-002   -3.424085318354856E-026
  1.370000000000000E-002   -3.547933538716469E-026
  1.380000000000000E-002   -3.342627355056231E-026
  1.390000000000000E-002   -2.761287254556545E-026
  1.400000000000000E-002   -1.785492925872044E-026
  1.410000000000000E-002   -4.328380634605905E-027
  1.420000000000000E-002    1.237699046037616E-026
  1.430000000000000E-002    3.123539724330948E-026
  1.440000000000000E-002    5.080275812072708E-026
  1.450000000000000E-002    6.928003909347379E-026
  1.460000000000000E-002    8.462451635254743E-026
  1.470000000000000E-002    9.470665437018421E-026
  1.480000000000000E-002    9.750541053439055E-026
  1.490000000000000E-002    9.132950978011198E-026
  1.500000000000000E-002    7.504735211502217E-026
  1.510000000000000E-002    4.830427248851000E-026
  1.520000000000000E-002    1.170323591706822E-026
  1.530000000000000E-002   -3.307557482813431E-026
  1.540000000000000E-002   -8.323918948849853E-026
  1.550000000000000E-002   -1.349489048178411E-025
  1.560000000000000E-002   -1.835019496625304E-025
  1.570000000000000E-002   -2.236304028197881E-025
  1.580000000000000E-002   -2.499090919689169E-025
  1.590000000000000E-002   -2.572521147166692E-025
  1.600000000000000E-002   -2.414653457414818E-025
  1.610000000000000E-002   -1.998110874212394E-025
  1.620000000000000E-002   -1.315323233043440E-025
  1.630000000000000E-002   -3.827867447426055E-026
  1.640000000000000E-002    7.562429397489528E-026
  1.650000000000000E-002    2.031156780971041E-025
  1.660000000000000E-002    3.345918315861157E-025
  1.670000000000000E-002    4.583761486661111E-025
  1.680000000000000E-002    5.614680521286627E-025
  1.690000000000000E-002    6.305474983651100E-025
  1.700000000000000E-002    6.531817891378693E-025
  1.710000000000000E-002    6.191532861101903E-025
  1.720000000000000E-002    5.218011247027405E-025
  1.730000000000000E-002    3.592511838899795E-025
  1.740000000000000E-002    1.353977069618633E-025
  1.750000000000000E-002   -1.394978524892848E-025
  1.760000000000000E-002   -4.487108829522848E-025
  1.770000000000000E-002   -7.695514555658794E-025
  1.780000000000000E-002   -1.074504313345589E-024
  1.790000000000000E-002   -1.333005818717676E-024
  1.800000000000000E-002   -1.513790017813359E-024
  1.810000000000000E-002   -1.587671416822257E-024
  1.820000000000000E-002   -1.530569465009904E-024
  1.830000000000000E-002   -1.326526327952479E-024
  1.840000000000000E-002   -9.704340253523051E-025
  1.850000000000000E-002   -4.701709736051743E-025
  1.860000000000000E-002    1.521394920868541E-025
  1.870000000000000E-002    8.599944986675762E-025