 -4.000000000000000E-002    0.000000000000000E+000
 -3.990000000000000E-002    0.000000000000000E+000
 -3.980000000000000E-002    0.000000000000000E+000
 -3.970000000000000E-002    0.000000000000000E+000
 -3.960000000000000E-002    0.000000000000000E+000
 -3.950000000000000E-002    0.000000000000000E+000
 -3.940000000000000E-002    0.000000000000000E+000
 -3.930000000000000E-002    0.000000000000000E+000
 -3.920000000000000E-002    0.000000000000000E+000
 -3.910000000000000E-002    0.000000000000000E+000
 -3.900000000000000E-002    0.000000000000000E+000
 -3.890000000000000E-002    0.000000000000000E+000
 -3.880000000000000E-002    0.000000000000000E+000
 -3.870000000000000E-002    0.000000000000000E+000
 -3.860000000000000E-002    0.000000000000000E+000
 -3.850000000000000E-002    0.000000000000000E+000
 -3.840000000000000E-002    0.000000000000000E+000
 -3.830000000000000E-002    0.000000000000000E+000
 -3.820000000000000E-002    0.000000000000000E+000
 -3.810000000000000E-002    0.000000000000000E+000
 -3.800000000000000E-002   -1.206475839892203E-047
 -3.790000000000000E-002   -3.884968173675077E-046
 -3.780000000000000E-002   -2.172797876089412E-045
 -3.770000000000000E-002   -1.133267172403532E-044
 -3.760000000000000E-002   -5.075777856826496E-044
 -3.750000000000000E-002   -2.077517465667927E-043
 -3.740000000000000E-002   -7.730196551851067E-043
 -3.730000000000000E-002   -2.657078092771525E-042
 -3.720000000000000E-002   -8.482118484085474E-042
 -3.710000000000000E-002   -2.529655812550250E-041
 -3.700000000000000E-002   -7.081000683054595E-041
 -3.690000000000000E-002   -1.867308361618856E-040
 -3.680000000000000E-002   -4.652385088650006E-040
 -3.670000000000000E-002   -1.097468217613188E-039
 -3.660000000000000E-002   -2.454402616105867E-039
 -3.650000000000000E-002   -5.206523683712713E-039
 -3.640000000000000E-002   -1.047037156487679E-038
 -3.630000000000000E-002   -1.992298599762474E-038
 -3.620000000000000E-002   -3.572727766059050E-038
 -3.610000000000000E-002   -5.993637963774737E-038
 -3.600000000000000E-002   -9.277127665992046E-038
 -3.590000000000000E-002   -1.287963740631509E-037
 -3.580000000000000E-002   -1.496148713208579E-037
 -3.570000000000000E-002   -1.114411318684514E-037
 -3.560000000000000E-002    7.388268692557798E-038
 -3.550000000000000E-002    5.646287855514258E-037
 -3.540000000000000E-002    1.618900069852043E-036
 -3.530000000000000E-002    3.619984459513675E-036
 -3.520000000000000E-002    7.080322443672136E-036
 -3.510000000000000E-002    1.259547075010818E-035
 -3.500000000000000E-002    2.070672547228894E-035
 -3.490000000000000E-002    3.162149105767923E-035
 -3.480000000000000E-002    4.474156295010974E-035
 -3.470000000000000E-002    5.797174595095220E-035
 -3.460000000000000E-002    6.683742760687847E-035
 -3.450000000000000E-002    6.353978607269862E-035
 -3.440000000000000E-002    3.622334793222415E-035
 -3.430000000000000E-002   -3.109458842316747E-035
 -3.420000000000000E-002   -1.573252240660626E-034
 -3.410000000000000E-002   -3.611797117426670E-034
 -3.400000000000000E-002   -6.556253699984550E-034
 -3.390000000000000E-002   -1.040004917196542E-033
 -3.380000000000000E-002   -1.490985156403678E-033
 -3.370000000000000E-002   -1.955187940369545E-033
 -3.360000000000000E-002   -2.348501461242088E-033
 -3.350000000000000E-002   -2.569242609033932E-033
 -3.340000000000000E-002   -2.533641088164178E-033
 -3.330000000000000E-002   -2.241134850503108E-033
 -3.320000000000000E-002   -1.871783799014138E-033
 -3.310000000000000E-002   -1.906734379865013E-033
 -3.300000000000000E-002   -3.243067680874774E-033
 -3.290000000000000E-002   -7.246334000979478E-033
 -3.280000000000000E-002   -1.564953140050259E-032
 -3.270000000000000E-002   -3.017165308823534E-032
 -3.260000000000000E-002   -5.170413310763527E-032
 -3.250000000000000E-002   -7.891609590931327E-032
 -3.240000000000000E-002   -1.061818913666367E-031
 -3.230000000000000E-002   -1.208626026373100E-031
 -3.220000000000000E-002   -1.002010798632296E-031
 -3.210000000000000E-002   -8.429178162595951E-033
 -3.200000000000000E-002    2.048650227535267E-031
 -3.190000000000000E-002    6.035563774788470E-031
 -3.180000000000000E-002    1.258930605674917E-030
 -3.170000000000000E-002    2.236375836231049E-030
 -3.160000000000000E-002    3.572422944495249E-030
 -3.150000000000000E-002    5.240305256011307E-030
 -3.140000000000000E-002    7.103600619420707E-030
 -3.130000000000000E-002    8.859875317707322E-030
 -3.120000000000000E-002    9.979765085328550E-030
 -3.110000000000000E-002    9.651496324783884E-030
 -3.100000000000000E-002    6.746170945761780E-030
 -3.090000000000000E-002   -1.753222355377879E-031
 -3.080000000000000E-002   -1.278802611686998E-029
 -3.070000000000000E-002   -3.283261016196681E-029
 -3.060000000000000E-002   -6.182070506497909E-029
 -3.050000000000000E-002   -1.005924160979223E-028
 -3.040000000000000E-002   -1.487142240961668E-028
 -3.030000000000000E-002   -2.037235702725564E-028
 -3.020000000000000E-002   -2.602534908276410E-028
 -3.010000000000000E-002   -3.091056959762285E-028
 -3.000000000000000E-002   -3.363836747102974E-028
 -2.990000000000000E-002   -3.228473831541576E-028
 -2.980000000000000E-002   -2.437067873523857E-028
 -2.970000000000000E-002   -6.913190795405101E-029
 -2.960000000000000E-002    2.341901215271298E-028
 -2.950000000000000E-002    7.000612882846872E-028
 -2.940000000000000E-002    1.357932067683870E-027
 -2.930000000000000E-002    2.225796083697763E-027
 -2.920000000000000E-002    3.300474087356705E-027
 -2.910000000000000E-002    4.545108547068064E-027
 -2.900000000000000E-002    5.873983003756930E-027
 -2.890000000000000E-002    7.135312959208364E-027
 -2.880000000000000E-002    8.093403598821177E-027
 -2.870000000000000E-002    8.412645536133815E-027
 -2.860000000000000E-002    7.647175763426008E-027
 -2.850000000000000E-002    5.241642424103893E-027
 -2.840000000000000E-002    5.502014311219086E-028
 -2.830000000000000E-002   -7.117685707444289E-027
 -2.820000000000000E-002   -1.841519343176905E-026
 -2.810000000000000E-002   -3.383093895142504E-026
 -2.800000000000000E-002   -5.351006832840805E-026
 -2.790000000000000E-002   -7.702239935795917E-026
 -2.780000000000000E-002   -1.030850753750518E-025
 -2.770000000000000E-002   -1.292597545000823E-025
 -2.760000000000000E-002   -1.516609095423764E-025
 -2.750000000000000E-002   -1.647311754312883E-025
 -2.740000000000000E-002   -1.611598514365465E-025
 -2.730000000000000E-002   -1.320391023644860E-025
 -2.720000000000000E-002   -6.736359839905070E-026
 -2.710000000000000E-002    4.302194350558459E-026
 -2.700000000000000E-002    2.079410286379403E-025
 -2.690000000000000E-002    4.328292710052633E-025
 -2.680000000000000E-002    7.171352343866093E-025
 -2.670000000000000E-002    1.051314115029224E-024
 -2.660000000000000E-002    1.413683223909544E-024
 -2.650000000000000E-002    1.767558741380195E-024
 -2.640000000000000E-002    2.059247310719755E-024
 -2.630000000000000E-002    2.217600967649400E-024
 -2.620000000000000E-002    2.155923040680061E-024
 -2.610000000000000E-002    1.777008219882204E-024
 -2.600000000000000E-002    9.819684985927716E-025
 -2.590000000000000E-002   -3.167854672731378E-025
 -2.580000000000000E-002   -2.178495372103935E-024
 -2.570000000000000E-002   -4.613664745311867E-024
 -2.560000000000000E-002   -7.561821073682811E-024
 -2.550000000000000E-002   -1.086978524513971E-023
 -2.540000000000000E-002   -1.427364741608483E-023
 -2.530000000000000E-002   -1.738835729734061E-023
 -2.520000000000000E-002   -1.970923050967207E-023
 -2.510000000000000E-002   -2.062960923899842E-023
 -2.500000000000000E-002   -1.947825182821030E-023
 -2.490000000000000E-002   -1.557861898632110E-023
 -2.480000000000000E-002   -8.330033480654895E-024
 -2.470000000000000E-002    2.692124184131122E-024
 -2.460000000000000E-002    1.762356084558592E-023
 -2.450000000000000E-002    3.619542188369094E-023
 -2.440000000000000E-002    5.762933301960572E-023
 -2.430000000000000E-002    8.055914774767562E-023
 -2.420000000000000E-002    1.029970057137381E-022
 -2.410000000000000E-002    1.223607461668346E-022
 -2.400000000000000E-002    1.355770009671843E-022
 -2.390000000000000E-002    1.392690832235412E-022
 -2.380000000000000E-002    1.300309735971201E-022
 -2.370000000000000E-002    1.047787929971426E-022
 -2.360000000000000E-002    6.116034187453221E-023
 -2.350000000000000E-002   -2.008474598858002E-024
 -2.340000000000000E-002   -8.432099549634429E-023
 -2.330000000000000E-002   -1.834191806005295E-022
 -2.320000000000000E-002   -2.947458222068482E-022
 -2.310000000000000E-002   -4.114576544813164E-022
 -2.300000000000000E-002   -5.245390775883976E-022
 -2.290000000000000E-002   -6.231406446379600E-022
 -2.280000000000000E-002   -6.951466605356849E-022
 -2.270000000000000E-002   -7.279533269524617E-022
 -2.260000000000000E-002   -7.094140726755839E-022
 -2.250000000000000E-002   -6.288878055454010E-022
 -2.240000000000000E-002   -4.783105549961032E-022
 -2.230000000000000E-002   -2.532030413406513E-022
 -2.220000000000000E-002    4.646829011611288E-023
 -2.210000000000000E-002    4.156467716068519E-022
 -2.200000000000000E-002    8.437998552332475E-022
 -2.190000000000000E-002    1.314808407803775E-021
 -2.180000000000000E-002    1.807111448939225E-021
 -2.170000000000000E-002    2.294061711144698E-021
 -2.160000000000000E-002    2.744436234625402E-021
 -2.150000000000000E-002    3.123042157477421E-021
 -2.140000000000000E-002    3.391390463665857E-021
 -2.130000000000000E-002    3.508448540218185E-021
 -2.120000000000000E-002    3.431551497788222E-021
 -2.110000000000000E-002    3.117618510799183E-021
 -2.100000000000000E-002    2.524885991639939E-021
 -2.090000000000000E-002    1.615405939216436E-021
 -2.080000000000000E-002    3.585671435908587E-022
 -2.070000000000000E-002   -1.264182382238598E-021
 -2.060000000000000E-002   -3.253342712511986E-021
 -2.050000000000000E-002   -5.584260178686194E-021
 -2.040000000000000E-002   -8.199314524300579E-021
 -2.030000000000000E-002   -1.100014671536712E-020
 -2.020000000000000E-002   -1.384096030023664E-020
 -2.010000000000000E-002   -1.652422041946732E-020
 -2.000000000000000E-002   -1.880025849361789E-020
 -1.990000000000000E-002   -2.037230255529488E-020
 -1.980000000000000E-002   -2.090825834750301E-020
 -1.970000000000000E-002   -2.006017890352079E-020
 -1.960000000000000E-002   -1.749164585048451E-020
 -1.950000000000000E-002   -1.291241886350240E-020
 -1.940000000000000E-002   -6.118652462484027E-021
 -1.930000000000000E-002    2.964132893774339E-021
 -1.920000000000000E-002    1.423919797143105E-020
 -1.910000000000000E-002    2.740253228048499E-020
 -1.900000000000000E-002    4.191774117871383E-020
 -1.890000000000000E-002    5.700697947108797E-020
 -1.880000000000000E-002    7.166230818561747E-020
 -1.870000000000000E-002    8.468063515896168E-020
 -1.860000000000000E-002    9.472343064241476E-020
 -1.850000000000000E-002    1.003999870604618E-019
 -1.840000000000000E-002    1.003703597777935E-019
 -1.830000000000000E-002    9.346144138006336E-020
 -1.820000000000000E-002    7.878722222174207E-020
 -1.810000000000000E-002    5.586276056805502E-020
 -1.800000000000000E-002    2.470038512414682E-020
 -1.790000000000000E-002   -1.412235681354289E-020
 -1.780000000000000E-002   -5.943230568130292E-020
 -1.770000000000000E-002   -1.094735843764612E-019
 -1.760000000000000E-002   -1.619655653695638E-019
 -1.750000000000000E-002   -2.142031946329589E-019
 -1.740000000000000E-002   -2.631916841862033E-019
 -1.730000000000000E-002   -3.058039477793494E-019
 -1.720000000000000E-002   -3.389453865442956E-019
 -1.710000000000000E-002   -3.597099432693875E-019
 -1.700000000000000E-002   -3.655121480491943E-019
 -1.690000000000000E-002   -3.541832700686586E-019
 -1.680000000000000E-002   -3.240255060890211E-019
 -1.670000000000000E-002   -2.738257235034020E-019
 -1.660000000000000E-002   -2.028386570475976E-019
 -1.650000000000000E-002   -1.107574949149625E-019
 -1.640000000000000E-002    2.302813787834520E-021
 -1.630000000000000E-002    1.357815955760646E-019
 -1.620000000000000E-002    2.885790592541598E-019
 -1.610000000000000E-002    4.588729645809908E-019
 -1.600000000000000E-002    6.438337609952033E-019
 -1.590000000000000E-002    8.392460081939945E-019
 -1.580000000000000E-002    1.039062568140409E-018
 -1.570000000000000E-002    1.234944467394800E-018
 -1.560000000000000E-002    1.415858883701402E-018
 -1.550000000000000E-002    1.567828476846556E-018
 -1.540000000000000E-002    1.673935477291833E-018
 -1.530000000000000E-002    1.714683542813635E-018
 -1.520000000000000E-002    1.668805785055300E-018
 -1.510000000000000E-002    1.514576116861269E-018
 -1.500000000000000E-002    1.231636995721802E-018
 -1.490000000000000E-002    8.032914207119388E-019
 -1.480000000000000E-002    2.191440246052869E-019
 -1.470000000000000E-002   -5.221078563775139E-019
 -1.460000000000000E-002   -1.409989281191624E-018
 -1.450000000000000E-002   -2.419986373184879E-018
 -1.440000000000000E-002   -3.512054114607122E-018
 -1.430000000000000E-002   -4.630227767681434E-018
 -1.420000000000000E-002   -5.703635670196709E-018
 -1.410000000000000E-002   -6.649115457232587E-018
 -1.400000000000000E-002   -7.375501472352498E-018
 -1.390000000000000E-002   -7.789495354332493E-018
 -1.380000000000000E-002   -7.802830188916835E-018
 -1.370000000000000E-002   -7.340254954921888E-018
 -1.360000000000000E-002   -6.347694839367281E-018
 -1.350000000000000E-002   -4.799809444511269E-018
 -1.340000000000000E-002   -2.706109857123734E-018
 -1.330000000000000E-002   -1.148407969175777E-019
 -1.320000000000000E-002    2.886069792584598E-018
 -1.310000000000000E-002    6.171415508203316E-018
 -1.300000000000000E-002    9.584625571145109E-018
 -1.290000000000000E-002    1.294692284313373E-017
 -1.280000000000000E-002    1.606905594597675E-017
 -1.270000000000000E-002    1.876455846605881E-017
 -1.260000000000000E-002    2.086318387935612E-017
 -1.250000000000000E-002    2.222298160354543E-017
 -1.240000000000000E-002    2.273948744422983E-017
 -1.230000000000000E-002    2.235072077823375E-017
 -1.220000000000000E-002    2.103712731055840E-017
 -1.210000000000000E-002    1.881618311090916E-017
 -1.200000000000000E-002    1.573219207135815E-017
 -1.190000000000000E-002    1.184260788618878E-017
 -1.180000000000000E-002    7.202930369608429E-018
 -1.170000000000000E-002    1.852917429407975E-018
 -1.160000000000000E-002   -4.192954791829773E-018
 -1.150000000000000E-002   -1.094788709849887E-017
 -1.140000000000000E-002   -1.844560679537198E-017
 -1.130000000000000E-002   -2.672241657993972E-017
 -1.120000000000000E-002   -3.578843950330509E-017
 -1.110000000000000E-002   -4.558988683922833E-017
 -1.100000000000000E-002   -5.596595928230380E-017
 -1.090000000000000E-002   -6.660570833305570E-017
 -1.080000000000000E-002   -7.701140979979377E-017
 -1.070000000000000E-002   -8.647584535722373E-017
 -1.060000000000000E-002   -9.408053256237419E-017
 -1.050000000000000E-002   -9.872090422260377E-017
 -1.040000000000000E-002   -9.916224649282282E-017
 -1.030000000000000E-002   -9.412705298563002E-017
 -1.020000000000000E-002   -8.241081634715349E-017
 -1.010000000000000E-002   -6.301914280591896E-017
 -1.000000000000000E-002   -3.531522600488360E-017
 -9.899999999999999E-003    8.364246038638413E-019
 -9.800000000000000E-003    4.494608950258514E-017
 -9.699999999999999E-003    9.581124955662123E-017
 -9.599999999999999E-003    1.514801844394995E-016
 -9.500000000000000E-003    2.092780022112598E-016
 -9.399999999999999E-003    2.659011931637867E-016
 -9.299999999999999E-003    3.175799447830198E-016
 -9.200000000000000E-003    3.603000570460538E-016
 -9.099999999999999E-003    3.900693356789370E-016
 -8.999999999999999E-003    4.032066971899125E-016
 -8.900000000000000E-003    3.966286739159040E-016
 -8.799999999999999E-003    3.681063025345061E-016
 -8.699999999999999E-003    3.164670359489822E-016
 -8.600000000000000E-003    2.417218634524386E-016
 -8.499999999999999E-003    1.451051987778196E-016
 -8.399999999999999E-003    2.902593387547151E-017
 -8.300000000000000E-003   -1.030617822516985E-016
 -8.199999999999999E-003   -2.468483506544368E-016
 -8.100000000000000E-003   -3.973916593270729E-016
 -8.000000000000000E-003   -5.493398933243637E-016
 -7.899999999999999E-003   -6.971230837625783E-016
 -7.800000000000000E-003   -8.350851667940536E-016
 -7.699999999999999E-003   -9.575406065617737E-016
 -7.599999999999999E-003   -1.058753938362615E-015
 -7.499999999999999E-003   -1.132858158954342E-015
 -7.399999999999999E-003   -1.173745672862040E-015
 -7.299999999999999E-003   -1.174981788238921E-015
 -7.199999999999999E-003   -1.129799884905255E-015
 -7.100000000000000E-003   -1.031241107968901E-015
 -6.999999999999999E-003   -8.724938193435442E-016
 -6.899999999999999E-003   -6.474693646404037E-016
 -6.800000000000000E-003   -3.516257609097756E-016
 -6.699999999999999E-003    1.698993251711776E-017
 -6.599999999999999E-003    4.565454553770622E-016
 -6.499999999999999E-003    9.601831131747358E-016
 -6.399999999999999E-003    1.514881685655122E-015
 -6.299999999999999E-003    2.100589090237803E-015
 -6.199999999999999E-003    2.689808944199961E-015
 -6.100000000000000E-003    3.247810197154280E-015
 -5.999999999999999E-003    3.733599437586754E-015
 -5.899999999999999E-003    4.101738520737443E-015
 -5.800000000000000E-003    4.305016916345575E-015
 -5.699999999999999E-003    4.297899291638153E-015
 -5.599999999999999E-003    4.040569214950219E-015
 -5.499999999999999E-003    3.503302723816941E-015
 -5.399999999999999E-003    2.670812976666916E-015
 -5.299999999999999E-003    1.546164535451694E-015
 -5.199999999999999E-003    1.538166826818371E-016
 -5.099999999999999E-003   -1.458622004557801E-015
 -4.999999999999999E-003   -3.220286603078094E-015
 -4.899999999999999E-003   -5.038862099374609E-015
 -4.799999999999999E-003   -6.804416921970782E-015
 -4.699999999999999E-003   -8.395221537721626E-015
 -4.599999999999999E-003   -9.685316627943318E-015
 -4.499999999999999E-003   -1.055341562887638E-014
 -4.399999999999999E-003   -1.089255807127367E-014
 -4.299999999999999E-003   -1.061979979063398E-014
 -4.199999999999999E-003   -9.685146141906151E-015
 -4.099999999999999E-003   -8.078912797664366E-015
 -3.999999999999999E-003   -5.836757779297944E-015
 -3.899999999999999E-003   -3.041744443315435E-015
 -3.799999999999999E-003    1.770055560414121E-016
 -3.699999999999999E-003    3.649285085933572E-015
 -3.599999999999999E-003    7.172312982477865E-015
 -3.499999999999999E-003    1.052242875338962E-014
 -3.399999999999999E-003    1.346932137167996E-014
 -3.299999999999999E-003    1.579189344016424E-014
 -3.199999999999999E-003    1.729469120589584E-014
 -3.099999999999999E-003    1.782370645523600E-014
 -2.999999999999999E-003    1.728034927404824E-014
 -2.899999999999999E-003    1.563245252373104E-014
 -2.799999999999999E-003    1.292134534449111E-014
 -2.699999999999999E-003    9.264271490775427E-015
 -2.599999999999999E-003    4.851735616651761E-015
 -2.499999999999999E-003   -6.030678401938744E-017
 -2.399999999999999E-003   -5.163145324993050E-015
 -2.299999999999999E-003   -1.011229837669152E-014
 -2.199999999999999E-003   -1.454790904061945E-014
 -2.099999999999999E-003   -1.811743385754916E-014
 -1.999999999999999E-003   -2.049939726775215E-014
 -1.899999999999999E-003   -2.142685793969783E-014
 -1.799999999999999E-003   -2.070929480750403E-014
 -1.699999999999999E-003   -1.825166041467080E-014
 -1.599999999999999E-003   -1.406945676682558E-014
 -1.499999999999999E-003   -8.298863395629404E-015
 -1.399999999999999E-003   -1.201077987831029E-015
 -1.299999999999999E-003    6.839786401861064E-015
 -1.199999999999999E-003    1.532579787052745E-014
 -1.099999999999999E-003    2.366159072746438E-014
 -9.999999999999989E-004    3.117827752422979E-014
 -8.999999999999990E-004    3.716479918787565E-014
 -7.999999999999990E-004    4.090642226742857E-014
 -6.999999999999989E-004    4.172963582976297E-014
 -5.999999999999990E-004    3.905232461578273E-014
 -4.999999999999989E-004    3.243735227218379E-014
 -3.999999999999989E-004    2.164710700410756E-014
 -2.999999999999989E-004    6.695786615760478E-015
 -1.999999999999989E-004   -1.210458490606208E-014
 -9.999999999999892E-005   -3.410892626947178E-014
  1.084202172485504E-018   -5.831972620533039E-014
  1.000000000000011E-004   -8.338847543073705E-014
  2.000000000000011E-004   -1.076425735185505E-013
  3.000000000000011E-004   -1.291414470967774E-013
  4.000000000000011E-004   -1.457639324515997E-013
  5.000000000000011E-004   -1.553269346587731E-013
  6.000000000000011E-004   -1.557327779709195E-013
  7.000000000000011E-004   -1.451394374248680E-013
  8.000000000000011E-004   -1.221448235484304E-013
  9.000000000000012E-004   -8.597318206686319E-014
  1.000000000000001E-003   -3.664900473179061E-014
  1.100000000000001E-003    2.485774517268469E-014
  1.200000000000001E-003    9.653217160335475E-014
  1.300000000000001E-003    1.752768991422365E-013
  1.400000000000001E-003    2.569503150526268E-013
  1.500000000000001E-003    3.364904701436771E-013
  1.600000000000001E-003    4.081291510242192E-013
  1.700000000000001E-003    4.656936915266616E-013
  1.800000000000001E-003    5.029867994666820E-013
  1.900000000000001E-003    5.142264700807085E-013
  2.000000000000001E-003    4.945211656992384E-013
  2.100000000000001E-003    4.403486582041258E-013
  2.200000000000001E-003    3.500026969893491E-013
  2.300000000000001E-003    2.239694947083768E-013
  2.400000000000001E-003    6.519679306812028E-014
  2.500000000000001E-003   -1.207779080669534E-013
  2.600000000000001E-003   -3.258663949480924E-013
  2.700000000000001E-003   -5.396529638182975E-013
  2.800000000000001E-003   -7.498063043234424E-013
  2.900000000000001E-003   -9.426717621624704E-013
  3.000000000000001E-003   -1.104020981582565E-012
  3.100000000000001E-003   -1.219923148205532E-012
  3.200000000000001E-003   -1.277689386666030E-012
  3.300000000000001E-003   -1.266833569904889E-012
  3.400000000000001E-003   -1.179985780025690E-012
  3.500000000000001E-003   -1.013694235075393E-012
  3.600000000000001E-003   -7.690521043993351E-013
  3.700000000000001E-003   -4.520944438989606E-013
  3.800000000000001E-003   -7.391964054350610E-014
  3.900000000000001E-003    3.494947544764805E-013
  4.000000000000001E-003    7.977957214176115E-013
  4.100000000000001E-003    1.247072833661508E-012
  4.200000000000001E-003    1.670966697488852E-012
  4.300000000000001E-003    2.042024327608345E-012
  4.400000000000001E-003    2.333241468479318E-012
  4.500000000000001E-003    2.519716562144759E-012
  4.600000000000002E-003    2.580328850000037E-012
  4.700000000000001E-003    2.499346559936475E-012
  4.800000000000001E-003    2.267866680328942E-012
  4.900000000000002E-003    1.884988583890715E-012
  5.000000000000001E-003    1.358631982672158E-012
  5.100000000000001E-003    7.059181961132180E-013
  5.200000000000001E-003   -4.694713083279013E-014
  5.300000000000002E-003   -8.653330815664143E-013
  5.400000000000001E-003   -1.707400712956825E-012
  5.500000000000001E-003   -2.525865373302053E-012
  5.600000000000002E-003   -3.270260549897217E-012
  5.700000000000001E-003   -3.889623753088225E-012
  5.800000000000001E-003   -4.335493479780806E-012
  5.900000000000002E-003   -4.565073035909668E-012
  6.000000000000001E-003   -4.544391022376041E-012
  6.100000000000001E-003   -4.251266407878004E-012
  6.200000000000002E-003   -3.677874945081885E-012
  6.300000000000002E-003   -2.832713565125566E-012
  6.400000000000001E-003   -1.741769685475860E-012
  6.500000000000001E-003   -4.487332024274676E-013
  6.600000000000002E-003    9.858750794248252E-013
  6.700000000000001E-003    2.486725490288158E-012
  6.800000000000001E-003    3.966855059936182E-012
  6.900000000000002E-003    5.331925186300571E-012
  7.000000000000001E-003    6.485406413921116E-012
  7.100000000000001E-003    7.334461481349385E-012
  7.200000000000002E-003    7.796220921785248E-012
  7.300000000000002E-003    7.804086706474443E-012
  7.400000000000001E-003    7.313656795339184E-012
  7.500000000000001E-003    6.307844819326639E-012
  7.600000000000002E-003    4.800772109661320E-012
  7.700000000000001E-003    2.840051421401354E-012
  7.800000000000001E-003    5.071442135206428E-013
  7.900000000000001E-003   -2.084432511424984E-012
  8.000000000000002E-003   -4.793152020516609E-012
  8.100000000000001E-003   -7.455743912000337E-012
  8.200000000000001E-003   -9.895498201926990E-012
  8.300000000000002E-003   -1.193227077397875E-011
  8.400000000000001E-003   -1.339371458168494E-011
  8.500000000000002E-003   -1.412713111221721E-011
  8.600000000000002E-003   -1.401123529377194E-011
  8.700000000000001E-003   -1.296707062179088E-011
  8.800000000000002E-003   -1.096728701009381E-011
  8.900000000000002E-003   -8.043025050535671E-012
  9.000000000000001E-003   -4.287733369868417E-012
  9.100000000000002E-003    1.426236698307845E-013
  9.200000000000002E-003    5.033326528129877E-012
  9.300000000000001E-003    1.011877861630809E-011
  9.400000000000002E-003    1.509438822558379E-011
  9.500000000000001E-003    1.963208299077585E-011
  9.600000000000001E-003    2.339881097067070E-011
  9.700000000000002E-003    2.607714161508599E-011
  9.800000000000001E-003    2.738684556908364E-011
  9.900000000000001E-003    2.710617197913779E-011
  1.000000000000000E-002    2.509144618805214E-011
  1.010000000000000E-002    2.129357574148067E-011
  1.020000000000000E-002    1.577012566841239E-011
  1.030000000000000E-002    8.691789373207570E-012
  1.040000000000000E-002    3.423234408868788E-013
  1.050000000000000E-002   -8.888642683275315E-012
  1.060000000000000E-002   -1.852011261079160E-011
  1.070000000000000E-002   -2.800126839955578E-011
  1.080000000000000E-002   -3.673931665796952E-011
  1.090000000000000E-002   -4.413241584116166E-011
  1.100000000000000E-002   -4.960603127052553E-011
  1.110000000000000E-002   -5.265070784232016E-011
  1.120000000000000E-002   -5.285898248871902E-011
  1.130000000000000E-002   -4.995904561272550E-011
  1.140000000000000E-002   -4.384274230362651E-011
  1.150000000000000E-002   -3.458571279712331E-011
  1.160000000000000E-002   -2.245778129610439E-011
  1.170000000000000E-002   -7.922186763297060E-012
  1.180000000000000E-002    8.377122408787919E-012
  1.190000000000000E-002    2.564023698514845E-011
  1.200000000000000E-002    4.294739469496715E-011
  1.210000000000000E-002    5.930501233715483E-011
  1.220000000000000E-002    7.369946676255435E-011
  1.230000000000000E-002    8.515581845062252E-011
  1.240000000000000E-002    9.279820048028925E-011
  1.250000000000000E-002    9.590822131618517E-011
  1.260000000000000E-002    9.397769611193636E-011
  1.270000000000000E-002    8.675211858005383E-011
  1.280000000000000E-002    7.426162853857577E-011
  1.290000000000000E-002    5.683687057575529E-011
  1.300000000000000E-002    3.510787083720120E-011
  1.310000000000000E-002    9.985075166955404E-012
  1.320000000000000E-002   -1.737733322688953E-011
  1.330000000000000E-002   -4.563456492386561E-011
  1.340000000000000E-002   -7.331844241787730E-011
  1.350000000000000E-002   -9.891538765581119E-011
  1.360000000000000E-002   -1.209510166223111E-010
  1.370000000000000E-002   -1.380765145232868E-010
  1.380000000000000E-002   -1.491516737076366E-010
  1.390000000000000E-002   -1.533193351992942E-010
  1.400000000000000E-002   -1.500663479734798E-010
  1.410000000000000E-002   -1.392666178223134E-010
  1.420000000000000E-002   -1.212027670264607E-010
  1.430000000000000E-002   -9.656410044432764E-011
  1.440000000000000E-002   -6.641987076352314E-011
  1.450000000000000E-002   -3.216833771554353E-011
  1.460000000000000E-002    4.536267934358308E-012
  1.470000000000000E-002    4.187535988254143E-011
  1.480000000000000E-002    7.797121726253504E-011
  1.490000000000000E-002    1.109997164270857E-010
  1.500000000000000E-002    1.393037273144273E-010
  1.510000000000000E-002    1.614996798989918E-010
  1.520000000000000E-002    1.765701186087177E-010
  1.530000000000000E-002    1.839352652312864E-010
  1.540000000000000E-002    1.834976812166541E-010
  1.550000000000000E-002    1.756555714561362E-010
  1.560000000000000E-002    1.612819927997714E-010
  1.570000000000000E-002    1.416692409656939E-010
  1.580000000000000E-002    1.184403393585848E-010
  1.590000000000000E-002    9.343143357454424E-011
  1.600000000000000E-002    6.855141845349014E-011
  1.610000000000000E-002    4.562725047814815E-011
  1.620000000000000E-002    2.624470034406832E-011
  1.630000000000000E-002    1.159561692416854E-011
  1.640000000000000E-002    2.343125810721001E-012
  1.650000000000000E-002   -1.483991628756368E-012
  1.660000000000000E-002   -5.576791679462543E-013
  1.670000000000000E-002    3.730589165190084E-012
  1.680000000000000E-002    9.304495319573678E-012
  1.690000000000000E-002    1.349368063461573E-011
  1.700000000000000E-002    1.318031839638870E-011
  1.710000000000000E-002    4.996633827787594E-012
  1.720000000000000E-002   -1.443461842891482E-011
  1.730000000000000E-002   -4.822836804061140E-011
  1.740000000000000E-002   -9.894900733328444E-011
  1.750000000000000E-002   -1.683225696975912E-010
  1.760000000000000E-002   -2.569684503026593E-010
  1.770000000000000E-002   -3.641690776267628E-010
  1.780000000000000E-002   -4.876962935535425E-010
  1.790000000000000E-002   -6.237109084255836E-010
  1.800000000000000E-002   -7.667488575085245E-010
  1.810000000000000E-002   -9.098036597727705E-010
  1.820000000000000E-002   -1.044510134678769E-009
  1.830000000000000E-002   -1.161428117971108E-009
  1.840000000000000E-002   -1.250420751949043E-009
  1.850000000000000E-002   -1.301115086608341E-009
  1.860000000000000E-002   -1.303427136031930E-009
  1.870000000000000E-002   -1.248130119004154E-009