 -4.000000000000000E-002    0.000000000000000E+000
 -3.990000000000000E-002    0.000000000000000E+000
 -3.980000000000000E-002    0.000000000000000E+000
 -3.970000000000000E-002    0.000000000000000E+000
 -3.960000000000000E-002    0.000000000000000E+000
 -3.950000000000000E-002    0.000000000000000E+000
 -3.940000000000000E-002    0.000000000000000E+000
 -3.930000000000000E-002   -3.597859930233438E-029
 -3.920000000000000E-002   -1.822785068673104E-028
 -3.910000000000000E-002    1.421191036239955E-027
 -3.900000000000000E-002    2.382986162792122E-026
 -3.890000000000000E-002    1.727615464087242E-025
 -3.880000000000000E-002    8.733536163973174E-025
 -3.870000000000000E-002    3.491563073888539E-024
 -3.860000000000000E-002    1.169608893180036E-023
 -3.850000000000000E-002    3.389468396514385E-023
 -3.840000000000000E-002    8.655267170877240E-023
 -3.830000000000000E-002    1.965141740275613E-022
 -3.820000000000000E-002    3.966846369017001E-022
 -3.810000000000000E-002    7.026284233325106E-022
 -3.800000000000000E-002    1.047375234589525E-021
 -3.790000000000000E-002    1.139131813679872E-021
 -3.780000000000000E-002    1.957532769762874E-022
 -3.770000000000000E-002   -3.490799817151744E-021
 -3.760000000000000E-002   -1.318310125634263E-020
 -3.750000000000000E-002   -3.447603887988588E-020
 -3.740000000000000E-002   -7.604817502354172E-020
 -3.730000000000000E-002   -1.499980197799805E-019
 -3.720000000000000E-002   -2.710804808070093E-019
 -3.710000000000000E-002   -4.538075107436576E-019
 -3.700000000000000E-002   -7.060453921403613E-019
 -3.690000000000000E-002   -1.017559829869275E-018
 -3.680000000000000E-002   -1.342128618993776E-018
 -3.670000000000000E-002   -1.572599675090336E-018
 -3.660000000000000E-002   -1.509893273697046E-018
 -3.650000000000000E-002   -8.296227589408445E-019
 -3.640000000000000E-002    9.461800308684873E-019
 -3.630000000000000E-002    4.460019499487773E-018
 -3.620000000000000E-002    1.049527681338487E-017
 -3.610000000000000E-002    1.989624546684096E-017
 -3.600000000000000E-002    3.340807721830079E-017
 -3.590000000000000E-002    5.141493332136285E-017
 -3.580000000000000E-002    7.356313367115687E-017
 -3.570000000000000E-002    9.827298494981564E-017
 -3.560000000000000E-002    1.221694368976312E-016
 -3.550000000000000E-002    1.394976932421187E-016
 -3.540000000000000E-002    1.416332100815935E-016
 -3.530000000000000E-002    1.168411509278355E-016
 -3.520000000000000E-002    5.048081454457657E-017
 -3.510000000000000E-002   -7.412504166538356E-017
 -3.500000000000000E-002   -2.739397616108063E-016
 -3.490000000000000E-002   -5.634106766269422E-016
 -3.480000000000000E-002   -9.505417877297839E-016
 -3.470000000000000E-002   -1.431926227854273E-015
 -3.460000000000000E-002   -1.987037626946639E-015
 -3.450000000000000E-002   -2.572343597312800E-015
 -3.440000000000000E-002   -3.116088856636951E-015
 -3.430000000000000E-002   -3.514868052370537E-015
 -3.420000000000000E-002   -3.633313861792545E-015
 -3.410000000000000E-002   -3.308315291005815E-015
 -3.400000000000000E-002   -2.359082147636403E-015
 -3.390000000000000E-002   -6.040479582563142E-016
 -3.380000000000000E-002    2.114994768812541E-015
 -3.370000000000000E-002    5.901998050673670E-015
 -3.360000000000000E-002    1.077057920206434E-014
 -3.350000000000000E-002    1.660560982117472E-014
 -3.340000000000000E-002    2.312662262507913E-014
 -3.330000000000000E-002    2.985834836902210E-014
 -3.320000000000000E-002    3.611452909049838E-014
 -3.310000000000000E-002    4.100142905623589E-014
 -3.300000000000000E-002    4.344700926234450E-014
 -3.290000000000000E-002    4.226035697607620E-014
 -3.280000000000000E-002    3.622369522857516E-014
 -3.270000000000000E-002    2.421601779654433E-014
 -3.260000000000000E-002    5.363480410383312E-015
 -3.250000000000000E-002   -2.079272349891918E-014
 -3.240000000000000E-002   -5.412467833607907E-014
 -3.230000000000000E-002   -9.375973629113889E-014
 -3.220000000000000E-002   -1.379564346870518E-013
 -3.210000000000000E-002   -1.840355764442935E-013
 -3.200000000000000E-002   -2.283867106325210E-013
 -3.190000000000000E-002   -2.665665500850520E-013
 -3.180000000000000E-002   -2.934999549847349E-013
 -3.170000000000000E-002   -3.037857037517068E-013
 -3.160000000000000E-002   -2.920991535484721E-013
 -3.150000000000000E-002   -2.536730758907878E-013
 -3.140000000000000E-002   -1.848268925166621E-013
 -3.130000000000000E-002   -8.350519776921152E-014
 -3.120000000000000E-002    5.022062619799353E-014
 -3.110000000000000E-002    2.137372053480373E-013
 -3.100000000000000E-002    4.016090223375400E-013
 -3.090000000000000E-002    6.054761786126088E-013
 -3.080000000000000E-002    8.141627736129216E-013
 -3.070000000000000E-002    1.014014299320812E-012
 -3.060000000000000E-002    1.189465710336340E-012
 -3.050000000000000E-002    1.323823442463173E-012
 -3.040000000000000E-002    1.400227268662723E-012
 -3.030000000000000E-002    1.402742250883619E-012
 -3.020000000000000E-002    1.317519580766284E-012
 -3.010000000000000E-002    1.133957932508028E-012
 -3.000000000000000E-002    8.457956162662710E-013
 -2.990000000000000E-002    4.520663925180139E-013
 -2.980000000000000E-002   -4.214024129939454E-014
 -2.970000000000000E-002   -6.251647693949937E-013
 -2.960000000000000E-002   -1.278548056669718E-012
 -2.950000000000000E-002   -1.977116736878291E-012
 -2.940000000000000E-002   -2.689404007538120E-012
 -2.930000000000000E-002   -3.378422484689020E-012
 -2.920000000000000E-002   -4.002800630587417E-012
 -2.910000000000000E-002   -4.518290962886947E-012
 -2.900000000000000E-002   -4.879650607452389E-012
 -2.890000000000000E-002   -5.042886704263191E-012
 -2.880000000000000E-002   -4.967835195682610E-012
 -2.870000000000000E-002   -4.621012583248442E-012
 -2.860000000000000E-002   -3.978642964710295E-012
 -2.850000000000000E-002   -3.029703120319660E-012
 -2.840000000000000E-002   -1.778782144441787E-012
 -2.830000000000000E-002   -2.484906406532801E-013
 -2.820000000000000E-002    1.518884005235832E-012
 -2.810000000000000E-002    3.460801763809147E-012
 -2.800000000000000E-002    5.495285330775357E-012
 -2.790000000000000E-002    7.523381174396365E-012
 -2.780000000000000E-002    9.433418922775686E-012
 -2.770000000000000E-002    1.110705971862025E-011
 -2.760000000000000E-002    1.242693884536490E-011
 -2.750000000000000E-002    1.328547480400484E-011
 -2.740000000000000E-002    1.359419096831416E-011
 -2.730000000000000E-002    1.329270372087974E-011
 -2.720000000000000E-002    1.235637102883819E-011
 -2.710000000000000E-002    1.080155848707449E-011
 -2.700000000000000E-002    8.687542853195704E-012
 -2.690000000000000E-002    6.114278233185988E-012
 -2.680000000000000E-002    3.215603121487500E-012
 -2.670000000000000E-002    1.479416109411182E-013
 -2.660000000000000E-002   -2.924875364687396E-012
 -2.650000000000000E-002   -5.849441455191737E-012
 -2.640000000000000E-002   -8.501466550615747E-012
 -2.630000000000000E-002   -1.080306916968513E-011
 -2.620000000000000E-002   -1.273618102229262E-011
 -2.610000000000000E-002   -1.434958507447001E-011
 -2.600000000000000E-002   -1.575746784639933E-011
 -2.590000000000000E-002   -1.712806777290696E-011
 -2.580000000000000E-002   -1.866201385868080E-011
 -2.570000000000000E-002   -2.056122296694770E-011
 -2.560000000000000E-002   -2.299064803360510E-011
 -2.550000000000000E-002   -2.603652475122487E-011
 -2.540000000000000E-002   -2.966598614664753E-011
 -2.530000000000000E-002   -3.369366435835098E-011
 -2.520000000000000E-002   -3.776116128790324E-011
 -2.510000000000000E-002   -4.133477612014990E-011
 -2.500000000000000E-002   -4.372562559107028E-011
 -2.490000000000000E-002   -4.413434777056623E-011
 -2.480000000000000E-002   -4.171993228417091E-011
 -2.470000000000000E-002   -3.568920376428142E-011
 -2.460000000000000E-002   -2.540041136575653E-011
 -2.450000000000000E-002   -1.047141162304666E-011
 -2.440000000000000E-002    9.119178836560586E-012
 -2.430000000000000E-002    3.295073953065556E-011
 -2.420000000000000E-002    6.011199473338748E-011
 -2.410000000000000E-002    8.919597778762174E-011
 -2.400000000000000E-002    1.183463832138042E-010
 -2.390000000000000E-002    1.453584775002230E-010
 -2.380000000000000E-002    1.678319475025644E-010
 -2.370000000000000E-002    1.833670322842882E-010
 -2.360000000000000E-002    1.897889900050081E-010
 -2.350000000000000E-002    1.853808437058577E-010
 -2.340000000000000E-002    1.691008201608069E-010
 -2.330000000000000E-002    1.407593700696239E-010
 -2.320000000000000E-002    1.011321169863815E-010
 -2.310000000000000E-002    5.198926461307352E-011
 -2.300000000000000E-002   -3.971075085271741E-012
 -2.290000000000000E-002   -6.328896958734009E-011
 -2.280000000000000E-002   -1.220007342896067E-010
 -2.270000000000000E-002   -1.759707409356919E-010
 -2.260000000000000E-002   -2.212683082230365E-010
 -2.250000000000000E-002   -2.545533318289789E-010
 -2.240000000000000E-002   -2.734294014775040E-010
 -2.230000000000000E-002   -2.767230641160694E-010
 -2.220000000000000E-002   -2.646520532064759E-010
 -2.210000000000000E-002   -2.388546165748994E-010
 -2.200000000000000E-002   -2.022652940554807E-010
 -2.190000000000000E-002   -1.588388100582583E-010
 -2.180000000000000E-002   -1.131414378626300E-010
 -2.170000000000000E-002   -6.984652673234179E-011
 -2.160000000000000E-002   -3.318510124968494E-011
 -2.150000000000000E-002   -6.412638955947570E-012
 -2.140000000000000E-002    8.643454282861054E-012
 -2.130000000000000E-002    1.189472383648843E-011
 -2.120000000000000E-002    5.111223904660593E-012
 -2.110000000000000E-002   -8.181711442734904E-012
 -2.100000000000000E-002   -2.303740967314378E-011
 -2.090000000000000E-002   -3.363324480617076E-011
 -2.080000000000000E-002   -3.398147509186964E-011
 -2.070000000000000E-002   -1.873504263810134E-011
 -2.060000000000000E-002    1.600023742202857E-011
 -2.050000000000000E-002    7.194514322982419E-011
 -2.040000000000000E-002    1.481147305724116E-010
 -2.030000000000000E-002    2.405581149568963E-010
 -2.020000000000000E-002    3.424302267357939E-010
 -2.010000000000000E-002    4.444221651702776E-010
 -2.000000000000000E-002    5.355372753124469E-010
 -1.990000000000000E-002    6.041584261643337E-010
 -1.980000000000000E-002    6.393127254414277E-010
 -1.970000000000000E-002    6.320084276451002E-010
 -1.960000000000000E-002    5.764977038604379E-010
 -1.950000000000000E-002    4.713140722152514E-010
 -1.940000000000000E-002    3.199449507444646E-010
 -1.930000000000000E-002    1.310275394326177E-010
 -1.920000000000000E-002   -8.199983434950168E-011
 -1.910000000000000E-002   -3.018037531527755E-010
 -1.900000000000000E-002   -5.085717103180619E-010
 -1.890000000000000E-002   -6.818297371649293E-010
 -1.880000000000000E-002   -8.024997614324500E-010
 -1.870000000000000E-002   -8.549957675853064E-010
 -1.860000000000000E-002   -8.291382032339252E-010
 -1.850000000000000E-002   -7.216665299329787E-010
 -1.840000000000000E-002   -5.371597457372627E-010
 -1.830000000000000E-002   -2.882222575785018E-010
 -1.820000000000000E-002    5.137512963489123E-012
 -1.810000000000000E-002    3.169276390631571E-010
 -1.800000000000000E-002    6.172974637985330E-010
 -1.790000000000000E-002    8.751915782121556E-010
 -1.780000000000000E-002    1.061289772099384E-009
 -1.770000000000000E-002    1.150946522407166E-009
 -1.760000000000000E-002    1.126825266853577E-009
 -1.750000000000000E-002    9.809399036762718E-010
 -1.740000000000000E-002    7.158624456502093E-010
 -1.730000000000000E-002    3.449334450590581E-010
 -1.720000000000000E-002   -1.085924096782675E-010
 -1.710000000000000E-002   -6.134212499490886E-010
 -1.700000000000000E-002   -1.132961126798859E-009
 -1.690000000000000E-002   -1.628675043033293E-009
 -1.680000000000000E-002   -2.063716502217505E-009
 -1.670000000000000E-002   -2.406471856675473E-009
 -1.660000000000000E-002   -2.633630653668573E-009
 -1.650000000000000E-002   -2.732439481962168E-009
 -1.640000000000000E-002   -2.701871422058893E-009
 -1.630000000000000E-002   -2.552550292509053E-009
 -1.620000000000000E-002   -2.305399888393657E-009
 -1.610000000000000E-002   -1.989128874955107E-009
 -1.600000000000000E-002   -1.636794921111894E-009
 -1.590000000000000E-002   -1.281805666760801E-009
 -1.580000000000000E-002   -9.537933167954121E-010
 -1.570000000000000E-002   -6.748332315744983E-010
 -1.560000000000000E-002   -4.564627387216972E-010
 -1.550000000000000E-002   -2.978864355695601E-010
 -1.540000000000000E-002   -1.856458474708848E-010
 -1.530000000000000E-002   -9.487649921741468E-011
 -1.520000000000000E-002    7.890283396452664E-012
 -1.510000000000000E-002    1.606008932313061E-010
 -1.500000000000000E-002    4.006055458293710E-010
 -1.490000000000000E-002    7.591458283500761E-010
 -1.480000000000000E-002    1.255984587775842E-009
 -1.470000000000000E-002    1.894785803245809E-009
 -1.460000000000000E-002    2.659804650593301E-009
 -1.450000000000000E-002    3.514345769302585E-009
 -1.440000000000000E-002    4.401284512450539E-009
 -1.430000000000000E-002    5.245754095606849E-009
 -1.420000000000000E-002    5.959879035267343E-009
 -1.410000000000000E-002    6.449228878748990E-009
 -1.400000000000000E-002    6.620461624585244E-009
 -1.390000000000000E-002    6.389514041866246E-009
 -1.380000000000000E-002    5.689579316917081E-009
 -1.370000000000000E-002    4.478141899934313E-009
 -1.360000000000000E-002    2.742412616790778E-009
 -1.350000000000000E-002    5.026250732213637E-010
 -1.340000000000000E-002   -2.187066541826478E-009
 -1.330000000000000E-002   -5.240176259374166E-009
 -1.320000000000000E-002   -8.541672922237592E-009
 -1.310000000000000E-002   -1.195353500416348E-008
 -1.300000000000000E-002   -1.532131112016565E-008
 -1.290000000000000E-002   -1.848081124600814E-008
 -1.280000000000000E-002   -2.126397651388077E-008
 -1.270000000000000E-002   -2.350300539071433E-008
 -1.260000000000000E-002   -2.503191556764293E-008
 -1.250000000000000E-002   -2.568491462271747E-008
 -1.240000000000000E-002   -2.529129338904797E-008
 -1.230000000000000E-002   -2.366690390733895E-008
 -1.220000000000000E-002   -2.060259269219743E-008
 -1.210000000000000E-002   -1.585024354950197E-008
 -1.200000000000000E-002   -9.107675967186144E-009
 -1.190000000000000E-002   -3.436308622066397E-012
 -1.180000000000000E-002    1.191706778430632E-008
 -1.170000000000000E-002    2.720271514199122E-008
 -1.160000000000000E-002    4.650403159806079E-008
 -1.150000000000000E-002    7.057569963386616E-008
 -1.140000000000000E-002    1.002738747000303E-007
 -1.130000000000000E-002    1.365480445024572E-007
 -1.120000000000000E-002    1.804278375170771E-007
 -1.110000000000000E-002    2.330055189171226E-007
 -1.100000000000000E-002    2.954157020539677E-007
 -1.090000000000000E-002    3.688136820274159E-007
 -1.080000000000000E-002    4.543537094530561E-007
 -1.070000000000000E-002    5.531697662715711E-007
 -1.060000000000000E-002    6.663596013340733E-007
 -1.050000000000000E-002    7.949740429466887E-007
 -1.040000000000000E-002    9.400119248042896E-007
 -1.030000000000000E-002    1.102421478524115E-006
 -1.020000000000000E-002    1.283108233135005E-006
 -1.010000000000000E-002    1.482947812920380E-006
 -1.000000000000000E-002    1.702802960991992E-006
 -9.899999999999999E-003    1.943544140338499E-006
 -9.800000000000000E-003    2.206070092857718E-006
 -9.699999999999999E-003    2.491328252806846E-006
 -9.599999999999999E-003    2.800331808209813E-006
 -9.500000000000000E-003    3.134173314898796E-006
 -9.399999999999999E-003    3.494031839432362E-006
 -9.299999999999999E-003    3.881176749168275E-006
 -9.200000000000000E-003    4.296964946302008E-006
 -9.099999999999999E-003    4.742832963577451E-006
 -8.999999999999999E-003    5.220287499649470E-006
 -8.900000000000000E-003    5.730892607017421E-006
 -8.799999999999999E-003    6.276259563428511E-006
 -8.699999999999999E-003    6.858038200999247E-006
 -8.600000000000000E-003    7.477913239178385E-006
 -8.499999999999999E-003    8.137605125258631E-006
 -8.399999999999999E-003    8.838879639943766E-006
 -8.300000000000000E-003    9.583563576799504E-006
 -8.199999999999999E-003    1.037356846592161E-005
 -8.100000000000000E-003    1.121091544741416E-005
 -8.000000000000000E-003    1.209776918821608E-005
 -7.899999999999999E-003    1.303646865868039E-005
 -7.800000000000000E-003    1.402955823799792E-005
 -7.699999999999999E-003    1.507981509076818E-005
 -7.599999999999999E-003    1.619026961184591E-005
 -7.499999999999999E-003    1.736422139526187E-005
 -7.399999999999999E-003    1.860524197327726E-005
 -7.299999999999999E-003    1.991717005410214E-005
 -7.199999999999999E-003    2.130410149179194E-005
 -7.100000000000000E-003    2.277037230636234E-005
 -6.999999999999999E-003    2.432053570770970E-005
 -6.899999999999999E-003    2.595934138319177E-005
 -6.800000000000000E-003    2.769171176521849E-005
 -6.699999999999999E-003    2.952273624678678E-005
 -6.599999999999999E-003    3.145765537384666E-005
 -6.499999999999999E-003    3.350186973599123E-005
 -6.399999999999999E-003    3.566095679385907E-005
 -6.299999999999999E-003    3.794069221683269E-005
 -6.199999999999999E-003    4.034708999135452E-005
 -6.100000000000000E-003    4.288644634103819E-005
 -5.999999999999999E-003    4.556539241710363E-005
 -5.899999999999999E-003    4.839094928764031E-005
 -5.800000000000000E-003    5.137057426220336E-005
 -5.699999999999999E-003    5.451221090382975E-005
 -5.599999999999999E-003    5.782432804547621E-005
 -5.499999999999999E-003    6.131594385985990E-005
 -5.399999999999999E-003    6.499665911463331E-005
 -5.299999999999999E-003    6.887664793485035E-005
 -5.199999999999999E-003    7.296667427044616E-005
 -5.099999999999999E-003    7.727805888985517E-005
 -4.999999999999999E-003    8.182268256857232E-005
 -4.899999999999999E-003    8.661297995563616E-005
 -4.799999999999999E-003    9.166190940597711E-005
 -4.699999999999999E-003    9.698296203982398E-005
 -4.599999999999999E-003    1.025901691471455E-004
 -4.499999999999999E-003    1.084981116130761E-004
 -4.399999999999999E-003    1.147219468847086E-004
 -4.299999999999999E-003    1.212774788000725E-004
 -4.199999999999999E-003    1.281811659404191E-004
 -4.099999999999999E-003    1.354502019477501E-004
 -3.999999999999999E-003    1.431025967133590E-004
 -3.899999999999999E-003    1.511571804183832E-004
 -3.799999999999999E-003    1.596337104410760E-004
 -3.699999999999999E-003    1.685529019776199E-004
 -3.599999999999999E-003    1.779364607032253E-004
 -3.499999999999999E-003    1.878070919722701E-004
 -3.399999999999999E-003    1.981885502288337E-004
 -3.299999999999999E-003    2.091056292162743E-004
 -3.199999999999999E-003    2.205841344521082E-004
 -3.099999999999999E-003    2.326508878332140E-004
 -2.999999999999999E-003    2.453337740537942E-004
 -2.899999999999999E-003    2.586616753872221E-004
 -2.799999999999999E-003    2.726645049554949E-004
 -2.699999999999999E-003    2.873732204906367E-004
 -2.599999999999999E-003    3.028199105259296E-004
 -2.499999999999999E-003    3.190377934918438E-004
 -2.399999999999999E-003    3.360613140314697E-004
 -2.299999999999999E-003    3.539262489629134E-004
 -2.199999999999999E-003    3.726697986044262E-004
 -2.099999999999999E-003    3.923306408879840E-004
 -1.999999999999999E-003    4.129490628863739E-004
 -1.899999999999999E-003    4.345670837636450E-004
 -1.799999999999999E-003    4.572284699859374E-004
 -1.699999999999999E-003    4.809787738967427E-004
 -1.599999999999999E-003    5.058655180870842E-004
 -1.499999999999999E-003    5.319381207528177E-004
 -1.399999999999999E-003    5.592479497675559E-004
 -1.299999999999999E-003    5.878482627924755E-004
 -1.199999999999999E-003    6.177942444606963E-004
 -1.099999999999999E-003    6.491430163257279E-004
 -9.999999999999989E-004    6.819536587716746E-004
 -8.999999999999990E-004    7.162871671384892E-004
 -7.999999999999990E-004    7.522064246359240E-004
 -6.999999999999989E-004    7.897763648913504E-004
 -5.999999999999990E-004    8.290639846709594E-004
 -4.999999999999989E-004    8.701382972076954E-004
 -3.999999999999989E-004    9.130705374662507E-004
 -2.999999999999989E-004    9.579343437302475E-004
 -1.999999999999989E-004    1.004805746100834E-003
 -9.999999999999892E-005    1.053763217670754E-003
  1.084202172485504E-018    1.104888034387298E-003
  1.000000000000011E-004    1.158264091121112E-003
  2.000000000000011E-004    1.213978152050797E-003
  3.000000000000011E-004    1.272119803750320E-003
  4.000000000000011E-004    1.332781570556202E-003
  5.000000000000011E-004    1.396058885451857E-003
  6.000000000000011E-004    1.462050125654556E-003
  7.000000000000011E-004    1.530856710095980E-003
  8.000000000000011E-004    1.602582674835104E-003
  9.000000000000012E-004    1.677335295729907E-003
  1.000000000000001E-003    1.755224391257043E-003
  1.100000000000001E-003    1.836362857946461E-003
  1.200000000000001E-003    1.920866395777552E-003
  1.300000000000001E-003    2.008853669367917E-003
  1.400000000000001E-003    2.100446280951229E-003
  1.500000000000001E-003    2.195769309093010E-003
  1.600000000000001E-003    2.294950824532938E-003
  1.700000000000001E-003    2.398122192854524E-003
  1.800000000000001E-003    2.505418344292377E-003
  1.900000000000001E-003    2.616977862275150E-003
  2.000000000000001E-003    2.732942968310698E-003
  2.100000000000001E-003    2.853459630496518E-003
  2.200000000000001E-003    2.978677745541489E-003
  2.300000000000001E-003    3.108751307190698E-003
  2.400000000000001E-003    3.243837768919213E-003
  2.500000000000001E-003    3.384098687075906E-003
  2.600000000000001E-003    3.529699353896432E-003
  2.700000000000001E-003    3.680808738644426E-003
  2.800000000000001E-003    3.837599668503482E-003
  2.900000000000001E-003    4.000247958684617E-003
  3.000000000000001E-003    4.168932908014246E-003
  3.100000000000001E-003    4.343837269205498E-003
  3.200000000000001E-003    4.525147182518065E-003
  3.300000000000001E-003    4.713051694603639E-003
  3.400000000000001E-003    4.907743421734185E-003
  3.500000000000001E-003    5.109417443750372E-003
  3.600000000000001E-003    5.318272050163420E-003
  3.700000000000001E-003    5.534509426270667E-003
  3.800000000000001E-003    5.758334236787057E-003
  3.900000000000001E-003    5.989954704232416E-003
  4.000000000000001E-003    6.229581828461922E-003
  4.100000000000001E-003    6.477430835665615E-003
  4.200000000000001E-003    6.733718720120070E-003
  4.300000000000001E-003    6.998666761640892E-003
  4.400000000000001E-003    7.272499131643622E-003
  4.500000000000001E-003    7.555442910355685E-003
  4.600000000000002E-003    7.847726920029247E-003
  4.700000000000001E-003    8.149583770339369E-003
  4.800000000000001E-003    8.461248182854524E-003
  4.900000000000002E-003    8.782955649486055E-003
  5.000000000000001E-003    9.114945470482194E-003
  5.100000000000001E-003    9.457456821181310E-003
  5.200000000000001E-003    9.810730796620360E-003
  5.300000000000002E-003    1.017501090985214E-002
  5.400000000000001E-003    1.055053924641670E-002
  5.500000000000001E-003    1.093755911853821E-002
  5.600000000000002E-003    1.133631641325052E-002
  5.700000000000001E-003    1.174705515682547E-002
  5.800000000000001E-003    1.217002045722260E-002
  5.900000000000002E-003    1.260545755159468E-002
  6.000000000000001E-003    1.305361119623906E-002
  6.100000000000001E-003    1.351472586367177E-002
  6.200000000000002E-003    1.398904423680251E-002
  6.300000000000002E-003    1.447681062944198E-002
  6.400000000000001E-003    1.497826523242958E-002
  6.500000000000001E-003    1.549364763178846E-002
  6.600000000000002E-003    1.602319601752325E-002
  6.700000000000001E-003    1.656714724303694E-002
  6.800000000000001E-003    1.712573127278567E-002
  6.900000000000002E-003    1.769917775472581E-002
  7.000000000000001E-003    1.828771354809411E-002
  7.100000000000001E-003    1.889155614426264E-002
  7.200000000000002E-003    1.951092389466108E-002
  7.300000000000002E-003    2.014602590730676E-002
  7.400000000000001E-003    2.079706778936951E-002
  7.500000000000001E-003    2.146424732537787E-002
  7.600000000000002E-003    2.214775724073618E-002
  7.700000000000001E-003    2.284778289344483E-002
  7.800000000000001E-003    2.356450190345431E-002
  7.900000000000001E-003    2.429808278561082E-002
  8.000000000000002E-003    2.504868656324631E-002
  8.100000000000001E-003    2.581646542971417E-002
  8.200000000000001E-003    2.660156163864030E-002
  8.300000000000002E-003    2.740410695638785E-002
  8.400000000000001E-003    2.822422246313345E-002
  8.500000000000002E-003    2.906201993156775E-002
  8.600000000000002E-003    2.991759709270308E-002
  8.700000000000001E-003    3.079103885176031E-002
  8.800000000000002E-003    3.168241474245262E-002
  8.900000000000002E-003    3.259178591893973E-002
  9.000000000000001E-003    3.351919565008362E-002
  9.100000000000002E-003    3.446466729176561E-002
  9.200000000000002E-003    3.542821423575877E-002
  9.300000000000001E-003    3.640983172799316E-002
  9.400000000000002E-003    3.740949239133931E-002
  9.500000000000001E-003    3.842715702053564E-002
  9.600000000000001E-003    3.946276030566477E-002
  9.700000000000002E-003    4.051622353913393E-002
  9.800000000000001E-003    4.158744853831184E-002
  9.900000000000001E-003    4.267631357286337E-002
  1.000000000000000E-002    4.378267476386340E-002
  1.010000000000000E-002    4.490636916642932E-002
  1.020000000000000E-002    4.604720577393971E-002
  1.030000000000000E-002    4.720497752686761E-002
  1.040000000000000E-002    4.837944654941315E-002
  1.050000000000000E-002    4.957035346638301E-002
  1.060000000000000E-002    5.077741034210843E-002
  1.070000000000000E-002    5.200030526075473E-002
  1.080000000000000E-002    5.323869371560377E-002
  1.090000000000000E-002    5.449220829721212E-002
  1.100000000000000E-002    5.576044882779520E-002
  1.110000000000000E-002    5.704298623842237E-002
  1.120000000000000E-002    5.833936089331963E-002
  1.130000000000000E-002    5.964908387932042E-002
  1.140000000000000E-002    6.097162201394852E-002
  1.150000000000000E-002    6.230642854224288E-002
  1.160000000000000E-002    6.365290815538251E-002
  1.170000000000000E-002    6.501044456404628E-002
  1.180000000000000E-002    6.637837049052936E-002
  1.190000000000000E-002    6.775600542270144E-002
  1.200000000000000E-002    6.914261791258593E-002
  1.210000000000000E-002    7.053744726257805E-002
  1.220000000000000E-002    7.193969910583749E-002
  1.230000000000000E-002    7.334853920499124E-002
  1.240000000000000E-002    7.476309304793796E-002
  1.250000000000000E-002    7.618245985949282E-002
  1.260000000000000E-002    7.760569289318234E-002
  1.270000000000000E-002    7.903180691951238E-002
  1.280000000000000E-002    8.045978014471468E-002
  1.290000000000000E-002    8.188854764790826E-002
  1.300000000000000E-002    8.331701147694960E-002
  1.310000000000000E-002    8.474403125121902E-002
  1.320000000000000E-002    8.616842557872144E-002
  1.330000000000000E-002    8.758897426221181E-002
  1.340000000000000E-002    8.900441603762552E-002
  1.350000000000000E-002    9.041345024024974E-002
  1.360000000000000E-002    9.181473455264411E-002
  1.370000000000000E-002    9.320688265463976E-002
  1.380000000000000E-002    9.458847522431675E-002
  1.390000000000000E-002    9.595805372541173E-002
  1.400000000000000E-002    9.731411583554433E-002
  1.410000000000000E-002    9.865512307290049E-002
  1.420000000000000E-002    9.997949866379718E-002
  1.430000000000000E-002    0.101285625691731     
  1.440000000000000E-002    0.102571854931685     
  1.450000000000000E-002    0.103836493975255     
  1.460000000000000E-002    0.105077814251760     
  1.470000000000000E-002    0.106294054196073     
  1.480000000000000E-002    0.107483419081737     
  1.490000000000000E-002    0.108644080913429     
  1.500000000000000E-002    0.109774158199308     
  1.510000000000000E-002    0.110871759208429     
  1.520000000000000E-002    0.111934951140679     
  1.530000000000000E-002    0.112961762331712     
  1.540000000000000E-002    0.113950196079975     
  1.550000000000000E-002    0.114898227017617     
  1.560000000000000E-002    0.115803798246558     
  1.570000000000000E-002    0.116664831640088     
  1.580000000000000E-002    0.117479213196868     
  1.590000000000000E-002    0.118244816817891     
  1.600000000000000E-002    0.118959479009004     
  1.610000000000000E-002    0.119621032263627     
  1.620000000000000E-002    0.120227271365278     
  1.630000000000000E-002    0.120775992810069     
  1.640000000000000E-002    0.121264963022604     
  1.650000000000000E-002    0.121691932566004     
  1.660000000000000E-002    0.122054650657535     
  1.670000000000000E-002    0.122350847743459     
  1.680000000000000E-002    0.122578250443146     
  1.690000000000000E-002    0.122734565199872     
  1.700000000000000E-002    0.122817511320776     
  1.710000000000000E-002    0.122824790228548     
  1.720000000000000E-002    0.122754113558779     
  1.730000000000000E-002    0.122603175576216     
  1.740000000000000E-002    0.122369686886522     
  1.750000000000000E-002    0.122051363850794     
  1.760000000000000E-002    0.121645928325956     
  1.770000000000000E-002    0.121151105703652     
  1.780000000000000E-002    0.120564649315383     
  1.790000000000000E-002    0.119884317260959     
  1.800000000000000E-002    0.119107885234933     
  1.810000000000000E-002    0.118233159277493     
  1.820000000000000E-002    0.117257968017495     
  1.830000000000000E-002    0.116180161618653     
  1.840000000000000E-002    0.114997616067830     
  1.850000000000000E-002    0.113708243775321     
  1.860000000000000E-002    0.112309993048831     
  1.870000000000000E-002    0.110800853441688     