 -4.000000000000000E-002    0.000000000000000E+000
 -3.990000000000000E-002    0.000000000000000E+000
 -3.980000000000000E-002    0.000000000000000E+000
 -3.970000000000000E-002    0.000000000000000E+000
 -3.960000000000000E-002    5.439497110164648E-020
 -3.950000000000000E-002    1.063819338783274E-019
 -3.940000000000000E-002   -1.316762799931953E-018
 -3.930000000000000E-002   -1.068184112063234E-017
 -3.920000000000000E-002   -4.501339491572171E-017
 -3.910000000000000E-002   -1.350848887329841E-016
 -3.900000000000000E-002   -3.152452711241941E-016
 -3.890000000000000E-002   -5.816304664004026E-016
 -3.880000000000000E-002   -7.966314889406462E-016
 -3.870000000000000E-002   -5.223881186115914E-016
 -3.860000000000000E-002    1.215103134261098E-015
 -3.850000000000000E-002    6.194401343517786E-015
 -3.840000000000000E-002    1.721347494291753E-014
 -3.830000000000000E-002    3.811125591174112E-014
 -3.820000000000000E-002    7.341446337944720E-014
 -3.810000000000000E-002    1.274201818158116E-013
 -3.800000000000000E-002    2.025723105060327E-013
 -3.790000000000000E-002    2.971097157830540E-013
 -3.780000000000000E-002    4.021584531724038E-013
 -3.770000000000000E-002    4.986939941674107E-013
 -3.760000000000000E-002    5.550711981586444E-013
 -3.750000000000000E-002    5.260498821951633E-013
 -3.740000000000000E-002    3.543549845665542E-013
 -3.730000000000000E-002   -2.427368954911171E-014
 -3.720000000000000E-002   -6.719267045189448E-013
 -3.710000000000000E-002   -1.635268220806466E-012
 -3.700000000000000E-002   -2.929046172950050E-012
 -3.690000000000000E-002   -4.518258789164780E-012
 -3.680000000000000E-002   -6.301869839564395E-012
 -3.670000000000000E-002   -8.101756791926893E-012
 -3.660000000000000E-002   -9.660901585511452E-012
 -3.650000000000000E-002   -1.065449708031785E-011
 -3.640000000000000E-002   -1.071648199636197E-011
 -3.630000000000000E-002   -9.482030776246556E-012
 -3.620000000000000E-002   -6.643802510305041E-012
 -3.610000000000000E-002   -2.016630094262668E-012
 -3.600000000000000E-002    4.397758645637332E-012
 -3.590000000000000E-002    1.235686717231401E-011
 -3.580000000000000E-002    2.134653481862187E-011
 -3.570000000000000E-002    3.058462329483787E-011
 -3.560000000000000E-002    3.906821990723993E-011
 -3.550000000000000E-002    4.566841437419220E-011
 -3.540000000000000E-002    4.926988665275082E-011
 -3.530000000000000E-002    4.894441863364043E-011
 -3.520000000000000E-002    4.413923391025368E-011
 -3.510000000000000E-002    3.485384354163533E-011
 -3.500000000000000E-002    2.177448889597542E-011
 -3.490000000000000E-002    6.334642748163810E-012
 -3.480000000000000E-002   -9.326060094659760E-012
 -3.470000000000000E-002   -2.252241279589766E-011
 -3.460000000000000E-002   -3.030779331994012E-011
 -3.450000000000000E-002   -2.986780736473114E-011
 -3.440000000000000E-002   -1.898995662841560E-011
 -3.430000000000000E-002    3.442611481952601E-012
 -3.420000000000000E-002    3.699962600358089E-011
 -3.410000000000000E-002    7.936823570626424E-011
 -3.400000000000000E-002    1.262052966387922E-010
 -3.390000000000000E-002    1.712364667570182E-010
 -3.380000000000000E-002    2.066374158815605E-010
 -3.370000000000000E-002    2.236998041512402E-010
 -3.360000000000000E-002    2.137458145662203E-010
 -3.350000000000000E-002    1.692149272882806E-010
 -3.340000000000000E-002    8.481076715496228E-011
 -3.330000000000000E-002   -4.143032093085579E-011
 -3.320000000000000E-002   -2.072976030737186E-010
 -3.310000000000000E-002   -4.059316756547498E-010
 -3.300000000000000E-002   -6.258295227566195E-010
 -3.290000000000000E-002   -8.513917094746367E-010
 -3.280000000000000E-002   -1.064011190279735E-009
 -3.270000000000000E-002   -1.243632963622859E-009
 -3.260000000000000E-002   -1.370639257122540E-009
 -3.250000000000000E-002   -1.427858138909358E-009
 -3.240000000000000E-002   -1.402452257432657E-009
 -3.230000000000000E-002   -1.287434464337365E-009
 -3.220000000000000E-002   -1.082581384799272E-009
 -3.210000000000000E-002   -7.945747736020320E-010
 -3.200000000000000E-002   -4.362911516982371E-010
 -3.190000000000000E-002   -2.527284396003131E-011
 -3.180000000000000E-002    4.184668603715990E-010
 -3.170000000000000E-002    8.750352375577200E-010
 -3.160000000000000E-002    1.327294524859803E-009
 -3.150000000000000E-002    1.763131208104079E-009
 -3.140000000000000E-002    2.176965219928586E-009
 -3.130000000000000E-002    2.570156972646733E-009
 -3.120000000000000E-002    2.950100413131720E-009
 -3.110000000000000E-002    3.327955690797498E-009
 -3.100000000000000E-002    3.715169719265421E-009
 -3.090000000000000E-002    4.119145383733277E-009
 -3.080000000000000E-002    4.538595231481072E-009
 -3.070000000000000E-002    4.959254169802329E-009
 -3.060000000000000E-002    5.350679239721325E-009
 -3.050000000000000E-002    5.664830039555990E-009
 -3.040000000000000E-002    5.836988778958234E-009
 -3.030000000000000E-002    5.789345602342348E-009
 -3.020000000000000E-002    5.437273650482742E-009
 -3.010000000000000E-002    4.697960017582219E-009
 -3.000000000000000E-002    3.500712139145230E-009
 -2.990000000000000E-002    1.797936016562463E-009
 -2.980000000000000E-002   -4.244345320288463E-010
 -2.970000000000000E-002   -3.138384947796521E-009
 -2.960000000000000E-002   -6.268417677526295E-009
 -2.950000000000000E-002   -9.690351423588073E-009
 -2.940000000000000E-002   -1.323501342751038E-008
 -2.930000000000000E-002   -1.669702038679213E-008
 -2.920000000000000E-002   -1.984825367067002E-008
 -2.910000000000000E-002   -2.245509571729363E-008
 -2.900000000000000E-002   -2.429792321294195E-008
 -2.890000000000000E-002   -2.519098843866863E-008
 -2.880000000000000E-002   -2.500060884492321E-008
 -2.870000000000000E-002   -2.365957040222949E-008
 -2.860000000000000E-002   -2.117596106589599E-008
 -2.850000000000000E-002   -1.763511592962589E-008
 -2.840000000000000E-002   -1.319404915678241E-008
 -2.830000000000000E-002   -8.068571381514642E-009
 -2.820000000000000E-002   -2.514135012282791E-009
 -2.810000000000000E-002    3.197773017017899E-009
 -2.800000000000000E-002    8.805230278819439E-009
 -2.790000000000000E-002    1.408065228074185E-008
 -2.780000000000000E-002    1.885185341410525E-008
 -2.770000000000000E-002    2.301676241528619E-008
 -2.760000000000000E-002    2.654980639548645E-008
 -2.750000000000000E-002    2.949878221990977E-008
 -2.740000000000000E-002    3.197218955278872E-008
 -2.730000000000000E-002    3.411806719960045E-008
 -2.720000000000000E-002    3.609648322990776E-008
 -2.710000000000000E-002    3.804873182117043E-008
 -2.700000000000000E-002    4.006686776040309E-008
 -2.690000000000000E-002    4.216740984002696E-008
 -2.680000000000000E-002    4.427276608409592E-008
 -2.670000000000000E-002    4.620331866866268E-008
 -2.660000000000000E-002    4.768198139414464E-008
 -2.650000000000000E-002    4.835176320183955E-008
 -2.640000000000000E-002    4.780537217769574E-008
 -2.630000000000000E-002    4.562447151615187E-008
 -2.620000000000000E-002    4.142496275332951E-008
 -2.610000000000000E-002    3.490377366310937E-008
 -2.600000000000000E-002    2.588218994972548E-008
 -2.590000000000000E-002    1.434088203470980E-008
 -2.580000000000000E-002    4.424395522632633E-010
 -2.570000000000000E-002   -1.546167811570535E-008
 -2.560000000000000E-002   -3.284129408985905E-008
 -2.550000000000000E-002   -5.101460176285257E-008
 -2.540000000000000E-002   -6.919018874251056E-008
 -2.530000000000000E-002   -8.652041839167208E-008
 -2.520000000000000E-002   -1.021612928485666E-007
 -2.510000000000000E-002   -1.153331496156777E-007
 -2.500000000000000E-002   -1.253763113367711E-007
 -2.490000000000000E-002   -1.317962782787463E-007
 -2.480000000000000E-002   -1.342939709278472E-007
 -2.470000000000000E-002   -1.327781663442977E-007
 -2.460000000000000E-002   -1.273588767039370E-007
 -2.450000000000000E-002   -1.183225819653752E-007
 -2.440000000000000E-002   -1.060918989694464E-007
 -2.430000000000000E-002   -9.117398914321280E-008
 -2.420000000000000E-002   -7.410304063982169E-008
 -2.410000000000000E-002   -5.538278461181322E-008
 -2.400000000000000E-002   -3.543492098255132E-008
 -2.390000000000000E-002   -1.455854931291574E-008
 -2.380000000000000E-002    7.095415521771534E-009
 -2.370000000000000E-002    2.953261716471318E-008
 -2.360000000000000E-002    5.290600473532001E-008
 -2.350000000000000E-002    7.749043777914388E-008
 -2.340000000000000E-002    1.036444118753981E-007
 -2.330000000000000E-002    1.317633818027931E-007
 -2.320000000000000E-002    1.622301843190394E-007
 -2.310000000000000E-002    1.953682605586436E-007
 -2.300000000000000E-002    2.314029791044974E-007
 -2.290000000000000E-002    2.704357234134422E-007
 -2.280000000000000E-002    3.124338723063464E-007
 -2.270000000000000E-002    3.572381527045859E-007
 -2.260000000000000E-002    4.045874717353422E-007
 -2.250000000000000E-002    4.541588889280469E-007
 -2.240000000000000E-002    5.056196750269968E-007
 -2.230000000000000E-002    5.586866285299243E-007
 -2.220000000000000E-002    6.131871934862328E-007
 -2.210000000000000E-002    6.691171495681469E-007
 -2.200000000000000E-002    7.266891828704546E-007
 -2.190000000000000E-002    7.863678029768207E-007
 -2.180000000000000E-002    8.488876029863675E-007
 -2.170000000000000E-002    9.152520113490704E-007
 -2.160000000000000E-002    9.867128324420809E-007
 -2.150000000000000E-002    1.064731213184230E-006
 -2.140000000000000E-002    1.150922603568165E-006
 -2.130000000000000E-002    1.246990007951394E-006
 -2.120000000000000E-002    1.354650733971122E-006
 -2.110000000000000E-002    1.475560600737081E-006
 -2.100000000000000E-002    1.611243915701040E-006
 -2.090000000000000E-002    1.763033060158202E-006
 -2.080000000000000E-002    1.932023857249090E-006
 -2.070000000000000E-002    2.119049762717030E-006
 -2.060000000000000E-002    2.324679496087198E-006
 -2.050000000000000E-002    2.549237770909798E-006
 -2.040000000000000E-002    2.792849562579861E-006
 -2.030000000000000E-002    3.055504729609359E-006
 -2.020000000000000E-002    3.337140280733801E-006
 -2.010000000000000E-002    3.637733255966599E-006
 -2.000000000000000E-002    3.957396719084534E-006
 -1.990000000000000E-002    4.296474790776152E-006
 -1.980000000000000E-002    4.655623432017715E-006
 -1.970000000000000E-002    5.035874155510579E-006
 -1.960000000000000E-002    5.438672945196007E-006
 -1.950000000000000E-002    5.865889177174972E-006
 -1.940000000000000E-002    6.319795288680492E-006
 -1.930000000000000E-002    6.803015830198244E-006
 -1.920000000000000E-002    7.318449134819315E-006
 -1.910000000000000E-002    7.869174454173985E-006
 -1.900000000000000E-002    8.458341580183708E-006
 -1.890000000000000E-002    9.089066493267297E-006
 -1.880000000000000E-002    9.764337337719775E-006
 -1.870000000000000E-002    1.048693842374927E-005
 -1.860000000000000E-002    1.125941038879250E-005
 -1.850000000000000E-002    1.208404353618082E-005
 -1.840000000000000E-002    1.296291047471601E-005
 -1.830000000000000E-002    1.389794096633179E-005
 -1.820000000000000E-002    1.489102558675184E-005
 -1.810000000000000E-002    1.594414246066756E-005
 -1.800000000000000E-002    1.705949641421938E-005
 -1.790000000000000E-002    1.823964843115161E-005
 -1.780000000000000E-002    1.948763437429122E-005
 -1.770000000000000E-002    2.080704320904134E-005
 -1.760000000000000E-002    2.220205107332073E-005
 -1.750000000000000E-002    2.367740981368783E-005
 -1.740000000000000E-002    2.523838081878504E-005
 -1.730000000000000E-002    2.689062126755995E-005
 -1.720000000000000E-002    2.864004140436009E-005
 -1.710000000000000E-002    3.049263054071578E-005
 -1.700000000000000E-002    3.245429056995553E-005
 -1.690000000000000E-002    3.453068038270177E-005
 -1.680000000000000E-002    3.672710785897656E-005
 -1.670000000000000E-002    3.904847756643514E-005
 -1.660000000000000E-002    4.149929733731027E-005
 -1.650000000000000E-002    4.408377254618807E-005
 -1.640000000000000E-002    4.680595573979860E-005
 -1.630000000000000E-002    4.966998195484570E-005
 -1.620000000000000E-002    5.268033142210903E-005
 -1.610000000000000E-002    5.584213915411732E-005
 -1.600000000000000E-002    5.916147785213939E-005
 -1.590000000000000E-002    6.264564450422329E-005
 -1.580000000000000E-002    6.630335233476537E-005
 -1.570000000000000E-002    7.014491059941918E-005
 -1.560000000000000E-002    7.418227645610203E-005
 -1.550000000000000E-002    7.842903471685621E-005
 -1.540000000000000E-002    8.290028571179608E-005
 -1.530000000000000E-002    8.761246803858098E-005
 -1.520000000000000E-002    9.258312912451283E-005
 -1.510000000000000E-002    9.783066361630132E-005
 -1.500000000000000E-002    1.033740699005297E-004
 -1.490000000000000E-002    1.092326979993080E-004
 -1.480000000000000E-002    1.154261189253482E-004
 -1.470000000000000E-002    1.219739919384299E-004
 -1.460000000000000E-002    1.288960663480653E-004
 -1.450000000000000E-002    1.362122448361479E-004
 -1.440000000000000E-002    1.439427661905647E-004
 -1.430000000000000E-002    1.521083788294388E-004
 -1.420000000000000E-002    1.607305977330925E-004
 -1.410000000000000E-002    1.698319799490325E-004
 -1.400000000000000E-002    1.794363273956581E-004
 -1.390000000000000E-002    1.895689155331710E-004
 -1.380000000000000E-002    2.002566324434136E-004
 -1.370000000000000E-002    2.115279772204149E-004
 -1.360000000000000E-002    2.234130891998747E-004
 -1.350000000000000E-002    2.359435950573785E-004
 -1.340000000000000E-002    2.491524384346155E-004
 -1.330000000000000E-002    2.630736592168231E-004
 -1.320000000000000E-002    2.777422155080980E-004
 -1.310000000000000E-002    2.931936184394411E-004
 -1.300000000000000E-002    3.094638309817105E-004
 -1.290000000000000E-002    3.265891709508080E-004
 -1.280000000000000E-002    3.446061809289145E-004
 -1.270000000000000E-002    3.635516980885141E-004
 -1.260000000000000E-002    3.834629576891787E-004
 -1.250000000000000E-002    4.043778166852168E-004
 -1.240000000000000E-002    4.263350307881146E-004
 -1.230000000000000E-002    4.493745483778731E-004
 -1.220000000000000E-002    4.735378616202133E-004
 -1.210000000000000E-002    4.988683953948894E-004
 -1.200000000000000E-002    5.254115558824921E-004
 -1.190000000000000E-002    5.532152921892534E-004
 -1.180000000000000E-002    5.823299890354366E-004
 -1.170000000000000E-002    6.128086936535019E-004
 -1.160000000000000E-002    6.447071235049293E-004
 -1.150000000000000E-002    6.780835031380294E-004
 -1.140000000000000E-002    7.129985170384099E-004
 -1.130000000000000E-002    7.495151710671797E-004
 -1.120000000000000E-002    7.876985721449028E-004
 -1.110000000000000E-002    8.276157800404638E-004
 -1.100000000000000E-002    8.693357067640551E-004
 -1.090000000000000E-002    9.129289568601910E-004
 -1.080000000000000E-002    9.584679640077656E-004
 -1.070000000000000E-002    1.006026849009100E-003
 -1.060000000000000E-002    1.055681514449587E-003
 -1.050000000000000E-002    1.107510064453399E-003
 -1.040000000000000E-002    1.161592790147961E-003
 -1.030000000000000E-002    1.218012604334088E-003
 -1.020000000000000E-002    1.276855205601535E-003
 -1.010000000000000E-002    1.338209631905196E-003
 -1.000000000000000E-002    1.402168503610012E-003
 -9.899999999999999E-003    1.468828119666758E-003
 -9.800000000000000E-003    1.538289115066543E-003
 -9.699999999999999E-003    1.610656447272976E-003
 -9.599999999999999E-003    1.686039796109957E-003
 -9.500000000000000E-003    1.764553383608763E-003
 -9.399999999999999E-003    1.846316433458839E-003
 -9.299999999999999E-003    1.931453117754424E-003
 -9.200000000000000E-003    2.020092152985569E-003
 -9.099999999999999E-003    2.112367224730879E-003
 -8.999999999999999E-003    2.208416828242795E-003
 -8.900000000000000E-003    2.308383851114532E-003
 -8.799999999999999E-003    2.412415949416483E-003
 -8.699999999999999E-003    2.520665472962574E-003
 -8.600000000000000E-003    2.633288865928692E-003
 -8.499999999999999E-003    2.750447570599385E-003
 -8.399999999999999E-003    2.872307506868596E-003
 -8.300000000000000E-003    2.999039532382985E-003
 -8.199999999999999E-003    3.130819442449947E-003
 -8.100000000000000E-003    3.267828537286589E-003
 -8.000000000000000E-003    3.410253630667231E-003
 -7.899999999999999E-003    3.558287519767355E-003
 -7.800000000000000E-003    3.712129200399445E-003
 -7.699999999999999E-003    3.871983958972108E-003
 -7.599999999999999E-003    4.038063922166936E-003
 -7.499999999999999E-003    4.210587957999408E-003
 -7.399999999999999E-003    4.389780987368597E-003
 -7.299999999999999E-003    4.575875028116276E-003
 -7.199999999999999E-003    4.769108062097656E-003
 -7.100000000000000E-003    4.969723745951397E-003
 -6.999999999999999E-003    5.177971550964984E-003
 -6.899999999999999E-003    5.394106173565743E-003
 -6.800000000000000E-003    5.618386551760556E-003
 -6.699999999999999E-003    5.851076717360747E-003
 -6.599999999999999E-003    6.092444020617867E-003
 -6.499999999999999E-003    6.342760536779556E-003
 -6.399999999999999E-003    6.602301935098002E-003
 -6.299999999999999E-003    6.871348662697626E-003
 -6.199999999999999E-003    7.150185501623052E-003
 -6.100000000000000E-003    7.439101384417470E-003
 -5.999999999999999E-003    7.738391714877097E-003
 -5.899999999999999E-003    8.048356287999801E-003
 -5.800000000000000E-003    8.369303055144363E-003
 -5.699999999999999E-003    8.701545602320216E-003
 -5.599999999999999E-003    9.045404774279141E-003
 -5.499999999999999E-003    9.401209221836956E-003
 -5.399999999999999E-003    9.769293249345449E-003
 -5.299999999999999E-003    1.015000057214973E-002
 -5.199999999999999E-003    1.054367865131386E-002
 -5.099999999999999E-003    1.095068271076729E-002
 -4.999999999999999E-003    1.137137301720183E-002
 -4.899999999999999E-003    1.180611562570504E-002
 -4.799999999999999E-003    1.225528024834339E-002
 -4.699999999999999E-003    1.271924096158151E-002
 -4.599999999999999E-003    1.319837468305517E-002
 -4.499999999999999E-003    1.369306372696113E-002
 -4.399999999999999E-003    1.420369315676565E-002
 -4.299999999999999E-003    1.473065172491584E-002
 -4.199999999999999E-003    1.527433218630185E-002
 -4.099999999999999E-003    1.583513222524390E-002
 -3.999999999999999E-003    1.641345488587867E-002
 -3.899999999999999E-003    1.700970905321301E-002
 -3.799999999999999E-003    1.762430564114490E-002
 -3.699999999999999E-003    1.825766614907424E-002
 -3.599999999999999E-003    1.891021408220802E-002
 -3.499999999999999E-003    1.958237795486879E-002
 -3.399999999999999E-003    2.027459382875195E-002
 -3.299999999999999E-003    2.098729879128892E-002
 -3.199999999999999E-003    2.172093434424181E-002
 -3.099999999999999E-003    2.247594236780908E-002
 -2.999999999999999E-003    2.325276844354553E-002
 -2.899999999999999E-003    2.405185450894205E-002
 -2.799999999999999E-003    2.487364438570830E-002
 -2.699999999999999E-003    2.571858025580526E-002
 -2.599999999999999E-003    2.658709970551557E-002
 -2.499999999999999E-003    2.747964289468101E-002
 -2.399999999999999E-003    2.839664407160039E-002
 -2.299999999999999E-003    2.933853670975100E-002
 -2.199999999999999E-003    3.030575366553865E-002
 -2.099999999999999E-003    3.129872400068871E-002
 -1.999999999999999E-003    3.231787764568277E-002
 -1.899999999999999E-003    3.336364107988946E-002
 -1.799999999999999E-003    3.443643988863921E-002
 -1.699999999999999E-003    3.553669774997995E-002
 -1.599999999999999E-003    3.666483043902053E-002
 -1.499999999999999E-003    3.782125566341321E-002
 -1.399999999999999E-003    3.900637761048379E-002
 -1.299999999999999E-003    4.022059887796309E-002
 -1.199999999999999E-003    4.146431139032841E-002
 -1.099999999999999E-003    4.273789813193787E-002
 -9.999999999999989E-004    4.404172356763741E-002
 -8.999999999999990E-004    4.537614720270746E-002
 -7.999999999999990E-004    4.674151226762159E-002
 -6.999999999999989E-004    4.813814204132440E-002
 -5.999999999999990E-004    4.956634454315907E-002
 -4.999999999999989E-004    5.102641374911597E-002
 -3.999999999999989E-004    5.251862195599406E-002
 -2.999999999999989E-004    5.404323121813898E-002
 -1.999999999999989E-004    5.560047611397741E-002
 -9.999999999999892E-005    5.719057520806182E-002
  1.084202172485504E-018    5.881372853916309E-002
  1.000000000000011E-004    6.047011316259602E-002
  2.000000000000011E-004    6.215988686095274E-002
  3.000000000000011E-004    6.388317510994744E-002
  4.000000000000011E-004    6.564008108886649E-002
  5.000000000000011E-004    6.743068392545530E-002
  6.000000000000011E-004    6.925502645507367E-002
  7.000000000000011E-004    7.111312177308049E-002
  8.000000000000011E-004    7.300495586919761E-002
  9.000000000000012E-004    7.493046405054811E-002
  1.000000000000001E-003    7.688955738076392E-002
  1.100000000000001E-003    7.888210102289156E-002
  1.200000000000001E-003    8.090792511439540E-002
  1.300000000000001E-003    8.296681127103951E-002
  1.400000000000001E-003    8.505850776289901E-002
  1.500000000000001E-003    8.718272271826873E-002
  1.600000000000001E-003    8.933910765868082E-002
  1.700000000000001E-003    9.152727534368243E-002
  1.800000000000001E-003    9.374680223866098E-002
  1.900000000000001E-003    9.599719572233088E-002
  2.000000000000001E-003    9.827793052216255E-002
  2.100000000000001E-003    0.100588423567641     
  2.200000000000001E-003    0.102928037616632     
  2.300000000000001E-003    0.105296079020453     
  2.400000000000001E-003    0.107691798242111     
  2.500000000000001E-003    0.110114374853069     
  2.600000000000001E-003    0.112562945026297     
  2.700000000000001E-003    0.115036567762469     
  2.800000000000001E-003    0.117534238493653     
  2.900000000000001E-003    0.120054876777455     
  3.000000000000001E-003    0.122597347821752     
  3.100000000000001E-003    0.125160432053573     
  3.200000000000001E-003    0.127742841694737     
  3.300000000000001E-003    0.130343214636805     
  3.400000000000001E-003    0.132960120698259     
  3.500000000000001E-003    0.135592030286724     
  3.600000000000001E-003    0.138237361316274     
  3.700000000000001E-003    0.140894424624404     
  3.800000000000001E-003    0.143561465278977     
  3.900000000000001E-003    0.146236633538827     
  4.000000000000001E-003    0.148917981384337     
  4.100000000000001E-003    0.151603497770071     
  4.200000000000001E-003    0.154291056740420     
  4.300000000000001E-003    0.156978456735023     
  4.400000000000001E-003    0.159663373353111     
  4.500000000000001E-003    0.162343421077745     
  4.600000000000002E-003    0.165016077492825     
  4.700000000000001E-003    0.167678741056303     
  4.800000000000001E-003    0.170328717902782     
  4.900000000000002E-003    0.172963184147555     
  5.000000000000001E-003    0.175579242508383     
  5.100000000000001E-003    0.178173888472654     
  5.200000000000001E-003    0.180744001050813     
  5.300000000000002E-003    0.183286357423742     
  5.400000000000001E-003    0.185797644122128     
  5.500000000000001E-003    0.188274420946531     
  5.600000000000002E-003    0.190713141685915     
  5.700000000000001E-003    0.193110163080207     
  5.800000000000001E-003    0.195461718516319     
  5.900000000000002E-003    0.197763929027901     
  6.000000000000001E-003    0.200012803534934     
  6.100000000000001E-003    0.202204253958422     
  6.200000000000002E-003    0.204334064271691     
  6.300000000000002E-003    0.206397909586906     
  6.400000000000001E-003    0.208391351881611     
  6.500000000000001E-003    0.210309854379868     
  6.600000000000002E-003    0.212148738061748     
  6.700000000000001E-003    0.213903251526787     
  6.800000000000001E-003    0.215568516833163     
  6.900000000000002E-003    0.217139547475207     
  7.000000000000001E-003    0.218611248341138     
  7.100000000000001E-003    0.219978433622311     
  7.200000000000002E-003    0.221235806402065     
  7.300000000000002E-003    0.222377962930092     
  7.400000000000001E-003    0.223399412093998     
  7.500000000000001E-003    0.224294542144893     
  7.600000000000002E-003    0.225057652219495     
  7.700000000000001E-003    0.225682949640156     
  7.800000000000001E-003    0.226164538733453     
  7.900000000000001E-003    0.226496449680443     
  8.000000000000002E-003    0.226672605227443     
  8.100000000000001E-003    0.226686845386371     
  8.200000000000001E-003    0.226532937579463     
  8.300000000000002E-003    0.226204565360445     
  8.400000000000001E-003    0.225695350522252     
  8.500000000000002E-003    0.224998828501812     
  8.600000000000002E-003    0.224108507971902     
  8.700000000000001E-003    0.223017819635901     
  8.800000000000002E-003    0.221720147291682     
  8.900000000000002E-003    0.220208817557646     
  9.000000000000001E-003    0.218477127707313     
  9.100000000000002E-003    0.216518334620863     
  9.200000000000002E-003    0.214325647716023     
  9.300000000000001E-003    0.211892283931549     
  9.400000000000002E-003    0.209211420125808     
  9.500000000000001E-003    0.206276200949298     
  9.600000000000001E-003    0.203079786242176     
  9.700000000000002E-003    0.199615324526532     
  9.800000000000001E-003    0.195875980344934     
  9.900000000000001E-003    0.191854925903966     
  1.000000000000000E-002    0.187545345186723     
  1.010000000000000E-002    0.182940471279948     
  1.020000000000000E-002    0.178033573506446     
  1.030000000000000E-002    0.172817958366368     
  1.040000000000000E-002    0.167287006475866     
  1.050000000000000E-002    0.161434145590169     
  1.060000000000000E-002    0.155252904465144     
  1.070000000000000E-002    0.148736885867676     
  1.080000000000000E-002    0.141879784537427     
  1.090000000000000E-002    0.134675408617517     
  1.100000000000000E-002    0.127117662646131     
  1.110000000000000E-002    0.119200584762484     
  1.120000000000000E-002    0.110918340471102     
  1.130000000000000E-002    0.102265240645109     
  1.140000000000000E-002    9.323574947547199E-002
  1.150000000000000E-002    8.382449101034201E-002
  1.160000000000000E-002    7.402626606168949E-002
  1.170000000000000E-002    6.383605862799863E-002
  1.180000000000000E-002    5.324906105764505E-002
  1.190000000000000E-002    4.226067235679319E-002
  1.200000000000000E-002    3.086651801104316E-002
  1.210000000000000E-002    1.906245742825566E-002
  1.220000000000000E-002    6.844600372320944E-003
  1.230000000000000E-002   -5.790685868420302E-003
  1.240000000000000E-002   -1.884675425733794E-002
  1.250000000000000E-002   -3.232667977478659E-002
  1.260000000000000E-002   -4.623323976786633E-002
  1.270000000000000E-002   -6.056891022228321E-002
  1.280000000000000E-002   -7.533584234071801E-002
  1.290000000000000E-002   -9.053586109212985E-002
  1.300000000000000E-002   -0.106170457318851     
  1.310000000000000E-002   -0.122240755293706     
  1.320000000000000E-002   -0.138747532315118     
  1.330000000000000E-002   -0.155691192979448     
  1.340000000000000E-002   -0.173071742166769     
  1.350000000000000E-002   -0.190888795298169     
  1.360000000000000E-002   -0.209141554233195     
  1.370000000000000E-002   -0.227828787588129     
  1.380000000000000E-002   -0.246948823208602     
  1.390000000000000E-002   -0.266499582391464     
  1.400000000000000E-002   -0.286478504045074     
  1.410000000000000E-002   -0.306882574321512     
  1.420000000000000E-002   -0.327708281661949     
  1.430000000000000E-002   -0.348951643003189     
  1.440000000000000E-002   -0.370608199989731     
  1.450000000000000E-002   -0.392672969036229     
  1.460000000000000E-002   -0.415140467177034     
  1.470000000000000E-002   -0.438004705082753     
  1.480000000000000E-002   -0.461259116288862     
  1.490000000000000E-002   -0.484896682868035     
  1.500000000000000E-002   -0.508909844622126     
  1.510000000000000E-002   -0.533290453563158     
  1.520000000000000E-002   -0.558029883282154     
  1.530000000000000E-002   -0.583118857511808     
  1.540000000000000E-002   -0.608547576761934     
  1.550000000000000E-002   -0.634305721010615     
  1.560000000000000E-002   -0.660382372309339     
  1.570000000000000E-002   -0.686766004243238     
  1.580000000000000E-002   -0.713444575749430     
  1.590000000000000E-002   -0.740405416091834     
  1.600000000000000E-002   -0.767635361387189     
  1.610000000000000E-002   -0.795120563883755     
  1.620000000000000E-002   -0.822846692029289     
  1.630000000000000E-002   -0.850798822793701     
  1.640000000000000E-002   -0.878961421303576     
  1.650000000000000E-002   -0.907318443253449     
  1.660000000000000E-002   -0.935853222023496     
  1.670000000000000E-002   -0.964548592451052     
  1.680000000000000E-002   -0.993386793479791     
  1.690000000000000E-002    -1.02234955866798     
  1.700000000000000E-002    -1.05141807272625     
  1.710000000000000E-002    -1.08057292472013     
  1.720000000000000E-002    -1.10979426598893     
  1.730000000000000E-002    -1.13906172125493     
  1.740000000000000E-002    -1.16835436322986     
  1.750000000000000E-002    -1.19765069131647     
  1.760000000000000E-002    -1.22692889442759     
  1.770000000000000E-002    -1.25616661339977     
  1.780000000000000E-002    -1.28534104259195     
  1.790000000000000E-002    -1.31442900496202     
  1.800000000000000E-002    -1.34340679107738     
  1.810000000000000E-002    -1.37225025570568     
  1.820000000000000E-002    -1.40093497073462     
  1.830000000000000E-002    -1.42943602674204     
  1.840000000000000E-002    -1.45772827570673     
  1.850000000000000E-002    -1.48578628606704     
  1.860000000000000E-002    -1.51358408533410     
  1.870000000000000E-002    -1.54109561449261     