 -4.000000000000000E-002    0.000000000000000E+000
 -3.990000000000000E-002    0.000000000000000E+000
 -3.980000000000000E-002    0.000000000000000E+000
 -3.970000000000000E-002    0.000000000000000E+000
 -3.960000000000000E-002    0.000000000000000E+000
 -3.950000000000000E-002   -6.490663984533384E-022
 -3.940000000000000E-002   -7.278286485179955E-021
 -3.930000000000000E-002   -4.435141754436623E-020
 -3.920000000000000E-002   -1.940721459469699E-019
 -3.910000000000000E-002   -6.806074017289862E-019
 -3.900000000000000E-002   -2.025974938009505E-018
 -3.890000000000000E-002   -5.297382144582023E-018
 -3.880000000000000E-002   -1.243776857081477E-017
 -3.870000000000000E-002   -2.660967024931186E-017
 -3.860000000000000E-002   -5.237939745941730E-017
 -3.850000000000000E-002   -9.542729555824353E-017
 -3.840000000000000E-002   -1.613133271123150E-016
 -3.830000000000000E-002   -2.527051251004658E-016
 -3.820000000000000E-002   -3.644663205318322E-016
 -3.810000000000000E-002   -4.762066455097763E-016
 -3.800000000000000E-002   -5.424162937073653E-016
 -3.790000000000000E-002   -4.812196669322906E-016
 -3.780000000000000E-002   -1.640897659161311E-016
 -3.770000000000000E-002    5.895489896717664E-016
 -3.760000000000000E-002    2.007306266166746E-015
 -3.750000000000000E-002    4.341711818728948E-015
 -3.740000000000000E-002    7.824162549486123E-015
 -3.730000000000000E-002    1.258960072977752E-014
 -3.720000000000000E-002    1.857033516106164E-014
 -3.710000000000000E-002    2.536374068631888E-014
 -3.700000000000000E-002    3.208734815653415E-014
 -3.690000000000000E-002    3.724532955469473E-014
 -3.680000000000000E-002    3.864111792739000E-014
 -3.670000000000000E-002    3.337971133979780E-014
 -3.660000000000000E-002    1.800724626775488E-014
 -3.650000000000000E-002   -1.116801897100081E-014
 -3.640000000000000E-002   -5.754303438687307E-014
 -3.630000000000000E-002   -1.234705853240690E-013
 -3.620000000000000E-002   -2.093252736531413E-013
 -3.610000000000000E-002   -3.124630197476023E-013
 -3.600000000000000E-002   -4.262022733597515E-013
 -3.590000000000000E-002   -5.390021107043156E-013
 -3.580000000000000E-002   -6.340462718637779E-013
 -3.570000000000000E-002   -6.894534259498674E-013
 -3.560000000000000E-002   -6.793132197629218E-013
 -3.550000000000000E-002   -5.756887314851067E-013
 -3.540000000000000E-002   -3.516257781965490E-013
 -3.530000000000000E-002    1.492509964506801E-014
 -3.520000000000000E-002    5.365283450652584E-013
 -3.510000000000000E-002    1.211445394892003E-012
 -3.500000000000000E-002    2.019147679466597E-012
 -3.490000000000000E-002    2.916834123593933E-012
 -3.480000000000000E-002    3.837661528256187E-012
 -3.470000000000000E-002    4.691341346564218E-012
 -3.460000000000000E-002    5.367599103947622E-012
 -3.450000000000000E-002    5.742738653312653E-012
 -3.440000000000000E-002    5.689217957398674E-012
 -3.430000000000000E-002    5.087756354024075E-012
 -3.420000000000000E-002    3.841106950925592E-012
 -3.410000000000000E-002    1.888291191248613E-012
 -3.400000000000000E-002   -7.821440469980693E-013
 -3.390000000000000E-002   -4.121369152548290E-012
 -3.380000000000000E-002   -8.013439610449433E-012
 -3.370000000000000E-002   -1.227353701650021E-011
 -3.360000000000000E-002   -1.665197660017743E-011
 -3.350000000000000E-002   -2.084411190284745E-011
 -3.340000000000000E-002   -2.450565680028002E-011
 -3.330000000000000E-002   -2.727235973255965E-011
 -3.320000000000000E-002   -2.878251438279481E-011
 -3.310000000000000E-002   -2.870054368014904E-011
 -3.300000000000000E-002   -2.673988278133551E-011
 -3.290000000000000E-002   -2.268363036726856E-011
 -3.280000000000000E-002   -1.640191305538011E-011
 -3.270000000000000E-002   -7.865511718077253E-012
 -3.260000000000000E-002    2.844066749474567E-012
 -3.250000000000000E-002    1.552736548686545E-011
 -3.240000000000000E-002    2.986161736940399E-011
 -3.230000000000000E-002    4.539631901094879E-011
 -3.220000000000000E-002    6.154931732057254E-011
 -3.210000000000000E-002    7.760374970423617E-011
 -3.200000000000000E-002    9.270740070371767E-011
 -3.190000000000000E-002    1.058771834723284E-010
 -3.180000000000000E-002    1.160125353434705E-010
 -3.170000000000000E-002    1.219221908225440E-010
 -3.160000000000000E-002    1.223687431811422E-010
 -3.150000000000000E-002    1.161344903846663E-010
 -3.140000000000000E-002    1.021101409072150E-010
 -3.130000000000000E-002    7.940509928684019E-011
 -3.120000000000000E-002    4.747452377121845E-011
 -3.110000000000000E-002    6.254317621888002E-012
 -3.100000000000000E-002   -4.370852538318940E-011
 -3.090000000000000E-002   -1.011458537616972E-010
 -3.080000000000000E-002   -1.639959374029034E-010
 -3.070000000000000E-002   -2.293858984311009E-010
 -3.060000000000000E-002   -2.936837079007307E-010
 -3.050000000000000E-002   -3.526298614540925E-010
 -3.040000000000000E-002   -4.015517346034650E-010
 -3.030000000000000E-002   -4.356551023549922E-010
 -3.020000000000000E-002   -4.503779663477339E-010
 -3.010000000000000E-002   -4.417822603978194E-010
 -3.000000000000000E-002   -4.069515009077276E-010
 -2.990000000000000E-002   -3.443568876999335E-010
 -2.980000000000000E-002   -2.541524480473539E-010
 -2.970000000000000E-002   -1.383623301318624E-010
 -2.960000000000000E-002   -9.301420911214332E-013
 -2.950000000000000E-002    1.523888487249951E-010
 -2.940000000000000E-002    3.142975606323411E-010
 -2.930000000000000E-002    4.763774870893888E-010
 -2.920000000000000E-002    6.296316475336410E-010
 -2.910000000000000E-002    7.651073224478407E-010
 -2.900000000000000E-002    8.745440140528544E-010
 -2.890000000000000E-002    9.509859644674358E-010
 -2.880000000000000E-002    9.892990912416508E-010
 -2.870000000000000E-002    9.865380241069839E-010
 -2.860000000000000E-002    9.421234558154630E-010
 -2.850000000000000E-002    8.578080346786937E-010
 -2.840000000000000E-002    7.374317996583950E-010
 -2.830000000000000E-002    5.864914036951371E-010
 -2.820000000000000E-002    4.115700001663971E-010
 -2.810000000000000E-002    2.196917396961084E-010
 -2.800000000000000E-002    1.767658542880723E-011
 -2.790000000000000E-002   -1.884260079957675E-010
 -2.780000000000000E-002   -3.937531078763257E-010
 -2.770000000000000E-002   -5.948367152396980E-010
 -2.760000000000000E-002   -7.895725981259566E-010
 -2.750000000000000E-002   -9.769439208030745E-010
 -2.740000000000000E-002   -1.156527895776763E-009
 -2.730000000000000E-002   -1.327841728956400E-009
 -2.720000000000000E-002   -1.489611302798612E-009
 -2.710000000000000E-002   -1.639062618412382E-009
 -2.700000000000000E-002   -1.771343022450670E-009
 -2.690000000000000E-002   -1.879174402010500E-009
 -2.680000000000000E-002   -1.952821463721926E-009
 -2.670000000000000E-002   -1.980430800747046E-009
 -2.660000000000000E-002   -1.948756288757698E-009
 -2.650000000000000E-002   -1.844245182623387E-009
 -2.640000000000000E-002   -1.654412454801496E-009
 -2.630000000000000E-002   -1.369393026354313E-009
 -2.620000000000000E-002   -9.835273246092996E-010
 -2.610000000000000E-002   -4.968170091773262E-010
 -2.600000000000000E-002    8.391625809463292E-011
 -2.590000000000000E-002    7.443240882724950E-010
 -2.580000000000000E-002    1.462400760384827E-009
 -2.570000000000000E-002    2.209009526453612E-009
 -2.560000000000000E-002    2.949088779598330E-009
 -2.550000000000000E-002    3.643499648835998E-009
 -2.540000000000000E-002    4.251409079494381E-009
 -2.530000000000000E-002    4.733047713292823E-009
 -2.520000000000000E-002    5.052630136867138E-009
 -2.510000000000000E-002    5.181197716163834E-009
 -2.500000000000000E-002    5.099129723335844E-009
 -2.490000000000000E-002    4.798085289199999E-009
 -2.480000000000000E-002    4.282172585811815E-009
 -2.470000000000000E-002    3.568200258211892E-009
 -2.460000000000000E-002    2.684941832590414E-009
 -2.450000000000000E-002    1.671429406823752E-009
 -2.440000000000000E-002    5.743834228853489E-010
 -2.430000000000000E-002   -5.550275281552390E-010
 -2.420000000000000E-002   -1.664832904825718E-009
 -2.410000000000000E-002   -2.705996517798470E-009
 -2.400000000000000E-002   -3.635903474763043E-009
 -2.390000000000000E-002   -4.421267215867117E-009
 -2.380000000000000E-002   -5.040168054170938E-009
 -2.370000000000000E-002   -5.483008934284282E-009
 -2.360000000000000E-002   -5.752273027942145E-009
 -2.350000000000000E-002   -5.861082320526449E-009
 -2.340000000000000E-002   -5.830688194867106E-009
 -2.330000000000000E-002   -5.687135602577986E-009
 -2.320000000000000E-002   -5.457449922229887E-009
 -2.310000000000000E-002   -5.165762957307801E-009
 -2.300000000000000E-002   -4.829829426971759E-009
 -2.290000000000000E-002   -4.458362323692129E-009
 -2.280000000000000E-002   -4.049562233204045E-009
 -2.270000000000000E-002   -3.591098755006098E-009
 -2.260000000000000E-002   -3.061655432059712E-009
 -2.250000000000000E-002   -2.433984948656874E-009
 -2.240000000000000E-002   -1.679234150846394E-009
 -2.230000000000000E-002   -7.721424816333757E-010
 -2.220000000000000E-002    3.034335630142173E-010
 -2.210000000000000E-002    1.549293036621369E-009
 -2.200000000000000E-002    2.948616048384598E-009
 -2.190000000000000E-002    4.463257499869195E-009
 -2.180000000000000E-002    6.033099315366207E-009
 -2.170000000000000E-002    7.577782878344670E-009
 -2.160000000000000E-002    9.000905830241274E-009
 -2.150000000000000E-002    1.019651186588401E-008
 -2.140000000000000E-002    1.105743696236208E-008
 -2.130000000000000E-002    1.148483810596947E-008
 -2.120000000000000E-002    1.139804234699733E-008
 -2.110000000000000E-002    1.074375028575197E-008
 -2.100000000000000E-002    9.503608024128403E-009
 -2.090000000000000E-002    7.699249385015847E-009
 -2.080000000000000E-002    5.394109302527349E-009
 -2.070000000000000E-002    2.691576134669265E-009
 -2.060000000000000E-002   -2.706037844968034E-010
 -2.050000000000000E-002   -3.329377908888637E-009
 -2.040000000000000E-002   -6.308235908464615E-009
 -2.030000000000000E-002   -9.030882972626698E-009
 -2.020000000000000E-002   -1.133550553008922E-008
 -2.010000000000000E-002   -1.308828847184319E-008
 -2.000000000000000E-002   -1.419483820226524E-008
 -1.990000000000000E-002   -1.460832188604404E-008
 -1.980000000000000E-002   -1.433341132790725E-008
 -1.970000000000000E-002   -1.342551845116332E-008
 -1.960000000000000E-002   -1.198527601902666E-008
 -1.950000000000000E-002   -1.014873154003551E-008
 -1.940000000000000E-002   -8.074190801301947E-009
 -1.930000000000000E-002   -5.927063690451896E-009
 -1.920000000000000E-002   -3.864357809256495E-009
 -1.910000000000000E-002   -2.020606615442543E-009
 -1.900000000000000E-002   -4.969435667344762E-010
 -1.890000000000000E-002    6.451372714271058E-010
 -1.880000000000000E-002    1.384272344407473E-009
 -1.870000000000000E-002    1.733352083763307E-009
 -1.860000000000000E-002    1.727351124277825E-009
 -1.850000000000000E-002    1.405578096193460E-009
 -1.840000000000000E-002    7.896811536455493E-010
 -1.830000000000000E-002   -1.408286890266415E-010
 -1.820000000000000E-002   -1.473200727519437E-009
 -1.810000000000000E-002   -3.384029447009858E-009
 -1.800000000000000E-002   -6.157349405139940E-009
 -1.790000000000000E-002   -1.019639395332303E-008
 -1.780000000000000E-002   -1.602742391175451E-008
 -1.770000000000000E-002   -2.429484883760673E-008
 -1.760000000000000E-002   -3.574761990559959E-008
 -1.750000000000000E-002   -5.121780401419872E-008
 -1.740000000000000E-002   -7.159253777984467E-008
 -1.730000000000000E-002   -9.778199205557414E-008
 -1.720000000000000E-002   -1.306855656340650E-007
 -1.710000000000000E-002   -1.711594385891133E-007
 -1.700000000000000E-002   -2.199883818493569E-007
 -1.690000000000000E-002   -2.778637907475553E-007
 -1.680000000000000E-002   -3.453703858049240E-007
 -1.670000000000000E-002   -4.229824229188195E-007
 -1.660000000000000E-002   -5.110696715745527E-007
 -1.650000000000000E-002   -6.099127891544993E-007
 -1.640000000000000E-002   -7.197259578789340E-007
 -1.630000000000000E-002   -8.406846779767349E-007
 -1.620000000000000E-002   -9.729565597558235E-007
 -1.610000000000000E-002   -1.116730533810962E-006
 -1.600000000000000E-002   -1.272243513224208E-006
 -1.590000000000000E-002   -1.439799474045895E-006
 -1.580000000000000E-002   -1.619781275499270E-006
 -1.570000000000000E-002   -1.812651700785765E-006
 -1.560000000000000E-002   -2.018945818384417E-006
 -1.550000000000000E-002   -2.239252499138657E-006
 -1.540000000000000E-002   -2.474191598704068E-006
 -1.530000000000000E-002   -2.724382768842812E-006
 -1.520000000000000E-002   -2.990415707312612E-006
 -1.510000000000000E-002   -3.272820420878174E-006
 -1.500000000000000E-002   -3.572043581991632E-006
 -1.490000000000000E-002   -3.888432178654975E-006
 -1.480000000000000E-002   -4.222227757263277E-006
 -1.470000000000000E-002   -4.573573100106860E-006
 -1.460000000000000E-002   -4.942529937902314E-006
 -1.450000000000000E-002   -5.329108063753607E-006
 -1.440000000000000E-002   -5.733302771441650E-006
 -1.430000000000000E-002   -6.155142536904598E-006
 -1.420000000000000E-002   -6.594733688966299E-006
 -1.410000000000000E-002   -7.052311627444828E-006
 -1.400000000000000E-002   -7.528284594694771E-006
 -1.390000000000000E-002   -8.023270905353937E-006
 -1.380000000000000E-002   -8.538125540259778E-006
 -1.370000000000000E-002   -9.073961038967109E-006
 -1.360000000000000E-002   -9.632151088660485E-006
 -1.350000000000000E-002   -1.021432438775655E-005
 -1.340000000000000E-002   -1.082234939226781E-005
 -1.330000000000000E-002   -1.145831192888791E-005
 -1.320000000000000E-002   -1.212448498240646E-005
 -1.310000000000000E-002   -1.282329797503038E-005
 -1.300000000000000E-002   -1.355730075715598E-005
 -1.290000000000000E-002   -1.432913880466869E-005
 -1.280000000000000E-002   -1.514152295179271E-005
 -1.270000000000000E-002   -1.599721019811343E-005
 -1.260000000000000E-002   -1.689898824886232E-005
 -1.250000000000000E-002   -1.784966344165127E-005
 -1.240000000000000E-002   -1.885205633486214E-005
 -1.230000000000000E-002   -1.990900134885494E-005
 -1.220000000000000E-002   -2.102334396031536E-005
 -1.210000000000000E-002   -2.219794804636859E-005
 -1.200000000000000E-002   -2.343569957721516E-005
 -1.190000000000000E-002   -2.473951452822058E-005
 -1.180000000000000E-002   -2.611235063472951E-005
 -1.170000000000000E-002   -2.755721462641329E-005
 -1.160000000000000E-002   -2.907718294534711E-005
 -1.150000000000000E-002   -3.067542412060305E-005
 -1.140000000000000E-002   -3.235522610278789E-005
 -1.130000000000000E-002   -3.412003068196929E-005
 -1.120000000000000E-002   -3.597347614036703E-005
 -1.110000000000000E-002   -3.791944383650633E-005
 -1.100000000000000E-002   -3.996210000306934E-005
 -1.090000000000000E-002   -4.210594754159991E-005
 -1.080000000000000E-002   -4.435586941151778E-005
 -1.070000000000000E-002   -4.671716069347118E-005
 -1.060000000000000E-002   -4.919554687549796E-005
 -1.050000000000000E-002   -5.179719523934223E-005
 -1.040000000000000E-002   -5.452870957743432E-005
 -1.030000000000000E-002   -5.739708857692644E-005
 -1.020000000000000E-002   -6.040968809228454E-005
 -1.010000000000000E-002   -6.357416828855957E-005
 -1.000000000000000E-002   -6.689841587652088E-005
 -9.899999999999999E-003   -7.039047568786007E-005
 -9.800000000000000E-003   -7.405847686497763E-005
 -9.699999999999999E-003   -7.791059768055566E-005
 -9.599999999999999E-003   -8.195500302140010E-005
 -9.500000000000000E-003   -8.619984158885447E-005
 -9.399999999999999E-003   -9.065326046907112E-005
 -9.299999999999999E-003   -9.532344452886395E-005
 -9.200000000000000E-003   -1.002186920259296E-004
 -9.099999999999999E-003   -1.053475022086807E-004
 -8.999999999999999E-003   -1.107186829063294E-004
 -8.900000000000000E-003   -1.163414885253039E-004
 -8.799999999999999E-003   -1.222257396413848E-004
 -8.699999999999999E-003   -1.283818902182532E-004
 -8.600000000000000E-003   -1.348211503622601E-004
 -8.499999999999999E-003   -1.415555348352384E-004
 -8.399999999999999E-003   -1.485978535220151E-004
 -8.300000000000000E-003   -1.559616824289960E-004
 -8.199999999999999E-003   -1.636613431900246E-004
 -8.100000000000000E-003   -1.717117237489337E-004
 -8.000000000000000E-003   -1.801281938295931E-004
 -7.899999999999999E-003   -1.889264388397571E-004
 -7.800000000000000E-003   -1.981222825452033E-004
 -7.699999999999999E-003   -2.077315724330902E-004
 -7.599999999999999E-003   -2.177700167757142E-004
 -7.499999999999999E-003   -2.282531262745447E-004
 -7.399999999999999E-003   -2.391961647219507E-004
 -7.299999999999999E-003   -2.506141285721910E-004
 -7.199999999999999E-003   -2.625218584130099E-004
 -7.100000000000000E-003   -2.749341275837889E-004
 -6.999999999999999E-003   -2.878658232891310E-004
 -6.899999999999999E-003   -3.013320917182274E-004
 -6.800000000000000E-003   -3.153486122892901E-004
 -6.699999999999999E-003   -3.299317408513744E-004
 -6.599999999999999E-003   -3.450987657625473E-004
 -6.499999999999999E-003   -3.608680396314037E-004
 -6.399999999999999E-003   -3.772590731012813E-004
 -6.299999999999999E-003   -3.942926336417236E-004
 -6.199999999999999E-003   -4.119907264813159E-004
 -6.100000000000000E-003   -4.303764938198017E-004
 -5.999999999999999E-003   -4.494740891711895E-004
 -5.899999999999999E-003   -4.693084691656463E-004
 -5.800000000000000E-003   -4.899052145133224E-004
 -5.699999999999999E-003   -5.112901970393998E-004
 -5.599999999999999E-003   -5.334895009169762E-004
 -5.499999999999999E-003   -5.565289340508241E-004
 -5.399999999999999E-003   -5.804340224062543E-004
 -5.299999999999999E-003   -6.052297313312032E-004
 -5.199999999999999E-003   -6.309405310316585E-004
 -5.099999999999999E-003   -6.575902392481780E-004
 -4.999999999999999E-003   -6.852020227596815E-004
 -4.899999999999999E-003   -7.137986646888569E-004
 -4.799999999999999E-003   -7.434025915628133E-004
 -4.699999999999999E-003   -7.740360923153724E-004
 -4.599999999999999E-003   -8.057216224297245E-004
 -4.499999999999999E-003   -8.384819669155987E-004
 -4.399999999999999E-003   -8.723403744867204E-004
 -4.299999999999999E-003   -9.073209180745005E-004
 -4.199999999999999E-003   -9.434483556188920E-004
 -4.099999999999999E-003   -9.807484138486574E-004
 -3.999999999999999E-003   -1.019247646475038E-003
 -3.899999999999999E-003   -1.058973450809661E-003
 -3.799999999999999E-003   -1.099953732586500E-003
 -3.699999999999999E-003   -1.142216921164036E-003
 -3.599999999999999E-003   -1.185791445167007E-003
 -3.499999999999999E-003   -1.230705624845611E-003
 -3.399999999999999E-003   -1.276987268443311E-003
 -3.299999999999999E-003   -1.324663332987889E-003
 -3.199999999999999E-003   -1.373759713267113E-003
 -3.099999999999999E-003   -1.424300935415171E-003
 -2.999999999999999E-003   -1.476309950270513E-003
 -2.899999999999999E-003   -1.529807970866634E-003
 -2.799999999999999E-003   -1.584814523114299E-003
 -2.699999999999999E-003   -1.641347261802082E-003
 -2.599999999999999E-003   -1.699422037285150E-003
 -2.499999999999999E-003   -1.759053076315665E-003
 -2.399999999999999E-003   -1.820253049124042E-003
 -2.299999999999999E-003   -1.883032934755530E-003
 -2.199999999999999E-003   -1.947402367288108E-003
 -2.099999999999999E-003   -2.013369836434840E-003
 -1.999999999999999E-003   -2.080942422098498E-003
 -1.899999999999999E-003   -2.150125952769900E-003
 -1.799999999999999E-003   -2.220925058934572E-003
 -1.699999999999999E-003   -2.293342670779188E-003
 -1.599999999999999E-003   -2.367380147791131E-003
 -1.499999999999999E-003   -2.443037288050275E-003
 -1.399999999999999E-003   -2.520311206169816E-003
 -1.299999999999999E-003   -2.599196935454573E-003
 -1.199999999999999E-003   -2.679686723330620E-003
 -1.099999999999999E-003   -2.761769499886051E-003
 -9.999999999999989E-004   -2.845431049192722E-003
 -8.999999999999990E-004   -2.930653256093478E-003
 -7.999999999999990E-004   -3.017413850172142E-003
 -6.999999999999989E-004   -3.105686388441919E-003
 -5.999999999999990E-004   -3.195440294417127E-003
 -4.999999999999989E-004   -3.286639890997060E-003
 -3.999999999999989E-004   -3.379244916902369E-003
 -2.999999999999989E-004   -3.473210114099202E-003
 -1.999999999999989E-004   -3.568485149607972E-003
 -9.999999999999892E-005   -3.665014433632856E-003
  1.084202172485504E-018   -3.762737393028728E-003
  1.000000000000011E-004   -3.861587483218518E-003
  2.000000000000011E-004   -3.961492566247598E-003
  3.000000000000011E-004   -4.062375113850746E-003
  4.000000000000011E-004   -4.164150639001869E-003
  5.000000000000011E-004   -4.266729442061045E-003
  6.000000000000011E-004   -4.370014377522833E-003
  7.000000000000011E-004   -4.473902324478245E-003
  8.000000000000011E-004   -4.578282580678297E-003
  9.000000000000012E-004   -4.683036945799323E-003
  1.000000000000001E-003   -4.788039966928121E-003
  1.100000000000001E-003   -4.893158522805045E-003
  1.200000000000001E-003   -4.998251514018850E-003
  1.300000000000001E-003   -5.103168916860469E-003
  1.400000000000001E-003   -5.207752412496717E-003
  1.500000000000001E-003   -5.311834855298723E-003
  1.600000000000001E-003   -5.415239820178541E-003
  1.700000000000001E-003   -5.517781663432891E-003
  1.800000000000001E-003   -5.619264802328630E-003
  1.900000000000001E-003   -5.719483339575329E-003
  2.000000000000001E-003   -5.818221006932415E-003
  2.100000000000001E-003   -5.915250772133610E-003
  2.200000000000001E-003   -6.010334221681702E-003
  2.300000000000001E-003   -6.103220686951699E-003
  2.400000000000001E-003   -6.193648266115724E-003
  2.500000000000001E-003   -6.281342552896987E-003
  2.600000000000001E-003   -6.366016017361823E-003
  2.700000000000001E-003   -6.447367629242187E-003
  2.800000000000001E-003   -6.525084256118748E-003
  2.900000000000001E-003   -6.598837860686972E-003
  3.000000000000001E-003   -6.668288042560302E-003
  3.100000000000001E-003   -6.733079560110760E-003
  3.200000000000001E-003   -6.792843903140291E-003
  3.300000000000001E-003   -6.847198617993813E-003
  3.400000000000001E-003   -6.895746212376548E-003
  3.500000000000001E-003   -6.938076462377017E-003
  3.600000000000001E-003   -6.973763961240186E-003
  3.700000000000001E-003   -7.002369452528683E-003
  3.800000000000001E-003   -7.023438084401751E-003
  3.900000000000001E-003   -7.036500872000115E-003
  4.000000000000001E-003   -7.041073327320190E-003
  4.100000000000001E-003   -7.036654694947159E-003
  4.200000000000001E-003   -7.022729130205782E-003
  4.300000000000001E-003   -6.998763591420057E-003
  4.400000000000001E-003   -6.964209300757498E-003
  4.500000000000001E-003   -6.918499592406008E-003
  4.600000000000002E-003   -6.861050143238455E-003
  4.700000000000001E-003   -6.791259388871609E-003
  4.800000000000001E-003   -6.708508473851105E-003
  4.900000000000002E-003   -6.612159650732412E-003
  5.000000000000001E-003   -6.501558126475991E-003
  5.100000000000001E-003   -6.376030511994931E-003
  5.200000000000001E-003   -6.234886157945154E-003
  5.300000000000002E-003   -6.077416619865569E-003
  5.400000000000001E-003   -5.902896625352527E-003
  5.500000000000001E-003   -5.710581826434787E-003
  5.600000000000002E-003   -5.499712890637299E-003
  5.700000000000001E-003   -5.269512968199217E-003
  5.800000000000001E-003   -5.019188505733012E-003
  5.900000000000002E-003   -4.747929099775314E-003
  6.000000000000001E-003   -4.454908869455368E-003
  6.100000000000001E-003   -4.139284668785697E-003
  6.200000000000002E-003   -3.800198338532567E-003
  6.300000000000002E-003   -3.436774461331712E-003
  6.400000000000001E-003   -3.048121686168128E-003
  6.500000000000001E-003   -2.633333442401757E-003
  6.600000000000002E-003   -2.191487624358694E-003
  6.700000000000001E-003   -1.721645588799951E-003
  6.800000000000001E-003   -1.222855302113232E-003
  6.900000000000002E-003   -6.941482807034387E-004
  7.000000000000001E-003   -1.345412460404419E-004
  7.100000000000001E-003    4.569616365533772E-004
  7.200000000000002E-003    1.081370567143004E-003
  7.300000000000002E-003    1.739707749953570E-003
  7.400000000000001E-003    2.433008278491222E-003
  7.500000000000001E-003    3.162317143849491E-003
  7.600000000000002E-003    3.928693927792187E-003
  7.700000000000001E-003    4.733205180430577E-003
  7.800000000000001E-003    5.576926356473860E-003
  7.900000000000001E-003    6.460944633338426E-003
  8.000000000000002E-003    7.386353432768818E-003
  8.100000000000001E-003    8.354254497236004E-003
  8.200000000000001E-003    9.365757386540420E-003
  8.300000000000002E-003    1.042197380310260E-002
  8.400000000000001E-003    1.152402459634579E-002
  8.500000000000002E-003    1.267303237774583E-002
  8.600000000000002E-003    1.387012275885719E-002
  8.700000000000001E-003    1.511642356188876E-002
  8.800000000000002E-003    1.641306638458987E-002
  8.900000000000002E-003    1.776118209271518E-002
  9.000000000000001E-003    1.916189609997436E-002
  9.100000000000002E-003    2.061633495395835E-002
  9.200000000000002E-003    2.212561930491977E-002
  9.300000000000001E-003    2.369086955230972E-002
  9.400000000000002E-003    2.531319572176486E-002
  9.500000000000001E-003    2.699370189025643E-002
  9.600000000000001E-003    2.873348068100610E-002
  9.700000000000002E-003    3.053361797350690E-002
  9.800000000000001E-003    3.239518675239517E-002
  9.900000000000001E-003    3.431924494506753E-002
  1.000000000000000E-002    3.630684293220363E-002
  1.010000000000000E-002    3.835900686443063E-002
  1.020000000000000E-002    4.047675564488380E-002
  1.030000000000000E-002    4.266108853740185E-002
  1.040000000000000E-002    4.491298307475793E-002
  1.050000000000000E-002    4.723339092514024E-002
  1.060000000000000E-002    4.962325073286104E-002
  1.070000000000000E-002    5.208347082164016E-002
  1.080000000000000E-002    5.461493356778608E-002
  1.090000000000000E-002    5.721850507571227E-002
  1.100000000000000E-002    5.989500962600484E-002
  1.110000000000000E-002    6.264524547130461E-002
  1.120000000000000E-002    6.546997828160199E-002
  1.130000000000000E-002    6.836994009136313E-002
  1.140000000000000E-002    7.134582748447367E-002
  1.150000000000000E-002    7.439829144179172E-002
  1.160000000000000E-002    7.752794698459438E-002
  1.170000000000000E-002    8.073536856094027E-002
  1.180000000000000E-002    8.402108427081556E-002
  1.190000000000000E-002    8.738557982898637E-002
  1.200000000000000E-002    9.082929302905164E-002
  1.210000000000000E-002    9.435260821996851E-002
  1.220000000000000E-002    9.795587258452540E-002
  1.230000000000000E-002    0.101639370027037     
  1.240000000000000E-002    0.105403336067574     
  1.250000000000000E-002    0.109247946822820     
  1.260000000000000E-002    0.113173335674459     
  1.270000000000000E-002    0.117179558517091     
  1.280000000000000E-002    0.121266632411306     
  1.290000000000000E-002    0.125434496456776     
  1.300000000000000E-002    0.129683046489550     
  1.310000000000000E-002    0.134012096157539     
  1.320000000000000E-002    0.138421393233762     
  1.330000000000000E-002    0.142910629098813     
  1.340000000000000E-002    0.147479418317371     
  1.350000000000000E-002    0.152127307038696     
  1.360000000000000E-002    0.156853777390412     
  1.370000000000000E-002    0.161658227040753     
  1.380000000000000E-002    0.166539975856053     
  1.390000000000000E-002    0.171498283516342     
  1.400000000000000E-002    0.176532306870860     
  1.410000000000000E-002    0.181641138000771     
  1.420000000000000E-002    0.186823803109910     
  1.430000000000000E-002    0.192079221532938     
  1.440000000000000E-002    0.197406251256877     
  1.450000000000000E-002    0.202803645815733     
  1.460000000000000E-002    0.208270107535703     
  1.470000000000000E-002    0.213804225693863     
  1.480000000000000E-002    0.219404493814696     
  1.490000000000000E-002    0.225069364861208     
  1.500000000000000E-002    0.230797174616268     
  1.510000000000000E-002    0.236586170340849     
  1.520000000000000E-002    0.242434522256243     
  1.530000000000000E-002    0.248340321636046     
  1.540000000000000E-002    0.254301547958461     
  1.550000000000000E-002    0.260316115430567     
  1.560000000000000E-002    0.266381805061743     
  1.570000000000000E-002    0.272496367126332     
  1.580000000000000E-002    0.278657414159337     
  1.590000000000000E-002    0.284862499659277     
  1.600000000000000E-002    0.291109082340019     
  1.610000000000000E-002    0.297394520967011     
  1.620000000000000E-002    0.303716073691601     
  1.630000000000000E-002    0.310070948551312     
  1.640000000000000E-002    0.316456223897889     
  1.650000000000000E-002    0.322868930946979     
  1.660000000000000E-002    0.329305990074934     
  1.670000000000000E-002    0.335764270241255     
  1.680000000000000E-002    0.342240488599910     
  1.690000000000000E-002    0.348731340687610     
  1.700000000000000E-002    0.355233395040838     
  1.710000000000000E-002    0.361743175581178     
  1.720000000000000E-002    0.368257112445028     
  1.730000000000000E-002    0.374771522428355     
  1.740000000000000E-002    0.381282701018429     
  1.750000000000000E-002    0.387786823116034     
  1.760000000000000E-002    0.394280034795727     
  1.770000000000000E-002    0.400758319407902     
  1.780000000000000E-002    0.407217650448139     
  1.790000000000000E-002    0.413653938718376     
  1.800000000000000E-002    0.420063013953051     
  1.810000000000000E-002    0.426440587496343     
  1.820000000000000E-002    0.432782393978872     
  1.830000000000000E-002    0.439084059737809     
  1.840000000000000E-002    0.445341147983002     
  1.850000000000000E-002    0.451549173483434     
  1.860000000000000E-002    0.457703603973974     
  1.870000000000000E-002    0.463799846173142     