 -4.000000000000000E-002    0.000000000000000E+000
 -3.990000000000000E-002    9.476699817385095E-009
 -3.980000000000000E-002    2.837483614518592E-008
 -3.970000000000000E-002    5.601752940081680E-008
 -3.960000000000000E-002    9.121851546481959E-008
 -3.950000000000000E-002    1.324488241754925E-007
 -3.940000000000000E-002    1.780303890743337E-007
 -3.930000000000000E-002    2.263250206282680E-007
 -3.920000000000000E-002    2.758882154591669E-007
 -3.910000000000000E-002    3.255631899865806E-007
 -3.900000000000000E-002    3.745005599304207E-007
 -3.890000000000000E-002    4.221014539853283E-007
 -3.880000000000000E-002    4.678948842112194E-007
 -3.870000000000000E-002    5.113712987745145E-007
 -3.860000000000000E-002    5.518024421862782E-007
 -3.850000000000000E-002    5.880800444761697E-007
 -3.840000000000000E-002    6.186058706148988E-007
 -3.830000000000000E-002    6.412555370788565E-007
 -3.820000000000000E-002    6.534307271920801E-007
 -3.810000000000000E-002    6.521988304648900E-007
 -3.800000000000000E-002    6.345072552047220E-007
 -3.790000000000000E-002    5.974474568948447E-007
 -3.780000000000000E-002    5.385351147869338E-007
 -3.770000000000000E-002    4.559725391408692E-007
 -3.760000000000000E-002    3.488588124352206E-007
 -3.750000000000000E-002    2.173245789829992E-007
 -3.740000000000000E-002    6.257576445523110E-008
 -3.730000000000000E-002   -1.131515685409045E-007
 -3.720000000000000E-002   -3.067131979896244E-007
 -3.710000000000000E-002   -5.142296211706207E-007
 -3.700000000000000E-002   -7.312776106539530E-007
 -3.690000000000000E-002   -9.530680904838594E-007
 -3.680000000000000E-002   -1.174581085377676E-006
 -3.670000000000000E-002   -1.390637095198760E-006
 -3.660000000000000E-002   -1.595894119635764E-006
 -3.650000000000000E-002   -1.784787733659107E-006
 -3.640000000000000E-002   -1.951423264031205E-006
 -3.630000000000000E-002   -2.089462388851499E-006
 -3.620000000000000E-002   -2.192038821308073E-006
 -3.610000000000000E-002   -2.251737120809883E-006
 -3.600000000000000E-002   -2.260673169124461E-006
 -3.590000000000000E-002   -2.210685469386268E-006
 -3.580000000000000E-002   -2.093638740128434E-006
 -3.570000000000000E-002   -1.901832165784587E-006
 -3.560000000000000E-002   -1.628453258187080E-006
 -3.550000000000000E-002   -1.268050969276754E-006
 -3.540000000000000E-002   -8.169506259318917E-007
 -3.530000000000000E-002   -2.735703202968374E-007
 -3.520000000000000E-002    3.614232385510626E-007
 -3.510000000000000E-002    1.085135423044268E-006
 -3.500000000000000E-002    1.892666987120276E-006
 -3.490000000000000E-002    2.777505631817628E-006
 -3.480000000000000E-002    3.732050211141980E-006
 -3.470000000000000E-002    4.748213492051172E-006
 -3.460000000000000E-002    5.818008464084576E-006
 -3.450000000000000E-002    6.934059820765536E-006
 -3.440000000000000E-002    8.089961075341299E-006
 -3.430000000000000E-002    9.280402206433141E-006
 -3.420000000000000E-002    1.050108929262494E-005
 -3.410000000000000E-002    1.174840446467387E-005
 -3.400000000000000E-002    1.301887915344052E-005
 -3.390000000000000E-002    1.430853417920591E-005
 -3.380000000000000E-002    1.561218152395148E-005
 -3.370000000000000E-002    1.692277912695018E-005
 -3.360000000000000E-002    1.823093484270681E-005
 -3.350000000000000E-002    1.952469106761908E-005
 -3.340000000000000E-002    2.078954688823382E-005
 -3.330000000000000E-002    2.200890091302428E-005
 -3.320000000000000E-002    2.316469947716624E-005
 -3.310000000000000E-002    2.423842066354455E-005
 -3.300000000000000E-002    2.521218649405989E-005
 -3.290000000000000E-002    2.606990844558761E-005
 -3.280000000000000E-002    2.679834427883176E-005
 -3.270000000000000E-002    2.738794614174603E-005
 -3.260000000000000E-002    2.783336385740320E-005
 -3.250000000000000E-002    2.813356822973900E-005
 -3.240000000000000E-002    2.829152294812194E-005
 -3.230000000000000E-002    2.831344989068231E-005
 -3.220000000000000E-002    2.820775978076890E-005
 -3.210000000000000E-002    2.798379345060628E-005
 -3.200000000000000E-002    2.765038506917918E-005
 -3.190000000000000E-002    2.721461181561958E-005
 -3.180000000000000E-002    2.668070398446990E-005
 -3.170000000000000E-002    2.604934873441453E-005
 -3.160000000000000E-002    2.531742638255172E-005
 -3.150000000000000E-002    2.447827087671285E-005
 -3.140000000000000E-002    2.352237940511456E-005
 -3.130000000000000E-002    2.243855226365644E-005
 -3.120000000000000E-002    2.121525047112902E-005
 -3.110000000000000E-002    1.984212711731776E-005
 -3.100000000000000E-002    1.831142038381866E-005
 -3.090000000000000E-002    1.661915019875267E-005
 -3.080000000000000E-002    1.476585634777549E-005
 -3.070000000000000E-002    1.275683095362852E-005
 -3.060000000000000E-002    1.060180033544732E-005
 -3.050000000000000E-002    8.313958828733787E-006
 -3.040000000000000E-002    5.908585181209799E-006
 -3.030000000000000E-002    3.401360009040550E-006
 -3.020000000000000E-002    8.063501579366109E-007
 -3.010000000000000E-002   -1.865778156689123E-006
 -3.000000000000000E-002   -4.609426818091984E-006
 -2.990000000000000E-002   -7.425320076083547E-006
 -2.980000000000000E-002   -1.032113724975671E-005
 -2.970000000000000E-002   -1.331148731596733E-005
 -2.960000000000000E-002   -1.641739359395210E-005
 -2.950000000000000E-002   -1.966505423433613E-005
 -2.940000000000000E-002   -2.308436099180865E-005
 -2.930000000000000E-002   -2.670704673475205E-005
 -2.920000000000000E-002   -3.056502760068478E-005
 -2.910000000000000E-002   -3.468872870114763E-005
 -2.900000000000000E-002   -3.910606778067551E-005
 -2.890000000000000E-002   -4.384182700193645E-005
 -2.880000000000000E-002   -4.891775869509383E-005
 -2.870000000000000E-002   -5.435349297421091E-005
 -2.860000000000000E-002   -6.016772580404767E-005
 -2.850000000000000E-002   -6.638011599774568E-005
 -2.840000000000000E-002   -7.301310137370278E-005
 -2.830000000000000E-002   -8.009420548671806E-005
 -2.820000000000000E-002   -8.765717216936941E-005
 -2.810000000000000E-002   -9.574373924376684E-005
 -2.800000000000000E-002   -1.044039550685123E-004
 -2.790000000000000E-002   -1.136959683757648E-004
 -2.780000000000000E-002   -1.236849413823194E-004
 -2.770000000000000E-002   -1.344421151775966E-004
 -2.760000000000000E-002   -1.460424078739653E-004
 -2.750000000000000E-002   -1.585622888206637E-004
 -2.740000000000000E-002   -1.720778953486131E-004
 -2.730000000000000E-002   -1.866631298225615E-004
 -2.720000000000000E-002   -2.023880372984060E-004
 -2.710000000000000E-002   -2.193194613187611E-004
 -2.700000000000000E-002   -2.375203003986566E-004
 -2.690000000000000E-002   -2.570515459108563E-004
 -2.680000000000000E-002   -2.779736590896137E-004
 -2.670000000000000E-002   -3.003494256610448E-004
 -2.660000000000000E-002   -3.242465765792059E-004
 -2.650000000000000E-002   -3.497402217513236E-004
 -2.640000000000000E-002   -3.769158446961791E-004
 -2.630000000000000E-002   -4.058700900716116E-004
 -2.620000000000000E-002   -4.367122357160807E-004
 -2.610000000000000E-002   -4.695642413984341E-004
 -2.600000000000000E-002   -5.045596534393169E-004
 -2.590000000000000E-002   -5.418420583964004E-004
 -2.580000000000000E-002   -5.815632862258264E-004
 -2.570000000000000E-002   -6.238805604464920E-004
 -2.560000000000000E-002   -6.689544547448959E-004
 -2.550000000000000E-002   -7.169474247833545E-004
 -2.540000000000000E-002   -7.680223742051783E-004
 -2.530000000000000E-002   -8.223422478038610E-004
 -2.520000000000000E-002   -8.800713022732086E-004
 -2.510000000000000E-002   -9.413768332623740E-004
 -2.500000000000000E-002   -1.006431206321471E-003
 -2.490000000000000E-002   -1.075415410291758E-003
 -2.480000000000000E-002   -1.148522836440485E-003
 -2.470000000000000E-002   -1.225961460977452E-003
 -2.460000000000000E-002   -1.307957041485028E-003
 -2.450000000000000E-002   -1.394755136201229E-003
 -2.440000000000000E-002   -1.486621484219627E-003
 -2.430000000000000E-002   -1.583844101405885E-003
 -2.420000000000000E-002   -1.686729723939737E-003
 -2.410000000000000E-002   -1.795604423565839E-003
 -2.400000000000000E-002   -1.910807988610084E-003
 -2.390000000000000E-002   -2.032696012824875E-003
 -2.380000000000000E-002   -2.161634189380525E-003
 -2.370000000000000E-002   -2.297997315682459E-003
 -2.360000000000000E-002   -2.442169141608535E-003
 -2.350000000000000E-002   -2.594542305804598E-003
 -2.340000000000000E-002   -2.755519006364630E-003
 -2.330000000000000E-002   -2.925514759317391E-003
 -2.320000000000000E-002   -3.104958966233999E-003
 -2.310000000000000E-002   -3.294302331781651E-003
 -2.300000000000000E-002   -3.494017913205682E-003
 -2.290000000000000E-002   -3.704604412623331E-003
 -2.280000000000000E-002   -3.926590641531964E-003
 -2.270000000000000E-002   -4.160536308646384E-003
 -2.260000000000000E-002   -4.407033744056416E-003
 -2.250000000000000E-002   -4.666706595881131E-003
 -2.240000000000000E-002   -4.940210928159035E-003
 -2.230000000000000E-002   -5.228229613782802E-003
 -2.220000000000000E-002   -5.531474219551232E-003
 -2.210000000000000E-002   -5.850677740948568E-003
 -2.200000000000000E-002   -6.186596106103547E-003
 -2.190000000000000E-002   -6.540004219437710E-003
 -2.180000000000000E-002   -6.911697120766166E-003
 -2.170000000000000E-002   -7.302487968087694E-003
 -2.160000000000000E-002   -7.713212880499139E-003
 -2.150000000000000E-002   -8.144734531560073E-003
 -2.140000000000000E-002   -8.597940988222212E-003
 -2.130000000000000E-002   -9.073754242084500E-003
 -2.120000000000000E-002   -9.573133334523979E-003
 -2.110000000000000E-002   -1.009707771968278E-002
 -2.100000000000000E-002   -1.064663328338639E-002
 -2.090000000000000E-002   -1.122288901714513E-002
 -2.080000000000000E-002   -1.182698565904453E-002
 -2.070000000000000E-002   -1.246010848636045E-002
 -2.060000000000000E-002   -1.312349007829472E-002
 -2.050000000000000E-002   -1.381841071553822E-002
 -2.040000000000000E-002   -1.454618734147480E-002
 -2.030000000000000E-002   -1.530818280142679E-002
 -2.020000000000000E-002   -1.610579100656843E-002
 -2.010000000000000E-002   -1.694044819288604E-002
 -2.000000000000000E-002   -1.781362587129193E-002
 -1.990000000000000E-002   -1.872683035696571E-002
 -1.980000000000000E-002   -1.968160748616653E-002
 -1.970000000000000E-002   -2.067954593859785E-002
 -1.960000000000000E-002   -2.172228105424373E-002
 -1.950000000000000E-002   -2.281149751441099E-002
 -1.940000000000000E-002   -2.394893450079066E-002
 -1.930000000000000E-002   -2.513638355977650E-002
 -1.920000000000000E-002   -2.637571204706813E-002
 -1.910000000000000E-002   -2.766884320359795E-002
 -1.900000000000000E-002   -2.901775853069418E-002
 -1.890000000000000E-002   -3.042451485649815E-002
 -1.880000000000000E-002   -3.189122446846058E-002
 -1.870000000000000E-002   -3.342005814495838E-002
 -1.860000000000000E-002   -3.501325238882601E-002
 -1.850000000000000E-002   -3.667309079654349E-002
 -1.840000000000000E-002   -3.840191357482826E-002
 -1.830000000000000E-002   -4.020211218429000E-002
 -1.820000000000000E-002   -4.207612128771899E-002
 -1.810000000000000E-002   -4.402642774093098E-002
 -1.800000000000000E-002   -4.605557148347289E-002
 -1.790000000000000E-002   -4.816614552017268E-002
 -1.780000000000000E-002   -5.036078704578398E-002
 -1.770000000000000E-002   -5.264220264010563E-002
 -1.760000000000000E-002   -5.501315325028881E-002
 -1.750000000000000E-002   -5.747646797053570E-002
 -1.740000000000000E-002   -6.003504132802394E-002
 -1.730000000000000E-002   -6.269184074163939E-002
 -1.720000000000000E-002   -6.544988912751087E-002
 -1.710000000000000E-002   -6.831229608240398E-002
 -1.700000000000000E-002   -7.128221537156192E-002
 -1.690000000000000E-002   -7.436287583434054E-002
 -1.680000000000000E-002   -7.755756628154672E-002
 -1.670000000000000E-002   -8.086960524265281E-002
 -1.660000000000000E-002   -8.430239347919928E-002
 -1.650000000000000E-002   -8.785935892041957E-002
 -1.640000000000000E-002   -9.154396398601353E-002
 -1.630000000000000E-002   -9.535972804842630E-002
 -1.620000000000000E-002   -9.931021167283204E-002
 -1.610000000000000E-002   -0.103399006358663     
 -1.600000000000000E-002   -0.107629745460917     
 -1.590000000000000E-002   -0.112006093528995     
 -1.580000000000000E-002   -0.116531796737438     
 -1.570000000000000E-002   -0.121210590971259     
 -1.560000000000000E-002   -0.126046297614315     
 -1.550000000000000E-002   -0.131042761950260     
 -1.540000000000000E-002   -0.136203895380154     
 -1.530000000000000E-002   -0.141533605227374     
 -1.520000000000000E-002   -0.147035878706087     
 -1.510000000000000E-002   -0.152714703617313     
 -1.500000000000000E-002   -0.158574096058655     
 -1.490000000000000E-002   -0.164618123600012     
 -1.480000000000000E-002   -0.170850805640853     
 -1.470000000000000E-002   -0.177276209571757     
 -1.460000000000000E-002   -0.183898382444090     
 -1.450000000000000E-002   -0.190721390744184     
 -1.440000000000000E-002   -0.197749265456551     
 -1.430000000000000E-002   -0.204986027773374     
 -1.420000000000000E-002   -0.212435714990261     
 -1.410000000000000E-002   -0.220102303133650     
 -1.400000000000000E-002   -0.227989762610733     
 -1.390000000000000E-002   -0.236102030820962     
 -1.380000000000000E-002   -0.244443064186699     
 -1.370000000000000E-002   -0.253016749052271     
 -1.360000000000000E-002   -0.261826952762684     
 -1.350000000000000E-002   -0.270877485419507     
 -1.340000000000000E-002   -0.280172131481375     
 -1.330000000000000E-002   -0.289714619980014     
 -1.320000000000000E-002   -0.299508621853198     
 -1.310000000000000E-002   -0.309557730220959     
 -1.300000000000000E-002   -0.319865435716433     
 -1.290000000000000E-002   -0.330435158772795     
 -1.280000000000000E-002   -0.341270213700303     
 -1.270000000000000E-002   -0.352373837957326     
 -1.260000000000000E-002   -0.363749097878926     
 -1.250000000000000E-002   -0.375398955955017     
 -1.240000000000000E-002   -0.387326276282393     
 -1.230000000000000E-002   -0.399533749116769     
 -1.220000000000000E-002   -0.412023917861637     
 -1.210000000000000E-002   -0.424799195577069     
 -1.200000000000000E-002   -0.437861784897337     
 -1.190000000000000E-002   -0.451213799619203     
 -1.180000000000000E-002   -0.464857139336404     
 -1.170000000000000E-002   -0.478793558252207     
 -1.160000000000000E-002   -0.493024593844141     
 -1.150000000000000E-002   -0.507551608930716     
 -1.140000000000000E-002   -0.522375772591556     
 -1.130000000000000E-002   -0.537498058562418     
 -1.120000000000000E-002   -0.552919069156944     
 -1.110000000000000E-002   -0.568639329789300     
 -1.100000000000000E-002   -0.584659079934947     
 -1.090000000000000E-002   -0.600978237323580     
 -1.080000000000000E-002   -0.617596464240859     
 -1.070000000000000E-002   -0.634513149636147     
 -1.060000000000000E-002   -0.651727431411447     
 -1.050000000000000E-002   -0.669238120120467     
 -1.040000000000000E-002   -0.687043671017765     
 -1.030000000000000E-002   -0.705142310724296     
 -1.020000000000000E-002   -0.723531878413340     
 -1.010000000000000E-002   -0.742209892623956     
 -1.000000000000000E-002   -0.761173563181314     
 -9.899999999999999E-003   -0.780419729528767     
 -9.800000000000000E-003   -0.799944954747950     
 -9.699999999999999E-003   -0.819745312263124     
 -9.599999999999999E-003   -0.839816540035414     
 -9.500000000000000E-003   -0.860154074462194     
 -9.399999999999999E-003   -0.880752859354182     
 -9.299999999999999E-003   -0.901607587233981     
 -9.200000000000000E-003   -0.922712450929430     
 -9.099999999999999E-003   -0.944061275140638     
 -8.999999999999999E-003   -0.965647281441549     
 -8.900000000000000E-003   -0.987463526503224     
 -8.799999999999999E-003    -1.00950251322593     
 -8.699999999999999E-003    -1.03175625048476     
 -8.600000000000000E-003    -1.05421636313984     
 -8.499999999999999E-003    -1.07687400571803     
 -8.399999999999999E-003    -1.09971976083146     
 -8.300000000000000E-003    -1.12274395283021     
 -8.199999999999999E-003    -1.14593632279375     
 -8.100000000000000E-003    -1.16928611890195     
 -8.000000000000000E-003    -1.19278216393854     
 -7.899999999999999E-003    -1.21641284862573     
 -7.800000000000000E-003    -1.24016606863336     
 -7.699999999999999E-003    -1.26402928769718     
 -7.599999999999999E-003    -1.28798941924495     
 -7.499999999999999E-003    -1.31203281257995     
 -7.399999999999999E-003    -1.33614553729135     
 -7.299999999999999E-003    -1.36031306769617     
 -7.199999999999999E-003    -1.38452053342355     
 -7.100000000000000E-003    -1.40875238729967     
 -6.999999999999999E-003    -1.43299273076796     
 -6.899999999999999E-003    -1.45722513980818     
 -6.800000000000000E-003    -1.48143270199167     
 -6.699999999999999E-003    -1.50559821272560     
 -6.599999999999999E-003    -1.52970368024901     
 -6.499999999999999E-003    -1.55373091633149     
 -6.399999999999999E-003    -1.57766117130088     
 -6.299999999999999E-003    -1.60147537849671     
 -6.199999999999999E-003    -1.62515379000397     
 -6.100000000000000E-003    -1.64867649862035     
 -5.999999999999999E-003    -1.67202307772081     
 -5.899999999999999E-003    -1.69517270088038     
 -5.800000000000000E-003    -1.71810415305509     
 -5.699999999999999E-003    -1.74079588470505     
 -5.599999999999999E-003    -1.76322594998561     
 -5.499999999999999E-003    -1.78537200019444     
 -5.399999999999999E-003    -1.80721155415148     
 -5.299999999999999E-003    -1.82872161010288     
 -5.199999999999999E-003    -1.84987893668224     
 -5.099999999999999E-003    -1.87065992902058     
 -4.999999999999999E-003    -1.89104083460445     
 -4.899999999999999E-003    -1.91099763122889     
 -4.799999999999999E-003    -1.93050577275410     
 -4.699999999999999E-003    -1.94954091212934     
 -4.599999999999999E-003    -1.96807820874859     
 -4.499999999999999E-003    -1.98609284132603     
 -4.399999999999999E-003    -2.00355946239490     
 -4.299999999999999E-003    -2.02045311216477     
 -4.199999999999999E-003    -2.03674840075811     
 -4.099999999999999E-003    -2.05241990864522     
 -3.999999999999999E-003    -2.06744207906246     
 -3.899999999999999E-003    -2.08178967194245     
 -3.799999999999999E-003    -2.09543691210338     
 -3.699999999999999E-003    -2.10835867002352     
 -3.599999999999999E-003    -2.12052947669336     
 -3.499999999999999E-003    -2.13192378068613     
 -3.399999999999999E-003    -2.14251665940872     
 -3.299999999999999E-003    -2.15228298479760     
 -3.199999999999999E-003    -2.16119783764850     
 -3.099999999999999E-003    -2.16923625924111     
 -2.999999999999999E-003    -2.17637388964178     
 -2.899999999999999E-003    -2.18258649731209     
 -2.799999999999999E-003    -2.18784992346854     
 -2.699999999999999E-003    -2.19214044837861     
 -2.599999999999999E-003    -2.19543478485868     
 -2.499999999999999E-003    -2.19770997009609     
 -2.399999999999999E-003    -2.19894310490878     
 -2.299999999999999E-003    -2.19911227478541     
 -2.199999999999999E-003    -2.19819582451492     
 -2.099999999999999E-003    -2.19617235383363     
 -1.999999999999999E-003    -2.19302159102173     
 -1.899999999999999E-003    -2.18872316540821     
 -1.799999999999999E-003    -2.18325793824784     
 -1.699999999999999E-003    -2.17660686903497     
 -1.599999999999999E-003    -2.16875195230746     
 -1.499999999999999E-003    -2.15967543844746     
 -1.399999999999999E-003    -2.14936093069696     
 -1.299999999999999E-003    -2.13779224672583     
 -1.199999999999999E-003    -2.12495410701464     
 -1.099999999999999E-003    -2.11083236644787     
 -9.999999999999989E-004    -2.09541306648961     
 -8.999999999999990E-004    -2.07868378066415     
 -7.999999999999990E-004    -2.06063256620608     
 -6.999999999999989E-004    -2.04124852402815     
 -5.999999999999990E-004    -2.02052161548118     
 -4.999999999999989E-004    -1.99844292404839     
 -3.999999999999989E-004    -1.97500449072505     
 -2.999999999999989E-004    -1.95019940054247     
 -1.999999999999989E-004    -1.92402189247820     
 -9.999999999999892E-005    -1.89646712239347     
  1.084202172485504E-018    -1.86753151601076     
  1.000000000000011E-004    -1.83721263684996     
  2.000000000000011E-004    -1.80550902150721     
  3.000000000000011E-004    -1.77242045780517     
  4.000000000000011E-004    -1.73794804413192     
  5.000000000000011E-004    -1.70209387704412     
  6.000000000000011E-004    -1.66486142014883     
  7.000000000000011E-004    -1.62625525989762     
  8.000000000000011E-004    -1.58628116527030     
  9.000000000000012E-004    -1.54494616003829     
  1.000000000000001E-003    -1.50225867487767     
  1.100000000000001E-003    -1.45822830232223     
  1.200000000000001E-003    -1.41286595442675     
  1.300000000000001E-003    -1.36618373040365     
  1.400000000000001E-003    -1.31819509963381     
  1.500000000000001E-003    -1.26891489020403     
  1.600000000000001E-003    -1.21835907049115     
  1.700000000000001E-003    -1.16654506765050     
  1.800000000000001E-003    -1.11349158573484     
  1.900000000000001E-003    -1.05921860884672     
  2.000000000000001E-003    -1.00374744209327     
  2.100000000000001E-003   -0.947100597841846     
  2.200000000000001E-003   -0.889301954596366     
  2.300000000000001E-003   -0.830376515523519     
  2.400000000000001E-003   -0.770350682738293     
  2.500000000000001E-003   -0.709252031383581     
  2.600000000000001E-003   -0.647109258416111     
  2.700000000000001E-003   -0.583952374804172     
  2.800000000000001E-003   -0.519812559607538     
  2.900000000000001E-003   -0.454722027366834     
  3.000000000000001E-003   -0.388714337798412     
  3.100000000000001E-003   -0.321824024335738     
  3.200000000000001E-003   -0.254086776658595     
  3.300000000000001E-003   -0.185539437323099     
  3.400000000000001E-003   -0.116219802188749     
  3.500000000000001E-003   -4.616679137835785E-002
  3.600000000000001E-003    2.457980159593100E-002
  3.700000000000001E-003    9.597912326648236E-002
  3.800000000000001E-003    0.167989387945352     
  3.900000000000001E-003    0.240567979787067     
  4.000000000000001E-003    0.313671328887981     
  4.100000000000001E-003    0.387255178058973     
  4.200000000000001E-003    0.461274428023118     
  4.300000000000001E-003    0.535683284567821     
  4.400000000000001E-003    0.610435238024621     
  4.500000000000001E-003    0.685483150200989     
  4.600000000000002E-003    0.760779244807841     
  4.700000000000001E-003    0.836275203803152     
  4.800000000000001E-003    0.911922235519223     
  4.900000000000002E-003    0.987670979642105     
  5.000000000000001E-003     1.06347183207608     
  5.100000000000001E-003     1.13927449290828     
  5.200000000000001E-003     1.21502863397017     
  5.300000000000002E-003     1.29068348515979     
  5.400000000000001E-003     1.36618808364215     
  5.500000000000001E-003     1.44149126907170     
  5.600000000000002E-003     1.51654183412235     
  5.700000000000001E-003     1.59128828135444     
  5.800000000000001E-003     1.66567921983536     
  5.900000000000002E-003     1.73966340221720     
  6.000000000000001E-003     1.81318940561812     
  6.100000000000001E-003     1.88620625095365     
  6.200000000000002E-003     1.95866291710633     
  6.300000000000002E-003     2.03050869956347     
  6.400000000000001E-003     2.10169312333674     
  6.500000000000001E-003     2.17216623184141     
  6.600000000000002E-003     2.24187834626391     
  6.700000000000001E-003     2.31078019763837     
  6.800000000000001E-003     2.37882324516675     
  6.900000000000002E-003     2.44595922343034     
  7.000000000000001E-003     2.51214072647063     
  7.100000000000001E-003     2.57732070181285     
  7.200000000000002E-003     2.64145317578752     
  7.300000000000002E-003     2.70449243647006     
  7.400000000000001E-003     2.76639407621183     
  7.500000000000001E-003     2.82711413992439     
  7.600000000000002E-003     2.88660992483680     
  7.700000000000001E-003     2.94483925957504     
  7.800000000000001E-003     3.00176119369336     
  7.900000000000001E-003     3.05733580648632     
  8.000000000000002E-003     3.11152439686288     
  8.100000000000001E-003     3.16428897579700     
  8.200000000000001E-003     3.21559302953190     
  8.300000000000002E-003     3.26540111462094     
  8.400000000000001E-003     3.31367916463245     
  8.500000000000002E-003     3.36039417733732     
  8.600000000000002E-003     3.40551449235706     
  8.700000000000001E-003     3.44900997386212     
  8.800000000000002E-003     3.49085174939325     
  8.900000000000002E-003     3.53101200336076     
  9.000000000000001E-003     3.56946479078697     
  9.100000000000002E-003     3.60618539128313     
  9.200000000000002E-003     3.64115077122601     
  9.300000000000001E-003     3.67433899606715     
  9.400000000000002E-003     3.70572987498104     
  9.500000000000001E-003     3.73530467931006     
  9.600000000000001E-003     3.76304626869788     
  9.700000000000002E-003     3.78893887013154     
  9.800000000000001E-003     3.81296829774567     
  9.900000000000001E-003     3.83512244986765     
  1.000000000000000E-002     3.85539027692445     
  1.010000000000000E-002     3.87376254217454     
  1.020000000000000E-002     3.89023157159869     
  1.030000000000000E-002     3.90479134549862     
  1.040000000000000E-002     3.91743721786054     
  1.050000000000000E-002     3.92816674245368     
  1.060000000000000E-002     3.93697857188999     
  1.070000000000000E-002     3.94387273068534     
  1.080000000000000E-002     3.94885160591115     
  1.090000000000000E-002     3.95191854595760     
  1.100000000000000E-002     3.95307891435337     
  1.110000000000000E-002     3.95233893934071     
  1.120000000000000E-002     3.94970684019950     
  1.130000000000000E-002     3.94519233390094     
  1.140000000000000E-002     3.93880695836140     
  1.150000000000000E-002     3.93056332270838     
  1.160000000000000E-002     3.92047559301767     
  1.170000000000000E-002     3.90855947939431     
  1.180000000000000E-002     3.89483215219443     
  1.190000000000000E-002     3.87931219414636     
  1.200000000000000E-002     3.86201930307212     
  1.210000000000000E-002     3.84297490433154     
  1.220000000000000E-002     3.82220153356536     
  1.230000000000000E-002     3.79972316386186     
  1.240000000000000E-002     3.77556476144559     
  1.250000000000000E-002     3.74975277882340     
  1.260000000000000E-002     3.72231455368123     
  1.270000000000000E-002     3.69327898540568     
  1.280000000000000E-002     3.66267574124148     
  1.290000000000000E-002     3.63053569802864     
  1.300000000000000E-002     3.59689091856651     
  1.310000000000000E-002     3.56177405374345     
  1.320000000000000E-002     3.52521903576848     
  1.330000000000000E-002     3.48726080687033     
  1.340000000000000E-002     3.44793471884380     
  1.350000000000000E-002     3.40727740589779     
  1.360000000000000E-002     3.36532616766732     
  1.370000000000000E-002     3.32211895534790     
  1.380000000000000E-002     3.27769437936817     
  1.390000000000000E-002     3.23209179435072     
  1.400000000000000E-002     3.18535108508956     
  1.410000000000000E-002     3.13751283250226     
  1.420000000000000E-002     3.08861804592603     
  1.430000000000000E-002     3.03870809201507     
  1.440000000000000E-002     2.98782496494471     
  1.450000000000000E-002     2.93601081550063     
  1.460000000000000E-002     2.88330829748297     
  1.470000000000000E-002     2.82976030092834     
  1.480000000000000E-002     2.77540988401454     
  1.490000000000000E-002     2.72030043727262     
  1.500000000000000E-002     2.66447529652545     
  1.510000000000000E-002     2.60797795127362     
  1.520000000000000E-002     2.55085218236229     
  1.530000000000000E-002     2.49314135458524     
  1.540000000000000E-002     2.43488917030744     
  1.550000000000000E-002     2.37613897800097     
  1.560000000000000E-002     2.31693418781432     
  1.570000000000000E-002     2.25731814960690     
  1.580000000000000E-002     2.19733365739358     
  1.590000000000000E-002     2.13702338851528     
  1.600000000000000E-002     2.07642988608681     
  1.610000000000000E-002     2.01559527289418     
  1.620000000000000E-002     1.95456121846263     
  1.630000000000000E-002     1.89336926846796     
  1.640000000000000E-002     1.83206026571612     
  1.650000000000000E-002     1.77067479446713     
  1.660000000000000E-002     1.70925274690710     
  1.670000000000000E-002     1.64783372435700     
  1.680000000000000E-002     1.58645653867159     
  1.690000000000000E-002     1.52515951131904     
  1.700000000000000E-002     1.46398027304338     
  1.710000000000000E-002     1.40295592816661     
  1.720000000000000E-002     1.34212276121070     
  1.730000000000000E-002     1.28151646013366     
  1.740000000000000E-002     1.22117183433518     
  1.750000000000000E-002     1.16112305647258     
  1.760000000000000E-002     1.10140341935493     
  1.770000000000000E-002     1.04204558024008     
  1.780000000000000E-002    0.983081252790316     
  1.790000000000000E-002    0.924541342471626     
  1.800000000000000E-002    0.866455954263452     
  1.810000000000000E-002    0.808854340479576     
  1.820000000000000E-002    0.751764866640440     
  1.830000000000000E-002    0.695214977154334     
  1.840000000000000E-002    0.639231301245013     
  1.850000000000000E-002    0.583839544740113     
  1.860000000000000E-002    0.529064457202635     
  1.870000000000000E-002    0.474929884316770     