 -4.000000000000000E-002    0.000000000000000E+000
 -3.990000000000000E-002    0.000000000000000E+000
 -3.980000000000000E-002   -6.332137928540486E-013
 -3.970000000000000E-002   -2.376052708207312E-012
 -3.960000000000000E-002   -4.308844206898323E-012
 -3.950000000000000E-002   -3.133677912056801E-012
 -3.940000000000000E-002    6.740094434043729E-012
 -3.930000000000000E-002    3.140705426544311E-011
 -3.920000000000000E-002    7.377894831801587E-011
 -3.910000000000000E-002    1.284288090128205E-010
 -3.900000000000000E-002    1.760582097830391E-010
 -3.890000000000000E-002    1.792070652581922E-010
 -3.880000000000000E-002    8.106699590061302E-011
 -3.870000000000000E-002   -1.909180383725060E-010
 -3.860000000000000E-002   -7.156035403035632E-010
 -3.850000000000000E-002   -1.562794111820730E-009
 -3.840000000000000E-002   -2.773204315523177E-009
 -3.830000000000000E-002   -4.336198363353175E-009
 -3.820000000000000E-002   -6.168814660746698E-009
 -3.810000000000000E-002   -8.100129201064791E-009
 -3.800000000000000E-002   -9.864871887816705E-009
 -3.790000000000000E-002   -1.110936969973575E-008
 -3.780000000000000E-002   -1.141132312105928E-008
 -3.770000000000000E-002   -1.031292024681368E-008
 -3.760000000000000E-002   -7.364553336181670E-009
 -3.750000000000000E-002   -2.174423106594151E-009
 -3.740000000000000E-002    5.542145494635296E-009
 -3.730000000000000E-002    1.592040274534170E-008
 -3.720000000000000E-002    2.891708970721896E-008
 -3.710000000000000E-002    4.429919011686725E-008
 -3.700000000000000E-002    6.165263549982374E-008
 -3.690000000000000E-002    8.041005528461777E-008
 -3.680000000000000E-002    9.989359527809073E-008
 -3.670000000000000E-002    1.193661763211380E-007
 -3.660000000000000E-002    1.380830158390794E-007
 -3.650000000000000E-002    1.553349811460699E-007
 -3.640000000000000E-002    1.704765249367121E-007
 -3.630000000000000E-002    1.829337782466368E-007
 -3.620000000000000E-002    1.921921139118288E-007
 -3.610000000000000E-002    1.977667849701968E-007
 -3.600000000000000E-002    1.991643584054603E-007
 -3.590000000000000E-002    1.958458047102070E-007
 -3.580000000000000E-002    1.872036223495424E-007
 -3.570000000000000E-002    1.725647231545760E-007
 -3.560000000000000E-002    1.512281185615428E-007
 -3.550000000000000E-002    1.225415892501136E-007
 -3.540000000000000E-002    8.601512098395002E-008
 -3.530000000000000E-002    4.146223749796905E-008
 -3.520000000000000E-002   -1.084624514157702E-008
 -3.510000000000000E-002   -7.003630446094699E-008
 -3.500000000000000E-002   -1.345153612518823E-007
 -3.490000000000000E-002   -2.019095494034307E-007
 -3.480000000000000E-002   -2.690716102619803E-007
 -3.470000000000000E-002   -3.321703442724379E-007
 -3.460000000000000E-002   -3.868632488404816E-007
 -3.450000000000000E-002   -4.285431324263956E-007
 -3.440000000000000E-002   -4.526393600198861E-007
 -3.430000000000000E-002   -4.549455571165585E-007
 -3.420000000000000E-002   -4.319400195832565E-007
 -3.410000000000000E-002   -3.810631086488778E-007
 -3.400000000000000E-002   -3.009193309867654E-007
 -3.390000000000000E-002   -1.913778365562674E-007
 -3.380000000000000E-002   -5.355688705333305E-008
 -3.370000000000000E-002    1.103102526162158E-007
 -3.360000000000000E-002    2.971161692978473E-007
 -3.350000000000000E-002    5.032032169049827E-007
 -3.340000000000000E-002    7.247368470487020E-007
 -3.330000000000000E-002    9.580885925697348E-007
 -3.320000000000000E-002    1.200190008170106E-006
 -3.310000000000000E-002    1.448820578997161E-006
 -3.300000000000000E-002    1.702803355347612E-006
 -3.290000000000000E-002    1.962093634104757E-006
 -3.280000000000000E-002    2.227759098304736E-006
 -3.270000000000000E-002    2.501860878063527E-006
 -3.260000000000000E-002    2.787262662892433E-006
 -3.250000000000000E-002    3.087391589629697E-006
 -3.240000000000000E-002    3.405990713913175E-006
 -3.230000000000000E-002    3.746889242794923E-006
 -3.220000000000000E-002    4.113819290197615E-006
 -3.210000000000000E-002    4.510293945552646E-006
 -3.200000000000000E-002    4.939553594657840E-006
 -3.190000000000000E-002    5.404572516289566E-006
 -3.180000000000000E-002    5.908116958236139E-006
 -3.170000000000000E-002    6.452834065921501E-006
 -3.160000000000000E-002    7.041347612030433E-006
 -3.150000000000000E-002    7.676342799045998E-006
 -3.140000000000000E-002    8.360637016523834E-006
 -3.130000000000000E-002    9.097213350678691E-006
 -3.120000000000000E-002    9.889239795585596E-006
 -3.110000000000000E-002    1.074007045052611E-005
 -3.100000000000000E-002    1.165325192679347E-005
 -3.090000000000000E-002    1.263255175679147E-005
 -3.080000000000000E-002    1.368201243422298E-005
 -3.070000000000000E-002    1.480605220498386E-005
 -3.060000000000000E-002    1.600959243309070E-005
 -3.050000000000000E-002    1.729820866713878E-005
 -3.040000000000000E-002    1.867827656832620E-005
 -3.030000000000000E-002    2.015708356388616E-005
 -3.020000000000000E-002    2.174286709625558E-005
 -3.010000000000000E-002    2.344476606140418E-005
 -3.000000000000000E-002    2.527265523622042E-005
 -2.990000000000000E-002    2.723686034330580E-005
 -2.980000000000000E-002    2.934778439086783E-005
 -2.970000000000000E-002    3.161545455218287E-005
 -2.960000000000000E-002    3.404906508940200E-005
 -2.950000000000000E-002    3.665657119945821E-005
 -2.940000000000000E-002    3.944438557168836E-005
 -2.930000000000000E-002    4.241725492464919E-005
 -2.920000000000000E-002    4.557835228938466E-005
 -2.910000000000000E-002    4.892960998522413E-005
 -2.900000000000000E-002    5.247228415934743E-005
 -2.890000000000000E-002    5.620771850026859E-005
 -2.880000000000000E-002    6.013822453906963E-005
 -2.870000000000000E-002    6.426803437759042E-005
 -2.860000000000000E-002    6.860415356616048E-005
 -2.850000000000000E-002    7.315708668744222E-005
 -2.840000000000000E-002    7.794129103558253E-005
 -2.830000000000000E-002    8.297533249967308E-005
 -2.820000000000000E-002    8.828165870012919E-005
 -2.810000000000000E-002    9.388608863100720E-005
 -2.800000000000000E-002    9.981694756883482E-005
 -2.790000000000000E-002    1.061040467086863E-004
 -2.780000000000000E-002    1.127775257730509E-004
 -2.770000000000000E-002    1.198668020928363E-004
 -2.760000000000000E-002    1.273995789038625E-004
 -2.750000000000000E-002    1.354012211638276E-004
 -2.740000000000000E-002    1.438944378096870E-004
 -2.730000000000000E-002    1.528993246785139E-004
 -2.720000000000000E-002    1.624338820179826E-004
 -2.710000000000000E-002    1.725147513136639E-004
 -2.700000000000000E-002    1.831583199383691E-004
 -2.690000000000000E-002    1.943818769619995E-004
 -2.680000000000000E-002    2.062047349957475E-004
 -2.670000000000000E-002    2.186493757722465E-004
 -2.660000000000000E-002    2.317421927685663E-004
 -2.650000000000000E-002    2.455139634960212E-004
 -2.640000000000000E-002    2.600000404764705E-004
 -2.630000000000000E-002    2.752401614965812E-004
 -2.620000000000000E-002    2.912779162994936E-004
 -2.610000000000000E-002    3.081601399331155E-004
 -2.600000000000000E-002    3.259360937892707E-004
 -2.590000000000000E-002    3.446566674994335E-004
 -2.580000000000000E-002    3.643737532340615E-004
 -2.570000000000000E-002    3.851398839862938E-004
 -2.560000000000000E-002    4.070079287712428E-004
 -2.550000000000000E-002    4.300312677809715E-004
 -2.540000000000000E-002    4.542641931469451E-004
 -2.530000000000000E-002    4.797622521368282E-004
 -2.520000000000000E-002    5.065830500618524E-004
 -2.510000000000000E-002    5.347869580168144E-004
 -2.500000000000000E-002    5.644375267571943E-004
 -2.490000000000000E-002    5.956021319886918E-004
 -2.480000000000000E-002    6.283522007503961E-004
 -2.470000000000000E-002    6.627633682658425E-004
 -2.460000000000000E-002    6.989152418860274E-004
 -2.450000000000000E-002    7.368914276978247E-004
 -2.440000000000000E-002    7.767788409790240E-004
 -2.430000000000000E-002    8.186676994199188E-004
 -2.420000000000000E-002    8.626511082874278E-004
 -2.410000000000000E-002    9.088250953041083E-004
 -2.400000000000000E-002    9.572883526125518E-004
 -2.390000000000000E-002    1.008142722702901E-003
 -2.380000000000000E-002    1.061493404769204E-003
 -2.370000000000000E-002    1.117449395983070E-003
 -2.360000000000000E-002    1.176123994450391E-003
 -2.350000000000000E-002    1.237635415793078E-003
 -2.340000000000000E-002    1.302106993762403E-003
 -2.330000000000000E-002    1.369667551563706E-003
 -2.320000000000000E-002    1.440452055703826E-003
 -2.310000000000000E-002    1.514600677380596E-003
 -2.300000000000000E-002    1.592259705749538E-003
 -2.290000000000000E-002    1.673581089085187E-003
 -2.280000000000000E-002    1.758721943284323E-003
 -2.270000000000000E-002    1.847845346753157E-003
 -2.260000000000000E-002    1.941119203134674E-003
 -2.250000000000000E-002    2.038717232975458E-003
 -2.240000000000000E-002    2.140819358405969E-003
 -2.230000000000000E-002    2.247611317339813E-003
 -2.220000000000000E-002    2.359285816315303E-003
 -2.210000000000000E-002    2.476042911279805E-003
 -2.200000000000000E-002    2.598090336752372E-003
 -2.190000000000000E-002    2.725644042039599E-003
 -2.180000000000000E-002    2.858928554996602E-003
 -2.170000000000000E-002    2.998176213921236E-003
 -2.160000000000000E-002    3.143628239768033E-003
 -2.150000000000000E-002    3.295533570816035E-003
 -2.140000000000000E-002    3.454148920679842E-003
 -2.130000000000000E-002    3.619738771045443E-003
 -2.120000000000000E-002    3.792573731885112E-003
 -2.110000000000000E-002    3.972932228319966E-003
 -2.100000000000000E-002    4.161099094992449E-003
 -2.090000000000000E-002    4.357367076210423E-003
 -2.080000000000000E-002    4.562036536402225E-003
 -2.070000000000000E-002    4.775416811294951E-003
 -2.060000000000000E-002    4.997826419718307E-003
 -2.050000000000000E-002    5.229594649078969E-003
 -2.040000000000000E-002    5.471062124125392E-003
 -2.030000000000000E-002    5.722582252248169E-003
 -2.020000000000000E-002    5.984520109083823E-003
 -2.010000000000000E-002    6.257253703369469E-003
 -2.000000000000000E-002    6.541174408404206E-003
 -1.990000000000000E-002    6.836685267790404E-003
 -1.980000000000000E-002    7.144201567308380E-003
 -1.970000000000000E-002    7.464149042190870E-003
 -1.960000000000000E-002    7.796964415185465E-003
 -1.950000000000000E-002    8.143093429908177E-003
 -1.940000000000000E-002    8.502993492682135E-003
 -1.930000000000000E-002    8.877129744574483E-003
 -1.920000000000000E-002    9.265978968714339E-003
 -1.910000000000000E-002    9.670026817481959E-003
 -1.900000000000000E-002    1.008977219124062E-002
 -1.890000000000000E-002    1.052572499315225E-002
 -1.880000000000000E-002    1.097840880032787E-002
 -1.870000000000000E-002    1.144836174556511E-002
 -1.860000000000000E-002    1.193613654163636E-002
 -1.850000000000000E-002    1.244230109430342E-002
 -1.840000000000000E-002    1.296743636205516E-002
 -1.830000000000000E-002    1.351214047664400E-002
 -1.820000000000000E-002    1.407702425075288E-002
 -1.810000000000000E-002    1.466271252173204E-002
 -1.800000000000000E-002    1.526984343382905E-002
 -1.790000000000000E-002    1.589906490850347E-002
 -1.780000000000000E-002    1.655103745080198E-002
 -1.770000000000000E-002    1.722643271799397E-002
 -1.760000000000000E-002    1.792593260215421E-002
 -1.750000000000000E-002    1.865023141644183E-002
 -1.740000000000000E-002    1.940003654591222E-002
 -1.730000000000000E-002    2.017606648270518E-002
 -1.720000000000000E-002    2.097905446138589E-002
 -1.710000000000000E-002    2.180974661408830E-002
 -1.700000000000000E-002    2.266890755548789E-002
 -1.690000000000000E-002    2.355731282611317E-002
 -1.680000000000000E-002    2.447575422921337E-002
 -1.670000000000000E-002    2.542503960427915E-002
 -1.660000000000000E-002    2.640598491285951E-002
 -1.650000000000000E-002    2.741942598440283E-002
 -1.640000000000000E-002    2.846620069728635E-002
 -1.630000000000000E-002    2.954716350156024E-002
 -1.620000000000000E-002    3.066317548763561E-002
 -1.610000000000000E-002    3.181510073212977E-002
 -1.600000000000000E-002    3.300381975644327E-002
 -1.590000000000000E-002    3.423021210910965E-002
 -1.580000000000000E-002    3.549517126215304E-002
 -1.570000000000000E-002    3.679959388773353E-002
 -1.560000000000000E-002    3.814438776186770E-002
 -1.550000000000000E-002    3.953046970148645E-002
 -1.540000000000000E-002    4.095876270951582E-002
 -1.530000000000000E-002    4.243020298868171E-002
 -1.520000000000000E-002    4.394572733855241E-002
 -1.510000000000000E-002    4.550629257764242E-002
 -1.500000000000000E-002    4.711285167974795E-002
 -1.490000000000000E-002    4.876636252221111E-002
 -1.480000000000000E-002    5.046779206941148E-002
 -1.470000000000000E-002    5.221811192782563E-002
 -1.460000000000000E-002    5.401828075037584E-002
 -1.450000000000000E-002    5.586926046333083E-002
 -1.440000000000000E-002    5.777201569322316E-002
 -1.430000000000000E-002    5.972750322765581E-002
 -1.420000000000000E-002    6.173667631226768E-002
 -1.410000000000000E-002    6.380048809751189E-002
 -1.400000000000000E-002    6.591988783494092E-002
 -1.390000000000000E-002    6.809580458269911E-002
 -1.380000000000000E-002    7.032918230861991E-002
 -1.370000000000000E-002    7.262094480148386E-002
 -1.360000000000000E-002    7.497201788986166E-002
 -1.350000000000000E-002    7.738331986002618E-002
 -1.340000000000000E-002    7.985575565453462E-002
 -1.330000000000000E-002    8.239021578127563E-002
 -1.320000000000000E-002    8.498757569497253E-002
 -1.310000000000000E-002    8.764870675068755E-002
 -1.300000000000000E-002    9.037444796984086E-002
 -1.290000000000000E-002    9.316562413883574E-002
 -1.280000000000000E-002    9.602302986486531E-002
 -1.270000000000000E-002    9.894743706646113E-002
 -1.260000000000000E-002    0.101939599411422     
 -1.250000000000000E-002    0.105000244748960     
 -1.240000000000000E-002    0.108130059304925     
 -1.230000000000000E-002    0.111329718219250     
 -1.220000000000000E-002    0.114599854570703     
 -1.210000000000000E-002    0.117941063337764     
 -1.200000000000000E-002    0.121353926666613     
 -1.190000000000000E-002    0.124838992961463     
 -1.180000000000000E-002    0.128396760752946     
 -1.170000000000000E-002    0.132027701503753     
 -1.160000000000000E-002    0.135732240986887     
 -1.150000000000000E-002    0.139510739968508     
 -1.140000000000000E-002    0.143363557205010     
 -1.130000000000000E-002    0.147290969711801     
 -1.120000000000000E-002    0.151293206468847     
 -1.110000000000000E-002    0.155370452709970     
 -1.100000000000000E-002    0.159522828384857     
 -1.090000000000000E-002    0.163750407963457     
 -1.080000000000000E-002    0.168053205584621     
 -1.070000000000000E-002    0.172431161890493     
 -1.060000000000000E-002    0.176884159588210     
 -1.050000000000000E-002    0.181412029994588     
 -1.040000000000000E-002    0.186014550776776     
 -1.030000000000000E-002    0.190691373497370     
 -1.020000000000000E-002    0.195442144793118     
 -1.010000000000000E-002    0.200266416318843     
 -1.000000000000000E-002    0.205163652101721     
 -9.899999999999999E-003    0.210133259031771     
 -9.800000000000000E-003    0.215174535091774     
 -9.699999999999999E-003    0.220286696641599     
 -9.599999999999999E-003    0.225468901268574     
 -9.500000000000000E-003    0.230720218998152     
 -9.399999999999999E-003    0.236039593665337     
 -9.299999999999999E-003    0.241425922858029     
 -9.200000000000000E-003    0.246877985796981     
 -9.099999999999999E-003    0.252394442911820     
 -8.999999999999999E-003    0.257973930471547     
 -8.900000000000000E-003    0.263614922287072     
 -8.799999999999999E-003    0.269315832036496     
 -8.699999999999999E-003    0.275074944037034     
 -8.600000000000000E-003    0.280890473102368     
 -8.499999999999999E-003    0.286760538286949     
 -8.399999999999999E-003    0.292683088530731     
 -8.300000000000000E-003    0.298656045080075     
 -8.199999999999999E-003    0.304677165714692     
 -8.100000000000000E-003    0.310744092529949     
 -8.000000000000000E-003    0.316854417222928     
 -7.899999999999999E-003    0.323005525539031     
 -7.800000000000000E-003    0.329194753580089     
 -7.699999999999999E-003    0.335419326949232     
 -7.599999999999999E-003    0.341676307066461     
 -7.499999999999999E-003    0.347962685821857     
 -7.399999999999999E-003    0.354275299154092     
 -7.299999999999999E-003    0.360610910737553     
 -7.199999999999999E-003    0.366966126723734     
 -7.100000000000000E-003    0.373337464797294     
 -6.999999999999999E-003    0.379721318600113     
 -6.899999999999999E-003    0.386113952572550     
 -6.800000000000000E-003    0.392511574611274     
 -6.699999999999999E-003    0.398910153742918     
 -6.599999999999999E-003    0.405305657171165     
 -6.499999999999999E-003    0.411693855155306     
 -6.399999999999999E-003    0.418070426254346     
 -6.299999999999999E-003    0.424430935233316     
 -6.199999999999999E-003    0.430770766742915     
 -6.100000000000000E-003    0.437085295847067     
 -5.999999999999999E-003    0.443369738762323     
 -5.899999999999999E-003    0.449619180864989     
 -5.800000000000000E-003    0.455828631676770     
 -5.699999999999999E-003    0.461992916094937     
 -5.599999999999999E-003    0.468106850007507     
 -5.499999999999999E-003    0.474165141770554     
 -5.399999999999999E-003    0.480162340584305     
 -5.299999999999999E-003    0.486092941634282     
 -5.199999999999999E-003    0.491951339492171     
 -5.099999999999999E-003    0.497731803929576     
 -4.999999999999999E-003    0.503428529922173     
 -4.899999999999999E-003    0.509035624305088     
 -4.799999999999999E-003    0.514547146984113     
 -4.699999999999999E-003    0.519957004488411     
 -4.599999999999999E-003    0.525259021693501     
 -4.499999999999999E-003    0.530446985957397     
 -4.399999999999999E-003    0.535514617401296     
 -4.299999999999999E-003    0.540455582606060     
 -4.199999999999999E-003    0.545263434337655     
 -4.099999999999999E-003    0.549931743687030     
 -3.999999999999999E-003    0.554453940959748     
 -3.899999999999999E-003    0.558823495293437     
 -3.799999999999999E-003    0.563033797009350     
 -3.699999999999999E-003    0.567078198452446     
 -3.599999999999999E-003    0.570950027392242     
 -3.499999999999999E-003    0.574642615099606     
 -3.399999999999999E-003    0.578149203437888     
 -3.299999999999999E-003    0.581463112067490     
 -3.199999999999999E-003    0.584577543306042     
 -3.099999999999999E-003    0.587485826604187     
 -2.999999999999999E-003    0.590181197477724     
 -2.899999999999999E-003    0.592656891555382     
 -2.799999999999999E-003    0.594906252758386     
 -2.699999999999999E-003    0.596922554078094     
 -2.599999999999999E-003    0.598699125927500     
 -2.499999999999999E-003    0.600229387377360     
 -2.399999999999999E-003    0.601506777241318     
 -2.299999999999999E-003    0.602524777398590     
 -2.199999999999999E-003    0.603276927476134     
 -2.099999999999999E-003    0.603756856816586     
 -1.999999999999999E-003    0.603958290016410     
 -1.899999999999999E-003    0.603874937878104     
 -1.799999999999999E-003    0.603500724738073     
 -1.699999999999999E-003    0.602829633726114     
 -1.599999999999999E-003    0.601855730946046     
 -1.499999999999999E-003    0.600573223447996     
 -1.399999999999999E-003    0.598976425267043     
 -1.299999999999999E-003    0.597059784711440     
 -1.199999999999999E-003    0.594817876608947     
 -1.099999999999999E-003    0.592245424116487     
 -9.999999999999989E-004    0.589337338612719     
 -8.999999999999990E-004    0.586088651640634     
 -7.999999999999990E-004    0.582494636491633     
 -6.999999999999989E-004    0.578550703604900     
 -5.999999999999990E-004    0.574252444799911     
 -4.999999999999989E-004    0.569595627075393     
 -3.999999999999989E-004    0.564576313207404     
 -2.999999999999989E-004    0.559190686371055     
 -1.999999999999989E-004    0.553435174858030     
 -9.999999999999892E-005    0.547306424819343     
  1.084202172485504E-018    0.540801379091928     
  1.000000000000011E-004    0.533917092599038     
  2.000000000000011E-004    0.526650953416495     
  3.000000000000011E-004    0.519000610193901     
  4.000000000000011E-004    0.510963912737439     
  5.000000000000011E-004    0.502539053275293     
  6.000000000000011E-004    0.493724414473871     
  7.000000000000011E-004    0.484518714808201     
  8.000000000000011E-004    0.474920966853584     
  9.000000000000012E-004    0.464930468078818     
  1.000000000000001E-003    0.454546821935313     
  1.100000000000001E-003    0.443769933721966     
  1.200000000000001E-003    0.432600055729716     
  1.300000000000001E-003    0.421037703037350     
  1.400000000000001E-003    0.409083705090698     
  1.500000000000001E-003    0.396739260909666     
  1.600000000000001E-003    0.384005849125234     
  1.700000000000001E-003    0.370885336177217     
  1.800000000000001E-003    0.357379852554728     
  1.900000000000001E-003    0.343491887031729     
  2.000000000000001E-003    0.329224274972752     
  2.100000000000001E-003    0.314580206306399     
  2.200000000000001E-003    0.299563200688500     
  2.300000000000001E-003    0.284177134621669     
  2.400000000000001E-003    0.268426235396661     
  2.500000000000001E-003    0.252315085748378     
  2.600000000000001E-003    0.235848650374576     
  2.700000000000001E-003    0.219032201274038     
  2.800000000000001E-003    0.201871408058507     
  2.900000000000001E-003    0.184372263708935     
  3.000000000000001E-003    0.166541128403692     
  3.100000000000001E-003    0.148384696400525     
  3.200000000000001E-003    0.129910014634089     
  3.300000000000001E-003    0.111124465654786     
  3.400000000000001E-003    9.203577606863453E-002
  3.500000000000001E-003    7.265200565341971E-002
  3.600000000000001E-003    5.298154498980820E-002
  3.700000000000001E-003    3.303311637788654E-002
  3.800000000000001E-003    1.281578927155399E-002
  3.900000000000001E-003   -7.661059706611050E-003
  4.000000000000001E-003   -2.838771649304286E-002
  4.100000000000001E-003   -4.935416687492316E-002
  4.200000000000001E-003   -7.055007369193211E-002
  4.300000000000001E-003   -9.196478843356853E-002
  4.400000000000001E-003   -0.113587369692942     
  4.500000000000001E-003   -0.135406583547221     
  4.600000000000002E-003   -0.157410887628928     
  4.700000000000001E-003   -0.179588531922714     
  4.800000000000001E-003   -0.201927411557779     
  4.900000000000002E-003   -0.224415227722693     
  5.000000000000001E-003   -0.247039408160726     
  5.100000000000001E-003   -0.269787221141771     
  5.200000000000001E-003   -0.292645576297053     
  5.300000000000002E-003   -0.315601264610865     
  5.400000000000001E-003   -0.338640799525826     
  5.500000000000001E-003   -0.361750586751299     
  5.600000000000002E-003   -0.384916788855186     
  5.700000000000001E-003   -0.408125349344189     
  5.800000000000001E-003   -0.431362076161289     
  5.900000000000002E-003   -0.454612631200733     
  6.000000000000001E-003   -0.477862550506707     
  6.100000000000001E-003   -0.501097177402411     
  6.200000000000002E-003   -0.524301792476153     
  6.300000000000002E-003   -0.547461613808562     
  6.400000000000001E-003   -0.570561634100433     
  6.500000000000001E-003   -0.593586911778069     
  6.600000000000002E-003   -0.616522349328791     
  6.700000000000001E-003   -0.639352887946229     
  6.800000000000001E-003   -0.662063347801340     
  6.900000000000002E-003   -0.684638510743443     
  7.000000000000001E-003   -0.707063337975041     
  7.100000000000001E-003   -0.729322564293750     
  7.200000000000002E-003   -0.751401107614480     
  7.300000000000002E-003   -0.773283774271634     
  7.400000000000001E-003   -0.794955518865367     
  7.500000000000001E-003   -0.816401423985630     
  7.600000000000002E-003   -0.837606369475480     
  7.700000000000001E-003   -0.858555669919677     
  7.800000000000001E-003   -0.879234562587808     
  7.900000000000001E-003   -0.899628420954268     
  8.000000000000002E-003   -0.919722833098515     
  8.100000000000001E-003   -0.939503497555257     
  8.200000000000001E-003   -0.958956259126375     
  8.300000000000002E-003   -0.978067150291781     
  8.400000000000001E-003   -0.996822348640659     
  8.500000000000002E-003    -1.01520831795006     
  8.600000000000002E-003    -1.03321171441383     
  8.700000000000001E-003    -1.05081952357516     
  8.800000000000002E-003    -1.06801884078883     
  8.900000000000002E-003    -1.08479709859178     
  9.000000000000001E-003    -1.10114190057052     
  9.100000000000002E-003    -1.11704121729028     
  9.200000000000002E-003    -1.13248340874183     
  9.300000000000001E-003    -1.14745700337668     
  9.400000000000002E-003    -1.16195081842745     
  9.500000000000001E-003    -1.17595420834274     
  9.600000000000001E-003    -1.18945674097591     
  9.700000000000002E-003    -1.20244826380119     
  9.800000000000001E-003    -1.21491922227560     
  9.900000000000001E-003    -1.22686024619873     
  1.000000000000000E-002    -1.23826243239900     
  1.010000000000000E-002    -1.24911731005525     
  1.020000000000000E-002    -1.25941675910875     
  1.030000000000000E-002    -1.26915308140422     
  1.040000000000000E-002    -1.27831897819073     
  1.050000000000000E-002    -1.28690759723852     
  1.060000000000000E-002    -1.29491251203696     
  1.070000000000000E-002    -1.30232785536944     
  1.080000000000000E-002    -1.30914797513457     
  1.090000000000000E-002    -1.31536791850433     
  1.100000000000000E-002    -1.32098309073375     
  1.110000000000000E-002    -1.32598936969292     
  1.120000000000000E-002    -1.33038308351622     
  1.130000000000000E-002    -1.33416112567862     
  1.140000000000000E-002    -1.33732069399023     
  1.150000000000000E-002    -1.33985975833712     
  1.160000000000000E-002    -1.34177653594436     
  1.170000000000000E-002    -1.34306967497782     
  1.180000000000000E-002    -1.34373860641345     
  1.190000000000000E-002    -1.34378300025611     
  1.200000000000000E-002    -1.34320299667541     
  1.210000000000000E-002    -1.34199929228908     
  1.220000000000000E-002    -1.34017323618590     
  1.230000000000000E-002    -1.33772637218519     
  1.240000000000000E-002    -1.33466087898737     
  1.250000000000000E-002    -1.33097936576183     
  1.260000000000000E-002    -1.32668501806487     
  1.270000000000000E-002    -1.32178134341032     
  1.280000000000000E-002    -1.31627243024959     
  1.290000000000000E-002    -1.31016284142985     
  1.300000000000000E-002    -1.30345743045768     
  1.310000000000000E-002    -1.29616171930231     
  1.320000000000000E-002    -1.28828164377827     
  1.330000000000000E-002    -1.27982356269380     
  1.340000000000000E-002    -1.27079417598036     
  1.350000000000000E-002    -1.26120070674203     
  1.360000000000000E-002    -1.25105073781050     
  1.370000000000000E-002    -1.24035229259089     
  1.380000000000000E-002    -1.22911377593353     
  1.390000000000000E-002    -1.21734390552942     
  1.400000000000000E-002    -1.20505188009355     
  1.410000000000000E-002    -1.19224738812015     
  1.420000000000000E-002    -1.17894013629279     
  1.430000000000000E-002    -1.16514055471153     
  1.440000000000000E-002    -1.15085917447596     
  1.450000000000000E-002    -1.13610693317625     
  1.460000000000000E-002    -1.12089510614982     
  1.470000000000000E-002    -1.10523525676736     
  1.480000000000000E-002    -1.08913934637477     
  1.490000000000000E-002    -1.07261943002560     
  1.500000000000000E-002    -1.05568795759955     
  1.510000000000000E-002    -1.03835761228184     
  1.520000000000000E-002    -1.02064125064680     
  1.530000000000000E-002    -1.00255207692528     
  1.540000000000000E-002   -0.984103401234021     
  1.550000000000000E-002   -0.965308772991007     
  1.560000000000000E-002   -0.946181922422499     
  1.570000000000000E-002   -0.926736737698098     
  1.580000000000000E-002   -0.906987269364970     
  1.590000000000000E-002   -0.886947718652802     
  1.600000000000000E-002   -0.866632381920277     
  1.610000000000000E-002   -0.846055753320857     
  1.620000000000000E-002   -0.825232421379654     
  1.630000000000000E-002   -0.804176946834392     
  1.640000000000000E-002   -0.782904135216561     
  1.650000000000000E-002   -0.761428733633007     
  1.660000000000000E-002   -0.739765597987511     
  1.670000000000000E-002   -0.717929604192859     
  1.680000000000000E-002   -0.695935650941781     
  1.690000000000000E-002   -0.673798585363101     
  1.700000000000000E-002   -0.651533312671985     
  1.710000000000000E-002   -0.629154636925892     
  1.720000000000000E-002   -0.606677354465126     
  1.730000000000000E-002   -0.584116236708006     
  1.740000000000000E-002   -0.561485929980794     
  1.750000000000000E-002   -0.538801048520728     
  1.760000000000000E-002   -0.516076096987058     
  1.770000000000000E-002   -0.493325472728814     
  1.780000000000000E-002   -0.470563524036937     
  1.790000000000000E-002   -0.447804386436088     
  1.800000000000000E-002   -0.425062117769977     
  1.810000000000000E-002   -0.402350594042576     
  1.820000000000000E-002   -0.379683559367796     
  1.830000000000000E-002   -0.357074539343065     
  1.840000000000000E-002   -0.334536957205537     
  1.850000000000000E-002   -0.312083981491211     
  1.860000000000000E-002   -0.289728564741482     
  1.870000000000000E-002   -0.267483467290169     