 -4.000000000000000E-002    0.000000000000000E+000
 -3.990000000000000E-002    0.000000000000000E+000
 -3.980000000000000E-002    0.000000000000000E+000
 -3.970000000000000E-002    0.000000000000000E+000
 -3.960000000000000E-002    0.000000000000000E+000
 -3.950000000000000E-002    0.000000000000000E+000
 -3.940000000000000E-002    0.000000000000000E+000
 -3.930000000000000E-002    0.000000000000000E+000
 -3.920000000000000E-002    0.000000000000000E+000
 -3.910000000000000E-002    0.000000000000000E+000
 -3.900000000000000E-002    0.000000000000000E+000
 -3.890000000000000E-002    0.000000000000000E+000
 -3.880000000000000E-002    0.000000000000000E+000
 -3.870000000000000E-002    0.000000000000000E+000
 -3.860000000000000E-002    0.000000000000000E+000
 -3.850000000000000E-002    0.000000000000000E+000
 -3.840000000000000E-002    0.000000000000000E+000
 -3.830000000000000E-002    0.000000000000000E+000
 -3.820000000000000E-002    0.000000000000000E+000
 -3.810000000000000E-002    0.000000000000000E+000
 -3.800000000000000E-002    0.000000000000000E+000
 -3.790000000000000E-002    0.000000000000000E+000
 -3.780000000000000E-002    0.000000000000000E+000
 -3.770000000000000E-002    0.000000000000000E+000
 -3.760000000000000E-002    0.000000000000000E+000
 -3.750000000000000E-002    0.000000000000000E+000
 -3.740000000000000E-002    0.000000000000000E+000
 -3.730000000000000E-002    0.000000000000000E+000
 -3.720000000000000E-002    0.000000000000000E+000
 -3.710000000000000E-002    0.000000000000000E+000
 -3.700000000000000E-002    0.000000000000000E+000
 -3.690000000000000E-002    0.000000000000000E+000
 -3.680000000000000E-002    0.000000000000000E+000
 -3.670000000000000E-002    0.000000000000000E+000
 -3.660000000000000E-002    0.000000000000000E+000
 -3.650000000000000E-002    0.000000000000000E+000
 -3.640000000000000E-002   -1.809537322255054E-048
 -3.630000000000000E-002   -4.934179026763120E-047
 -3.620000000000000E-002   -9.296793876516901E-047
 -3.610000000000000E-002   -2.279389406459947E-046
 -3.600000000000000E-002   -5.876374740651900E-046
 -3.590000000000000E-002   -1.325809709823775E-045
 -3.580000000000000E-002   -2.855793551061205E-045
 -3.570000000000000E-002   -5.781024068461109E-045
 -3.560000000000000E-002   -1.099659682492161E-044
 -3.550000000000000E-002   -1.977852924519266E-044
 -3.540000000000000E-002   -3.307765367672644E-044
 -3.530000000000000E-002   -5.087496894360127E-044
 -3.520000000000000E-002   -6.947074958427717E-044
 -3.510000000000000E-002   -7.779989432478981E-044
 -3.500000000000000E-002   -4.619356828767160E-044
 -3.490000000000000E-002    8.220006148141618E-044
 -3.480000000000000E-002    4.136567334069076E-043
 -3.470000000000000E-002    1.122296229959578E-042
 -3.460000000000000E-002    2.471184301538496E-042
 -3.450000000000000E-002    4.815712255427713E-042
 -3.440000000000000E-002    8.570905670462181E-042
 -3.430000000000000E-002    1.410760472515712E-041
 -3.420000000000000E-002    2.154016389801475E-041
 -3.410000000000000E-002    3.036087750455270E-041
 -3.400000000000000E-002    3.890612240498311E-041
 -3.390000000000000E-002    4.369103875259663E-041
 -3.380000000000000E-002    3.875773572084793E-041
 -3.370000000000000E-002    1.531668839514710E-041
 -3.360000000000000E-002   -3.784370946359714E-041
 -3.350000000000000E-002   -1.326068439023679E-040
 -3.340000000000000E-002   -2.778654366014258E-040
 -3.330000000000000E-002   -4.738113968359781E-040
 -3.320000000000000E-002   -7.050385924650581E-040
 -3.310000000000000E-002   -9.352403292775073E-040
 -3.300000000000000E-002   -1.109146576609602E-039
 -3.290000000000000E-002   -1.171054457700329E-039
 -3.280000000000000E-002   -1.112956045969827E-039
 -3.270000000000000E-002   -1.067091322076192E-039
 -3.260000000000000E-002   -1.454693783503454E-039
 -3.250000000000000E-002   -3.190285577390441E-039
 -3.240000000000000E-002   -7.913612521351660E-039
 -3.230000000000000E-002   -1.817361369125059E-038
 -3.220000000000000E-002   -3.741706084632017E-038
 -3.210000000000000E-002   -6.954091551459654E-038
 -3.200000000000000E-002   -1.176621478100339E-037
 -3.190000000000000E-002   -1.816705956414588E-037
 -3.180000000000000E-002   -2.541027504621637E-037
 -3.170000000000000E-002   -3.139807334403670E-037
 -3.160000000000000E-002   -3.185893295383095E-037
 -3.150000000000000E-002   -1.938231344910033E-037
 -3.140000000000000E-002    1.751703388171630E-037
 -3.130000000000000E-002    9.497436998848744E-037
 -3.120000000000000E-002    2.334519465691409E-036
 -3.110000000000000E-002    4.557410017990458E-036
 -3.100000000000000E-002    7.822782741162684E-036
 -3.090000000000000E-002    1.222600354944977E-035
 -3.080000000000000E-002    1.761762798927878E-035
 -3.070000000000000E-002    2.340851031928540E-035
 -3.060000000000000E-002    2.831479651229035E-035
 -3.050000000000000E-002    3.005606026363744E-035
 -3.040000000000000E-002    2.504244591033785E-035
 -3.030000000000000E-002    8.119299582154174E-036
 -3.020000000000000E-002   -2.751924927852147E-035
 -3.010000000000000E-002   -9.008456724453557E-035
 -3.000000000000000E-002   -1.883959229444611E-034
 -2.990000000000000E-002   -3.302595026886604E-034
 -2.980000000000000E-002   -5.197207340314234E-034
 -2.970000000000000E-002   -7.528967289279816E-034
 -2.960000000000000E-002   -1.012184308601842E-033
 -2.950000000000000E-002   -1.258841764643098E-033
 -2.940000000000000E-002   -1.424318011732546E-033
 -2.930000000000000E-002   -1.401291779563078E-033
 -2.920000000000000E-002   -1.036235958533201E-033
 -2.910000000000000E-002   -1.264387004617771E-034
 -2.900000000000000E-002    1.574250608812750E-033
 -2.890000000000000E-002    4.335283515085082E-033
 -2.880000000000000E-002    8.408001258894965E-033
 -2.870000000000000E-002    1.395558511491710E-032
 -2.860000000000000E-002    2.094776850401750E-032
 -2.850000000000000E-002    2.901674564798869E-032
 -2.840000000000000E-002    3.727682922991229E-032
 -2.830000000000000E-002    4.412058376456028E-032
 -2.820000000000000E-002    4.701911179045537E-032
 -2.810000000000000E-002    4.237367242467986E-032
 -2.800000000000000E-002    2.548881427868785E-032
 -2.790000000000000E-002   -9.239145800522875E-033
 -2.780000000000000E-002   -6.780532461317973E-032
 -2.770000000000000E-002   -1.556305849803867E-031
 -2.760000000000000E-002   -2.760407732352122E-031
 -2.750000000000000E-002   -4.281313046082294E-031
 -2.740000000000000E-002   -6.040482802475897E-031
 -2.730000000000000E-002   -7.858609611648191E-031
 -2.720000000000000E-002   -9.423984703341247E-031
 -2.710000000000000E-002   -1.026668899984398E-030
 -2.700000000000000E-002   -9.747488898519644E-031
 -2.690000000000000E-002   -7.072818428880689E-031
 -2.680000000000000E-002   -1.348950698150740E-031
 -2.670000000000000E-002    8.311470298629621E-031
 -2.660000000000000E-002    2.261984716380026E-030
 -2.650000000000000E-002    4.187432927045841E-030
 -2.640000000000000E-002    6.566038196883389E-030
 -2.630000000000000E-002    9.250975878056057E-030
 -2.620000000000000E-002    1.195573037115067E-029
 -2.610000000000000E-002    1.422567962496870E-029
 -2.600000000000000E-002    1.542387458431506E-029
 -2.590000000000000E-002    1.474102246023511E-029
 -2.580000000000000E-002    1.124054042187041E-029
 -2.570000000000000E-002    3.948761316327395E-030
 -2.560000000000000E-002   -8.002479906659288E-030
 -2.550000000000000E-002   -2.517915382924002E-029
 -2.540000000000000E-002   -4.760090914603511E-029
 -2.530000000000000E-002   -7.446717951607453E-029
 -2.520000000000000E-002   -1.038841556433807E-028
 -2.510000000000000E-002   -1.326368421888649E-028
 -2.500000000000000E-002   -1.560622595079433E-028
 -2.490000000000000E-002   -1.680880736137047E-028
 -2.480000000000000E-002   -1.615016436272592E-028
 -2.470000000000000E-002   -1.285056562548910E-028
 -2.460000000000000E-002   -6.159557236144196E-029
 -2.450000000000000E-002    4.524042094309847E-029
 -2.440000000000000E-002    1.950450518955756E-028
 -2.430000000000000E-002    3.862422035835846E-028
 -2.420000000000000E-002    6.109784586569103E-028
 -2.410000000000000E-002    8.536793904892861E-028
 -2.400000000000000E-002    1.090090148837859E-027
 -2.390000000000000E-002    1.287095183784087E-027
 -2.380000000000000E-002    1.403603921541823E-027
 -2.370000000000000E-002    1.392742224242092E-027
 -2.360000000000000E-002    1.205502489386565E-027
 -2.350000000000000E-002    7.958705925107273E-028
 -2.340000000000000E-002    1.272874982914574E-028
 -2.330000000000000E-002   -8.198873562950886E-028
 -2.320000000000000E-002   -2.040432858429867E-027
 -2.310000000000000E-002   -3.496544228909902E-027
 -2.300000000000000E-002   -5.111172827148523E-027
 -2.290000000000000E-002   -6.763374542779115E-027
 -2.280000000000000E-002   -8.286635716142495E-027
 -2.270000000000000E-002   -9.471135197444624E-027
 -2.260000000000000E-002   -1.007080668628701E-026
 -2.250000000000000E-002   -9.815929938672879E-027
 -2.240000000000000E-002   -8.431773813818105E-027
 -2.230000000000000E-002   -5.663563652777554E-027
 -2.220000000000000E-002   -1.307682531021403E-027
 -2.210000000000000E-002    4.751460875825711E-027
 -2.200000000000000E-002    1.250010159109435E-026
 -2.190000000000000E-002    2.175144363264463E-026
 -2.180000000000000E-002    3.210287963798407E-026
 -2.170000000000000E-002    4.289876671622574E-026
 -2.160000000000000E-002    5.320495763071016E-026
 -2.150000000000000E-002    6.180287113519989E-026
 -2.140000000000000E-002    6.721205589597696E-026
 -2.130000000000000E-002    6.775068048184293E-026
 -2.120000000000000E-002    6.164259616388230E-026
 -2.110000000000000E-002    4.717700039654152E-026
 -2.100000000000000E-002    2.292202189104018E-026
 -2.090000000000000E-002   -1.201363945737345E-026
 -2.080000000000000E-002   -5.768622641263023E-026
 -2.070000000000000E-002   -1.130157373176124E-025
 -2.060000000000000E-002   -1.755153073870860E-025
 -2.050000000000000E-002   -2.410981473700342E-025
 -2.040000000000000E-002   -3.040148471554617E-025
 -2.030000000000000E-002   -3.569737146660019E-025
 -2.020000000000000E-002   -3.914879512672163E-025
 -2.010000000000000E-002   -3.984750041886753E-025
 -2.000000000000000E-002   -3.691052340756100E-025
 -1.990000000000000E-002   -2.958594983278346E-025
 -1.980000000000000E-002   -1.737141696437030E-025
 -1.970000000000000E-002   -1.330249635749035E-027
 -1.960000000000000E-002    2.179087412770102E-025
 -1.950000000000000E-002    4.751833215811922E-025
 -1.940000000000000E-002    7.560145116481007E-025
 -1.930000000000000E-002    1.040660994537836E-024
 -1.920000000000000E-002    1.305200395470786E-024
 -1.910000000000000E-002    1.523266037447734E-024
 -1.900000000000000E-002    1.668300327259571E-024
 -1.890000000000000E-002    1.716075652932360E-024
 -1.880000000000000E-002    1.647142802025398E-024
 -1.870000000000000E-002    1.448821645437659E-024
 -1.860000000000000E-002    1.116364306455666E-024
 -1.850000000000000E-002    6.530183040511545E-025
 -1.840000000000000E-002    6.889530212191080E-026
 -1.830000000000000E-002   -6.212053495927876E-025
 -1.820000000000000E-002   -1.400584131772200E-024
 -1.810000000000000E-002   -2.253337332509792E-024
 -1.800000000000000E-002   -3.166062135194704E-024
 -1.790000000000000E-002   -4.127615140256117E-024
 -1.780000000000000E-002   -5.126112188469686E-024
 -1.770000000000000E-002   -6.142736689248331E-024
 -1.760000000000000E-002   -7.142538169350559E-024
 -1.750000000000000E-002   -8.063206713972555E-024
 -1.740000000000000E-002   -8.803696246815861E-024
 -1.730000000000000E-002   -9.215403638386993E-024
 -1.720000000000000E-002   -9.099174550731317E-024
 -1.710000000000000E-002   -8.211533057667031E-024
 -1.700000000000000E-002   -6.283016511636235E-024
 -1.690000000000000E-002   -3.050271885877224E-024
 -1.680000000000000E-002    1.698441922206725E-024
 -1.670000000000000E-002    8.067260821225940E-024
 -1.660000000000000E-002    1.599206162388603E-023
 -1.650000000000000E-002    2.518375594869028E-023
 -1.640000000000000E-002    3.508621819866060E-023
 -1.630000000000000E-002    4.486046546444755E-023
 -1.620000000000000E-002    5.340573490154905E-023
 -1.610000000000000E-002    5.942517836509264E-023
 -1.600000000000000E-002    6.153872075090393E-023
 -1.590000000000000E-002    5.843866141983089E-023
 -1.580000000000000E-002    4.907548449540122E-023
 -1.570000000000000E-002    3.285333304328255E-023
 -1.560000000000000E-002    9.807876771999070E-024
 -1.550000000000000E-002   -1.926425680878963E-023
 -1.540000000000000E-002   -5.275476311169863E-023
 -1.530000000000000E-002   -8.829590994943427E-023
 -1.520000000000000E-002   -1.229285104832400E-022
 -1.510000000000000E-002   -1.533820737717340E-022
 -1.500000000000000E-002   -1.764440679972654E-022
 -1.490000000000000E-002   -1.893753082667835E-022
 -1.480000000000000E-002   -1.903117730345109E-022
 -1.470000000000000E-002   -1.785829189320186E-022
 -1.460000000000000E-002   -1.548767429353949E-022
 -1.450000000000000E-002   -1.211946206144712E-022
 -1.440000000000000E-002   -8.056491014249587E-023
 -1.430000000000000E-002   -3.652187487720344E-023
 -1.420000000000000E-002    7.597876297391257E-024
 -1.410000000000000E-002    4.944283888007761E-023
 -1.400000000000000E-002    8.837980683996654E-023
 -1.390000000000000E-002    1.260105595719467E-022
 -1.380000000000000E-002    1.663108221990595E-022
 -1.370000000000000E-002    2.152599267479251E-022
 -1.360000000000000E-002    2.798918298427098E-022
 -1.350000000000000E-002    3.667885095037829E-022
 -1.340000000000000E-002    4.801456533115563E-022
 -1.330000000000000E-002    6.196540329249509E-022
 -1.320000000000000E-002    7.785370116756574E-022
 -1.310000000000000E-002    9.421482720094429E-022
 -1.300000000000000E-002    1.087539126272566E-021
 -1.290000000000000E-002    1.184341751766612E-021
 -1.280000000000000E-002    1.197178670786403E-021
 -1.270000000000000E-002    1.089600745034303E-021
 -1.260000000000000E-002    8.293041568264200E-022
 -1.250000000000000E-002    3.941074526242179E-022
 -1.240000000000000E-002   -2.220737747256921E-022
 -1.230000000000000E-002   -1.004183389883234E-021
 -1.220000000000000E-002   -1.912891767352885E-021
 -1.210000000000000E-002   -2.884253029369235E-021
 -1.200000000000000E-002   -3.832764096212724E-021
 -1.190000000000000E-002   -4.658018716263125E-021
 -1.180000000000000E-002   -5.254615540258070E-021
 -1.170000000000000E-002   -5.524398896566655E-021
 -1.160000000000000E-002   -5.389575901218454E-021
 -1.150000000000000E-002   -4.804856327332183E-021
 -1.140000000000000E-002   -3.766609432932524E-021
 -1.130000000000000E-002   -2.317178779279854E-021
 -1.120000000000000E-002   -5.429972302425963E-022
 -1.110000000000000E-002    1.434046422088844E-021
 -1.100000000000000E-002    3.471467275505905E-021
 -1.090000000000000E-002    5.425595647598742E-021
 -1.080000000000000E-002    7.172773139036122E-021
 -1.070000000000000E-002    8.628755168054404E-021
 -1.060000000000000E-002    9.762441964644841E-021
 -1.050000000000000E-002    1.060035486042038E-020
 -1.040000000000000E-002    1.121928539908727E-020
 -1.030000000000000E-002    1.172625682754778E-020
 -1.020000000000000E-002    1.222709210882072E-020
 -1.010000000000000E-002    1.278732894814905E-020
 -1.000000000000000E-002    1.339147887674524E-020
 -9.899999999999999E-003    1.390831311095707E-020
 -9.800000000000000E-003    1.407056785962532E-020
 -9.699999999999999E-003    1.347684142156224E-020
 -9.599999999999999E-003    1.162133925952561E-020
 -9.500000000000000E-003    7.953614726954722E-021
 -9.399999999999999E-003    1.965739814987930E-021
 -9.299999999999999E-003   -6.700865375835025E-021
 -9.200000000000000E-003   -1.814185029833544E-020
 -9.099999999999999E-003   -3.208648181372554E-020
 -8.999999999999999E-003   -4.782336410427485E-020
 -8.900000000000000E-003   -6.417382877561508E-020
 -8.799999999999999E-003   -7.952791370869843E-020
 -8.699999999999999E-003   -9.195125837316152E-020
 -8.600000000000000E-003   -9.936194620260185E-020
 -8.499999999999999E-003   -9.976558864425981E-020
 -8.399999999999999E-003   -9.152597984652359E-020
 -8.300000000000000E-003   -7.363915546694965E-020
 -8.199999999999999E-003   -4.597258926786254E-020
 -8.100000000000000E-003   -9.429788782137225E-021
 -8.000000000000000E-003    3.399495104378358E-020
 -7.899999999999999E-003    8.129645621326852E-020
 -7.800000000000000E-003    1.286821567916137E-019
 -7.699999999999999E-003    1.719282876051888E-019
 -7.599999999999999E-003    2.068368782616025E-019
 -7.499999999999999E-003    2.297421211210143E-019
 -7.399999999999999E-003    2.380002240601130E-019
 -7.299999999999999E-003    2.303901669425440E-019
 -7.199999999999999E-003    2.073564136249189E-019
 -7.100000000000000E-003    1.710387743834301E-019
 -6.999999999999999E-003    1.250600282767080E-019
 -6.899999999999999E-003    7.407426310526893E-020
 -6.800000000000000E-003    2.311648918421299E-020
 -6.699999999999999E-003   -2.317031355210004E-020
 -6.599999999999999E-003   -6.132509416642578E-020
 -6.499999999999999E-003   -8.975303074789932E-020
 -6.399999999999999E-003   -1.091806553193373E-019
 -6.299999999999999E-003   -1.227772492670381E-019
 -6.199999999999999E-003   -1.358740006985561E-019
 -6.100000000000000E-003   -1.552654555050641E-019
 -5.999999999999999E-003   -1.881392017494274E-019
 -5.899999999999999E-003   -2.407434159506322E-019
 -5.800000000000000E-003   -3.169570012699303E-019
 -5.699999999999999E-003   -4.169651145304697E-019
 -5.599999999999999E-003   -5.362556588253062E-019
 -5.499999999999999E-003   -6.651348607154955E-019
 -5.399999999999999E-003   -7.889118116245062E-019
 -5.299999999999999E-003   -8.888251330586489E-019
 -5.199999999999999E-003   -9.436903455508453E-019
 -5.099999999999999E-003   -9.321431456881366E-019
 -4.999999999999999E-003   -8.352583899434474E-019
 -4.899999999999999E-003   -6.392497049762300E-019
 -4.799999999999999E-003   -3.379164823714405E-019
 -4.699999999999999E-003    6.549178392488270E-020
 -4.599999999999999E-003    5.572740003713999E-019
 -4.499999999999999E-003    1.113324127611044E-018
 -4.399999999999999E-003    1.700287039247977E-018
 -4.299999999999999E-003    2.277744067063640E-018
 -4.199999999999999E-003    2.801211274627172E-018
 -4.099999999999999E-003    3.225624930945370E-018
 -3.999999999999999E-003    3.508920946270603E-018
 -3.899999999999999E-003    3.615308312014840E-018
 -3.799999999999999E-003    3.517887894089200E-018
 -3.699999999999999E-003    3.200377625208307E-018
 -3.599999999999999E-003    2.657855512257955E-018
 -3.499999999999999E-003    1.896596160121246E-018
 -3.399999999999999E-003    9.332321984980972E-019
 -3.299999999999999E-003   -2.064160241040587E-019
 -3.199999999999999E-003   -1.488455212741761E-018
 -3.099999999999999E-003   -2.871627317654282E-018
 -2.999999999999999E-003   -4.307381606646921E-018
 -2.899999999999999E-003   -5.739277736095551E-018
 -2.799999999999999E-003   -7.101925427876872E-018
 -2.699999999999999E-003   -8.319909908193779E-018
 -2.599999999999999E-003   -9.307350348612798E-018
 -2.499999999999999E-003   -9.968853161679747E-018
 -2.399999999999999E-003   -1.020259594054685E-017
 -2.299999999999999E-003   -9.906115175267451E-018
 -2.199999999999999E-003   -8.985035386832344E-018
 -2.099999999999999E-003   -7.364535287943064E-018
 -1.999999999999999E-003   -5.002806031763365E-018
 -1.899999999999999E-003   -1.905219764172831E-018
 -1.799999999999999E-003    1.862531367149154E-018
 -1.699999999999999E-003    6.164381242264816E-018
 -1.599999999999999E-003    1.078902869625051E-017
 -1.499999999999999E-003    1.545217195131592E-017
 -1.399999999999999E-003    1.980722059885043E-017
 -1.299999999999999E-003    2.346506989127114E-017
 -1.199999999999999E-003    2.602251781673779E-017
 -1.099999999999999E-003    2.709780562396908E-017
 -9.999999999999989E-004    2.637065864786870E-017
 -8.999999999999990E-004    2.362329106603726E-017
 -7.999999999999990E-004    1.877819877230236E-017
 -6.999999999999989E-004    1.192833523568801E-017
 -5.999999999999990E-004    3.355476529757557E-018
 -4.999999999999989E-004   -6.466673705024993E-018
 -3.999999999999989E-004   -1.688699971015161E-017
 -2.999999999999989E-004   -2.710996770647975E-017
 -1.999999999999989E-004   -3.624630253508882E-017
 -9.999999999999892E-005   -4.337884217386970E-017
  1.084202172485504E-018   -4.763950925671829E-017
  1.000000000000011E-004   -4.829201320235870E-017
  2.000000000000011E-004   -4.481399778890183E-017
  3.000000000000011E-004   -3.697190938768540E-017
  4.000000000000011E-004   -2.488182842054276E-017
  5.000000000000011E-004   -9.049988705028410E-018
  6.000000000000011E-004    9.612447031165033E-018
  7.000000000000011E-004    2.980462979176964E-017
  8.000000000000011E-004    4.988414885388853E-017
  9.000000000000012E-004    6.794918257132141E-017
  1.000000000000001E-003    8.195405939895272E-017
  1.100000000000001E-003    8.985535630203811E-017
  1.200000000000001E-003    8.978341690703230E-017
  1.300000000000001E-003    8.023147620399871E-017
  1.400000000000001E-003    6.025172715766926E-017
  1.500000000000001E-003    2.964469617264160E-017
  1.600000000000001E-003   -1.087442236778259E-017
  1.700000000000001E-003   -5.955122994943277E-017
  1.800000000000001E-003   -1.135293140606153E-016
  1.900000000000001E-003   -1.688689615540795E-016
  2.000000000000001E-003   -2.206649042541860E-016
  2.100000000000001E-003   -2.632759118705197E-016
  2.200000000000001E-003   -2.906714235942981E-016
  2.300000000000001E-003   -2.968906756966501E-016
  2.400000000000001E-003   -2.765969370000444E-016
  2.500000000000001E-003   -2.256961646023595E-016
  2.600000000000001E-003   -1.419753919913491E-016
  2.700000000000001E-003   -2.570368879825280E-017
  2.800000000000001E-003    1.198703139416332E-016
  2.900000000000001E-003    2.881945276927315E-016
  3.000000000000001E-003    4.693305490328773E-016
  3.100000000000001E-003    6.501690488839102E-016
  3.200000000000001E-003    8.149814715961526E-016
  3.300000000000001E-003    9.463206935049990E-016
  3.400000000000001E-003    1.026249917666807E-015
  3.500000000000001E-003    1.037843588397935E-015
  3.600000000000001E-003    9.668670162901666E-016
  3.700000000000001E-003    8.035084160329974E-016
  3.800000000000001E-003    5.440111038327390E-016
  3.900000000000001E-003    1.920389879258006E-016
  4.000000000000001E-003   -2.403913428039286E-016
  4.100000000000001E-003   -7.325630073568288E-016
  4.200000000000001E-003   -1.255413390020002E-015
  4.300000000000001E-003   -1.772660599044679E-015
  4.400000000000001E-003   -2.242709859508899E-015
  4.500000000000001E-003   -2.621280127150608E-015
  4.600000000000002E-003   -2.864618706580592E-015
  4.700000000000001E-003   -2.933106233367848E-015
  4.800000000000001E-003   -2.794997911015652E-015
  4.900000000000002E-003   -2.430007801845062E-015
  5.000000000000001E-003   -1.832426675324099E-015
  5.100000000000001E-003   -1.013470234960842E-015
  5.200000000000001E-003   -2.588819082743506E-018
  5.300000000000002E-003    1.152474129657357E-015
  5.400000000000001E-003    2.387008162787300E-015
  5.500000000000001E-003    3.622087206022719E-015
  5.600000000000002E-003    4.768682794491415E-015
  5.700000000000001E-003    5.732973310888443E-015
  5.800000000000001E-003    6.422582941496562E-015
  5.900000000000002E-003    6.753397096731688E-015
  6.000000000000001E-003    6.656536457857427E-015
  6.100000000000001E-003    6.085022917496446E-015
  6.200000000000002E-003    5.019654467726679E-015
  6.300000000000002E-003    3.473613346928222E-015
  6.400000000000001E-003    1.495368601262440E-015
  6.500000000000001E-003   -8.304999643753121E-016
  6.600000000000002E-003   -3.384838536708497E-015
  6.700000000000001E-003   -6.017984965733514E-015
  6.800000000000001E-003   -8.556392063134472E-015
  6.900000000000002E-003   -1.081168205830755E-014
  7.000000000000001E-003   -1.259183814680743E-014
  7.100000000000001E-003   -1.371406484283916E-014
  7.200000000000002E-003   -1.401867049811614E-014
  7.300000000000002E-003   -1.338317318426152E-014
  7.400000000000001E-003   -1.173568965626558E-014
  7.500000000000001E-003   -9.066581296534161E-015
  7.600000000000002E-003   -5.437285525882642E-015
  7.700000000000001E-003   -9.853029400283790E-016
  7.800000000000001E-003    4.075577096939592E-015
  7.900000000000001E-003    9.460524269155749E-015
  8.000000000000002E-003    1.482479515702688E-014
  8.100000000000001E-003    1.978078035509252E-014
  8.200000000000001E-003    2.392053800197298E-014
  8.300000000000002E-003    2.684292390390624E-014
  8.400000000000001E-003    2.818390131151834E-014
  8.500000000000002E-003    2.764817873993088E-014
  8.600000000000002E-003    2.503994975508635E-014
  8.700000000000001E-003    2.029024168771738E-014
  8.800000000000002E-003    1.347833252091726E-014
  8.900000000000002E-003    4.844791864469201E-015
  9.000000000000001E-003   -5.205936658895594E-015
  9.100000000000002E-003   -1.611495986343656E-014
  9.200000000000002E-003   -2.719113616211633E-014
  9.300000000000001E-003   -3.764595340890185E-014
  9.400000000000002E-003   -4.663992039450291E-014
  9.500000000000001E-003   -5.333834711904731E-014
  9.600000000000001E-003   -5.697335102020263E-014
  9.700000000000002E-003   -5.690812994315782E-014
  9.800000000000001E-003   -5.269894410431328E-014
  9.900000000000001E-003   -4.414990542983063E-014
  1.000000000000000E-002   -3.135573957157061E-014
  1.010000000000000E-002   -1.472807540202702E-014
  1.020000000000000E-002    4.998408880136273E-015
  1.030000000000000E-002    2.678250057969200E-014
  1.040000000000000E-002    4.931678449490867E-014
  1.050000000000000E-002    7.109128176094680E-014
  1.060000000000000E-002    9.047822086737968E-014
  1.070000000000000E-002    1.058339925563694E-013
  1.080000000000000E-002    1.156128547781954E-013
  1.090000000000000E-002    1.184855679461609E-013
  1.100000000000000E-002    1.134551688830462E-013
  1.110000000000000E-002    9.996164358495672E-014
  1.120000000000000E-002    7.796717706789699E-014
  1.130000000000000E-002    4.801426963408367E-014
  1.140000000000000E-002    1.125008296229752E-014
  1.150000000000000E-002   -3.058792637697382E-014
  1.160000000000000E-002   -7.522797802133395E-014
  1.170000000000000E-002   -1.199618541367716E-013
  1.180000000000000E-002   -1.617822863735350E-013
  1.190000000000000E-002   -1.975545784480718E-013
  1.200000000000000E-002   -2.242143802735636E-013
  1.210000000000000E-002   -2.389809559430664E-013
  1.220000000000000E-002   -2.395732968817293E-013
  1.230000000000000E-002   -2.244147116346538E-013
  1.240000000000000E-002   -1.928112069920187E-013
  1.250000000000000E-002   -1.450888074103315E-013
  1.260000000000000E-002   -8.267660123490649E-014
  1.270000000000000E-002   -8.124270178285803E-015
  1.280000000000000E-002    7.495361311261511E-014
  1.290000000000000E-002    1.620101799851406E-013
  1.300000000000000E-002    2.477744406587806E-013
  1.310000000000000E-002    3.265286279761569E-013
  1.320000000000000E-002    3.924426508893254E-013
  1.330000000000000E-002    4.399487047154927E-013
  1.340000000000000E-002    4.641346057251239E-013
  1.350000000000000E-002    4.611310697642417E-013
  1.360000000000000E-002    4.284661376892546E-013
  1.370000000000000E-002    3.653599192955458E-013
  1.380000000000000E-002    2.729341430838720E-013
  1.390000000000000E-002    1.543148185921310E-013
  1.400000000000000E-002    1.461157975130124E-014
  1.410000000000000E-002   -1.392358174368705E-013
  1.420000000000000E-002   -2.987450253637457E-013
  1.430000000000000E-002   -4.543049195017057E-013
  1.440000000000000E-002   -5.956988973892039E-013
  1.450000000000000E-002   -7.127120366201985E-013
  1.460000000000000E-002   -7.957889516950041E-013
  1.470000000000000E-002   -8.367036172073723E-013
  1.480000000000000E-002   -8.291977848152998E-013
  1.490000000000000E-002   -7.695447012484393E-013
  1.500000000000000E-002   -6.569956336138126E-013
  1.510000000000000E-002   -4.940715898086512E-013
  1.520000000000000E-002   -2.866698845775662E-013
  1.530000000000000E-002   -4.396493402338823E-014
  1.540000000000000E-002    2.219057658799973E-013
  1.550000000000000E-002    4.963666413977166E-013
  1.560000000000000E-002    7.631224361776265E-013
  1.570000000000000E-002    1.005039579097898E-012
  1.580000000000000E-002    1.205147299253412E-012
  1.590000000000000E-002    1.347705273530080E-012
  1.600000000000000E-002    1.419276590375714E-012
  1.610000000000000E-002    1.409740264229816E-012
  1.620000000000000E-002    1.313176206078734E-012
  1.630000000000000E-002    1.128558701105906E-012
  1.640000000000000E-002    8.602015574760959E-013
  1.650000000000000E-002    5.179087015322575E-013
  1.660000000000000E-002    1.167982892781050E-013
  1.670000000000000E-002   -3.232134139717572E-013
  1.680000000000000E-002   -7.782634693775995E-013
  1.690000000000000E-002   -1.221702156528235E-012
  1.700000000000000E-002   -1.625514431342425E-012
  1.710000000000000E-002   -1.961935277949861E-012
  1.720000000000000E-002   -2.205175270464037E-012
  1.730000000000000E-002   -2.333157633487618E-012
  1.740000000000000E-002   -2.329160723816177E-012
  1.750000000000000E-002   -2.183256363204795E-012
  1.760000000000000E-002   -1.893439486080402E-012
  1.770000000000000E-002   -1.466353903014986E-012
  1.780000000000000E-002   -9.175391819919215E-013
  1.790000000000000E-002   -2.711449930160182E-013
  1.800000000000000E-002    4.409080153959082E-013
  1.810000000000000E-002    1.180311529727951E-012
  1.820000000000000E-002    1.904250198270897E-012
  1.830000000000000E-002    2.567699118422891E-012
  1.840000000000000E-002    3.126024828216172E-012
  1.850000000000000E-002    3.537747576079021E-012
  1.860000000000000E-002    3.767306710142811E-012
  1.870000000000000E-002    3.787652201940235E-012