 -4.000000000000000E-002    0.000000000000000E+000
 -3.990000000000000E-002    0.000000000000000E+000
 -3.980000000000000E-002    0.000000000000000E+000
 -3.970000000000000E-002    0.000000000000000E+000
 -3.960000000000000E-002    0.000000000000000E+000
 -3.950000000000000E-002    0.000000000000000E+000
 -3.940000000000000E-002    0.000000000000000E+000
 -3.930000000000000E-002    0.000000000000000E+000
 -3.920000000000000E-002    0.000000000000000E+000
 -3.910000000000000E-002    0.000000000000000E+000
 -3.900000000000000E-002    0.000000000000000E+000
 -3.890000000000000E-002    0.000000000000000E+000
 -3.880000000000000E-002    0.000000000000000E+000
 -3.870000000000000E-002    0.000000000000000E+000
 -3.860000000000000E-002    0.000000000000000E+000
 -3.850000000000000E-002    0.000000000000000E+000
 -3.840000000000000E-002    0.000000000000000E+000
 -3.830000000000000E-002    0.000000000000000E+000
 -3.820000000000000E-002    0.000000000000000E+000
 -3.810000000000000E-002    0.000000000000000E+000
 -3.800000000000000E-002    0.000000000000000E+000
 -3.790000000000000E-002    0.000000000000000E+000
 -3.780000000000000E-002    0.000000000000000E+000
 -3.770000000000000E-002    0.000000000000000E+000
 -3.760000000000000E-002    0.000000000000000E+000
 -3.750000000000000E-002    0.000000000000000E+000
 -3.740000000000000E-002    0.000000000000000E+000
 -3.730000000000000E-002    0.000000000000000E+000
 -3.720000000000000E-002    0.000000000000000E+000
 -3.710000000000000E-002    0.000000000000000E+000
 -3.700000000000000E-002    0.000000000000000E+000
 -3.690000000000000E-002    0.000000000000000E+000
 -3.680000000000000E-002    0.000000000000000E+000
 -3.670000000000000E-002    0.000000000000000E+000
 -3.660000000000000E-002    0.000000000000000E+000
 -3.650000000000000E-002    0.000000000000000E+000
 -3.640000000000000E-002    0.000000000000000E+000
 -3.630000000000000E-002    0.000000000000000E+000
 -3.620000000000000E-002    0.000000000000000E+000
 -3.610000000000000E-002    0.000000000000000E+000
 -3.600000000000000E-002    0.000000000000000E+000
 -3.590000000000000E-002    0.000000000000000E+000
 -3.580000000000000E-002    0.000000000000000E+000
 -3.570000000000000E-002    0.000000000000000E+000
 -3.560000000000000E-002    0.000000000000000E+000
 -3.550000000000000E-002    0.000000000000000E+000
 -3.540000000000000E-002    0.000000000000000E+000
 -3.530000000000000E-002    0.000000000000000E+000
 -3.520000000000000E-002    0.000000000000000E+000
 -3.510000000000000E-002    0.000000000000000E+000
 -3.500000000000000E-002    0.000000000000000E+000
 -3.490000000000000E-002    0.000000000000000E+000
 -3.480000000000000E-002    0.000000000000000E+000
 -3.470000000000000E-002    0.000000000000000E+000
 -3.460000000000000E-002    0.000000000000000E+000
 -3.450000000000000E-002    0.000000000000000E+000
 -3.440000000000000E-002    0.000000000000000E+000
 -3.430000000000000E-002    0.000000000000000E+000
 -3.420000000000000E-002    0.000000000000000E+000
 -3.410000000000000E-002    0.000000000000000E+000
 -3.400000000000000E-002    0.000000000000000E+000
 -3.390000000000000E-002    0.000000000000000E+000
 -3.380000000000000E-002    0.000000000000000E+000
 -3.370000000000000E-002    0.000000000000000E+000
 -3.360000000000000E-002    0.000000000000000E+000
 -3.350000000000000E-002    0.000000000000000E+000
 -3.340000000000000E-002    0.000000000000000E+000
 -3.330000000000000E-002    0.000000000000000E+000
 -3.320000000000000E-002    0.000000000000000E+000
 -3.310000000000000E-002    0.000000000000000E+000
 -3.300000000000000E-002    0.000000000000000E+000
 -3.290000000000000E-002    0.000000000000000E+000
 -3.280000000000000E-002    0.000000000000000E+000
 -3.270000000000000E-002    0.000000000000000E+000
 -3.260000000000000E-002    0.000000000000000E+000
 -3.250000000000000E-002    0.000000000000000E+000
 -3.240000000000000E-002    0.000000000000000E+000
 -3.230000000000000E-002    0.000000000000000E+000
 -3.220000000000000E-002    0.000000000000000E+000
 -3.210000000000000E-002    0.000000000000000E+000
 -3.200000000000000E-002    0.000000000000000E+000
 -3.190000000000000E-002    0.000000000000000E+000
 -3.180000000000000E-002    0.000000000000000E+000
 -3.170000000000000E-002    0.000000000000000E+000
 -3.160000000000000E-002    0.000000000000000E+000
 -3.150000000000000E-002    0.000000000000000E+000
 -3.140000000000000E-002    0.000000000000000E+000
 -3.130000000000000E-002    0.000000000000000E+000
 -3.120000000000000E-002    0.000000000000000E+000
 -3.110000000000000E-002    0.000000000000000E+000
 -3.100000000000000E-002    0.000000000000000E+000
 -3.090000000000000E-002    0.000000000000000E+000
 -3.080000000000000E-002    0.000000000000000E+000
 -3.070000000000000E-002    0.000000000000000E+000
 -3.060000000000000E-002    0.000000000000000E+000
 -3.050000000000000E-002    0.000000000000000E+000
 -3.040000000000000E-002    0.000000000000000E+000
 -3.030000000000000E-002    0.000000000000000E+000
 -3.020000000000000E-002    0.000000000000000E+000
 -3.010000000000000E-002    0.000000000000000E+000
 -3.000000000000000E-002    0.000000000000000E+000
 -2.990000000000000E-002    0.000000000000000E+000
 -2.980000000000000E-002    0.000000000000000E+000
 -2.970000000000000E-002    0.000000000000000E+000
 -2.960000000000000E-002    0.000000000000000E+000
 -2.950000000000000E-002    0.000000000000000E+000
 -2.940000000000000E-002    0.000000000000000E+000
 -2.930000000000000E-002    0.000000000000000E+000
 -2.920000000000000E-002    0.000000000000000E+000
 -2.910000000000000E-002    0.000000000000000E+000
 -2.900000000000000E-002    0.000000000000000E+000
 -2.890000000000000E-002    0.000000000000000E+000
 -2.880000000000000E-002    0.000000000000000E+000
 -2.870000000000000E-002    0.000000000000000E+000
 -2.860000000000000E-002    0.000000000000000E+000
 -2.850000000000000E-002    0.000000000000000E+000
 -2.840000000000000E-002    0.000000000000000E+000
 -2.830000000000000E-002    0.000000000000000E+000
 -2.820000000000000E-002    0.000000000000000E+000
 -2.810000000000000E-002    0.000000000000000E+000
 -2.800000000000000E-002    0.000000000000000E+000
 -2.790000000000000E-002    0.000000000000000E+000
 -2.780000000000000E-002    0.000000000000000E+000
 -2.770000000000000E-002    0.000000000000000E+000
 -2.760000000000000E-002    0.000000000000000E+000
 -2.750000000000000E-002    0.000000000000000E+000
 -2.740000000000000E-002    0.000000000000000E+000
 -2.730000000000000E-002    0.000000000000000E+000
 -2.720000000000000E-002    0.000000000000000E+000
 -2.710000000000000E-002    0.000000000000000E+000
 -2.700000000000000E-002    0.000000000000000E+000
 -2.690000000000000E-002    0.000000000000000E+000
 -2.680000000000000E-002    0.000000000000000E+000
 -2.670000000000000E-002    0.000000000000000E+000
 -2.660000000000000E-002    0.000000000000000E+000
 -2.650000000000000E-002    0.000000000000000E+000
 -2.640000000000000E-002    0.000000000000000E+000
 -2.630000000000000E-002    0.000000000000000E+000
 -2.620000000000000E-002    0.000000000000000E+000
 -2.610000000000000E-002    0.000000000000000E+000
 -2.600000000000000E-002    0.000000000000000E+000
 -2.590000000000000E-002    0.000000000000000E+000
 -2.580000000000000E-002    0.000000000000000E+000
 -2.570000000000000E-002    0.000000000000000E+000
 -2.560000000000000E-002    0.000000000000000E+000
 -2.550000000000000E-002    0.000000000000000E+000
 -2.540000000000000E-002    0.000000000000000E+000
 -2.530000000000000E-002    0.000000000000000E+000
 -2.520000000000000E-002    0.000000000000000E+000
 -2.510000000000000E-002    0.000000000000000E+000
 -2.500000000000000E-002    0.000000000000000E+000
 -2.490000000000000E-002    0.000000000000000E+000
 -2.480000000000000E-002    0.000000000000000E+000
 -2.470000000000000E-002    0.000000000000000E+000
 -2.460000000000000E-002    0.000000000000000E+000
 -2.450000000000000E-002    0.000000000000000E+000
 -2.440000000000000E-002    0.000000000000000E+000
 -2.430000000000000E-002    0.000000000000000E+000
 -2.420000000000000E-002    0.000000000000000E+000
 -2.410000000000000E-002    0.000000000000000E+000
 -2.400000000000000E-002    0.000000000000000E+000
 -2.390000000000000E-002    0.000000000000000E+000
 -2.380000000000000E-002    0.000000000000000E+000
 -2.370000000000000E-002    0.000000000000000E+000
 -2.360000000000000E-002    0.000000000000000E+000
 -2.350000000000000E-002    0.000000000000000E+000
 -2.340000000000000E-002    0.000000000000000E+000
 -2.330000000000000E-002    0.000000000000000E+000
 -2.320000000000000E-002    0.000000000000000E+000
 -2.310000000000000E-002    0.000000000000000E+000
 -2.300000000000000E-002    0.000000000000000E+000
 -2.290000000000000E-002    0.000000000000000E+000
 -2.280000000000000E-002    0.000000000000000E+000
 -2.270000000000000E-002    0.000000000000000E+000
 -2.260000000000000E-002    0.000000000000000E+000
 -2.250000000000000E-002    0.000000000000000E+000
 -2.240000000000000E-002    0.000000000000000E+000
 -2.230000000000000E-002    0.000000000000000E+000
 -2.220000000000000E-002    0.000000000000000E+000
 -2.210000000000000E-002    0.000000000000000E+000
 -2.200000000000000E-002    0.000000000000000E+000
 -2.190000000000000E-002    0.000000000000000E+000
 -2.180000000000000E-002    0.000000000000000E+000
 -2.170000000000000E-002    0.000000000000000E+000
 -2.160000000000000E-002    0.000000000000000E+000
 -2.150000000000000E-002    0.000000000000000E+000
 -2.140000000000000E-002    0.000000000000000E+000
 -2.130000000000000E-002    0.000000000000000E+000
 -2.120000000000000E-002    0.000000000000000E+000
 -2.110000000000000E-002    0.000000000000000E+000
 -2.100000000000000E-002    0.000000000000000E+000
 -2.090000000000000E-002    0.000000000000000E+000
 -2.080000000000000E-002    0.000000000000000E+000
 -2.070000000000000E-002    0.000000000000000E+000
 -2.060000000000000E-002    0.000000000000000E+000
 -2.050000000000000E-002    0.000000000000000E+000
 -2.040000000000000E-002    0.000000000000000E+000
 -2.030000000000000E-002    0.000000000000000E+000
 -2.020000000000000E-002    0.000000000000000E+000
 -2.010000000000000E-002   -6.158248503460336E-049
 -2.000000000000000E-002   -1.231649700692067E-048
 -1.990000000000000E-002   -1.847474551038101E-048
 -1.980000000000000E-002   -2.463299401384134E-048
 -1.970000000000000E-002   -2.463299401384134E-048
 -1.960000000000000E-002   -1.784020906360355E-048
 -1.950000000000000E-002    1.933326880293938E-048
 -1.940000000000000E-002    6.882324367640297E-048
 -1.930000000000000E-002    1.306297155567872E-047
 -1.920000000000000E-002    2.228168803534766E-047
 -1.910000000000000E-002    3.385919531162333E-047
 -1.900000000000000E-002    4.475742409287522E-047
 -1.890000000000000E-002    5.760756937554006E-047
 -1.880000000000000E-002    5.270954639420569E-047
 -1.870000000000000E-002    9.546454730612619E-047
 -1.860000000000000E-002    1.171850484391682E-046
 -1.850000000000000E-002    9.290978089252065E-047
 -1.840000000000000E-002    3.128945279613093E-047
 -1.830000000000000E-002   -1.178599623542366E-046
 -1.820000000000000E-002   -2.526500343830365E-046
 -1.810000000000000E-002   -7.100781335862471E-046
 -1.800000000000000E-002   -1.195083897844488E-045
 -1.790000000000000E-002   -1.663795481517447E-045
 -1.780000000000000E-002   -2.212630201470009E-045
 -1.770000000000000E-002   -2.678886020967608E-045
 -1.760000000000000E-002   -2.976056749221052E-045
 -1.750000000000000E-002   -3.354408825905255E-045
 -1.740000000000000E-002   -2.426900019218081E-045
 -1.730000000000000E-002   -1.452061113496295E-045
 -1.720000000000000E-002    1.486613622060523E-045
 -1.710000000000000E-002    7.008258810693174E-045
 -1.700000000000000E-002    1.498739130864384E-044
 -1.690000000000000E-002    2.349734138871864E-044
 -1.680000000000000E-002    3.175290879317117E-044
 -1.670000000000000E-002    3.884583253718799E-044
 -1.660000000000000E-002    4.143226892885572E-044
 -1.650000000000000E-002    3.604192090954486E-044
 -1.640000000000000E-002    1.826361124218861E-044
 -1.630000000000000E-002   -1.346964474367553E-044
 -1.620000000000000E-002   -6.257571882191403E-044
 -1.610000000000000E-002   -1.271756134873083E-043
 -1.600000000000000E-002   -2.030611826139490E-043
 -1.590000000000000E-002   -2.787603187320973E-043
 -1.580000000000000E-002   -3.388177027018026E-043
 -1.570000000000000E-002   -3.607588620164367E-043
 -1.560000000000000E-002   -3.176641370759127E-043
 -1.550000000000000E-002   -1.819294968707194E-043
 -1.540000000000000E-002    7.173969097783785E-044
 -1.530000000000000E-002    4.552277619181935E-043
 -1.520000000000000E-002    9.607628431596742E-043
 -1.510000000000000E-002    1.553236152171047E-042
 -1.500000000000000E-002    2.155477175274754E-042
 -1.490000000000000E-002    2.647982031340014E-042
 -1.480000000000000E-002    2.869690696949116E-042
 -1.470000000000000E-002    2.627454764595182E-042
 -1.460000000000000E-002    1.714643082001813E-042
 -1.450000000000000E-002   -5.028932955712994E-044
 -1.440000000000000E-002   -2.772616122642632E-042
 -1.430000000000000E-002   -6.423768699007971E-042
 -1.420000000000000E-002   -1.077492428984392E-041
 -1.410000000000000E-002   -1.533736114555360E-041
 -1.400000000000000E-002   -1.932382523907314E-041
 -1.390000000000000E-002   -2.164194806643166E-041
 -1.380000000000000E-002   -2.095448767007461E-041
 -1.370000000000000E-002   -1.580645907980723E-041
 -1.360000000000000E-002   -4.847653857963254E-042
 -1.350000000000000E-002    1.285427452680547E-041
 -1.340000000000000E-002    3.741952951885490E-041
 -1.330000000000000E-002    6.771359112013271E-041
 -1.320000000000000E-002    1.009218824432687E-040
 -1.310000000000000E-002    1.322223925756697E-040
 -1.300000000000000E-002    1.546681764861564E-040
 -1.290000000000000E-002    1.594190701678291E-040
 -1.280000000000000E-002    1.364393610892606E-040
 -1.270000000000000E-002    7.578295142044144E-041
 -1.260000000000000E-002   -3.048997712284068E-041
 -1.250000000000000E-002   -1.857941684917878E-040
 -1.240000000000000E-002   -3.860771671362379E-040
 -1.230000000000000E-002   -6.167781513815977E-040
 -1.220000000000000E-002   -8.502279847367197E-040
 -1.210000000000000E-002   -1.044185468209649E-039
 -1.200000000000000E-002   -1.142384053902927E-039
 -1.190000000000000E-002   -1.077984930526644E-039
 -1.180000000000000E-002   -7.807774639767224E-040
 -1.170000000000000E-002   -1.886426994415486E-040
 -1.160000000000000E-002    7.367223228980380E-040
 -1.150000000000000E-002    1.990667389659096E-039
 -1.140000000000000E-002    3.504943357866665E-039
 -1.130000000000000E-002    5.128726851422579E-039
 -1.120000000000000E-002    6.615761697659665E-039
 -1.110000000000000E-002    7.623107831508315E-039
 -1.100000000000000E-002    7.727536700292638E-039
 -1.090000000000000E-002    6.465174115210297E-039
 -1.080000000000000E-002    3.398342134953919E-039
 -1.070000000000000E-002   -1.789765442013311E-039
 -1.060000000000000E-002   -9.176970954197509E-039
 -1.050000000000000E-002   -1.847161754897926E-038
 -1.040000000000000E-002   -2.888849328582846E-038
 -1.030000000000000E-002   -3.905785302037543E-038
 -1.020000000000000E-002   -4.700064960845382E-038
 -1.010000000000000E-002   -5.020626461162324E-038
 -1.000000000000000E-002   -4.584661460904721E-038
 -9.899999999999999E-003   -3.115047419268548E-038
 -9.800000000000000E-003   -3.942426185600475E-039
 -9.699999999999999E-003    3.667833687437365E-038
 -9.599999999999999E-003    8.958219316233051E-038
 -9.500000000000000E-003    1.508826292582933E-037
 -9.399999999999999E-003    2.133882615915152E-037
 -9.299999999999999E-003    2.664165604032057E-037
 -9.200000000000000E-003    2.961668038849132E-037
 -9.099999999999999E-003    2.868329010143844E-037
 -8.999999999999999E-003    2.225787498209026E-037
 -8.900000000000000E-003    9.039134524161536E-038
 -8.799999999999999E-003   -1.163289530104585E-037
 -8.699999999999999E-003   -3.937798726517273E-037
 -8.600000000000000E-003   -7.239277943846328E-037
 -8.499999999999999E-003   -1.071603650442200E-036
 -8.399999999999999E-003   -1.383444766859429E-036
 -8.300000000000000E-003   -1.589651549195270E-036
 -8.199999999999999E-003   -1.609419902614934E-036
 -8.100000000000000E-003   -1.360595919592512E-036
 -8.000000000000000E-003   -7.735636809291877E-037
 -7.899999999999999E-003    1.913868048011336E-037
 -7.800000000000000E-003    1.524886262911252E-036
 -7.699999999999999E-003    3.150181417209187E-036
 -7.599999999999999E-003    4.909270573668251E-036
 -7.499999999999999E-003    6.557674478270731E-036
 -7.399999999999999E-003    7.772140114355571E-036
 -7.299999999999999E-003    8.174964826788994E-036
 -7.199999999999999E-003    7.377128784351122E-036
 -7.100000000000000E-003    5.039965834167276E-036
 -6.999999999999999E-003    9.517978354175804E-037
 -6.899999999999999E-003   -4.887978917694867E-036
 -6.800000000000000E-003   -1.218891767943324E-035
 -6.699999999999999E-003   -2.030874807224296E-035
 -6.599999999999999E-003   -2.822910550521952E-035
 -6.499999999999999E-003   -3.458508526608755E-035
 -6.399999999999999E-003   -3.776303218529326E-035
 -6.299999999999999E-003   -3.607457589039151E-035
 -6.199999999999999E-003   -2.800499761931140E-035
 -6.100000000000000E-003   -1.252095351452385E-035
 -5.999999999999999E-003    1.059233833450914E-035
 -5.899999999999999E-003    4.040941056655218E-035
 -5.800000000000000E-003    7.461576924419215E-035
 -5.699999999999999E-003    1.093968651346349E-034
 -5.599999999999999E-003    1.395284692056605E-034
 -5.499999999999999E-003    1.587205804446426E-034
 -5.399999999999999E-003    1.602432359291656E-034
 -5.299999999999999E-003    1.378266072068778E-034
 -5.199999999999999E-003    8.678220205458651E-035
 -5.099999999999999E-003    5.240430270340886E-036
 -4.999999999999999E-003   -1.046505383942262E-034
 -4.899999999999999E-003   -2.357613437313437E-034
 -4.799999999999999E-003   -3.754731312532965E-034
 -4.699999999999999E-003   -5.058399808331298E-034
 -4.599999999999999E-003   -6.045997234926012E-034
 -4.499999999999999E-003   -6.471344362241478E-034
 -4.399999999999999E-003   -6.093691662869526E-034
 -4.299999999999999E-003   -4.714543340999722E-034
 -4.199999999999999E-003   -2.219192733502197E-034
 -4.099999999999999E-003    1.381727790823960E-034
 -3.999999999999999E-003    5.916661527802331E-034
 -3.899999999999999E-003    1.103026399656882E-033
 -3.799999999999999E-003    1.618001524285780E-033
 -3.699999999999999E-003    2.065811407088143E-033
 -3.599999999999999E-003    2.364244880076027E-033
 -3.499999999999999E-003    2.427741790589698E-033
 -3.399999999999999E-003    2.178147604995865E-033
 -3.299999999999999E-003    1.557388599595869E-033
 -3.199999999999999E-003    5.408703497433561E-034
 -3.099999999999999E-003   -8.499910623586876E-034
 -2.999999999999999E-003   -2.537971834249709E-033
 -2.899999999999999E-003   -4.384947957236608E-033
 -2.799999999999999E-003   -6.193353359655945E-033
 -2.699999999999999E-003   -7.715655323342564E-033
 -2.599999999999999E-003   -8.672663741247827E-033
 -2.499999999999999E-003   -8.780605183258854E-033
 -2.399999999999999E-003   -7.785810920862765E-033
 -2.299999999999999E-003   -5.504681126845169E-033
 -2.199999999999999E-003   -1.865400109905220E-033
 -2.099999999999999E-003    3.053165849331934E-033
 -1.999999999999999E-003    8.990748891078410E-033
 -1.899999999999999E-003    1.548885041961349E-032
 -1.799999999999999E-003    2.189335648630274E-032
 -1.699999999999999E-003    2.738131185687546E-032
 -1.599999999999999E-003    3.101504618741318E-032
 -1.499999999999999E-003    3.182454374662567E-032
 -1.399999999999999E-003    2.891599571917794E-032
 -1.299999999999999E-003    2.160091778159213E-032
 -1.199999999999999E-003    9.536292061107745E-033
 -1.099999999999999E-003   -7.137706258504856E-033
 -9.999999999999989E-004   -2.767942273266332E-032
 -8.999999999999990E-004   -5.066651330285026E-032
 -7.999999999999990E-004   -7.397654465938377E-032
 -6.999999999999989E-004   -9.484704550696747E-032
 -5.999999999999990E-004   -1.100308972283702E-031
 -4.999999999999989E-004   -1.160558806122685E-031
 -3.999999999999989E-004   -1.095869997911754E-031
 -2.999999999999989E-004   -8.787660822696464E-032
 -1.999999999999989E-004   -4.927194187947721E-032
 -9.999999999999892E-005    6.267274562305525E-033
  1.084202172485504E-018    7.670390447939653E-032
  1.000000000000011E-004    1.575860675893409E-031
  2.000000000000011E-004    2.419180112063337E-031
  3.000000000000011E-004    3.203163034415760E-031
  4.000000000000011E-004    3.815135574697157E-031
  5.000000000000011E-004    4.132437057935759E-031
  6.000000000000011E-004    4.035021598815222E-031
  7.000000000000011E-004    3.421220863745145E-031
  8.000000000000011E-004    2.225497250917956E-031
  9.000000000000012E-004    4.364213446490514E-032
  1.000000000000001E-003   -1.887398699956859E-031
  1.100000000000001E-003   -4.606049634199721E-031
  1.200000000000001E-003   -7.494393291818513E-031
  1.300000000000001E-003   -1.024790147538527E-030
  1.400000000000001E-003   -1.249998125293527E-030
  1.500000000000001E-003   -1.385144791538253E-030
  1.600000000000001E-003   -1.391137313414315E-030
  1.700000000000001E-003   -1.234686483730699E-030
  1.800000000000001E-003   -8.937606927897849E-031
  1.900000000000001E-003   -3.629414374683239E-031
  2.000000000000001E-003    3.420101508290998E-031
  2.100000000000001E-003    1.181117192460346E-030
  2.200000000000001E-003    2.089386914640070E-030
  2.300000000000001E-003    2.978819080077946E-030
  2.400000000000001E-003    3.743562013724644E-030
  2.500000000000001E-003    4.268236513758131E-030
  2.600000000000001E-003    4.439065591817842E-030
  2.700000000000001E-003    4.157048680941450E-030
  2.800000000000001E-003    3.352043616632047E-030
  2.900000000000001E-003    1.996321773801149E-030
  3.000000000000001E-003    1.159980624506919E-031
  3.100000000000001E-003   -2.201273419297409E-030
  3.200000000000001E-003   -4.803761298148483E-030
  3.300000000000001E-003   -7.479341833000881E-030
  3.400000000000001E-003   -9.965953094473723E-030
  3.500000000000001E-003   -1.196873964192761E-029
  3.600000000000001E-003   -1.318314398100115E-029
  3.700000000000001E-003   -1.332256657548265E-029
  3.800000000000001E-003   -1.214868082410057E-029
  3.900000000000001E-003   -9.502110362090000E-030
  4.000000000000001E-003   -5.330989000974532E-030
  4.100000000000001E-003    2.850825427611985E-031
  4.200000000000001E-003    7.118009372143215E-030
  4.300000000000001E-003    1.478315121419797E-029
  4.400000000000001E-003    2.274197220036205E-029
  4.500000000000001E-003    3.031676959184445E-029
  4.600000000000002E-003    3.671854281036073E-029
  4.700000000000001E-003    4.108873596242755E-029
  4.800000000000001E-003    4.255519583782526E-029
  4.900000000000002E-003    4.030211645202770E-029
  5.000000000000001E-003    3.365285118369012E-029
  5.100000000000001E-003    2.216313658061866E-029
  5.200000000000001E-003    5.720402784339450E-030
  5.300000000000002E-003   -1.535754623764933E-029
  5.400000000000001E-003   -4.023398328953450E-029
  5.500000000000001E-003   -6.748716860125041E-029
  5.600000000000002E-003   -9.508149504614986E-029
  5.700000000000001E-003   -1.203920274623023E-028
  5.800000000000001E-003   -1.402982129582780E-028
  5.900000000000002E-003   -1.513598619320095E-028
  6.000000000000001E-003   -1.500827341888345E-028
  6.100000000000001E-003   -1.332723302613375E-028
  6.200000000000002E-003   -9.846267864567554E-029
  6.300000000000002E-003   -4.439307372090678E-029
  6.400000000000001E-003    2.850912278582248E-029
  6.500000000000001E-003    1.176952202367674E-028
  6.600000000000002E-003    2.181778218651153E-028
  6.700000000000001E-003    3.224005595361898E-028
  6.800000000000001E-003    4.203635126385143E-028
  6.900000000000002E-003    5.000607002954794E-028
  7.000000000000001E-003    5.482633052071522E-028
  7.100000000000001E-003    5.516497159615130E-028
  7.200000000000002E-003    4.982425477362203E-028
  7.300000000000002E-003    3.790668980693453E-028
  7.400000000000001E-003    1.898968373810288E-028
  7.500000000000001E-003   -6.708434042581097E-029
  7.600000000000002E-003   -3.819161603648261E-028
  7.700000000000001E-003   -7.360061910276407E-028
  7.800000000000001E-003   -1.102002253456101E-027
  7.900000000000001E-003   -1.444574350441384E-027
  8.000000000000002E-003   -1.722230377367433E-027
  8.100000000000001E-003   -1.890207698484447E-027
  8.200000000000001E-003   -1.904378390531365E-027
  8.300000000000002E-003   -1.725988591227948E-027
  8.400000000000001E-003   -1.326929110061054E-027
  8.500000000000002E-003   -6.951178174260102E-028
  8.600000000000002E-003    1.605251969189294E-028
  8.700000000000001E-003    1.206097716858673E-027
  8.800000000000002E-003    2.380346467906962E-027
  8.900000000000002E-003    3.594501218374321E-027
  9.000000000000001E-003    4.734820458297051E-027
  9.100000000000002E-003    5.668208236546840E-027
  9.200000000000002E-003    6.251054052392273E-027
  9.300000000000001E-003    6.341168033814915E-027
  9.400000000000002E-003    5.812364696160301E-027
  9.500000000000001E-003    4.570888993101326E-027
  9.600000000000001E-003    2.572504681915540E-027
  9.700000000000002E-003   -1.612806145346694E-028
  9.800000000000001E-003   -3.529677551742194E-027
  9.900000000000001E-003   -7.343770980041912E-027
  1.000000000000000E-002   -1.132442373118724E-026
  1.010000000000000E-002   -1.510881390403372E-026
  1.020000000000000E-002   -1.826710413042133E-026
  1.030000000000000E-002   -2.033006835888497E-026
  1.040000000000000E-002   -2.082757975718863E-026
  1.050000000000000E-002   -1.933668334923744E-026
  1.060000000000000E-002   -1.553661476701579E-026
  1.070000000000000E-002   -9.266709521399772E-027
  1.080000000000000E-002   -5.817560951245275E-028
  1.090000000000000E-002    1.020175155907195E-026
  1.100000000000000E-002    2.247570981205102E-026
  1.110000000000000E-002    3.533412194512924E-026
  1.120000000000000E-002    4.759693260082860E-026
  1.130000000000000E-002    5.786875153732434E-026
  1.140000000000000E-002    6.463454966176859E-026
  1.150000000000000E-002    6.639079545103062E-026
  1.160000000000000E-002    6.180618103091437E-026
  1.170000000000000E-002    4.990139529880613E-026
  1.180000000000000E-002    3.023283079701029E-026
  1.190000000000000E-002    3.061154925174161E-027
  1.200000000000000E-002   -3.051704630992256E-026
  1.210000000000000E-002   -6.849709418427021E-026
  1.220000000000000E-002   -1.079745890862893E-025
  1.230000000000000E-002   -1.452510951299466E-025
  1.240000000000000E-002   -1.760469399242512E-025
  1.250000000000000E-002   -1.958212522887665E-025
  1.260000000000000E-002   -2.001877422688490E-025
  1.270000000000000E-002   -1.854020512969388E-025
  1.280000000000000E-002   -1.488836745868875E-025
  1.290000000000000E-002   -8.972448231117486E-026
  1.300000000000000E-002   -9.127561001452919E-027
  1.310000000000000E-002    8.928347413021258E-026
  1.320000000000000E-002    1.993425335885249E-025
  1.330000000000000E-002    3.124558166503556E-025
  1.340000000000000E-002    4.179871684067450E-025
  1.350000000000000E-002    5.039264501163108E-025
  1.360000000000000E-002    5.578262387147816E-025
  1.370000000000000E-002    5.679623301947069E-025
  1.380000000000000E-002    5.246423403250480E-025
  1.390000000000000E-002    4.215583728662749E-025
  1.400000000000000E-002    2.570565837330965E-025
  1.410000000000000E-002    3.518225677283778E-026
  1.420000000000000E-002   -2.336437850345541E-025
  1.430000000000000E-002   -5.324501141897261E-025
  1.440000000000000E-002   -8.381478798234626E-025
  1.450000000000000E-002   -1.122638414663853E-024
  1.460000000000000E-002   -1.354606889545130E-024
  1.470000000000000E-002   -1.501949997903794E-024
  1.480000000000000E-002   -1.534715006628233E-024
  1.490000000000000E-002   -1.428358277636469E-024
  1.500000000000000E-002   -1.167066683160179E-024
  1.510000000000000E-002   -7.468366170008516E-025
  1.520000000000000E-002   -1.779755284026910E-025
  1.530000000000000E-002    5.133123727241215E-025
  1.540000000000000E-002    1.284565483929567E-024
  1.550000000000000E-002    2.078175816690725E-024
  1.560000000000000E-002    2.824121834376395E-024
  1.570000000000000E-002    3.444346579169033E-024
  1.580000000000000E-002    3.858652546349614E-024
  1.590000000000000E-002    3.991820514645889E-024
  1.600000000000000E-002    3.781493358163746E-024
  1.610000000000000E-002    3.186215407244532E-024
  1.620000000000000E-002    2.192898956754747E-024
  1.630000000000000E-002    8.229187386236203E-025
  1.640000000000000E-002   -8.639696911423869E-025
  1.650000000000000E-002   -2.768622218092815E-024
  1.660000000000000E-002   -4.754992704309345E-024
  1.670000000000000E-002   -6.656462202443363E-024
  1.680000000000000E-002   -8.286054674392336E-024
  1.690000000000000E-002   -9.450220250037190E-024
  1.700000000000000E-002   -9.965480569798102E-024
  1.710000000000000E-002   -9.676839886607634E-024
  1.720000000000000E-002   -8.476528404951135E-024
  1.730000000000000E-002   -6.321385166143972E-024
  1.740000000000000E-002   -3.247051542141946E-024
  1.750000000000000E-002    6.228318697365959E-025
  1.760000000000000E-002    5.074034338078844E-024
  1.770000000000000E-002    9.806983370917379E-024
  1.780000000000000E-002    1.445052341965683E-023
  1.790000000000000E-002    1.858416555454267E-023
  1.800000000000000E-002    2.176801077427385E-023
  1.810000000000000E-002    2.357871126013670E-023
  1.820000000000000E-002    2.364904681974164E-023
  1.830000000000000E-002    2.170805309493517E-023
  1.840000000000000E-002    1.761818632508925E-023
  1.850000000000000E-002    1.140583794249959E-023
  1.860000000000000E-002    3.281665418636890E-024
  1.870000000000000E-002   -6.352312849384979E-024