 -4.000000000000000E-002    0.000000000000000E+000
 -3.990000000000000E-002    0.000000000000000E+000
 -3.980000000000000E-002    0.000000000000000E+000
 -3.970000000000000E-002    0.000000000000000E+000
 -3.960000000000000E-002    0.000000000000000E+000
 -3.950000000000000E-002    0.000000000000000E+000
 -3.940000000000000E-002    0.000000000000000E+000
 -3.930000000000000E-002    0.000000000000000E+000
 -3.920000000000000E-002    5.996001837568166E-031
 -3.910000000000000E-002    9.959615573557999E-030
 -3.900000000000000E-002    8.803733619526464E-029
 -3.890000000000000E-002    5.509062961148387E-028
 -3.880000000000000E-002    2.737964916603833E-027
 -3.870000000000000E-002    1.148930420141564E-026
 -3.860000000000000E-002    4.223960930627486E-026
 -3.850000000000000E-002    1.393428336712704E-025
 -3.840000000000000E-002    4.191756874395703E-025
 -3.830000000000000E-002    1.162878218900428E-024
 -3.820000000000000E-002    2.998993037854688E-024
 -3.810000000000000E-002    7.231547587778594E-024
 -3.800000000000000E-002    1.637234237140064E-023
 -3.790000000000000E-002    3.490327170910922E-023
 -3.780000000000000E-002    7.018625172458103E-023
 -3.770000000000000E-002    1.332019508037510E-022
 -3.760000000000000E-002    2.383792868888616E-022
 -3.750000000000000E-002    4.011436767214697E-022
 -3.740000000000000E-002    6.309981349201026E-022
 -3.730000000000000E-002    9.171155788998867E-022
 -3.720000000000000E-002    1.202909015373877E-021
 -3.710000000000000E-002    1.346432119963256E-021
 -3.700000000000000E-002    1.065551986877114E-021
 -3.690000000000000E-002   -1.284427868390398E-022
 -3.680000000000000E-002   -2.996940358188712E-021
 -3.670000000000000E-002   -8.615902720578606E-021
 -3.660000000000000E-002   -1.835434152402417E-020
 -3.650000000000000E-002   -3.373371917224076E-020
 -3.640000000000000E-002   -5.609919080664536E-020
 -3.630000000000000E-002   -8.602966581256758E-020
 -3.620000000000000E-002   -1.224276489108071E-019
 -3.610000000000000E-002   -1.612710576160597E-019
 -3.600000000000000E-002   -1.940863653199783E-019
 -3.590000000000000E-002   -2.063200054849613E-019
 -3.580000000000000E-002   -1.759403309067479E-019
 -3.570000000000000E-002   -7.278238039457984E-020
 -3.560000000000000E-002    1.406768275273517E-019
 -3.550000000000000E-002    5.062944720498604E-019
 -3.540000000000000E-002    1.064146701051364E-018
 -3.530000000000000E-002    1.842621133777157E-018
 -3.520000000000000E-002    2.844390970268761E-018
 -3.510000000000000E-002    4.028597003445685E-018
 -3.500000000000000E-002    5.290507097703442E-018
 -3.490000000000000E-002    6.441116897037401E-018
 -3.480000000000000E-002    7.190492464456852E-018
 -3.470000000000000E-002    7.139948775754191E-018
 -3.460000000000000E-002    5.789157884584211E-018
 -3.450000000000000E-002    2.564660773806506E-018
 -3.440000000000000E-002   -3.124304686515856E-018
 -3.430000000000000E-002   -1.179855589722024E-017
 -3.420000000000000E-002   -2.378944398193399E-017
 -3.410000000000000E-002   -3.909097251860992E-017
 -3.400000000000000E-002   -5.719348194566495E-017
 -3.390000000000000E-002   -7.691576322530920E-017
 -3.380000000000000E-002   -9.625936865574346E-017
 -3.370000000000000E-002   -1.123150529821275E-016
 -3.360000000000000E-002   -1.212551800968563E-016
 -3.350000000000000E-002   -1.184467061085345E-016
 -3.340000000000000E-002   -9.871561817195636E-017
 -3.330000000000000E-002   -5.678482284296866E-017
 -3.320000000000000E-002    1.210693040358972E-017
 -3.310000000000000E-002    1.114171012743449E-016
 -3.300000000000000E-002    2.423782978880891E-016
 -3.290000000000000E-002    4.030062633148599E-016
 -3.280000000000000E-002    5.871255887805751E-016
 -3.270000000000000E-002    7.835258733285157E-016
 -3.260000000000000E-002    9.753790600395654E-016
 -3.250000000000000E-002    1.140059144041927E-015
 -3.240000000000000E-002    1.249503707763676E-015
 -3.230000000000000E-002    1.271243752716887E-015
 -3.220000000000000E-002    1.170199304860620E-015
 -3.210000000000000E-002    9.112959915418371E-016
 -3.200000000000000E-002    4.629003106880361E-016
 -3.190000000000000E-002   -1.989999727977991E-016
 -3.180000000000000E-002   -1.086026903054240E-015
 -3.170000000000000E-002   -2.192305692596009E-015
 -3.160000000000000E-002   -3.489371595827456E-015
 -3.150000000000000E-002   -4.921544431241140E-015
 -3.140000000000000E-002   -6.402325699088658E-015
 -3.130000000000000E-002   -7.812455186604921E-015
 -3.120000000000000E-002   -9.000326433261041E-015
 -3.110000000000000E-002   -9.785473760237338E-015
 -3.100000000000000E-002   -9.965793498045607E-015
 -3.090000000000000E-002   -9.329041707734313E-015
 -3.080000000000000E-002   -7.668901296222900E-015
 -3.070000000000000E-002   -4.805573211252355E-015
 -3.060000000000000E-002   -6.103633615561772E-016
 -3.050000000000000E-002    4.966847048073796E-015
 -3.040000000000000E-002    1.186903577010196E-014
 -3.030000000000000E-002    1.990486064141818E-014
 -3.020000000000000E-002    2.872601514329854E-014
 -3.010000000000000E-002    3.781276467539324E-014
 -3.000000000000000E-002    4.647158475264183E-014
 -2.990000000000000E-002    5.384867322326038E-014
 -2.980000000000000E-002    5.896255183669560E-014
 -2.970000000000000E-002    6.075781655779312E-014
 -2.960000000000000E-002    5.818040453885664E-014
 -2.950000000000000E-002    5.027254728603708E-014
 -2.940000000000000E-002    3.628296416324098E-014
 -2.930000000000000E-002    1.578513496761185E-014
 -2.920000000000000E-002   -1.120616872588750E-014
 -2.910000000000000E-002   -4.413202828188344E-014
 -2.900000000000000E-002   -8.181344247562993E-014
 -2.890000000000000E-002   -1.224156411217942E-013
 -2.880000000000000E-002   -1.634645689223601E-013
 -2.870000000000000E-002   -2.019244324244977E-013
 -2.860000000000000E-002   -2.343407232253303E-013
 -2.850000000000000E-002   -2.570468932677729E-013
 -2.840000000000000E-002   -2.664263650184044E-013
 -2.830000000000000E-002   -2.592141128083137E-013
 -2.820000000000000E-002   -2.328157920765071E-013
 -2.810000000000000E-002   -1.856171413797014E-013
 -2.800000000000000E-002   -1.172536855528604E-013
 -2.790000000000000E-002   -2.881084850147711E-014
 -2.780000000000000E-002    7.707184879358021E-014
 -2.770000000000000E-002    1.962119116944094E-013
 -2.760000000000000E-002    3.230197843744144E-013
 -2.750000000000000E-002    4.507570330248964E-013
 -2.740000000000000E-002    5.719012178684094E-013
 -2.730000000000000E-002    6.785898045412970E-013
 -2.720000000000000E-002    7.631053497665384E-013
 -2.710000000000000E-002    8.183582074260320E-013
 -2.700000000000000E-002    8.383223021634731E-013
 -2.690000000000000E-002    8.183839294946974E-013
 -2.680000000000000E-002    7.555742732100079E-013
 -2.670000000000000E-002    6.486716498474023E-013
 -2.660000000000000E-002    4.981777487780552E-013
 -2.650000000000000E-002    3.061907963521015E-013
 -2.640000000000000E-002    7.621557413436555E-014
 -2.630000000000000E-002   -1.870383762141537E-013
 -2.620000000000000E-002   -4.778151583299652E-013
 -2.610000000000000E-002   -7.893777422969686E-013
 -2.600000000000000E-002   -1.113945915927640E-012
 -2.590000000000000E-002   -1.442497260260471E-012
 -2.580000000000000E-002   -1.764453000956721E-012
 -2.570000000000000E-002   -2.067304225056739E-012
 -2.560000000000000E-002   -2.336266479318857E-012
 -2.550000000000000E-002   -2.554074254835906E-012
 -2.540000000000000E-002   -2.701039797515056E-012
 -2.530000000000000E-002   -2.755492398004887E-012
 -2.520000000000000E-002   -2.694691373111749E-012
 -2.510000000000000E-002   -2.496259323048327E-012
 -2.500000000000000E-002   -2.140119554263206E-012
 -2.490000000000000E-002   -1.610847934715085E-012
 -2.480000000000000E-002   -9.002728402543117E-013
 -2.470000000000000E-002   -1.008456156521590E-014
 -2.460000000000000E-002    1.045835945511641E-012
 -2.450000000000000E-002    2.239687652620473E-012
 -2.440000000000000E-002    3.528927024066466E-012
 -2.430000000000000E-002    4.856614079236194E-012
 -2.420000000000000E-002    6.153098955807793E-012
 -2.410000000000000E-002    7.339104033281992E-012
 -2.400000000000000E-002    8.330105096044506E-012
 -2.390000000000000E-002    9.041768869654508E-012
 -2.380000000000000E-002    9.396057896472046E-012
 -2.370000000000000E-002    9.327494650781134E-012
 -2.360000000000000E-002    8.789011705629508E-012
 -2.350000000000000E-002    7.756803708657195E-012
 -2.340000000000000E-002    6.233647632938548E-012
 -2.330000000000000E-002    4.250287992363333E-012
 -2.320000000000000E-002    1.864661020082367E-012
 -2.310000000000000E-002   -8.410441588837010E-013
 -2.300000000000000E-002   -3.765246651595440E-012
 -2.290000000000000E-002   -6.793296085307785E-012
 -2.280000000000000E-002   -9.804596902911755E-012
 -2.270000000000000E-002   -1.267976501848874E-011
 -2.260000000000000E-002   -1.530702542012535E-011
 -2.250000000000000E-002   -1.758712315474600E-011
 -2.240000000000000E-002   -1.943621303826205E-011
 -2.230000000000000E-002   -2.078644784524178E-011
 -2.220000000000000E-002   -2.158431632275677E-011
 -2.210000000000000E-002   -2.178713314370861E-011
 -2.200000000000000E-002   -2.135839813974816E-011
 -2.190000000000000E-002   -2.026301276398027E-011
 -2.180000000000000E-002   -1.846346529469871E-011
 -2.170000000000000E-002   -1.591810687443401E-011
 -2.160000000000000E-002   -1.258246489844670E-011
 -2.150000000000000E-002   -8.414226117292035E-012
 -2.140000000000000E-002   -3.382042618646177E-012
 -2.130000000000000E-002    2.522229079740434E-012
 -2.120000000000000E-002    9.268835552348445E-012
 -2.110000000000000E-002    1.677450902454390E-011
 -2.100000000000000E-002    2.488788550859371E-011
 -2.090000000000000E-002    3.337816336055339E-011
 -2.080000000000000E-002    4.192921719883911E-011
 -2.070000000000000E-002    5.014112371164401E-011
 -2.060000000000000E-002    5.754052113874819E-011
 -2.050000000000000E-002    6.360044759462968E-011
 -2.040000000000000E-002    6.776938351238793E-011
 -2.030000000000000E-002    6.950812768328347E-011
 -2.020000000000000E-002    6.833218685183842E-011
 -2.010000000000000E-002    6.385644658737350E-011
 -2.000000000000000E-002    5.583824940513597E-011
 -1.990000000000000E-002    4.421476541297338E-011
 -1.980000000000000E-002    2.913062614456641E-011
 -1.970000000000000E-002    1.095235210276748E-011
 -1.960000000000000E-002   -9.732927797816565E-012
 -1.950000000000000E-002   -3.213571269917953E-011
 -1.940000000000000E-002   -5.529901787243012E-011
 -1.930000000000000E-002   -7.814806307648585E-011
 -1.920000000000000E-002   -9.955145078859022E-011
 -1.910000000000000E-002   -1.183891668609733E-010
 -1.900000000000000E-002   -1.336220946930630E-010
 -1.890000000000000E-002   -1.443571841929392E-010
 -1.880000000000000E-002   -1.499028954722888E-010
 -1.870000000000000E-002   -1.498101749766119E-010
 -1.860000000000000E-002   -1.438956328286222E-010
 -1.850000000000000E-002   -1.322453109592604E-010
 -1.840000000000000E-002   -1.151993421613257E-010
 -1.830000000000000E-002   -9.331967246977767E-011
 -1.820000000000000E-002   -6.734483736140307E-011
 -1.810000000000000E-002   -3.813699058740864E-011
 -1.800000000000000E-002   -6.627135929856156E-012
 -1.790000000000000E-002    2.623549457777231E-011
 -1.780000000000000E-002    5.952460330149940E-011
 -1.770000000000000E-002    9.236464663565070E-011
 -1.760000000000000E-002    1.239433006155647E-010
 -1.750000000000000E-002    1.535087278064162E-010
 -1.740000000000000E-002    1.803541348431540E-010
 -1.730000000000000E-002    2.037941714968154E-010
 -1.720000000000000E-002    2.231392311842622E-010
 -1.710000000000000E-002    2.376746401148482E-010
 -1.700000000000000E-002    2.466515477496528E-010
 -1.690000000000000E-002    2.492954741159164E-010
 -1.680000000000000E-002    2.448363608558169E-010
 -1.670000000000000E-002    2.325614298077806E-010
 -1.660000000000000E-002    2.118888853773026E-010
 -1.650000000000000E-002    1.824571700851594E-010
 -1.640000000000000E-002    1.442213994867268E-010
 -1.630000000000000E-002    9.754630356696166E-011
 -1.620000000000000E-002    4.328325560589704E-011
 -1.610000000000000E-002   -1.718079323365348E-011
 -1.600000000000000E-002   -8.191356151691743E-011
 -1.590000000000000E-002   -1.484751156524095E-010
 -1.580000000000000E-002   -2.140073089332802E-010
 -1.570000000000000E-002   -2.753740640299746E-010
 -1.560000000000000E-002   -3.293463746640305E-010
 -1.550000000000000E-002   -3.728204386366799E-010
 -1.540000000000000E-002   -4.030523484774057E-010
 -1.530000000000000E-002   -4.178895729609421E-010
 -1.520000000000000E-002   -4.159776624248309E-010
 -1.510000000000000E-002   -3.969206739543255E-010
 -1.500000000000000E-002   -3.613766525197776E-010
 -1.490000000000000E-002   -3.110739022878012E-010
 -1.480000000000000E-002   -2.487405037773130E-010
 -1.470000000000000E-002   -1.779469205852575E-010
 -1.460000000000000E-002   -1.028699627735941E-010
 -1.450000000000000E-002   -2.799425747443233E-011
 -1.440000000000000E-002    4.222558809991485E-011
 -1.430000000000000E-002    1.037143969872419E-010
 -1.420000000000000E-002    1.531069690139752E-010
 -1.410000000000000E-002    1.880297593712080E-010
 -1.400000000000000E-002    2.073072345599525E-010
 -1.390000000000000E-002    2.110726033011088E-010
 -1.380000000000000E-002    2.007709418903901E-010
 -1.370000000000000E-002    1.790525615800619E-010
 -1.360000000000000E-002    1.495647373176749E-010
 -1.350000000000000E-002    1.166594089356791E-010
 -1.340000000000000E-002    8.504270173090395E-011
 -1.330000000000000E-002    5.939712993136150E-011
 -1.320000000000000E-002    4.400985830302902E-011
 -1.310000000000000E-002    4.243932305225714E-011
 -1.300000000000000E-002    5.724745807938428E-011
 -1.290000000000000E-002    8.981812980088795E-011
 -1.280000000000000E-002    1.402720721655195E-010
 -1.270000000000000E-002    2.074786395090875E-010
 -1.260000000000000E-002    2.891547717304406E-010
 -1.250000000000000E-002    3.820321448427842E-010
 -1.240000000000000E-002    4.820677464779872E-010
 -1.230000000000000E-002    5.846704963117451E-010
 -1.220000000000000E-002    6.849169246495529E-010
 -1.210000000000000E-002    7.777335375644237E-010
 -1.200000000000000E-002    8.580313701063750E-010
 -1.190000000000000E-002    9.207877409413882E-010
 -1.180000000000000E-002    9.610813625647165E-010
 -1.170000000000000E-002    9.740957885272294E-010
 -1.160000000000000E-002    9.551162805505186E-010
 -1.150000000000000E-002    8.995487915548191E-010
 -1.140000000000000E-002    8.029899171091669E-010
 -1.130000000000000E-002    6.613751672173264E-010
 -1.120000000000000E-002    4.712213380984922E-010
 -1.110000000000000E-002    2.299700082530633E-010
 -1.100000000000000E-002   -6.357782067360861E-011
 -1.090000000000000E-002   -4.087600363899789E-010
 -1.080000000000000E-002   -8.025232948833363E-010
 -1.070000000000000E-002   -1.238915081095205E-009
 -1.060000000000000E-002   -1.708656262619791E-009
 -1.050000000000000E-002   -2.198851381343696E-009
 -1.040000000000000E-002   -2.692893625405067E-009
 -1.030000000000000E-002   -3.170605613243752E-009
 -1.020000000000000E-002   -3.608644590842674E-009
 -1.010000000000000E-002   -3.981178635381528E-009
 -1.000000000000000E-002   -4.260819493589566E-009
 -9.899999999999999E-003   -4.419774608283450E-009
 -9.800000000000000E-003   -4.431161827040519E-009
 -9.699999999999999E-003   -4.270419594057889E-009
 -9.599999999999999E-003   -3.916726473491291E-009
 -9.500000000000000E-003   -3.354356790893662E-009
 -9.399999999999999E-003   -2.573893546422587E-009
 -9.299999999999999E-003   -1.573232567158475E-009
 -9.200000000000000E-003   -3.583373679212722E-010
 -9.099999999999999E-003    1.056289479679782E-009
 -8.999999999999999E-003    2.647421561261022E-009
 -8.900000000000000E-003    4.383203615022807E-009
 -8.799999999999999E-003    6.223499944968098E-009
 -8.699999999999999E-003    8.120466530488991E-009
 -8.600000000000000E-003    1.001931614764584E-008
 -8.499999999999999E-003    1.185924220154327E-008
 -8.399999999999999E-003    1.357448691516429E-008
 -8.300000000000000E-003    1.509555829117253E-008
 -8.199999999999999E-003    1.635058863984414E-008
 -8.100000000000000E-003    1.726688070086856E-008
 -8.000000000000000E-003    1.777266180262886E-008
 -7.899999999999999E-003    1.779909541168916E-008
 -7.800000000000000E-003    1.728258822546087E-008
 -7.699999999999999E-003    1.616741348086599E-008
 -7.599999999999999E-003    1.440865855390416E-008
 -7.499999999999999E-003    1.197550789957425E-008
 -7.399999999999999E-003    8.854777758270625E-009
 -7.299999999999999E-003    5.054688828758963E-009
 -7.199999999999999E-003    6.087531371129478E-010
 -7.100000000000000E-003   -4.420314170664543E-009
 -6.999999999999999E-003   -9.936776741044331E-009
 -6.899999999999999E-003   -1.580824064244743E-008
 -6.800000000000000E-003   -2.186230859869041E-008
 -6.699999999999999E-003   -2.788364210401404E-008
 -6.599999999999999E-003   -3.361136287068146E-008
 -6.499999999999999E-003   -3.873698193457564E-008
 -6.399999999999999E-003   -4.290263209321001E-008
 -6.299999999999999E-003   -4.569977725478802E-008
 -6.199999999999999E-003   -4.666817636864847E-008
 -6.100000000000000E-003   -4.529511602170147E-008
 -5.999999999999999E-003   -4.101486281792485E-008
 -5.899999999999999E-003   -3.320824769366735E-008
 -5.800000000000000E-003   -2.120238554340403E-008
 -5.699999999999999E-003   -4.270689761619357E-009
 -5.599999999999999E-003    1.836705287404279E-008
 -5.499999999999999E-003    4.754402827544511E-008
 -5.399999999999999E-003    8.414540217289317E-008
 -5.299999999999999E-003    1.291066673151259E-007
 -5.199999999999999E-003    1.834111091885646E-007
 -5.099999999999999E-003    2.480864411960203E-007
 -4.999999999999999E-003    3.242005506380417E-007
 -4.899999999999999E-003    4.128560422757658E-007
 -4.799999999999999E-003    5.151841876179403E-007
 -4.699999999999999E-003    6.323378202347925E-007
 -4.599999999999999E-003    7.654839767992996E-007
 -4.499999999999999E-003    9.157961684681235E-007
 -4.399999999999999E-003    1.084446829209197E-006
 -4.299999999999999E-003    1.272601090909164E-006
 -4.199999999999999E-003    1.481410547684800E-006
 -4.099999999999999E-003    1.712009197251261E-006
 -3.999999999999999E-003    1.965511118709187E-006
 -3.899999999999999E-003    2.243009826253882E-006
 -3.799999999999999E-003    2.545580617679683E-006
 -3.699999999999999E-003    2.874284857550193E-006
 -3.599999999999999E-003    3.230175977314324E-006
 -3.499999999999999E-003    3.614308049610054E-006
 -3.399999999999999E-003    4.027745884944833E-006
 -3.299999999999999E-003    4.471576540208774E-006
 -3.199999999999999E-003    4.946920960230145E-006
 -3.099999999999999E-003    5.454946909201862E-006
 -2.999999999999999E-003    5.996881322515082E-006
 -2.899999999999999E-003    6.574023038843752E-006
 -2.799999999999999E-003    7.187752243885763E-006
 -2.699999999999999E-003    7.839543573668716E-006
 -2.599999999999999E-003    8.530976025918018E-006
 -2.499999999999999E-003    9.263740062458277E-006
 -2.399999999999999E-003    1.003964872625745E-005
 -2.299999999999999E-003    1.086064547040025E-005
 -2.199999999999999E-003    1.172881316280285E-005
 -2.099999999999999E-003    1.264638491571802E-005
 -1.999999999999999E-003    1.361575287311805E-005
 -1.899999999999999E-003    1.463948000418169E-005
 -1.799999999999999E-003    1.572031523268878E-005
 -1.699999999999999E-003    1.686120703399376E-005
 -1.599999999999999E-003    1.806531583867998E-005
 -1.499999999999999E-003    1.933603699177603E-005
 -1.399999999999999E-003    2.067701358831362E-005
 -1.299999999999999E-003    2.209215505541649E-005
 -1.199999999999999E-003    2.358565428845642E-005
 -1.099999999999999E-003    2.516200417381070E-005
 -9.999999999999989E-004    2.682601062789123E-005
 -8.999999999999990E-004    2.858280507246832E-005
 -7.999999999999990E-004    3.043785785329264E-005
 -6.999999999999989E-004    3.239698688621642E-005
 -5.999999999999990E-004    3.446635056327696E-005
 -4.999999999999989E-004    3.665246731867587E-005
 -3.999999999999989E-004    3.896220477032273E-005
 -2.999999999999989E-004    4.140278569216243E-005
 -1.999999999999989E-004    4.398178279718013E-005
 -9.999999999999892E-005    4.670712617130099E-005
  1.084202172485504E-018    4.958709418376353E-005
  1.000000000000011E-004    5.263032644003241E-005
  2.000000000000011E-004    5.584582347347461E-005
  3.000000000000011E-004    5.924295892445204E-005
  4.000000000000011E-004    6.283149697914993E-005
  5.000000000000011E-004    6.662160220896357E-005
  6.000000000000011E-004    7.062387543521018E-005
  7.000000000000011E-004    7.484937113173814E-005
  8.000000000000011E-004    7.930962243477832E-005
  9.000000000000012E-004    8.401669198334168E-005
  1.000000000000001E-003    8.898319118564896E-005
  1.100000000000001E-003    9.422232196696597E-005
  1.200000000000001E-003    9.974790927856126E-005
  1.300000000000001E-003    1.055744384148213E-004
  1.400000000000001E-003    1.117170770675843E-004
  1.500000000000001E-003    1.181917199876460E-004
  1.600000000000001E-003    1.250150180784348E-004
  1.700000000000001E-003    1.322043926437249E-004
  1.800000000000001E-003    1.397780539408440E-004
  1.900000000000001E-003    1.477550308840159E-004
  2.000000000000001E-003    1.561551855723956E-004
  2.100000000000001E-003    1.649992246806631E-004
  2.200000000000001E-003    1.743087427110821E-004
  2.300000000000001E-003    1.841062161920818E-004
  2.400000000000001E-003    1.944150755775144E-004
  2.500000000000001E-003    2.052596803641021E-004
  2.600000000000001E-003    2.166653950124837E-004
  2.700000000000001E-003    2.286586196853986E-004
  2.800000000000001E-003    2.412668448539862E-004
  2.900000000000001E-003    2.545186693247242E-004
  3.000000000000001E-003    2.684439265449991E-004
  3.100000000000001E-003    2.830736740545927E-004
  3.200000000000001E-003    2.984402805397917E-004
  3.300000000000001E-003    3.145775155954973E-004
  3.400000000000001E-003    3.315205914344000E-004
  3.500000000000001E-003    3.493062034496533E-004
  3.600000000000001E-003    3.679726080872307E-004
  3.700000000000001E-003    3.875596585389756E-004
  3.800000000000001E-003    4.081088794930792E-004
  3.900000000000001E-003    4.296634843137662E-004
  4.000000000000001E-003    4.522683993624369E-004
  4.100000000000001E-003    4.759703205689169E-004
  4.200000000000001E-003    5.008176704935597E-004
  4.300000000000001E-003    5.268607634983328E-004
  4.400000000000001E-003    5.541517060836606E-004
  4.500000000000001E-003    5.827444363962343E-004
  4.600000000000002E-003    6.126948027356397E-004
  4.700000000000001E-003    6.440605496120905E-004
  4.800000000000001E-003    6.769014700810144E-004
  4.900000000000002E-003    7.112793301440447E-004
  5.000000000000001E-003    7.472579800999843E-004
  5.100000000000001E-003    7.849034404826251E-004
  5.200000000000001E-003    8.242839848897035E-004
  5.300000000000002E-003    8.654702018954167E-004
  5.400000000000001E-003    9.085352175348395E-004
  5.500000000000001E-003    9.535545438400010E-004
  5.600000000000002E-003    1.000606510063029E-003
  5.700000000000001E-003    1.049771970553288E-003
  5.800000000000001E-003    1.101134764787630E-003
  5.900000000000002E-003    1.154781640987498E-003
  6.000000000000001E-003    1.210802302965842E-003
  6.100000000000001E-003    1.269289474886894E-003
  6.200000000000002E-003    1.330338969528515E-003
  6.300000000000002E-003    1.394049806308411E-003
  6.400000000000001E-003    1.460524268843328E-003
  6.500000000000001E-003    1.529867632508645E-003
  6.600000000000002E-003    1.602188473326611E-003
  6.700000000000001E-003    1.677598650757443E-003
  6.800000000000001E-003    1.756213105344935E-003
  6.900000000000002E-003    1.838150115443541E-003
  7.000000000000001E-003    1.923530965393646E-003
  7.100000000000001E-003    2.012480580022096E-003
  7.200000000000002E-003    2.105126936650461E-003
  7.300000000000002E-003    2.201601549080431E-003
  7.400000000000001E-003    2.302039066603112E-003
  7.500000000000001E-003    2.406578022635644E-003
  7.600000000000002E-003    2.515360330096106E-003
  7.700000000000001E-003    2.628531525991806E-003
  7.800000000000001E-003    2.746241121293375E-003
  7.900000000000001E-003    2.868642797189605E-003
  8.000000000000002E-003    2.995893801116091E-003
  8.100000000000001E-003    3.128155796696965E-003
  8.200000000000001E-003    3.265594566431764E-003
  8.300000000000002E-003    3.408379994243410E-003
  8.400000000000001E-003    3.556686686543617E-003
  8.500000000000002E-003    3.710693385217686E-003
  8.600000000000002E-003    3.870582871188952E-003
  8.700000000000001E-003    4.036542832894331E-003
  8.800000000000002E-003    4.208764230686852E-003
  8.900000000000002E-003    4.387442814348095E-003
  9.000000000000001E-003    4.572778246672906E-003
  9.100000000000002E-003    4.764974432081732E-003
  9.200000000000002E-003    4.964238828170463E-003
  9.300000000000001E-003    5.170782873010523E-003
  9.400000000000002E-003    5.384822067897917E-003
  9.500000000000001E-003    5.606575246097541E-003
  9.600000000000001E-003    5.836265463192007E-003
  9.700000000000002E-003    6.074119178036940E-003
  9.800000000000001E-003    6.320366692311950E-003
  9.900000000000001E-003    6.575242158043859E-003
  1.000000000000000E-002    6.838983116648897E-003
  1.010000000000000E-002    7.111831741407731E-003
  1.020000000000000E-002    7.394033673566387E-003
  1.030000000000000E-002    7.685838901232306E-003
  1.040000000000000E-002    7.987499937044009E-003
  1.050000000000000E-002    8.299273329548407E-003
  1.060000000000000E-002    8.621420795712072E-003
  1.070000000000000E-002    8.954205090785284E-003
  1.080000000000000E-002    9.297894164188381E-003
  1.090000000000000E-002    9.652758452383815E-003
  1.100000000000000E-002    1.001907172465335E-002
  1.110000000000000E-002    1.039710851833035E-002
  1.120000000000000E-002    1.078714783808254E-002
  1.130000000000000E-002    1.118946915380878E-002
  1.140000000000000E-002    1.160435382420156E-002
  1.150000000000000E-002    1.203208546365710E-002
  1.160000000000000E-002    1.247294836818029E-002
  1.170000000000000E-002    1.292722688011845E-002
  1.180000000000000E-002    1.339520764116920E-002
  1.190000000000000E-002    1.387717731030500E-002
  1.200000000000000E-002    1.437342218753578E-002
  1.210000000000000E-002    1.488423010841352E-002
  1.220000000000000E-002    1.540988771903256E-002
  1.230000000000000E-002    1.595068142458877E-002
  1.240000000000000E-002    1.650689780781765E-002
  1.250000000000000E-002    1.707882289428228E-002
  1.260000000000000E-002    1.766674201964765E-002
  1.270000000000000E-002    1.827094043914911E-002
  1.280000000000000E-002    1.889169886549068E-002
  1.290000000000000E-002    1.952929824261904E-002
  1.300000000000000E-002    2.018401756064465E-002
  1.310000000000000E-002    2.085613258111236E-002
  1.320000000000000E-002    2.154591346535633E-002
  1.330000000000000E-002    2.225362918793366E-002
  1.340000000000000E-002    2.297954230926899E-002
  1.350000000000000E-002    2.372390963061103E-002
  1.360000000000000E-002    2.448698575212239E-002
  1.370000000000000E-002    2.526901540866896E-002
  1.380000000000000E-002    2.607023760049204E-002
  1.390000000000000E-002    2.689088334842345E-002
  1.400000000000000E-002    2.773117630125001E-002
  1.410000000000000E-002    2.859133034192368E-002
  1.420000000000000E-002    2.947155260706477E-002
  1.430000000000000E-002    3.037203671534579E-002
  1.440000000000000E-002    3.129297095177252E-002
  1.450000000000000E-002    3.223453006810192E-002
  1.460000000000000E-002    3.319687738016040E-002
  1.470000000000000E-002    3.418016861607254E-002
  1.480000000000000E-002    3.518454359611350E-002
  1.490000000000000E-002    3.621013128930758E-002
  1.500000000000000E-002    3.725704395946814E-002
  1.510000000000000E-002    3.832538457870684E-002
  1.520000000000000E-002    3.941523852487584E-002
  1.530000000000000E-002    4.052667726582423E-002
  1.540000000000000E-002    4.165975927778934E-002
  1.550000000000000E-002    4.281451791668495E-002
  1.560000000000000E-002    4.399097422838044E-002
  1.570000000000000E-002    4.518912754161242E-002
  1.580000000000000E-002    4.640896229505845E-002
  1.590000000000000E-002    4.765043753612171E-002
  1.600000000000000E-002    4.891349063958103E-002
  1.610000000000000E-002    5.019804281079070E-002
  1.620000000000000E-002    5.150398894226287E-002
  1.630000000000000E-002    5.283119908351948E-002
  1.640000000000000E-002    5.417952232863724E-002
  1.650000000000000E-002    5.554878290080874E-002
  1.660000000000000E-002    5.693877738937474E-002
  1.670000000000000E-002    5.834928022676770E-002
  1.680000000000000E-002    5.978003695897163E-002
  1.690000000000000E-002    6.123076477666866E-002
  1.700000000000000E-002    6.270115767670342E-002
  1.710000000000000E-002    6.419087660732307E-002
  1.720000000000000E-002    6.569955644934676E-002
  1.730000000000000E-002    6.722680497555666E-002
  1.740000000000000E-002    6.877218498975107E-002
  1.750000000000000E-002    7.033524830118018E-002
  1.760000000000000E-002    7.191550456633175E-002
  1.770000000000000E-002    7.351242902702897E-002
  1.780000000000000E-002    7.512547311953115E-002
  1.790000000000000E-002    7.675403567643506E-002
  1.800000000000000E-002    7.839750124252240E-002
  1.810000000000000E-002    8.005520317746669E-002
  1.820000000000000E-002    8.172644747618793E-002
  1.830000000000000E-002    8.341049725192634E-002
  1.840000000000000E-002    8.510658590358916E-002
  1.850000000000000E-002    8.681390955115538E-002
  1.860000000000000E-002    8.853161316843186E-002
  1.870000000000000E-002    9.025881944657989E-002