 -4.000000000000000E-002    0.000000000000000E+000
 -3.990000000000000E-002    0.000000000000000E+000
 -3.980000000000000E-002    0.000000000000000E+000
 -3.970000000000000E-002    0.000000000000000E+000
 -3.960000000000000E-002    0.000000000000000E+000
 -3.950000000000000E-002    3.783757904829397E-021
 -3.940000000000000E-002    3.652084613119937E-020
 -3.930000000000000E-002    1.863060690994532E-019
 -3.920000000000000E-002    6.607738060804194E-019
 -3.910000000000000E-002    1.802743266889664E-018
 -3.900000000000000E-002    3.938201643073070E-018
 -3.890000000000000E-002    6.861791106845639E-018
 -3.880000000000000E-002    8.746288683637449E-018
 -3.870000000000000E-002    4.350204286737881E-018
 -3.860000000000000E-002   -1.736316459590926E-017
 -3.850000000000000E-002   -7.568456462634705E-017
 -3.840000000000000E-002   -1.996858937915753E-016
 -3.830000000000000E-002   -4.273350564778766E-016
 -3.820000000000000E-002   -8.004682965645864E-016
 -3.810000000000000E-002   -1.354076207518286E-015
 -3.800000000000000E-002   -2.099161536734374E-015
 -3.790000000000000E-002   -2.999907542265164E-015
 -3.780000000000000E-002   -3.947943744360167E-015
 -3.770000000000000E-002   -4.738773019276474E-015
 -3.760000000000000E-002   -5.057409686813798E-015
 -3.750000000000000E-002   -4.481287549453231E-015
 -3.740000000000000E-002   -2.507917332200574E-015
 -3.730000000000000E-002    1.387890898724385E-015
 -3.720000000000000E-002    7.667190935162951E-015
 -3.710000000000000E-002    1.661687382204236E-014
 -3.700000000000000E-002    2.822994433416059E-014
 -3.690000000000000E-002    4.209580351744383E-014
 -3.680000000000000E-002    5.732374385349327E-014
 -3.670000000000000E-002    7.252205776881141E-014
 -3.660000000000000E-002    8.584880327883083E-014
 -3.650000000000000E-002    9.513846371397999E-014
 -3.640000000000000E-002    9.809269075182070E-014
 -3.630000000000000E-002    9.250556617370904E-014
 -3.620000000000000E-002    7.647867648131045E-014
 -3.610000000000000E-002    4.857307661724089E-014
 -3.600000000000000E-002    7.848397062095949E-015
 -3.590000000000000E-002   -4.624276522489417E-014
 -3.580000000000000E-002   -1.141046516882602E-013
 -3.570000000000000E-002   -1.963466817602491E-013
 -3.560000000000000E-002   -2.941340190686841E-013
 -3.550000000000000E-002   -4.093984442957385E-013
 -3.540000000000000E-002   -5.447373101505764E-013
 -3.530000000000000E-002   -7.028288238462875E-013
 -3.520000000000000E-002   -8.852323802212265E-013
 -3.510000000000000E-002   -1.090526618414410E-012
 -3.500000000000000E-002   -1.311868737236438E-012
 -3.490000000000000E-002   -1.534218302915694E-012
 -3.480000000000000E-002   -1.731641504353372E-012
 -3.470000000000000E-002   -1.865264557924329E-012
 -3.460000000000000E-002   -1.882546575982766E-012
 -3.450000000000000E-002   -1.718555915946923E-012
 -3.440000000000000E-002   -1.299828647474487E-012
 -3.430000000000000E-002   -5.511582423870810E-013
 -3.420000000000000E-002    5.946932470082023E-013
 -3.410000000000000E-002    2.184840375049243E-012
 -3.400000000000000E-002    4.232652040205571E-012
 -3.390000000000000E-002    6.704143927646747E-012
 -3.380000000000000E-002    9.506246740500483E-012
 -3.370000000000000E-002    1.247902194589715E-011
 -3.360000000000000E-002    1.539383458212709E-011
 -3.350000000000000E-002    1.795914093989183E-011
 -3.340000000000000E-002    1.983486182620880E-011
 -3.330000000000000E-002    2.065537790785173E-011
 -3.320000000000000E-002    2.006005821492744E-011
 -3.310000000000000E-002    1.772902590462652E-011
 -3.300000000000000E-002    1.342087456908907E-011
 -3.290000000000000E-002    7.008260681068725E-012
 -3.280000000000000E-002   -1.493020801146222E-012
 -3.270000000000000E-002   -1.190547315224393E-011
 -3.260000000000000E-002   -2.388506584347306E-011
 -3.250000000000000E-002   -3.693173187570721E-011
 -3.240000000000000E-002   -5.041496249965465E-011
 -3.230000000000000E-002   -6.361208635028735E-011
 -3.220000000000000E-002   -7.575482564619626E-011
 -3.210000000000000E-002   -8.607821759024881E-011
 -3.200000000000000E-002   -9.386505077504252E-011
 -3.190000000000000E-002   -9.847941488910086E-011
 -3.180000000000000E-002   -9.938414408352367E-011
 -3.170000000000000E-002   -9.613954937250893E-011
 -3.160000000000000E-002   -8.838417684828378E-011
 -3.150000000000000E-002   -7.580215842419469E-011
 -3.140000000000000E-002   -5.808548465045060E-011
 -3.130000000000000E-002   -3.490262618456768E-011
 -3.120000000000000E-002   -5.886402293578987E-012
 -3.110000000000000E-002    2.934611975532377E-011
 -3.100000000000000E-002    7.113158953917085E-011
 -3.090000000000000E-002    1.196511513159750E-010
 -3.080000000000000E-002    1.747757234508287E-010
 -3.070000000000000E-002    2.358761584373963E-010
 -3.060000000000000E-002    3.016172639673300E-010
 -3.050000000000000E-002    3.697627198040044E-010
 -3.040000000000000E-002    4.370239238576303E-010
 -3.030000000000000E-002    4.989878654071487E-010
 -3.020000000000000E-002    5.501576546631442E-010
 -3.010000000000000E-002    5.841319039770837E-010
 -3.000000000000000E-002    5.939373729220126E-010
 -2.990000000000000E-002    5.725137157696833E-010
 -2.980000000000000E-002    5.133295867141037E-010
 -2.970000000000000E-002    4.110903013925898E-010
 -2.960000000000000E-002    2.624787109998856E-010
 -2.950000000000000E-002    6.685744271644098E-011
 -2.940000000000000E-002   -1.731468187241156E-010
 -2.930000000000000E-002   -4.512556421814345E-010
 -2.920000000000000E-002   -7.574163503917286E-010
 -2.910000000000000E-002   -1.077992999381377E-009
 -2.900000000000000E-002   -1.396292301611456E-009
 -2.890000000000000E-002   -1.693412747693158E-009
 -2.880000000000000E-002   -1.949369281427503E-009
 -2.870000000000000E-002   -2.144413023092398E-009
 -2.860000000000000E-002   -2.260437325741854E-009
 -2.850000000000000E-002   -2.282344364443090E-009
 -2.840000000000000E-002   -2.199241728392098E-009
 -2.830000000000000E-002   -2.005349023310138E-009
 -2.820000000000000E-002   -1.700519583931965E-009
 -2.810000000000000E-002   -1.290320086815851E-009
 -2.800000000000000E-002   -7.856584099851302E-010
 -2.790000000000000E-002   -2.020007497019693E-010
 -2.780000000000000E-002    4.417310726755981E-010
 -2.770000000000000E-002    1.124451752484046E-009
 -2.760000000000000E-002    1.824237347259563E-009
 -2.750000000000000E-002    2.519519862477174E-009
 -2.740000000000000E-002    3.190000607212132E-009
 -2.730000000000000E-002    3.817173353926282E-009
 -2.720000000000000E-002    4.384393859507021E-009
 -2.710000000000000E-002    4.876507592889509E-009
 -2.700000000000000E-002    5.279110770373216E-009
 -2.690000000000000E-002    5.577593928056241E-009
 -2.680000000000000E-002    5.756164316267817E-009
 -2.670000000000000E-002    5.797075716384300E-009
 -2.660000000000000E-002    5.680291881307070E-009
 -2.650000000000000E-002    5.383784100292289E-009
 -2.640000000000000E-002    4.884591607567153E-009
 -2.630000000000000E-002    4.160687803158952E-009
 -2.620000000000000E-002    3.193589042285133E-009
 -2.610000000000000E-002    1.971520319953735E-009
 -2.600000000000000E-002    4.928547618988264E-010
 -2.590000000000000E-002   -1.230543162644465E-009
 -2.580000000000000E-002   -3.170492615846290E-009
 -2.570000000000000E-002   -5.280608437724383E-009
 -2.560000000000000E-002   -7.495721487241138E-009
 -2.550000000000000E-002   -9.732888176193946E-009
 -2.540000000000000E-002   -1.189411955668410E-008
 -2.530000000000000E-002   -1.387080115014871E-008
 -2.520000000000000E-002   -1.554957992835823E-008
 -2.510000000000000E-002   -1.681933006809528E-008
 -2.500000000000000E-002   -1.757865033928028E-008
 -2.490000000000000E-002   -1.774326008494147E-008
 -2.480000000000000E-002   -1.725261539526775E-008
 -2.470000000000000E-002   -1.607510078732436E-008
 -2.460000000000000E-002   -1.421127739112652E-008
 -2.450000000000000E-002   -1.169481338613258E-008
 -2.440000000000000E-002   -8.590969243856108E-009
 -2.430000000000000E-002   -4.992742335686485E-009
 -2.420000000000000E-002   -1.015025406467678E-009
 -2.410000000000000E-002    3.212648145342367E-009
 -2.400000000000000E-002    7.554052749703888E-009
 -2.390000000000000E-002    1.187409971313867E-008
 -2.380000000000000E-002    1.604575870931289E-008
 -2.370000000000000E-002    1.995537855720148E-008
 -2.360000000000000E-002    2.350591680861649E-008
 -2.350000000000000E-002    2.661784399089374E-008
 -2.340000000000000E-002    2.922777209978565E-008
 -2.330000000000000E-002    3.128519042474587E-008
 -2.320000000000000E-002    3.274791199875169E-008
 -2.310000000000000E-002    3.357706919824580E-008
 -2.300000000000000E-002    3.373258327363710E-008
 -2.290000000000000E-002    3.317000750810650E-008
 -2.280000000000000E-002    3.183951807259342E-008
 -2.270000000000000E-002    2.968757885104595E-008
 -2.260000000000000E-002    2.666147760652123E-008
 -2.250000000000000E-002    2.271652160489419E-008
 -2.240000000000000E-002    1.782531405515240E-008
 -2.230000000000000E-002    1.198818726232266E-008
 -2.220000000000000E-002    5.243579965944124E-009
 -2.210000000000000E-002   -2.322976958303115E-009
 -2.200000000000000E-002   -1.057257643850184E-008
 -2.190000000000000E-002   -1.931051264015190E-008
 -2.180000000000000E-002   -2.828855174562348E-008
 -2.170000000000000E-002   -3.721227096391417E-008
 -2.160000000000000E-002   -4.575334322227148E-008
 -2.150000000000000E-002   -5.356608536667274E-008
 -2.140000000000000E-002   -6.030710031904641E-008
 -2.130000000000000E-002   -6.565644985221896E-008
 -2.120000000000000E-002   -6.933849503536366E-008
 -2.110000000000000E-002   -7.114054884180993E-008
 -2.100000000000000E-002   -7.092755819055120E-008
 -2.090000000000000E-002   -6.865139826749224E-008
 -2.080000000000000E-002   -6.435384446518004E-008
 -2.070000000000000E-002   -5.816289902302397E-008
 -2.060000000000000E-002   -5.028281172738564E-008
 -2.050000000000000E-002   -4.097879178071500E-008
 -2.040000000000000E-002   -3.055793233407832E-008
 -2.030000000000000E-002   -1.934824493440707E-008
 -2.020000000000000E-002   -7.677929177086189E-009
 -2.010000000000000E-002    4.143120196959721E-009
 -2.000000000000000E-002    1.583778958776390E-008
 -1.990000000000000E-002    2.717096034281970E-008
 -1.980000000000000E-002    3.795282262815088E-008
 -1.970000000000000E-002    4.803637252161640E-008
 -1.960000000000000E-002    5.730992146368274E-008
 -1.950000000000000E-002    6.568600858523337E-008
 -1.940000000000000E-002    7.308859384431804E-008
 -1.930000000000000E-002    7.944067835918113E-008
 -1.920000000000000E-002    8.465437206860658E-008
 -1.910000000000000E-002    8.862526159446778E-008
 -1.900000000000000E-002    9.123230425762055E-008
 -1.890000000000000E-002    9.234383510790821E-008
 -1.880000000000000E-002    9.182946092435795E-008
 -1.870000000000000E-002    8.957680816962662E-008
 -1.860000000000000E-002    8.551138158829929E-008
 -1.850000000000000E-002    7.961724554348604E-008
 -1.840000000000000E-002    7.195602493705559E-008
 -1.830000000000000E-002    6.268163667052748E-008
 -1.820000000000000E-002    5.204857931182467E-008
 -1.810000000000000E-002    4.041216842441987E-008
 -1.800000000000000E-002    2.821992055979513E-008
 -1.790000000000000E-002    1.599426791081464E-008
 -1.780000000000000E-002    4.307771204146170E-009
 -1.770000000000000E-002   -6.247157146395555E-009
 -1.760000000000000E-002   -1.509118093598242E-008
 -1.750000000000000E-002   -2.169050853925406E-008
 -1.740000000000000E-002   -2.558553565338279E-008
 -1.730000000000000E-002   -2.641261518740246E-008
 -1.720000000000000E-002   -2.391659383373331E-008
 -1.710000000000000E-002   -1.795246333430008E-008
 -1.700000000000000E-002   -8.475657945694510E-009
 -1.690000000000000E-002    4.478276036042419E-009
 -1.680000000000000E-002    2.082292517803435E-008
 -1.670000000000000E-002    4.045635477394956E-008
 -1.660000000000000E-002    6.329931039305339E-008
 -1.650000000000000E-002    8.933233649674861E-008
 -1.640000000000000E-002    1.186283522547056E-007
 -1.630000000000000E-002    1.513772854372150E-007
 -1.620000000000000E-002    1.879005640318804E-007
 -1.610000000000000E-002    2.286540647049456E-007
 -1.600000000000000E-002    2.742190996335914E-007
 -1.590000000000000E-002    3.252829520778452E-007
 -1.580000000000000E-002    3.826109481477546E-007
 -1.570000000000000E-002    4.470129426019184E-007
 -1.560000000000000E-002    5.193080286153092E-007
 -1.550000000000000E-002    6.002913369490304E-007
 -1.540000000000000E-002    6.907054187700203E-007
 -1.530000000000000E-002    7.912205044893078E-007
 -1.520000000000000E-002    9.024240399204743E-007
 -1.510000000000000E-002    1.024820768973751E-006
 -1.500000000000000E-002    1.158842810395155E-006
 -1.490000000000000E-002    1.304867534825167E-006
 -1.480000000000000E-002    1.463241100811639E-006
 -1.470000000000000E-002    1.634304135053012E-006
 -1.460000000000000E-002    1.818414958492676E-006
 -1.450000000000000E-002    2.015968827534086E-006
 -1.440000000000000E-002    2.227409019688491E-006
 -1.430000000000000E-002    2.453228241792937E-006
 -1.420000000000000E-002    2.693959647101703E-006
 -1.410000000000000E-002    2.950159068948432E-006
 -1.400000000000000E-002    3.222377720874326E-006
 -1.390000000000000E-002    3.511133493354763E-006
 -1.380000000000000E-002    3.816878840119190E-006
 -1.370000000000000E-002    4.139975167155789E-006
 -1.360000000000000E-002    4.480672742124961E-006
 -1.350000000000000E-002    4.839103681659315E-006
 -1.340000000000000E-002    5.215289019987561E-006
 -1.330000000000000E-002    5.609163574296897E-006
 -1.320000000000000E-002    6.020612842922294E-006
 -1.310000000000000E-002    6.449526862924312E-006
 -1.300000000000000E-002    6.895866879637775E-006
 -1.290000000000000E-002    7.359733683948998E-006
 -1.280000000000000E-002    7.841444173992461E-006
 -1.270000000000000E-002    8.341597784307200E-006
 -1.260000000000000E-002    8.861140565782781E-006
 -1.250000000000000E-002    9.401411827454526E-006
 -1.240000000000000E-002    9.964176501708004E-006
 -1.230000000000000E-002    1.055163613193964E-005
 -1.220000000000000E-002    1.116642503869591E-005
 -1.210000000000000E-002    1.181158545577505E-005
 -1.200000000000000E-002    1.249052769797342E-005
 -1.190000000000000E-002    1.320698236198847E-005
 -1.180000000000000E-002    1.396493972465246E-005
 -1.170000000000000E-002    1.476859446373279E-005
 -1.160000000000000E-002    1.562228693828189E-005
 -1.150000000000000E-002    1.653045443032821E-005
 -1.140000000000000E-002    1.749759549083285E-005
 -1.130000000000000E-002    1.852823818417329E-005
 -1.120000000000000E-002    1.962692921704113E-005
 -1.110000000000000E-002    2.079823465339316E-005
 -1.100000000000000E-002    2.204674585890239E-005
 -1.090000000000000E-002    2.337709864130681E-005
 -1.080000000000000E-002    2.479399750279591E-005
 -1.070000000000000E-002    2.630224238811354E-005
 -1.060000000000000E-002    2.790675546338079E-005
 -1.050000000000000E-002    2.961259848287332E-005
 -1.040000000000000E-002    3.142500267065931E-005
 -1.030000000000000E-002    3.334937072051663E-005
 -1.020000000000000E-002    3.539129464798158E-005
 -1.010000000000000E-002    3.755655146780156E-005
 -1.000000000000000E-002    3.985111006908339E-005
 -9.899999999999999E-003    4.228112341286758E-005
 -9.800000000000000E-003    4.485292239111510E-005
 -9.699999999999999E-003    4.757301279500276E-005
 -9.599999999999999E-003    5.044807676911408E-005
 -9.500000000000000E-003    5.348495710634082E-005
 -9.399999999999999E-003    5.669067233338400E-005
 -9.299999999999999E-003    6.007241011721379E-005
 -9.200000000000000E-003    6.363753835235774E-005
 -9.099999999999999E-003    6.739360560442176E-005
 -8.999999999999999E-003    7.134837194142052E-005
 -8.900000000000000E-003    7.550979875176384E-005
 -8.799999999999999E-003    7.988609755488619E-005
 -8.699999999999999E-003    8.448573972043583E-005
 -8.600000000000000E-003    8.931749982033159E-005
 -8.499999999999999E-003    9.439049587428351E-005
 -8.399999999999999E-003    9.971422327184817E-005
 -8.300000000000000E-003    1.052986255410808E-004
 -8.199999999999999E-003    1.111541633840472E-004
 -8.100000000000000E-003    1.172918510181426E-004
 -8.000000000000000E-003    1.237233328483394E-004
 -7.899999999999999E-003    1.304609554561999E-004
 -7.800000000000000E-003    1.375177952819067E-004
 -7.699999999999999E-003    1.449077549604724E-004
 -7.599999999999999E-003    1.526455365230625E-004
 -7.499999999999999E-003    1.607467021600397E-004
 -7.399999999999999E-003    1.692276851327894E-004
 -7.299999999999999E-003    1.781057292293358E-004
 -7.199999999999999E-003    1.873989387107500E-004
 -7.100000000000000E-003    1.971262112695108E-004
 -6.999999999999999E-003    2.073072128294547E-004
 -6.899999999999999E-003    2.179624085270620E-004
 -6.800000000000000E-003    2.291129826544532E-004
 -6.699999999999999E-003    2.407808717487799E-004
 -6.599999999999999E-003    2.529888654773854E-004
 -6.499999999999999E-003    2.657605727214259E-004
 -6.399999999999999E-003    2.791205333828819E-004
 -6.299999999999999E-003    2.930943458424561E-004
 -6.199999999999999E-003    3.077087505370300E-004
 -6.100000000000000E-003    3.229917781764650E-004
 -5.999999999999999E-003    3.389729228879831E-004
 -5.899999999999999E-003    3.556832222153048E-004
 -5.800000000000000E-003    3.731553427478310E-004
 -5.699999999999999E-003    3.914237850571326E-004
 -5.599999999999999E-003    4.105248480353412E-004
 -5.499999999999999E-003    4.304967136819080E-004
 -5.399999999999999E-003    4.513793935642251E-004
 -5.299999999999999E-003    4.732147609589426E-004
 -5.199999999999999E-003    4.960464721638889E-004
 -5.099999999999999E-003    5.199198412673573E-004
 -4.999999999999999E-003    5.448817545755454E-004
 -4.899999999999999E-003    5.709806768607780E-004
 -4.799999999999999E-003    5.982664119655732E-004
 -4.699999999999999E-003    6.267901679703267E-004
 -4.599999999999999E-003    6.566043580132282E-004
 -4.499999999999999E-003    6.877626379284391E-004
 -4.399999999999999E-003    7.203198446235783E-004
 -4.299999999999999E-003    7.543321108530306E-004
 -4.199999999999999E-003    7.898567539860382E-004
 -4.099999999999999E-003    8.269522703275987E-004
 -3.999999999999999E-003    8.656785175887525E-004
 -3.899999999999999E-003    9.060968295160961E-004
 -3.799999999999999E-003    9.482697069437052E-004
 -3.699999999999999E-003    9.922611613780467E-004
 -3.599999999999999E-003    1.038136710045259E-003
 -3.499999999999999E-003    1.085963359252795E-003
 -3.399999999999999E-003    1.135809677065979E-003
 -3.299999999999999E-003    1.187745638060862E-003
 -3.199999999999999E-003    1.241843008068595E-003
 -3.099999999999999E-003    1.298174950714369E-003
 -2.999999999999999E-003    1.356816466256075E-003
 -2.899999999999999E-003    1.417844273379908E-003
 -2.799999999999999E-003    1.481336990928013E-003
 -2.699999999999999E-003    1.547374966807479E-003
 -2.599999999999999E-003    1.616040584353880E-003
 -2.499999999999999E-003    1.687418185774772E-003
 -2.399999999999999E-003    1.761594622300528E-003
 -2.299999999999999E-003    1.838658496841999E-003
 -2.199999999999999E-003    1.918700889756389E-003
 -2.099999999999999E-003    2.001815208665151E-003
 -1.999999999999999E-003    2.088097241322802E-003
 -1.899999999999999E-003    2.177645252884586E-003
 -1.799999999999999E-003    2.270559869535258E-003
 -1.699999999999999E-003    2.366944187471015E-003
 -1.599999999999999E-003    2.466903414174380E-003
 -1.499999999999999E-003    2.570545600436986E-003
 -1.399999999999999E-003    2.677981291687772E-003
 -1.299999999999999E-003    2.789323299361023E-003
 -1.199999999999999E-003    2.904687453021028E-003
 -1.099999999999999E-003    3.024192162537093E-003
 -9.999999999999989E-004    3.147958254066076E-003
 -8.999999999999990E-004    3.276110101512172E-003
 -7.999999999999990E-004    3.408774564214188E-003
 -6.999999999999989E-004    3.546081972901456E-003
 -5.999999999999990E-004    3.688166133675553E-003
 -4.999999999999989E-004    3.835163599724174E-003
 -3.999999999999989E-004    3.987214545069587E-003
 -2.999999999999989E-004    4.144462363070846E-003
 -1.999999999999989E-004    4.307054294059295E-003
 -9.999999999999892E-005    4.475139975989434E-003
  1.084202172485504E-018    4.648873246291937E-003
  1.000000000000011E-004    4.828410698686639E-003
  2.000000000000011E-004    5.013911954257886E-003
  3.000000000000011E-004    5.205539709938691E-003
  4.000000000000011E-004    5.403459685707877E-003
  5.000000000000011E-004    5.607840630347001E-003
  6.000000000000011E-004    5.818853981023941E-003
  7.000000000000011E-004    6.036674228522687E-003
  8.000000000000011E-004    6.261479110936352E-003
  9.000000000000012E-004    6.493448667498144E-003
  1.000000000000001E-003    6.732767276462342E-003
  1.100000000000001E-003    6.979622188858878E-003
  1.200000000000001E-003    7.234203087841079E-003
  1.300000000000001E-003    7.496704014831154E-003
  1.400000000000001E-003    7.767322120250865E-003
  1.500000000000001E-003    8.046257559604341E-003
  1.600000000000001E-003    8.333714765145932E-003
  1.700000000000001E-003    8.629899972420705E-003
  1.800000000000001E-003    8.935024291636806E-003
  1.900000000000001E-003    9.249300085608574E-003
  2.000000000000001E-003    9.572943093896136E-003
  2.100000000000001E-003    9.906171413658620E-003
  2.200000000000001E-003    1.024920560520231E-002
  2.300000000000001E-003    1.060226838065155E-002
  2.400000000000001E-003    1.096558346658423E-002
  2.500000000000001E-003    1.133937682168325E-002
  2.600000000000001E-003    1.172387497149567E-002
  2.700000000000001E-003    1.211930799112022E-002
  2.800000000000001E-003    1.252590561798393E-002
  2.900000000000001E-003    1.294389977694003E-002
  3.000000000000001E-003    1.337352328961315E-002
  3.100000000000001E-003    1.381501118930068E-002
  3.200000000000001E-003    1.426859834050104E-002
  3.300000000000001E-003    1.473452289679675E-002
  3.400000000000001E-003    1.521302233428064E-002
  3.500000000000001E-003    1.570433809269060E-002
  3.600000000000001E-003    1.620871054813326E-002
  3.700000000000001E-003    1.672638317695205E-002
  3.800000000000001E-003    1.725759861028616E-002
  3.900000000000001E-003    1.780260298482574E-002
  4.000000000000001E-003    1.836163968524046E-002
  4.100000000000001E-003    1.893495647875123E-002
  4.200000000000001E-003    1.952279849829975E-002
  4.300000000000001E-003    2.012541281802799E-002
  4.400000000000001E-003    2.074304593209612E-002
  4.500000000000001E-003    2.137594595060638E-002
  4.600000000000002E-003    2.202435774550583E-002
  4.700000000000001E-003    2.268852852284151E-002
  4.800000000000001E-003    2.336870727923742E-002
  4.900000000000002E-003    2.406513911932798E-002
  5.000000000000001E-003    2.477807112718542E-002
  5.100000000000001E-003    2.550774820435348E-002
  5.200000000000001E-003    2.625441593722420E-002
  5.300000000000002E-003    2.701832134590471E-002
  5.400000000000001E-003    2.779970670584358E-002
  5.500000000000001E-003    2.859881645135873E-002
  5.600000000000002E-003    2.941589282039762E-002
  5.700000000000001E-003    3.025117559652887E-002
  5.800000000000001E-003    3.110490361294472E-002
  5.900000000000002E-003    3.197731483942166E-002
  6.000000000000001E-003    3.286864120824452E-002
  6.100000000000001E-003    3.377911678140369E-002
  6.200000000000002E-003    3.470897266727227E-002
  6.300000000000002E-003    3.565843202682638E-002
  6.400000000000001E-003    3.662771825389796E-002
  6.500000000000001E-003    3.761704991379316E-002
  6.600000000000002E-003    3.862664243864391E-002
  6.700000000000001E-003    3.965670847507129E-002
  6.800000000000001E-003    4.070745153962754E-002
  6.900000000000002E-003    4.177906981357846E-002
  7.000000000000001E-003    4.287176159544705E-002
  7.100000000000001E-003    4.398571999238706E-002
  7.200000000000002E-003    4.512112698138595E-002
  7.300000000000002E-003    4.627816351680038E-002
  7.400000000000001E-003    4.745700322147265E-002
  7.500000000000001E-003    4.865781523047887E-002
  7.600000000000002E-003    4.988076473151398E-002
  7.700000000000001E-003    5.112600574303228E-002
  7.800000000000001E-003    5.239368612872412E-002
  7.900000000000001E-003    5.368395460279676E-002
  8.000000000000002E-003    5.499694337364566E-002
  8.100000000000001E-003    5.633278461289772E-002
  8.200000000000001E-003    5.769160091469255E-002
  8.300000000000002E-003    5.907350868451050E-002
  8.400000000000001E-003    6.047860761822784E-002
  8.500000000000002E-003    6.190699489321368E-002
  8.600000000000002E-003    6.335875729004689E-002
  8.700000000000001E-003    6.483397315701524E-002
  8.800000000000002E-003    6.633270623460623E-002
  8.900000000000002E-003    6.785501505473836E-002
  9.000000000000001E-003    6.940094027850262E-002
  9.100000000000002E-003    7.097050954243335E-002
  9.200000000000002E-003    7.256374047772464E-002
  9.300000000000001E-003    7.418063738772586E-002
  9.400000000000002E-003    7.582120110432036E-002
  9.500000000000001E-003    7.748540142137185E-002
  9.600000000000001E-003    7.917320331063361E-002
  9.700000000000002E-003    8.088456623694697E-002
  9.800000000000001E-003    8.261943019183375E-002
  9.900000000000001E-003    8.437771063622708E-002
  1.000000000000000E-002    8.615932769785714E-002
  1.010000000000000E-002    8.796416933149874E-002
  1.020000000000000E-002    8.979211978136691E-002
  1.030000000000000E-002    9.164303963084391E-002
  1.040000000000000E-002    9.351677255371910E-002
  1.050000000000000E-002    9.541314131385525E-002
  1.060000000000000E-002    9.733196168399004E-002
  1.070000000000000E-002    9.927301564326574E-002
  1.080000000000000E-002    0.101236073713090     
  1.090000000000000E-002    0.103220876742915     
  1.100000000000000E-002    0.105227145780930     
  1.110000000000000E-002    0.107254583326459     
  1.120000000000000E-002    0.109302865061334     
  1.130000000000000E-002    0.111371641674998     
  1.140000000000000E-002    0.113460540744035     
  1.150000000000000E-002    0.115569171913450     
  1.160000000000000E-002    0.117697097095856     
  1.170000000000000E-002    0.119843885340512     
  1.180000000000000E-002    0.122009059973389     
  1.190000000000000E-002    0.124192112289954     
  1.200000000000000E-002    0.126392511843997     
  1.210000000000000E-002    0.128609704308761     
  1.220000000000000E-002    0.130843095183471     
  1.230000000000000E-002    0.133092055567362     
  1.240000000000000E-002    0.135355942161971     
  1.250000000000000E-002    0.137634052474789     
  1.260000000000000E-002    0.139925650149975     
  1.270000000000000E-002    0.142229971823294     
  1.280000000000000E-002    0.144546207891198     
  1.290000000000000E-002    0.146873510333799     
  1.300000000000000E-002    0.149210988014385     
  1.310000000000000E-002    0.151557699590836     
  1.320000000000000E-002    0.153912673637247     
  1.330000000000000E-002    0.156274896480018     
  1.340000000000000E-002    0.158643290180348     
  1.350000000000000E-002    0.161016752932816     
  1.360000000000000E-002    0.163394107812604     
  1.370000000000000E-002    0.165774169980384     
  1.380000000000000E-002    0.168155656271900     
  1.390000000000000E-002    0.170537264368433     
  1.400000000000000E-002    0.172917624408245     
  1.410000000000000E-002    0.175295309140076     
  1.420000000000000E-002    0.177668845209882     
  1.430000000000000E-002    0.180036696363796     
  1.440000000000000E-002    0.182397254517521     
  1.450000000000000E-002    0.184748862758261     
  1.460000000000000E-002    0.187089806761619     
  1.470000000000000E-002    0.189418293752811     
  1.480000000000000E-002    0.191732455381235     
  1.490000000000000E-002    0.194030380613004     
  1.500000000000000E-002    0.196310081367841     
  1.510000000000000E-002    0.198569502588714     
  1.520000000000000E-002    0.200806499254188     
  1.530000000000000E-002    0.203018872804665     
  1.540000000000000E-002    0.205204353646880     
  1.550000000000000E-002    0.207360590337988     
  1.560000000000000E-002    0.209485157809283     
  1.570000000000000E-002    0.211575555272821     
  1.580000000000000E-002    0.213629201510360     
  1.590000000000000E-002    0.215643410358948     
  1.600000000000000E-002    0.217615453238774     
  1.610000000000000E-002    0.219542487546359     
  1.620000000000000E-002    0.221421592372418     
  1.630000000000000E-002    0.223249757730413     
  1.640000000000000E-002    0.225023887913073     
  1.650000000000000E-002    0.226740806151736     
  1.660000000000000E-002    0.228397230940921     
  1.670000000000000E-002    0.229989791834347     
  1.680000000000000E-002    0.231515035591568     
  1.690000000000000E-002    0.232969408576634     
  1.700000000000000E-002    0.234349270135340     
  1.710000000000000E-002    0.235650879546778     
  1.720000000000000E-002    0.236870406650142     
  1.730000000000000E-002    0.238003908809047     
  1.740000000000000E-002    0.239047385446512     
  1.750000000000000E-002    0.239996721351237     
  1.760000000000000E-002    0.240847706787955     
  1.770000000000000E-002    0.241596029804579     
  1.780000000000000E-002    0.242237279645844     
  1.790000000000000E-002    0.242766970108643     
  1.800000000000000E-002    0.243180505803956     
  1.810000000000000E-002    0.243473206534990     
  1.820000000000000E-002    0.243640285614996     
  1.830000000000000E-002    0.243676869476430     
  1.840000000000000E-002    0.243577972224425     
  1.850000000000000E-002    0.243338568431204     
  1.860000000000000E-002    0.242953492868856     
  1.870000000000000E-002    0.242417516881253     