 -4.000000000000000E-002    0.000000000000000E+000
 -3.990000000000000E-002    0.000000000000000E+000
 -3.980000000000000E-002    0.000000000000000E+000
 -3.970000000000000E-002    0.000000000000000E+000
 -3.960000000000000E-002    0.000000000000000E+000
 -3.950000000000000E-002    0.000000000000000E+000
 -3.940000000000000E-002    0.000000000000000E+000
 -3.930000000000000E-002    0.000000000000000E+000
 -3.920000000000000E-002    0.000000000000000E+000
 -3.910000000000000E-002    0.000000000000000E+000
 -3.900000000000000E-002    0.000000000000000E+000
 -3.890000000000000E-002    0.000000000000000E+000
 -3.880000000000000E-002    0.000000000000000E+000
 -3.870000000000000E-002    0.000000000000000E+000
 -3.860000000000000E-002    0.000000000000000E+000
 -3.850000000000000E-002    0.000000000000000E+000
 -3.840000000000000E-002    0.000000000000000E+000
 -3.830000000000000E-002    0.000000000000000E+000
 -3.820000000000000E-002    0.000000000000000E+000
 -3.810000000000000E-002    0.000000000000000E+000
 -3.800000000000000E-002    0.000000000000000E+000
 -3.790000000000000E-002    0.000000000000000E+000
 -3.780000000000000E-002    0.000000000000000E+000
 -3.770000000000000E-002    0.000000000000000E+000
 -3.760000000000000E-002    0.000000000000000E+000
 -3.750000000000000E-002    0.000000000000000E+000
 -3.740000000000000E-002    0.000000000000000E+000
 -3.730000000000000E-002    0.000000000000000E+000
 -3.720000000000000E-002    0.000000000000000E+000
 -3.710000000000000E-002    0.000000000000000E+000
 -3.700000000000000E-002    0.000000000000000E+000
 -3.690000000000000E-002    0.000000000000000E+000
 -3.680000000000000E-002    0.000000000000000E+000
 -3.670000000000000E-002    0.000000000000000E+000
 -3.660000000000000E-002    0.000000000000000E+000
 -3.650000000000000E-002    0.000000000000000E+000
 -3.640000000000000E-002    0.000000000000000E+000
 -3.630000000000000E-002    0.000000000000000E+000
 -3.620000000000000E-002    0.000000000000000E+000
 -3.610000000000000E-002    0.000000000000000E+000
 -3.600000000000000E-002    0.000000000000000E+000
 -3.590000000000000E-002    0.000000000000000E+000
 -3.580000000000000E-002    0.000000000000000E+000
 -3.570000000000000E-002    0.000000000000000E+000
 -3.560000000000000E-002    0.000000000000000E+000
 -3.550000000000000E-002    0.000000000000000E+000
 -3.540000000000000E-002    0.000000000000000E+000
 -3.530000000000000E-002    0.000000000000000E+000
 -3.520000000000000E-002    0.000000000000000E+000
 -3.510000000000000E-002    0.000000000000000E+000
 -3.500000000000000E-002    0.000000000000000E+000
 -3.490000000000000E-002    0.000000000000000E+000
 -3.480000000000000E-002    0.000000000000000E+000
 -3.470000000000000E-002    0.000000000000000E+000
 -3.460000000000000E-002    0.000000000000000E+000
 -3.450000000000000E-002    0.000000000000000E+000
 -3.440000000000000E-002    0.000000000000000E+000
 -3.430000000000000E-002    0.000000000000000E+000
 -3.420000000000000E-002    0.000000000000000E+000
 -3.410000000000000E-002    0.000000000000000E+000
 -3.400000000000000E-002    0.000000000000000E+000
 -3.390000000000000E-002    0.000000000000000E+000
 -3.380000000000000E-002    0.000000000000000E+000
 -3.370000000000000E-002    0.000000000000000E+000
 -3.360000000000000E-002    0.000000000000000E+000
 -3.350000000000000E-002    0.000000000000000E+000
 -3.340000000000000E-002    0.000000000000000E+000
 -3.330000000000000E-002    0.000000000000000E+000
 -3.320000000000000E-002    0.000000000000000E+000
 -3.310000000000000E-002    0.000000000000000E+000
 -3.300000000000000E-002    0.000000000000000E+000
 -3.290000000000000E-002    0.000000000000000E+000
 -3.280000000000000E-002    0.000000000000000E+000
 -3.270000000000000E-002    0.000000000000000E+000
 -3.260000000000000E-002    0.000000000000000E+000
 -3.250000000000000E-002    0.000000000000000E+000
 -3.240000000000000E-002    0.000000000000000E+000
 -3.230000000000000E-002    0.000000000000000E+000
 -3.220000000000000E-002    0.000000000000000E+000
 -3.210000000000000E-002    0.000000000000000E+000
 -3.200000000000000E-002    0.000000000000000E+000
 -3.190000000000000E-002    0.000000000000000E+000
 -3.180000000000000E-002    0.000000000000000E+000
 -3.170000000000000E-002    0.000000000000000E+000
 -3.160000000000000E-002    0.000000000000000E+000
 -3.150000000000000E-002    0.000000000000000E+000
 -3.140000000000000E-002    0.000000000000000E+000
 -3.130000000000000E-002    0.000000000000000E+000
 -3.120000000000000E-002    0.000000000000000E+000
 -3.110000000000000E-002    0.000000000000000E+000
 -3.100000000000000E-002    0.000000000000000E+000
 -3.090000000000000E-002    0.000000000000000E+000
 -3.080000000000000E-002    0.000000000000000E+000
 -3.070000000000000E-002    0.000000000000000E+000
 -3.060000000000000E-002    0.000000000000000E+000
 -3.050000000000000E-002    0.000000000000000E+000
 -3.040000000000000E-002    0.000000000000000E+000
 -3.030000000000000E-002    0.000000000000000E+000
 -3.020000000000000E-002    0.000000000000000E+000
 -3.010000000000000E-002    0.000000000000000E+000
 -3.000000000000000E-002    0.000000000000000E+000
 -2.990000000000000E-002    0.000000000000000E+000
 -2.980000000000000E-002    0.000000000000000E+000
 -2.970000000000000E-002    0.000000000000000E+000
 -2.960000000000000E-002    0.000000000000000E+000
 -2.950000000000000E-002    0.000000000000000E+000
 -2.940000000000000E-002    0.000000000000000E+000
 -2.930000000000000E-002    0.000000000000000E+000
 -2.920000000000000E-002    0.000000000000000E+000
 -2.910000000000000E-002    0.000000000000000E+000
 -2.900000000000000E-002    0.000000000000000E+000
 -2.890000000000000E-002    0.000000000000000E+000
 -2.880000000000000E-002    0.000000000000000E+000
 -2.870000000000000E-002    0.000000000000000E+000
 -2.860000000000000E-002    0.000000000000000E+000
 -2.850000000000000E-002    0.000000000000000E+000
 -2.840000000000000E-002    0.000000000000000E+000
 -2.830000000000000E-002    0.000000000000000E+000
 -2.820000000000000E-002    0.000000000000000E+000
 -2.810000000000000E-002    0.000000000000000E+000
 -2.800000000000000E-002    0.000000000000000E+000
 -2.790000000000000E-002    0.000000000000000E+000
 -2.780000000000000E-002    0.000000000000000E+000
 -2.770000000000000E-002    0.000000000000000E+000
 -2.760000000000000E-002    0.000000000000000E+000
 -2.750000000000000E-002    0.000000000000000E+000
 -2.740000000000000E-002    0.000000000000000E+000
 -2.730000000000000E-002    0.000000000000000E+000
 -2.720000000000000E-002    0.000000000000000E+000
 -2.710000000000000E-002    0.000000000000000E+000
 -2.700000000000000E-002    0.000000000000000E+000
 -2.690000000000000E-002    0.000000000000000E+000
 -2.680000000000000E-002    0.000000000000000E+000
 -2.670000000000000E-002    0.000000000000000E+000
 -2.660000000000000E-002    0.000000000000000E+000
 -2.650000000000000E-002    0.000000000000000E+000
 -2.640000000000000E-002    0.000000000000000E+000
 -2.630000000000000E-002    2.992788674099091E-048
 -2.620000000000000E-002    1.995190995179877E-049
 -2.610000000000000E-002    9.177885121815261E-048
 -2.600000000000000E-002    2.114903981821163E-047
 -2.590000000000000E-002    1.117336536125708E-046
 -2.580000000000000E-002    1.838868175800799E-046
 -2.570000000000000E-002    2.379743962641516E-046
 -2.560000000000000E-002    2.645906452015473E-046
 -2.550000000000000E-002    1.731509505979076E-046
 -2.540000000000000E-002   -5.319721281138543E-047
 -2.530000000000000E-002   -4.172181730586396E-046
 -2.520000000000000E-002   -9.596776504183419E-046
 -2.510000000000000E-002   -1.634102530144616E-045
 -2.500000000000000E-002   -2.509533808055783E-045
 -2.490000000000000E-002   -3.024472104389934E-045
 -2.480000000000000E-002   -3.435186575888302E-045
 -2.470000000000000E-002   -2.884645753648990E-045
 -2.460000000000000E-002   -8.712222745777534E-046
 -2.450000000000000E-002    3.115520997049080E-045
 -2.440000000000000E-002    8.682645262555730E-045
 -2.430000000000000E-002    1.714754588256988E-044
 -2.420000000000000E-002    2.574582901067105E-044
 -2.410000000000000E-002    3.435323567707542E-044
 -2.400000000000000E-002    3.872997900478795E-044
 -2.390000000000000E-002    3.537230424990436E-044
 -2.380000000000000E-002    1.892671775524716E-044
 -2.370000000000000E-002   -1.567314908450168E-044
 -2.360000000000000E-002   -7.161635054383792E-044
 -2.350000000000000E-002   -1.472871437215494E-043
 -2.340000000000000E-002   -2.353396776339690E-043
 -2.330000000000000E-002   -3.172641009193756E-043
 -2.320000000000000E-002   -3.613540246488368E-043
 -2.310000000000000E-002   -3.257672169575343E-043
 -2.300000000000000E-002   -1.588096800231758E-043
 -2.290000000000000E-002    1.889167669981566E-043
 -2.280000000000000E-002    7.468371483573376E-043
 -2.270000000000000E-002    1.504853477009235E-042
 -2.260000000000000E-002    2.383023917814394E-042
 -2.250000000000000E-002    3.202297996139036E-042
 -2.240000000000000E-002    3.667507944109738E-042
 -2.230000000000000E-002    3.363750290063927E-042
 -2.220000000000000E-002    1.792751232077113E-042
 -2.210000000000000E-002   -1.542340743989224E-042
 -2.200000000000000E-002   -6.993750980897300E-042
 -2.190000000000000E-002   -1.456293686878912E-041
 -2.180000000000000E-002   -2.364711772715272E-041
 -2.170000000000000E-002   -3.277491898111507E-041
 -2.160000000000000E-002   -3.940623459790329E-041
 -2.150000000000000E-002   -3.987538568739363E-041
 -2.140000000000000E-002   -2.961435485302970E-041
 -2.130000000000000E-002   -3.763152786114894E-042
 -2.120000000000000E-002    4.172253514263264E-041
 -2.110000000000000E-002    1.084480608417148E-040
 -2.100000000000000E-002    1.935233544340953E-040
 -2.090000000000000E-002    2.873257584078759E-040
 -2.080000000000000E-002    3.715600617461696E-040
 -2.070000000000000E-002    4.182963295368759E-040
 -2.060000000000000E-002    3.908411964261500E-040
 -2.050000000000000E-002    2.473799042140936E-040
 -2.040000000000000E-002   -5.183100500277075E-041
 -2.030000000000000E-002   -5.333260468413600E-040
 -2.020000000000000E-002   -1.195728349281769E-039
 -2.010000000000000E-002   -1.992943070504009E-039
 -2.000000000000000E-002   -2.818115742042343E-039
 -1.990000000000000E-002   -3.492676525915882E-039
 -1.980000000000000E-002   -3.766104855262945E-039
 -1.970000000000000E-002   -3.332661374964425E-039
 -1.960000000000000E-002   -1.870864229493430E-039
 -1.950000000000000E-002    8.906838150399419E-040
 -1.940000000000000E-002    5.081707290866219E-039
 -1.930000000000000E-002    1.057986694819059E-038
 -1.920000000000000E-002    1.689673221784175E-038
 -1.910000000000000E-002    2.308436192699632E-038
 -1.900000000000000E-002    2.769509359117124E-038
 -1.890000000000000E-002    2.883234510827232E-038
 -1.880000000000000E-002    2.432956941125828E-038
 -1.870000000000000E-002    1.208500511075997E-038
 -1.860000000000000E-002   -9.440744493699675E-039
 -1.850000000000000E-002   -4.059011257002261E-038
 -1.840000000000000E-002   -7.980629267273190E-038
 -1.830000000000000E-002   -1.229828529577919E-037
 -1.820000000000000E-002   -1.630334126739973E-037
 -1.810000000000000E-002   -1.898852526605392E-037
 -1.800000000000000E-002   -1.911095479019717E-037
 -1.790000000000000E-002   -1.533675611814434E-037
 -1.780000000000000E-002   -6.476430159773709E-038
 -1.770000000000000E-002    8.194827100291746E-038
 -1.760000000000000E-002    2.855836977305327E-037
 -1.750000000000000E-002    5.326626113836418E-037
 -1.740000000000000E-002    7.942521094780553E-037
 -1.730000000000000E-002    1.024482565185629E-036
 -1.720000000000000E-002    1.161825552920931E-036
 -1.710000000000000E-002    1.134144463278482E-036
 -1.700000000000000E-002    8.682156887712850E-037
 -1.690000000000000E-002    3.038281737919740E-037
 -1.680000000000000E-002   -5.883033051967340E-037
 -1.670000000000000E-002   -1.786669422500880E-036
 -1.660000000000000E-002   -3.200192807408130E-036
 -1.650000000000000E-002   -4.654693905138371E-036
 -1.640000000000000E-002   -5.889477916527327E-036
 -1.630000000000000E-002   -6.569026090062406E-036
 -1.620000000000000E-002   -6.313947578778621E-036
 -1.610000000000000E-002   -4.753409382905213E-036
 -1.600000000000000E-002   -1.598118587490739E-036
 -1.590000000000000E-002    3.271265601603018E-036
 -1.580000000000000E-002    9.710286096400957E-036
 -1.570000000000000E-002    1.722633903418311E-035
 -1.560000000000000E-002    2.492279595478416E-035
 -1.550000000000000E-002    3.149277562042252E-035
 -1.540000000000000E-002    3.528297460906841E-035
 -1.530000000000000E-002    3.444334607396770E-035
 -1.520000000000000E-002    2.716947334247437E-035
 -1.510000000000000E-002    1.203115907793086E-035
 -1.500000000000000E-002   -1.163599093144029E-035
 -1.490000000000000E-002   -4.331788824502158E-035
 -1.480000000000000E-002   -8.094818799043688E-035
 -1.470000000000000E-002   -1.206478947861582E-034
 -1.460000000000000E-002   -1.566604323709616E-034
 -1.450000000000000E-002   -1.815616426109478E-034
 -1.440000000000000E-002   -1.868089529330978E-034
 -1.430000000000000E-002   -1.636646047463312E-034
 -1.420000000000000E-002   -1.044845416736741E-034
 -1.410000000000000E-002   -4.309427994233738E-036
 -1.400000000000000E-002    1.373689252870477E-034
 -1.390000000000000E-002    3.148579751320573E-034
 -1.380000000000000E-002    5.147845978203280E-034
 -1.370000000000000E-002    7.151857915762282E-034
 -1.360000000000000E-002    8.854967302636318E-034
 -1.350000000000000E-002    9.877590127401985E-034
 -1.340000000000000E-002    9.793281467347337E-034
 -1.330000000000000E-002    8.172678378302533E-034
 -1.320000000000000E-002    4.644724068257123E-034
 -1.310000000000000E-002   -1.026498379948365E-034
 -1.300000000000000E-002   -8.853707540130851E-034
 -1.290000000000000E-002   -1.853483797981249E-033
 -1.280000000000000E-002   -2.936936081526582E-033
 -1.270000000000000E-002   -4.019785647767749E-033
 -1.260000000000000E-002   -4.938364330050600E-033
 -1.250000000000000E-002   -5.485765027992654E-033
 -1.240000000000000E-002   -5.424785199671347E-033
 -1.230000000000000E-002   -4.511138184760395E-033
 -1.220000000000000E-002   -2.527956952417222E-033
 -1.210000000000000E-002    6.687446486744224E-034
 -1.200000000000000E-002    5.095969082730546E-033
 -1.190000000000000E-002    1.058587341357287E-032
 -1.180000000000000E-002    1.673199494113215E-032
 -1.170000000000000E-002    2.285042697724262E-032
 -1.160000000000000E-002    2.796931104367504E-032
 -1.150000000000000E-002    3.086129357681374E-032
 -1.140000000000000E-002    3.013283146306408E-032
 -1.130000000000000E-002    2.438053096575586E-032
 -1.120000000000000E-002    1.241747576996585E-032
 -1.110000000000000E-002   -6.438577910991630E-033
 -1.100000000000000E-002   -3.203786740831905E-032
 -1.090000000000000E-002   -6.307180784243536E-032
 -1.080000000000000E-002   -9.680342861759690E-032
 -1.070000000000000E-002   -1.289261352244190E-031
 -1.060000000000000E-002   -1.536291914478750E-031
 -1.050000000000000E-002   -1.639447786488105E-031
 -1.040000000000000E-002   -1.524329672776545E-031
 -1.030000000000000E-002   -1.122245202915070E-031
 -1.020000000000000E-002   -3.838692964304080E-032
 -1.010000000000000E-002    7.049121795472020E-032
 -1.000000000000000E-002    2.106821906581023E-031
 -9.899999999999999E-003    3.719296887730954E-031
 -9.800000000000000E-003    5.366127936706465E-031
 -9.699999999999999E-003    6.798164357739585E-031
 -9.599999999999999E-003    7.706395961654806E-031
 -9.500000000000000E-003    7.749848315097654E-031
 -9.399999999999999E-003    6.599102988568216E-031
 -9.299999999999999E-003    3.993906254439015E-031
 -9.200000000000000E-003   -1.895990221232150E-032
 -9.099999999999999E-003   -5.869698084521633E-031
 -8.999999999999999E-003   -1.269868498748537E-030
 -8.900000000000000E-003   -2.002417681935336E-030
 -8.799999999999999E-003   -2.688599832835186E-030
 -8.699999999999999E-003   -3.206132688016359E-030
 -8.600000000000000E-003   -3.416712627111267E-030
 -8.499999999999999E-003   -3.182256507654967E-030
 -8.399999999999999E-003   -2.386524826391248E-030
 -8.300000000000000E-003   -9.604417477077349E-031
 -8.199999999999999E-003    1.091705997115771E-030
 -8.100000000000000E-003    3.669037943610571E-030
 -8.000000000000000E-003    6.558395967072941E-030
 -7.899999999999999E-003    9.431000859334182E-030
 -7.800000000000000E-003    1.185576373649713E-029
 -7.699999999999999E-003    1.333225853095771E-029
 -7.599999999999999E-003    1.334420657099266E-029
 -7.499999999999999E-003    1.143139944078143E-029
 -7.399999999999999E-003    7.274569609252054E-030
 -7.299999999999999E-003    7.841869173163571E-031
 -7.199999999999999E-003   -7.818963244689189E-030
 -7.100000000000000E-003   -1.794566940937045E-029
 -6.999999999999999E-003   -2.861741444240899E-029
 -6.899999999999999E-003   -3.849593174115973E-029
 -6.800000000000000E-003   -4.597243224968638E-029
 -6.699999999999999E-003   -4.931944099875616E-029
 -6.599999999999999E-003   -4.689984984378324E-029
 -6.499999999999999E-003   -3.741820855069581E-029
 -6.399999999999999E-003   -2.018963900632174E-029
 -6.299999999999999E-003    4.606726911795543E-030
 -6.199999999999999E-003    3.572849001994302E-029
 -6.100000000000000E-003    7.076510603877611E-029
 -5.999999999999999E-003    1.061637202985214E-028
 -5.899999999999999E-003    1.374124616692335E-028
 -5.800000000000000E-003    1.593925533721588E-028
 -5.699999999999999E-003    1.668907182696102E-028
 -5.599999999999999E-003    1.552405633257520E-028
 -5.499999999999999E-003    1.210387980462731E-028
 -5.399999999999999E-003    6.286188032163375E-029
 -5.299999999999999E-003   -1.810545747630462E-029
 -5.199999999999999E-003   -1.176239748869256E-028
 -5.099999999999999E-003   -2.282250696649484E-028
 -4.999999999999999E-003   -3.393797835141188E-028
 -4.899999999999999E-003   -4.380567164765506E-028
 -4.799999999999999E-003   -5.096771256812307E-028
 -4.699999999999999E-003   -5.394336571040028E-028
 -4.599999999999999E-003   -5.138944659336077E-028
 -4.499999999999999E-003   -4.227744384003963E-028
 -4.399999999999999E-003   -2.607205145156685E-028
 -4.299999999999999E-003   -2.893595759461063E-029
 -4.199999999999999E-003    2.635417764634732E-028
 -4.099999999999999E-003    5.990905030541272E-028
 -3.999999999999999E-003    9.514424228324912E-028
 -3.899999999999999E-003    1.286444701842973E-027
 -3.799999999999999E-003    1.563731009094572E-027
 -3.699999999999999E-003    1.739341765219165E-027
 -3.599999999999999E-003    1.769268865111065E-027
 -3.499999999999999E-003    1.613828671629338E-027
 -3.399999999999999E-003    1.242683176329493E-027
 -3.299999999999999E-003    6.402315813267592E-028
 -3.199999999999999E-003   -1.890152239891314E-028
 -3.099999999999999E-003   -1.215583086216876E-027
 -2.999999999999999E-003   -2.381329987280742E-027
 -2.899999999999999E-003   -3.597610743944479E-027
 -2.799999999999999E-003   -4.746092618627845E-027
 -2.699999999999999E-003   -5.682987456419431E-027
 -2.599999999999999E-003   -6.247350055693149E-027
 -2.499999999999999E-003   -6.273833332870099E-027
 -2.399999999999999E-003   -5.609888983188126E-027
 -2.299999999999999E-003   -4.136829228150813E-027
 -2.199999999999999E-003   -1.793465643267682E-027
 -2.099999999999999E-003    1.399739089178210E-027
 -1.999999999999999E-003    5.318848568358972E-027
 -1.899999999999999E-003    9.720441543445393E-027
 -1.799999999999999E-003    1.423527716879015E-026
 -1.699999999999999E-003    1.837545830295977E-026
 -1.599999999999999E-003    2.155832530985275E-026
 -1.499999999999999E-003    2.314909214950859E-026
 -1.399999999999999E-003    2.252236093738099E-026
 -1.299999999999999E-003    1.914018642578743E-026
 -1.199999999999999E-003    1.264149511154587E-026
 -1.099999999999999E-003    2.934693125632639E-027
 -9.999999999999989E-004   -9.717399560125779E-027
 -8.999999999999990E-004   -2.463315274518013E-026
 -7.999999999999990E-004   -4.068189421313654E-026
 -6.999999999999989E-004   -5.630066163777148E-026
 -5.999999999999990E-004   -6.956809876893775E-026
 -4.999999999999989E-004   -7.834085042472027E-026
 -3.999999999999989E-004   -8.045139600092948E-026
 -2.999999999999989E-004   -7.395814658377503E-026
 -1.999999999999989E-004   -5.743006164063855E-026
 -9.999999999999892E-005   -3.023960470492513E-026
  1.084202172485504E-018    7.169243717575151E-027
  1.000000000000011E-004    5.307552123264377E-026
  2.000000000000011E-004    1.043768717396004E-025
  3.000000000000011E-004    1.566209763031137E-025
  4.000000000000011E-004    2.041990011149925E-025
  5.000000000000011E-004    2.407138008232422E-025
  6.000000000000011E-004    2.595182396499462E-025
  7.000000000000011E-004    2.543984540427626E-025
  8.000000000000011E-004    2.203558755638850E-025
  9.000000000000012E-004    1.544216476662804E-025
  1.000000000000001E-003    5.642105048016449E-026
  1.100000000000001E-003   -7.040470306706179E-026
  1.200000000000001E-003   -2.190137493222270E-025
  1.300000000000001E-003   -3.785028387372001E-025
  1.400000000000001E-003   -5.344396339001798E-025
  1.500000000000001E-003   -6.696289638660919E-025
  1.600000000000001E-003   -7.653181594849513E-025
  1.700000000000001E-003   -8.028031130434918E-025
  1.800000000000001E-003   -7.653513297071792E-025
  1.900000000000001E-003   -6.403122876649789E-025
  2.000000000000001E-003   -4.212446415508421E-025
  2.100000000000001E-003   -1.098576247705724E-025
  2.200000000000001E-003    2.824561573892418E-025
  2.300000000000001E-003    7.337220416985019E-025
  2.400000000000001E-003    1.211329558205189E-024
  2.500000000000001E-003    1.672997715636345E-024
  2.600000000000001E-003    2.068874768449481E-024
  2.700000000000001E-003    2.344809483718824E-024
  2.800000000000001E-003    2.446730269762568E-024
  2.900000000000001E-003    2.325956008263352E-024
  3.000000000000001E-003    1.945137341127319E-024
  3.100000000000001E-003    1.284402276542925E-024
  3.200000000000001E-003    3.471653016945587E-025
  3.300000000000001E-003   -8.350351739152274E-025
  3.400000000000001E-003   -2.199360238261696E-024
  3.500000000000001E-003   -3.650848438602186E-024
  3.600000000000001E-003   -5.064572756281753E-024
  3.700000000000001E-003   -6.291265290676921E-024
  3.800000000000001E-003   -7.166658756202307E-024
  3.900000000000001E-003   -7.524482790442790E-024
  4.000000000000001E-003   -7.212666138494008E-024
  4.100000000000001E-003   -6.111846610836101E-024
  4.200000000000001E-003   -4.154840145601264E-024
  4.300000000000001E-003   -1.345288726618188E-024
  4.400000000000001E-003    2.226635144599782E-024
  4.500000000000001E-003    6.373786429296718E-024
  4.600000000000002E-003    1.080916931753858E-023
  4.700000000000001E-003    1.515267622193542E-023
  4.800000000000001E-003    1.894892955761730E-023
  4.900000000000002E-003    2.169687797165462E-023
  5.000000000000001E-003    2.289069342339040E-023
  5.100000000000001E-003    2.207020491668331E-023
  5.200000000000001E-003    1.887769225362245E-023
  5.300000000000002E-003    1.311650196145008E-023
  5.400000000000001E-003    4.805771112966791E-024
  5.500000000000001E-003   -5.775267222973356E-024
  5.600000000000002E-003   -1.806019143936342E-023
  5.700000000000001E-003   -3.119190202912405E-023
  5.800000000000001E-003   -4.404799610151763E-023
  5.900000000000002E-003   -5.529827854323524E-023
  6.000000000000001E-003   -6.349506069422741E-023
  6.100000000000001E-003   -6.719361529716206E-023
  6.200000000000002E-003   -6.509659093197154E-023
  6.300000000000002E-003   -5.621252011126377E-023
  6.400000000000001E-003   -4.001529296479818E-023
  6.500000000000001E-003   -1.658888092448199E-023
  6.600000000000002E-003    1.325985551773403E-023
  6.700000000000001E-003    4.793745006689342E-023
  6.800000000000001E-003    8.506470307999868E-023
  6.900000000000002E-003    1.215540997140553E-022
  7.000000000000001E-003    1.537705559406967E-022
  7.100000000000001E-003    1.777753517047188E-022
  7.200000000000002E-003    1.896452041904526E-022
  7.300000000000002E-003    1.858498491332087E-022
  7.400000000000001E-003    1.636629875848964E-022
  7.500000000000001E-003    1.215739597543972E-022
  7.600000000000002E-003    5.966153578927187E-023
  7.700000000000001E-003   -2.011194760046980E-023
  7.800000000000001E-003   -1.137280076765175E-022
  7.900000000000001E-003   -2.150991787204890E-022
  8.000000000000002E-003   -3.162462559820568E-022
  8.100000000000001E-003   -4.076838875658837E-022
  8.200000000000001E-003   -4.790173014031189E-022
  8.300000000000002E-003   -5.197343409578250E-022
  8.400000000000001E-003   -5.201557413124093E-022
  8.500000000000002E-003   -4.724865491563612E-022
  8.600000000000002E-003   -3.718906284298042E-022
  8.700000000000001E-003   -2.174948124925453E-022
  8.800000000000002E-003   -1.321746033211782E-023
  8.900000000000002E-003    2.316869676641951E-022
  9.000000000000001E-003    5.024706385727522E-022
  9.100000000000002E-003    7.792094121500679E-022
  9.200000000000002E-003    1.037654726745769E-021
  9.300000000000001E-003    1.250642765078615E-021
  9.400000000000002E-003    1.390036876388308E-021
  9.500000000000001E-003    1.429125066278170E-021
  9.600000000000001E-003    1.345337901004649E-021
  9.700000000000002E-003    1.123096117234105E-021
  9.800000000000001E-003    7.565501909186694E-022
  9.900000000000001E-003    2.519377987081484E-022
  1.000000000000000E-002   -3.707301801464109E-022
  1.010000000000000E-002   -1.076937272612804E-021
  1.020000000000000E-002   -1.818127048729531E-021
  1.030000000000000E-002   -2.533547268908118E-021
  1.040000000000000E-002   -3.153555296581294E-021
  1.050000000000000E-002   -3.604347622183927E-021
  1.060000000000000E-002   -3.813936423189101E-021
  1.070000000000000E-002   -3.719046741341473E-021
  1.080000000000000E-002   -3.272462277624950E-021
  1.090000000000000E-002   -2.450225121425240E-021
  1.100000000000000E-002   -1.257995949020197E-021
  1.110000000000000E-002    2.641559268981510E-022
  1.120000000000000E-002    2.039250692944957E-021
  1.130000000000000E-002    3.953814315773982E-021
  1.140000000000000E-002    5.861680203837994E-021
  1.150000000000000E-002    7.591414948614301E-021
  1.160000000000000E-002    8.957311435164791E-021
  1.170000000000000E-002    9.773564277346884E-021
  1.180000000000000E-002    9.870876436125949E-021
  1.190000000000000E-002    9.114415635768465E-021
  1.200000000000000E-002    7.421725177803766E-021
  1.210000000000000E-002    4.778983785938565E-021
  1.220000000000000E-002    1.253885020602614E-021
  1.230000000000000E-002   -2.996562533050753E-021
  1.240000000000000E-002   -7.724833390860214E-021
  1.250000000000000E-002   -1.259946652372056E-020
  1.260000000000000E-002   -1.722010896799134E-020
  1.270000000000000E-002   -2.114106237226147E-020
  1.280000000000000E-002   -2.390264327748327E-020
  1.290000000000000E-002   -2.506887927123406E-020
  1.300000000000000E-002   -2.426926898506296E-020
  1.310000000000000E-002   -2.124163694098417E-020
  1.320000000000000E-002   -1.587256500042289E-020
  1.330000000000000E-002   -8.231517864003899E-021
  1.340000000000000E-002    1.405269154694289E-021
  1.350000000000000E-002    1.254479379858016E-020
  1.360000000000000E-002    2.448426593595841E-020
  1.370000000000000E-002    3.633712375739434E-020
  1.380000000000000E-002    4.707891713779339E-020
  1.390000000000000E-002    5.561226153723246E-020
  1.400000000000000E-002    6.084839172206075E-020
  1.410000000000000E-002    6.180103056121335E-020
  1.420000000000000E-002    5.768652433967258E-020
  1.430000000000000E-002    4.802282341808190E-020
  1.440000000000000E-002    3.271870838419143E-020
  1.450000000000000E-002    1.214420203672747E-020
  1.460000000000000E-002   -1.282675122814526E-020
  1.470000000000000E-002   -4.080933509598236E-020
  1.480000000000000E-002   -6.994285303578166E-020
  1.490000000000000E-002   -9.797133301001823E-020
  1.500000000000000E-002   -1.223701662511655E-019
  1.510000000000000E-002   -1.405152871011736E-019
  1.520000000000000E-002   -1.498874235184798E-019
  1.530000000000000E-002   -1.482996332781713E-019
  1.540000000000000E-002   -1.341326898217819E-019
  1.550000000000000E-002   -1.065597479906290E-019
  1.560000000000000E-002   -6.573969583878865E-020
  1.570000000000000E-002   -1.295816097981827E-020
  1.580000000000000E-002    4.930377837835317E-020
  1.590000000000000E-002    1.173900260121613E-019
  1.600000000000000E-002    1.865910823640267E-019
  1.610000000000000E-002    2.513720556771294E-019
  1.620000000000000E-002    3.057042800784826E-019
  1.630000000000000E-002    3.434884401286766E-019
  1.640000000000000E-002    3.590479198214816E-019
  1.650000000000000E-002    3.476617910268666E-019
  1.660000000000000E-002    3.060991039696879E-019
  1.670000000000000E-002    2.331103840646857E-019
  1.680000000000000E-002    1.298293496919462E-019
  1.690000000000000E-002    3.839756846062880E-023
  1.700000000000000E-002   -1.497439483334889E-019
  1.710000000000000E-002   -3.103870924942153E-019
  1.720000000000000E-002   -4.705041744715239E-019
  1.730000000000000E-002   -6.170445565775732E-019
  1.740000000000000E-002   -7.361083345442364E-019
  1.750000000000000E-002   -8.139489003780609E-019
  1.760000000000000E-002   -8.381084060877188E-019
  1.770000000000000E-002   -7.986136518674446E-019
  1.780000000000000E-002   -6.891436843629067E-019
  1.790000000000000E-002   -5.080708335866601E-019
  1.800000000000000E-002   -2.592736945409139E-019
  1.810000000000000E-002    4.737619777311435E-020
  1.820000000000000E-002    3.959385152561796E-019
  1.830000000000000E-002    7.648033747692451E-019
  1.840000000000000E-002    1.127600437620733E-018
  1.850000000000000E-002    1.454616979561357E-018
  1.860000000000000E-002    1.714682349550949E-018
  1.870000000000000E-002    1.877436064200123E-018