 -4.000000000000000E-002    0.000000000000000E+000
 -3.990000000000000E-002    0.000000000000000E+000
 -3.980000000000000E-002    0.000000000000000E+000
 -3.970000000000000E-002    0.000000000000000E+000
 -3.960000000000000E-002    0.000000000000000E+000
 -3.950000000000000E-002    0.000000000000000E+000
 -3.940000000000000E-002    0.000000000000000E+000
 -3.930000000000000E-002    0.000000000000000E+000
 -3.920000000000000E-002    0.000000000000000E+000
 -3.910000000000000E-002    0.000000000000000E+000
 -3.900000000000000E-002    0.000000000000000E+000
 -3.890000000000000E-002    0.000000000000000E+000
 -3.880000000000000E-002    0.000000000000000E+000
 -3.870000000000000E-002    0.000000000000000E+000
 -3.860000000000000E-002    0.000000000000000E+000
 -3.850000000000000E-002    0.000000000000000E+000
 -3.840000000000000E-002    0.000000000000000E+000
 -3.830000000000000E-002    0.000000000000000E+000
 -3.820000000000000E-002    0.000000000000000E+000
 -3.810000000000000E-002    0.000000000000000E+000
 -3.800000000000000E-002    0.000000000000000E+000
 -3.790000000000000E-002    0.000000000000000E+000
 -3.780000000000000E-002    0.000000000000000E+000
 -3.770000000000000E-002    0.000000000000000E+000
 -3.760000000000000E-002    0.000000000000000E+000
 -3.750000000000000E-002    0.000000000000000E+000
 -3.740000000000000E-002    0.000000000000000E+000
 -3.730000000000000E-002    0.000000000000000E+000
 -3.720000000000000E-002    0.000000000000000E+000
 -3.710000000000000E-002    0.000000000000000E+000
 -3.700000000000000E-002    0.000000000000000E+000
 -3.690000000000000E-002    0.000000000000000E+000
 -3.680000000000000E-002    0.000000000000000E+000
 -3.670000000000000E-002    0.000000000000000E+000
 -3.660000000000000E-002    0.000000000000000E+000
 -3.650000000000000E-002    0.000000000000000E+000
 -3.640000000000000E-002    0.000000000000000E+000
 -3.630000000000000E-002    0.000000000000000E+000
 -3.620000000000000E-002    0.000000000000000E+000
 -3.610000000000000E-002    0.000000000000000E+000
 -3.600000000000000E-002    0.000000000000000E+000
 -3.590000000000000E-002    0.000000000000000E+000
 -3.580000000000000E-002    0.000000000000000E+000
 -3.570000000000000E-002    0.000000000000000E+000
 -3.560000000000000E-002    0.000000000000000E+000
 -3.550000000000000E-002    0.000000000000000E+000
 -3.540000000000000E-002    0.000000000000000E+000
 -3.530000000000000E-002    0.000000000000000E+000
 -3.520000000000000E-002    0.000000000000000E+000
 -3.510000000000000E-002    0.000000000000000E+000
 -3.500000000000000E-002    0.000000000000000E+000
 -3.490000000000000E-002    0.000000000000000E+000
 -3.480000000000000E-002    0.000000000000000E+000
 -3.470000000000000E-002    0.000000000000000E+000
 -3.460000000000000E-002    0.000000000000000E+000
 -3.450000000000000E-002    0.000000000000000E+000
 -3.440000000000000E-002    0.000000000000000E+000
 -3.430000000000000E-002    0.000000000000000E+000
 -3.420000000000000E-002    0.000000000000000E+000
 -3.410000000000000E-002    0.000000000000000E+000
 -3.400000000000000E-002    0.000000000000000E+000
 -3.390000000000000E-002    0.000000000000000E+000
 -3.380000000000000E-002    0.000000000000000E+000
 -3.370000000000000E-002    0.000000000000000E+000
 -3.360000000000000E-002    0.000000000000000E+000
 -3.350000000000000E-002    0.000000000000000E+000
 -3.340000000000000E-002    0.000000000000000E+000
 -3.330000000000000E-002    0.000000000000000E+000
 -3.320000000000000E-002    0.000000000000000E+000
 -3.310000000000000E-002    0.000000000000000E+000
 -3.300000000000000E-002    0.000000000000000E+000
 -3.290000000000000E-002    0.000000000000000E+000
 -3.280000000000000E-002    0.000000000000000E+000
 -3.270000000000000E-002    0.000000000000000E+000
 -3.260000000000000E-002    0.000000000000000E+000
 -3.250000000000000E-002    0.000000000000000E+000
 -3.240000000000000E-002    0.000000000000000E+000
 -3.230000000000000E-002    0.000000000000000E+000
 -3.220000000000000E-002    0.000000000000000E+000
 -3.210000000000000E-002    0.000000000000000E+000
 -3.200000000000000E-002    0.000000000000000E+000
 -3.190000000000000E-002    0.000000000000000E+000
 -3.180000000000000E-002    0.000000000000000E+000
 -3.170000000000000E-002    0.000000000000000E+000
 -3.160000000000000E-002    0.000000000000000E+000
 -3.150000000000000E-002    0.000000000000000E+000
 -3.140000000000000E-002    0.000000000000000E+000
 -3.130000000000000E-002    0.000000000000000E+000
 -3.120000000000000E-002    0.000000000000000E+000
 -3.110000000000000E-002    0.000000000000000E+000
 -3.100000000000000E-002    0.000000000000000E+000
 -3.090000000000000E-002    0.000000000000000E+000
 -3.080000000000000E-002    0.000000000000000E+000
 -3.070000000000000E-002    0.000000000000000E+000
 -3.060000000000000E-002    0.000000000000000E+000
 -3.050000000000000E-002    0.000000000000000E+000
 -3.040000000000000E-002    0.000000000000000E+000
 -3.030000000000000E-002    0.000000000000000E+000
 -3.020000000000000E-002    0.000000000000000E+000
 -3.010000000000000E-002    0.000000000000000E+000
 -3.000000000000000E-002    0.000000000000000E+000
 -2.990000000000000E-002    0.000000000000000E+000
 -2.980000000000000E-002    0.000000000000000E+000
 -2.970000000000000E-002    0.000000000000000E+000
 -2.960000000000000E-002    0.000000000000000E+000
 -2.950000000000000E-002    0.000000000000000E+000
 -2.940000000000000E-002    0.000000000000000E+000
 -2.930000000000000E-002    0.000000000000000E+000
 -2.920000000000000E-002    0.000000000000000E+000
 -2.910000000000000E-002    0.000000000000000E+000
 -2.900000000000000E-002    0.000000000000000E+000
 -2.890000000000000E-002    0.000000000000000E+000
 -2.880000000000000E-002    0.000000000000000E+000
 -2.870000000000000E-002    0.000000000000000E+000
 -2.860000000000000E-002    0.000000000000000E+000
 -2.850000000000000E-002    0.000000000000000E+000
 -2.840000000000000E-002    0.000000000000000E+000
 -2.830000000000000E-002    0.000000000000000E+000
 -2.820000000000000E-002    0.000000000000000E+000
 -2.810000000000000E-002    0.000000000000000E+000
 -2.800000000000000E-002    0.000000000000000E+000
 -2.790000000000000E-002    0.000000000000000E+000
 -2.780000000000000E-002    0.000000000000000E+000
 -2.770000000000000E-002    0.000000000000000E+000
 -2.760000000000000E-002   -3.941889679328290E-048
 -2.750000000000000E-002   -2.379471186726655E-047
 -2.740000000000000E-002   -4.758942373453310E-047
 -2.730000000000000E-002   -8.688890186536378E-047
 -2.720000000000000E-002   -1.851536125295472E-046
 -2.710000000000000E-002   -2.145628618596059E-046
 -2.700000000000000E-002   -1.679890918605282E-046
 -2.690000000000000E-002    1.053432947077156E-047
 -2.680000000000000E-002    3.316706835635874E-046
 -2.670000000000000E-002    1.034517552179539E-045
 -2.660000000000000E-002    2.033814067975748E-045
 -2.650000000000000E-002    3.322804372309947E-045
 -2.640000000000000E-002    4.759114756053235E-045
 -2.630000000000000E-002    4.599172290747186E-045
 -2.620000000000000E-002    4.048705692003063E-045
 -2.610000000000000E-002    6.416067214122289E-046
 -2.600000000000000E-002   -5.139682826742221E-045
 -2.590000000000000E-002   -1.515042016604628E-044
 -2.580000000000000E-002   -2.993281634300793E-044
 -2.570000000000000E-002   -4.878030052094774E-044
 -2.560000000000000E-002   -6.883199347793940E-044
 -2.550000000000000E-002   -8.454084986884890E-044
 -2.540000000000000E-002   -8.993253884359866E-044
 -2.530000000000000E-002   -7.327925468473446E-044
 -2.520000000000000E-002   -2.185245413115203E-044
 -2.510000000000000E-002    7.714803279593153E-044
 -2.500000000000000E-002    2.311126763562906E-043
 -2.490000000000000E-002    4.384890514833593E-043
 -2.480000000000000E-002    6.802233341387076E-043
 -2.470000000000000E-002    9.141389342707298E-043
 -2.460000000000000E-002    1.065935886101386E-042
 -2.450000000000000E-002    1.032584558904698E-042
 -2.440000000000000E-002    6.895094747671313E-043
 -2.430000000000000E-002   -8.557359105371955E-044
 -2.420000000000000E-002   -1.378507574393869E-042
 -2.410000000000000E-002   -3.179893829214633E-042
 -2.400000000000000E-002   -5.319139958897555E-042
 -2.390000000000000E-002   -7.402253131281131E-042
 -2.380000000000000E-002   -8.762836500612780E-042
 -2.370000000000000E-002   -8.471356853125546E-042
 -2.360000000000000E-002   -5.429850930819097E-042
 -2.350000000000000E-002    1.409530999235976E-042
 -2.340000000000000E-002    1.267540092427711E-041
 -2.330000000000000E-002    2.806846439875658E-041
 -2.320000000000000E-002    4.575233843154224E-041
 -2.310000000000000E-002    6.177614999672155E-041
 -2.300000000000000E-002    6.971147509623615E-041
 -2.290000000000000E-002    6.079000223247253E-041
 -2.280000000000000E-002    2.485554089289029E-041
 -2.270000000000000E-002   -4.754621458745397E-041
 -2.260000000000000E-002   -1.617566766032981E-040
 -2.250000000000000E-002   -3.142935697785267E-040
 -2.240000000000000E-002   -4.873216938595216E-040
 -2.230000000000000E-002   -6.433140972180338E-040
 -2.220000000000000E-002   -7.215907166223932E-040
 -2.210000000000000E-002   -6.390578519969272E-040
 -2.200000000000000E-002   -2.978835482489087E-040
 -2.190000000000000E-002    3.972278923427137E-040
 -2.180000000000000E-002    1.510338044989882E-039
 -2.170000000000000E-002    3.034280696203029E-039
 -2.160000000000000E-002    4.842641756555608E-039
 -2.150000000000000E-002    6.641346574103482E-039
 -2.140000000000000E-002    7.932606278267835E-039
 -2.130000000000000E-002    8.008980988323404E-039
 -2.120000000000000E-002    5.998831302598638E-039
 -2.110000000000000E-002    9.845656386895192E-040
 -2.100000000000000E-002   -7.790266555678591E-039
 -2.090000000000000E-002   -2.062182011059047E-038
 -2.080000000000000E-002   -3.697305178935494E-038
 -2.070000000000000E-002   -5.507542210675742E-038
 -2.060000000000000E-002   -7.158943504097444E-038
 -2.050000000000000E-002   -8.144451177014866E-038
 -2.040000000000000E-002   -7.800635628445035E-038
 -2.030000000000000E-002   -5.372726801315567E-038
 -2.020000000000000E-002   -1.408014960904435E-039
 -2.010000000000000E-002    8.387368437473876E-038
 -2.000000000000000E-002    2.022422839144016E-037
 -1.990000000000000E-002    3.461697309625382E-037
 -1.980000000000000E-002    4.977719269055050E-037
 -1.970000000000000E-002    6.269776377452550E-037
 -1.960000000000000E-002    6.914880815715078E-037
 -1.950000000000000E-002    6.395325752443542E-037
 -1.940000000000000E-002    4.163269361457978E-037
 -1.930000000000000E-002   -2.522435630004070E-038
 -1.920000000000000E-002   -7.097234897863944E-037
 -1.910000000000000E-002   -1.621527408859832E-036
 -1.900000000000000E-002   -2.686482011189583E-036
 -1.890000000000000E-002   -3.756968136591767E-036
 -1.880000000000000E-002   -4.605324980160035E-036
 -1.870000000000000E-002   -4.931457068706191E-036
 -1.860000000000000E-002   -4.390243409484263E-036
 -1.850000000000000E-002   -2.642833734253174E-036
 -1.840000000000000E-002    5.672721098471326E-037
 -1.830000000000000E-002    5.317448632396191E-036
 -1.820000000000000E-002    1.139906201034515E-035
 -1.810000000000000E-002    1.821845531029582E-035
 -1.800000000000000E-002    2.473080419645591E-035
 -1.790000000000000E-002    2.943686441515106E-035
 -1.780000000000000E-002    3.047360832136560E-035
 -1.770000000000000E-002    2.582456616300714E-035
 -1.760000000000000E-002    1.366264641608796E-035
 -1.750000000000000E-002   -7.183499127565152E-036
 -1.740000000000000E-002   -3.667838723438647E-035
 -1.730000000000000E-002   -7.301792621897641E-035
 -1.720000000000000E-002   -1.121668495191404E-034
 -1.710000000000000E-002   -1.476345209636293E-034
 -1.700000000000000E-002   -1.706419571677736E-034
 -1.690000000000000E-002   -1.708217828921620E-034
 -1.680000000000000E-002   -1.375481053722585E-034
 -1.670000000000000E-002   -6.191027875114962E-035
 -1.660000000000000E-002    6.077701609735552E-035
 -1.650000000000000E-002    2.281857302371217E-034
 -1.640000000000000E-002    4.283305575971828E-034
 -1.630000000000000E-002    6.376400019226920E-034
 -1.620000000000000E-002    8.204122222176423E-034
 -1.610000000000000E-002    9.303371103046843E-034
 -1.600000000000000E-002    9.146515463194056E-034
 -1.590000000000000E-002    7.212295278325773E-034
 -1.580000000000000E-002    3.084823545658620E-034
 -1.570000000000000E-002   -3.426225078811387E-034
 -1.560000000000000E-002   -1.215772008150060E-033
 -1.550000000000000E-002   -2.247754673614460E-033
 -1.540000000000000E-002   -3.320691943407009E-033
 -1.530000000000000E-002   -4.260890673089577E-033
 -1.520000000000000E-002   -4.847040490636665E-033
 -1.510000000000000E-002   -4.829857808441312E-033
 -1.500000000000000E-002   -3.964071385949536E-033
 -1.490000000000000E-002   -2.051863390626915E-033
 -1.480000000000000E-002    1.005357965235465E-033
 -1.470000000000000E-002    5.152450546516738E-033
 -1.460000000000000E-002    1.013127886823555E-032
 -1.450000000000000E-002    1.544655269565296E-032
 -1.440000000000000E-002    2.035752696585573E-032
 -1.430000000000000E-002    2.390584595084788E-032
 -1.420000000000000E-002    2.498760021857501E-032
 -1.410000000000000E-002    2.247355935828311E-032
 -1.400000000000000E-002    1.537560325396952E-032
 -1.390000000000000E-002    3.049944023565665E-033
 -1.380000000000000E-002   -1.458057567779945E-032
 -1.370000000000000E-002   -3.681109369746966E-032
 -1.360000000000000E-002   -6.197943477069973E-032
 -1.350000000000000E-002   -8.736897265276709E-032
 -1.340000000000000E-002   -1.092291409316090E-031
 -1.330000000000000E-002   -1.229499573915207E-031
 -1.320000000000000E-002   -1.234183912640321E-031
 -1.310000000000000E-002   -1.055699749105813E-031
 -1.300000000000000E-002   -6.512858085463369E-032
 -1.290000000000000E-002    4.990743322458589E-034
 -1.280000000000000E-002    9.123856336659838E-032
 -1.270000000000000E-002    2.033713081567390E-031
 -1.260000000000000E-002    3.287001521040540E-031
 -1.250000000000000E-002    4.540225496344463E-031
 -1.240000000000000E-002    5.611003681648776E-031
 -1.230000000000000E-002    6.273241699392567E-031
 -1.220000000000000E-002    6.272551395278923E-031
 -1.210000000000000E-002    5.351814241767826E-031
 -1.200000000000000E-002    3.287381108156887E-031
 -1.190000000000000E-002   -6.495419054667610E-033
 -1.180000000000000E-002   -4.716908858107267E-031
 -1.170000000000000E-002   -1.049257881816756E-030
 -1.160000000000000E-002   -1.697874216578357E-030
 -1.150000000000000E-002   -2.349061511041610E-030
 -1.140000000000000E-002   -2.906504811690586E-030
 -1.130000000000000E-002   -3.249403559551198E-030
 -1.120000000000000E-002   -3.241046311367959E-030
 -1.110000000000000E-002   -2.743466741750051E-030
 -1.100000000000000E-002   -1.638395234214926E-030
 -1.090000000000000E-002    1.462396496577636E-031
 -1.080000000000000E-002    2.606257482429819E-030
 -1.070000000000000E-002    5.631076385490670E-030
 -1.060000000000000E-002    8.978391785291439E-030
 -1.050000000000000E-002    1.225985744995805E-029
 -1.040000000000000E-002    1.494462537306069E-029
 -1.030000000000000E-002    1.638738375554782E-029
 -1.020000000000000E-002    1.588607532077884E-029
 -1.010000000000000E-002    1.277152411308949E-029
 -1.000000000000000E-002    6.526694293533537E-030
 -9.899999999999999E-003   -3.072581586309780E-030
 -9.800000000000000E-003   -1.581033921751861E-029
 -9.699999999999999E-003   -3.089842238645666E-029
 -9.599999999999999E-003   -4.688704618409205E-029
 -9.500000000000000E-003   -6.164854200774580E-029
 -9.399999999999999E-003   -7.246393800751756E-029
 -9.299999999999999E-003   -7.623586589569990E-029
 -9.200000000000000E-003   -6.983885609998644E-029
 -9.099999999999999E-003   -5.059945628546335E-029
 -8.999999999999999E-003   -1.687470440825735E-029
 -8.900000000000000E-003    3.132956413780523E-029
 -8.799999999999999E-003    9.178565284083614E-029
 -8.699999999999999E-003    1.596229478386738E-028
 -8.600000000000000E-003    2.271769052188087E-028
 -8.499999999999999E-003    2.842222321466340E-028
 -8.399999999999999E-003    3.186803675740851E-028
 -8.300000000000000E-003    3.178454600530637E-028
 -8.199999999999999E-003    2.701052101332218E-028
 -8.100000000000000E-003    1.670477768058660E-028
 -8.000000000000000E-003    5.751738221382672E-030
 -7.899999999999999E-003   -2.090352282479942E-028
 -7.800000000000000E-003   -4.631950977740635E-028
 -7.699999999999999E-003   -7.324187875379592E-028
 -7.599999999999999E-003   -9.826538228858605E-028
 -7.499999999999999E-003   -1.172128774584083E-027
 -7.399999999999999E-003   -1.255113416937640E-027
 -7.299999999999999E-003   -1.187358625628803E-027
 -7.199999999999999E-003   -9.328928371590508E-028
 -7.100000000000000E-003   -4.715625140185642E-028
 -6.999999999999999E-003    1.935740744550323E-028
 -6.899999999999999E-003    1.030106499630145E-027
 -6.800000000000000E-003    1.972603881206040E-027
 -6.699999999999999E-003    2.922597176804184E-027
 -6.599999999999999E-003    3.753170559798191E-027
 -6.499999999999999E-003    4.318705916838615E-027
 -6.399999999999999E-003    4.469735433932867E-027
 -6.299999999999999E-003    4.072127026856649E-027
 -6.199999999999999E-003    3.029047394068144E-027
 -6.100000000000000E-003    1.303394399641001E-027
 -5.999999999999999E-003   -1.062203476954354E-027
 -5.899999999999999E-003   -3.931052884780928E-027
 -5.800000000000000E-003   -7.066920780107889E-027
 -5.699999999999999E-003   -1.014013618746938E-026
 -5.599999999999999E-003   -1.274705658728442E-026
 -5.499999999999999E-003   -1.444333254566979E-026
 -5.399999999999999E-003   -1.478973408155725E-026
 -5.299999999999999E-003   -1.340748132633582E-026
 -5.199999999999999E-003   -1.003824878867191E-026
 -5.099999999999999E-003   -4.602524753272295E-027
 -4.999999999999999E-003    2.750957222696118E-027
 -4.899999999999999E-003    1.161226259030192E-026
 -4.799999999999999E-003    2.130073461382179E-026
 -4.699999999999999E-003    3.088441334360544E-026
 -4.599999999999999E-003    3.923159631879454E-026
 -4.499999999999999E-003    4.509479467081898E-026
 -4.399999999999999E-003    4.722397112379529E-026
 -4.299999999999999E-003    4.450244100447901E-026
 -4.199999999999999E-003    3.609557927235060E-026
 -4.099999999999999E-003    2.159970514126614E-026
 -3.999999999999999E-003    1.176618925941024E-027
 -3.899999999999999E-003   -2.434169828025109E-026
 -3.799999999999999E-003   -5.339352496886024E-026
 -3.699999999999999E-003   -8.368696304033415E-026
 -3.599999999999999E-003   -1.122701424072419E-025
 -3.499999999999999E-003   -1.356799967885501E-025
 -3.399999999999999E-003   -1.501728592137331E-025
 -3.299999999999999E-003   -1.520343257020216E-025
 -3.199999999999999E-003   -1.379589131685368E-025
 -3.099999999999999E-003   -1.054819962346306E-025
 -2.999999999999999E-003   -5.343736953641537E-026
 -2.899999999999999E-003    1.759579183495548E-026
 -2.799999999999999E-003    1.049027041784635E-025
 -2.699999999999999E-003    2.033540836220746E-025
 -2.599999999999999E-003    3.052994104274925E-025
 -2.499999999999999E-003    4.006944412958679E-025
 -2.399999999999999E-003    4.775199125258972E-025
 -2.299999999999999E-003    5.225340577386463E-025
 -2.199999999999999E-003    5.223771515651549E-025
 -2.099999999999999E-003    4.650099627010985E-025
 -1.999999999999999E-003    3.414222588322530E-025
 -1.899999999999999E-003    1.474930443411687E-025
 -1.799999999999999E-003   -1.141720966392546E-025
 -1.699999999999999E-003   -4.326536808660533E-025
 -1.599999999999999E-003   -7.876472901007417E-025
 -1.499999999999999E-003   -1.149191262301944E-024
 -1.399999999999999E-003   -1.478459211028587E-024
 -1.299999999999999E-003   -1.729826595787533E-024
 -1.199999999999999E-003   -1.854320318817529E-024
 -1.099999999999999E-003   -1.804414672757926E-024
 -9.999999999999989E-004   -1.539957611274586E-024
 -8.999999999999990E-004   -1.034808155371523E-024
 -7.999999999999990E-004   -2.835645519291062E-025
 -6.999999999999989E-004    6.924133527994027E-025
 -5.999999999999990E-004    1.840601010423252E-024
 -4.999999999999989E-004    3.075470875049443E-024
 -3.999999999999989E-004    4.280083618854970E-024
 -2.999999999999989E-004    5.311762380473562E-024
 -1.999999999999989E-004    6.012165119783296E-024
 -9.999999999999892E-005    6.221608299609899E-024
  1.084202172485504E-018    5.796953086629717E-024
  1.000000000000011E-004    4.631782200578063E-024
  2.000000000000011E-004    2.677040433222855E-024
  3.000000000000011E-004   -4.013884955298719E-026
  4.000000000000011E-004   -3.401980620741276E-024
  5.000000000000011E-004   -7.192578130564215E-024
  6.000000000000011E-004   -1.109969839149814E-023
  7.000000000000011E-004   -1.472764035289876E-023
  8.000000000000011E-004   -1.762201249999160E-023
  9.000000000000012E-004   -1.930614844147595E-023
  1.000000000000001E-003   -1.932755913282158E-023
  1.100000000000001E-003   -1.731141515364635E-023
  1.200000000000001E-003   -1.301675223685827E-023
  1.300000000000001E-003   -6.389994701259286E-024
  1.400000000000001E-003    2.390294976647880E-024
  1.500000000000001E-003    1.288375414969133E-023
  1.600000000000001E-003    2.437952919049226E-023
  1.700000000000001E-003    3.591340361617736E-023
  1.800000000000001E-003    4.631388265318546E-023
  1.900000000000001E-003    5.427808290813619E-023
  2.000000000000001E-003    5.847559191706045E-023
  2.100000000000001E-003    5.767542470270249E-023
  2.200000000000001E-003    5.088819945561531E-023
  2.300000000000001E-003    3.751283337715815E-023
  2.400000000000001E-003    1.747469656130643E-023
  2.500000000000001E-003   -8.659433617361634E-024
  2.600000000000001E-003   -3.960489258983469E-023
  2.700000000000001E-003   -7.333578937052370E-023
  2.800000000000001E-003   -1.071275039247775E-022
  2.900000000000001E-003   -1.376743091880146E-022
  3.000000000000001E-003   -1.612864404029657E-022
  3.100000000000001E-003   -1.741646020741159E-022
  3.200000000000001E-003   -1.727425629925717E-022
  3.300000000000001E-003   -1.540800217381683E-022
  3.400000000000001E-003   -1.162796559015628E-022
  3.500000000000001E-003   -5.889404303007377E-023
  3.600000000000001E-003    1.671843576883914E-023
  3.700000000000001E-003    1.071340751486226E-022
  3.800000000000001E-003    2.067472155113801E-022
  3.900000000000001E-003    3.078397729642876E-022
  4.000000000000001E-003    4.008721470161409E-022
  4.100000000000001E-003    4.750166625800918E-022
  4.200000000000001E-003    5.189360123005555E-022
  4.300000000000001E-003    5.217844863442414E-022
  4.400000000000001E-003    4.743825507084526E-022
  4.500000000000001E-003    3.704860688453355E-022
  4.600000000000002E-003    2.080435691975729E-022
  4.700000000000001E-003   -9.687845487179036E-024
  4.800000000000001E-003   -2.733124933437544E-022
  4.900000000000002E-003   -5.668992919505887E-022
  5.000000000000001E-003   -8.681536832200246E-022
  5.100000000000001E-003   -1.149264499260107E-021
  5.200000000000001E-003   -1.378485566020930E-021
  5.300000000000002E-003   -1.522448630299585E-021
  5.400000000000001E-003   -1.549128021607194E-021
  5.500000000000001E-003   -1.431292909427704E-021
  5.600000000000002E-003   -1.150199161245428E-021
  5.700000000000001E-003   -6.991970815724041E-022
  5.800000000000001E-003   -8.687395641549434E-023
  5.900000000000002E-003    6.606786124489210E-022
  6.000000000000001E-003    1.498874763654794E-021
  6.100000000000001E-003    2.365274069689974E-021
  6.200000000000002E-003    3.182106243178419E-021
  6.300000000000002E-003    3.860797694180234E-021
  6.400000000000001E-003    4.308437906495437E-021
  6.500000000000001E-003    4.435921211205249E-021
  6.600000000000002E-003    4.167284527379252E-021
  6.700000000000001E-003    3.449557414482097E-021
  6.800000000000001E-003    2.262266080522989E-021
  6.900000000000002E-003    6.256137241267714E-022
  7.000000000000001E-003   -1.393690475439733E-021
  7.100000000000001E-003   -3.679936229294882E-021
  7.200000000000002E-003   -6.070092187996096E-021
  7.300000000000002E-003   -8.360254534050086E-021
  7.400000000000001E-003   -1.031711636724483E-020
  7.500000000000001E-003   -1.169428273352114E-020
  7.600000000000002E-003   -1.225278187541369E-020
  7.700000000000001E-003   -1.178462032246679E-020
  7.800000000000001E-003   -1.013775507821361E-020
  7.900000000000001E-003   -7.240439474508237E-021
  8.000000000000002E-003   -3.122612848195609E-021
  8.100000000000001E-003    2.068144249833863E-021
  8.200000000000001E-003    8.058500964046783E-021
  8.300000000000002E-003    1.445124441068542E-020
  8.400000000000001E-003    2.073873135513882E-020
  8.500000000000002E-003    2.632878846882802E-020
  8.600000000000002E-003    3.058294556467150E-020
  8.700000000000001E-003    3.286578560568335E-020
  8.800000000000002E-003    3.260297296336013E-020
  8.900000000000002E-003    2.934432382263346E-020
  9.000000000000001E-003    2.282715052108379E-020
  9.100000000000002E-003    1.303426223170334E-020
  9.200000000000002E-003    2.404338704446810E-022
  9.300000000000001E-003   -1.495893376916189E-020
  9.400000000000002E-003   -3.164277291796419E-020
  9.500000000000001E-003   -4.858768565541823E-020
  9.600000000000001E-003   -6.432273975425369E-020
  9.700000000000002E-003   -7.721650629584887E-020
  9.800000000000001E-003   -8.559438752296563E-020
  9.900000000000001E-003   -8.788111916126045E-020
  1.000000000000000E-002   -8.276018217625175E-020
  1.010000000000000E-002   -6.933876426582411E-020
  1.020000000000000E-002   -4.730433825599378E-020
  1.030000000000000E-002   -1.705720511634524E-020
  1.040000000000000E-002    2.019736455574463E-020
  1.050000000000000E-002    6.241292428945570E-020
  1.060000000000000E-002    1.067348512717321E-019
  1.070000000000000E-002    1.496118669522163E-019
  1.080000000000000E-002    1.869898335251085E-019
  1.090000000000000E-002    2.145847912121010E-019
  1.100000000000000E-002    2.282243842051624E-019
  1.110000000000000E-002    2.242387994735422E-019
  1.120000000000000E-002    1.998745740236064E-019
  1.130000000000000E-002    1.536979252823471E-019
  1.140000000000000E-002    8.594963672418227E-020
  1.150000000000000E-002   -1.188491702492263E-021
  1.160000000000000E-002   -1.034543483632290E-019
  1.170000000000000E-002   -2.145271002808024E-019
  1.180000000000000E-002   -3.262345046866167E-019
  1.190000000000000E-002   -4.289582364971863E-019
  1.200000000000000E-002   -5.122338642805314E-019
  1.210000000000000E-002   -5.655243935868252E-019
  1.220000000000000E-002   -5.791274288923800E-019
  1.230000000000000E-002   -5.451579937273968E-019
  1.240000000000000E-002   -4.585331493087460E-019
  1.250000000000000E-002   -3.178728339329075E-019
  1.260000000000000E-002   -1.262252861556190E-019
  1.270000000000000E-002    1.084736248057764E-019
  1.280000000000000E-002    3.732889026789558E-019
  1.290000000000000E-002    6.505870555031342E-019
  1.300000000000000E-002    9.187876106244885E-019
  1.310000000000000E-002    1.153571674077695E-018
  1.320000000000000E-002    1.329515562124692E-018
  1.330000000000000E-002    1.422076364104025E-018
  1.340000000000000E-002    1.409815663581772E-018
  1.350000000000000E-002    1.276709511378828E-018
  1.360000000000000E-002    1.014362871003876E-018
  1.370000000000000E-002    6.239270864683770E-019
  1.380000000000000E-002    1.175129076076530E-019
  1.390000000000000E-002   -4.810972856429603E-019
  1.400000000000000E-002   -1.136605997840062E-018
  1.410000000000000E-002   -1.803346398494307E-018
  1.420000000000000E-002   -2.427473880338322E-018
  1.430000000000000E-002   -2.950181233544580E-018
  1.440000000000000E-002   -3.311826792587993E-018
  1.450000000000000E-002   -3.456771710687594E-018
  1.460000000000000E-002   -3.338632663268524E-018
  1.470000000000000E-002   -2.925576617937903E-018
  1.480000000000000E-002   -2.205224103383215E-018
  1.490000000000000E-002   -1.188693328898687E-018
  1.500000000000000E-002    8.668139366736672E-020
  1.510000000000000E-002    1.556386149643108E-018
  1.520000000000000E-002    3.129866160484454E-018
  1.530000000000000E-002    4.693992530429937E-018
  1.540000000000000E-002    6.118923733070626E-018
  1.550000000000000E-002    7.266240818424931E-018
  1.560000000000000E-002    7.999026381210427E-018
  1.570000000000000E-002    8.193346965823439E-018
  1.580000000000000E-002    7.750402594757244E-018
  1.590000000000000E-002    6.608438817884276E-018
  1.600000000000000E-002    4.753404069004320E-018
  1.610000000000000E-002    2.227285998381832E-018
  1.620000000000000E-002   -8.669037598646480E-019
  1.630000000000000E-002   -4.364402347977954E-018
  1.640000000000000E-002   -8.042912256326704E-018
  1.650000000000000E-002   -1.163214288314490E-017
  1.660000000000000E-002   -1.482867185604487E-017
  1.670000000000000E-002   -1.731568139492600E-017
  1.680000000000000E-002   -1.878667233800148E-017
  1.690000000000000E-002   -1.897178489990384E-017
  1.700000000000000E-002   -1.766496547142954E-017
  1.710000000000000E-002   -1.474988957604726E-017
  1.720000000000000E-002   -1.022236019746442E-017
  1.730000000000000E-002   -4.206867922849049E-018
  1.740000000000000E-002    3.034844547555139E-018
  1.750000000000000E-002    1.110503749811457E-017
  1.760000000000000E-002    1.948231780097432E-017
  1.770000000000000E-002    2.754563557076572E-017
  1.780000000000000E-002    3.460961786135698E-017
  1.790000000000000E-002    3.997000774185835E-017
  1.800000000000000E-002    4.295695912109883E-017
  1.810000000000000E-002    4.299303715002538E-017
  1.820000000000000E-002    3.965195198370425E-017
  1.830000000000000E-002    3.271347714027289E-017
  1.840000000000000E-002    2.220967082910177E-017
  1.850000000000000E-002    8.457565157555399E-018
  1.860000000000000E-002   -7.926097387582925E-018
  1.870000000000000E-002   -2.603168400028243E-017