 -4.000000000000000E-002    0.000000000000000E+000
 -3.990000000000000E-002    0.000000000000000E+000
 -3.980000000000000E-002    0.000000000000000E+000
 -3.970000000000000E-002    0.000000000000000E+000
 -3.960000000000000E-002    0.000000000000000E+000
 -3.950000000000000E-002    0.000000000000000E+000
 -3.940000000000000E-002    0.000000000000000E+000
 -3.930000000000000E-002    0.000000000000000E+000
 -3.920000000000000E-002    0.000000000000000E+000
 -3.910000000000000E-002    0.000000000000000E+000
 -3.900000000000000E-002    0.000000000000000E+000
 -3.890000000000000E-002    0.000000000000000E+000
 -3.880000000000000E-002   -6.852489272304776E-041
 -3.870000000000000E-002   -1.854949310574861E-039
 -3.860000000000000E-002   -2.570516925214399E-038
 -3.850000000000000E-002   -2.429534958959014E-037
 -3.840000000000000E-002   -1.760451390606922E-036
 -3.830000000000000E-002   -1.042198721322618E-035
 -3.820000000000000E-002   -5.245640439321285E-035
 -3.810000000000000E-002   -2.306407922844918E-034
 -3.800000000000000E-002   -9.032656725625902E-034
 -3.790000000000000E-002   -3.196912259325340E-033
 -3.780000000000000E-002   -1.033899469529705E-032
 -3.770000000000000E-002   -3.081456976770360E-032
 -3.760000000000000E-002   -8.519424410347980E-032
 -3.750000000000000E-002   -2.195755469237862E-031
 -3.740000000000000E-002   -5.294133784408898E-031
 -3.730000000000000E-002   -1.196592157536794E-030
 -3.720000000000000E-002   -2.536647165566612E-030
 -3.710000000000000E-002   -5.036095511129623E-030
 -3.700000000000000E-002   -9.322528869117751E-030
 -3.690000000000000E-002   -1.594018520794102E-029
 -3.680000000000000E-002   -2.468913166897143E-029
 -3.670000000000000E-002   -3.312292153011974E-029
 -3.660000000000000E-002   -3.360617138304489E-029
 -3.650000000000000E-002   -8.173695193294437E-030
 -3.640000000000000E-002    7.955482070361854E-029
 -3.630000000000000E-002    2.957228780274681E-028
 -3.620000000000000E-002    7.499566185579411E-028
 -3.610000000000000E-002    1.608103708981175E-027
 -3.600000000000000E-002    3.096437126054557E-027
 -3.590000000000000E-002    5.483508472902073E-027
 -3.580000000000000E-002    9.017683464786358E-027
 -3.570000000000000E-002    1.378948767200793E-026
 -3.560000000000000E-002    1.948087871310717E-026
 -3.550000000000000E-002    2.496317039782152E-026
 -3.540000000000000E-002    2.771873317063595E-026
 -3.530000000000000E-002    2.309804779926714E-026
 -3.520000000000000E-002    3.493766682883514E-027
 -3.510000000000000E-002   -4.237407781715846E-026
 -3.500000000000000E-002   -1.297089981294540E-025
 -3.490000000000000E-002   -2.768757865036600E-025
 -3.480000000000000E-002   -5.028673123017052E-025
 -3.470000000000000E-002   -8.220743639542056E-025
 -3.460000000000000E-002   -1.235386561872909E-024
 -3.450000000000000E-002   -1.716842950195618E-024
 -3.440000000000000E-002   -2.195614798709191E-024
 -3.430000000000000E-002   -2.534181197510481E-024
 -3.420000000000000E-002   -2.505261432181094E-024
 -3.410000000000000E-002   -1.772428993307267E-024
 -3.400000000000000E-002    1.177542494864541E-025
 -3.390000000000000E-002    3.721107887001513E-024
 -3.380000000000000E-002    9.644925764380887E-024
 -3.370000000000000E-002    1.844545822353987E-023
 -3.360000000000000E-002    3.045929175111249E-023
 -3.350000000000000E-002    4.555876422481151E-023
 -3.340000000000000E-002    6.283139071988674E-023
 -3.330000000000000E-002    8.019942343604251E-023
 -3.320000000000000E-002    9.401879230595508E-023
 -3.310000000000000E-002    9.872599410685369E-023
 -3.300000000000000E-002    8.663518083788372E-023
 -3.290000000000000E-002    4.802136560826733E-023
 -3.280000000000000E-002   -2.834686930640321E-023
 -3.270000000000000E-002   -1.540492379384581E-022
 -3.260000000000000E-002   -3.390668591077534E-022
 -3.250000000000000E-002   -5.889328583862114E-022
 -3.240000000000000E-002   -9.009631288211105E-022
 -3.230000000000000E-002   -1.259701991496752E-021
 -3.220000000000000E-002   -1.631926879310248E-021
 -3.210000000000000E-002   -1.961818478816634E-021
 -3.200000000000000E-002   -2.167197643832814E-021
 -3.190000000000000E-002   -2.138033112005249E-021
 -3.180000000000000E-002   -1.738679963804739E-021
 -3.170000000000000E-002   -8.154652229049320E-022
 -3.160000000000000E-002    7.887874087238955E-022
 -3.150000000000000E-002    3.211982004589504E-021
 -3.140000000000000E-002    6.541036281593866E-021
 -3.130000000000000E-002    1.077156681010973E-020
 -3.120000000000000E-002    1.576077675313670E-020
 -3.110000000000000E-002    2.117725187836723E-020
 -3.100000000000000E-002    2.645359908450226E-020
 -3.090000000000000E-002    3.075029150843855E-020
 -3.080000000000000E-002    3.294136722561351E-020
 -3.070000000000000E-002    3.163446171736040E-020
 -3.060000000000000E-002    2.523848639457378E-020
 -3.050000000000000E-002    1.209150671111337E-020
 -3.040000000000000E-002   -9.341465960260916E-021
 -3.030000000000000E-002   -4.019664564965617E-020
 -3.020000000000000E-002   -8.087014999865095E-020
 -3.010000000000000E-002   -1.306235452002195E-019
 -3.000000000000000E-002   -1.871673513539228E-019
 -2.990000000000000E-002   -2.462702030420788E-019
 -2.980000000000000E-002   -3.014583402256088E-019
 -2.970000000000000E-002   -3.438853840401276E-019
 -2.960000000000000E-002   -3.624620401039246E-019
 -2.950000000000000E-002   -3.443375175439649E-019
 -2.940000000000000E-002   -2.758133955953445E-019
 -2.930000000000000E-002   -1.437448337109027E-019
 -2.920000000000000E-002    6.256053299434675E-020
 -2.910000000000000E-002    3.489989108924352E-019
 -2.900000000000000E-002    7.140153049697104E-019
 -2.890000000000000E-002    1.145863474441872E-018
 -2.880000000000000E-002    1.620103677635714E-018
 -2.870000000000000E-002    2.097750897312343E-018
 -2.860000000000000E-002    2.524548888220875E-018
 -2.850000000000000E-002    2.831872241363805E-018
 -2.840000000000000E-002    2.939718623647616E-018
 -2.830000000000000E-002    2.762147850471299E-018
 -2.820000000000000E-002    2.215326886675533E-018
 -2.810000000000000E-002    1.228059294895211E-018
 -2.800000000000000E-002   -2.456754782011766E-019
 -2.790000000000000E-002   -2.213061365135282E-018
 -2.780000000000000E-002   -4.628963531496812E-018
 -2.770000000000000E-002   -7.384311262041960E-018
 -2.760000000000000E-002   -1.029830371709339E-017
 -2.750000000000000E-002   -1.311650147112293E-017
 -2.740000000000000E-002   -1.551673502591914E-017
 -2.730000000000000E-002   -1.712436116677592E-017
 -2.720000000000000E-002   -1.753766548757677E-017
 -2.710000000000000E-002   -1.636321288998584E-017
 -2.700000000000000E-002   -1.325971036165860E-017
 -2.690000000000000E-002   -7.987545229349842E-018
 -2.680000000000000E-002   -4.598290121705160E-019
 -2.670000000000000E-002    9.210420113363079E-018
 -2.660000000000000E-002    2.067308332835722E-017
 -2.650000000000000E-002    3.332008832902265E-017
 -2.640000000000000E-002    4.628669067258079E-017
 -2.630000000000000E-002    5.847936078197257E-017
 -2.620000000000000E-002    6.863256984007979E-017
 -2.610000000000000E-002    7.539388394520984E-017
 -2.600000000000000E-002    7.743349096642272E-017
 -2.590000000000000E-002    7.357079102876626E-017
 -2.580000000000000E-002    6.290760612466860E-017
 -2.570000000000000E-002    4.495517581894620E-017
 -2.560000000000000E-002    1.974096738544575E-017
 -2.550000000000000E-002   -1.211818528029244E-017
 -2.540000000000000E-002   -4.938793053129901E-017
 -2.530000000000000E-002   -9.024069049537153E-017
 -2.520000000000000E-002   -1.323343769491932E-016
 -2.510000000000000E-002   -1.729414784568650E-016
 -2.500000000000000E-002   -2.091179665232153E-016
 -2.490000000000000E-002   -2.378960965338154E-016
 -2.480000000000000E-002   -2.564813659425788E-016
 -2.470000000000000E-002   -2.624327367506825E-016
 -2.460000000000000E-002   -2.538073112126812E-016
 -2.450000000000000E-002   -2.292556929925554E-016
 -2.440000000000000E-002   -1.880626250267103E-016
 -2.430000000000000E-002   -1.301373429290858E-016
 -2.420000000000000E-002   -5.596888852646007E-017
 -2.410000000000000E-002    3.342943859148303E-017
 -2.400000000000000E-002    1.365561374864281E-016
 -2.390000000000000E-002    2.514072356640698E-016
 -2.380000000000000E-002    3.753864136856195E-016
 -2.370000000000000E-002    5.051271190872438E-016
 -2.360000000000000E-002    6.362333073767251E-016
 -2.350000000000000E-002    7.629692980688450E-016
 -2.340000000000000E-002    8.779543288616501E-016
 -2.330000000000000E-002    9.719404227407924E-016
 -2.320000000000000E-002    1.033767471841347E-015
 -2.310000000000000E-002    1.050593390939705E-015
 -2.300000000000000E-002    1.008485488964544E-015
 -2.290000000000000E-002    8.934296283320908E-016
 -2.280000000000000E-002    6.927665908991711E-016
 -2.270000000000000E-002    3.970023208311346E-016
 -2.260000000000000E-002    1.867936503708346E-018
 -2.250000000000000E-002   -4.895684726359531E-016
 -2.240000000000000E-002   -1.064996744091472E-015
 -2.230000000000000E-002   -1.701468433666648E-015
 -2.220000000000000E-002   -2.364818893048060E-015
 -2.210000000000000E-002   -3.010188493790890E-015
 -2.200000000000000E-002   -3.583844506019623E-015
 -2.190000000000000E-002   -4.026388267765476E-015
 -2.180000000000000E-002   -4.277270473115620E-015
 -2.170000000000000E-002   -4.280362798340248E-015
 -2.160000000000000E-002   -3.990147791941768E-015
 -2.150000000000000E-002   -3.377927460565770E-015
 -2.140000000000000E-002   -2.437340713797139E-015
 -2.130000000000000E-002   -1.188432337561412E-015
 -2.120000000000000E-002    3.204313055442222E-016
 -2.110000000000000E-002    2.013358866544454E-015
 -2.100000000000000E-002    3.790758152424516E-015
 -2.090000000000000E-002    5.536167848720656E-015
 -2.080000000000000E-002    7.125709752226853E-015
 -2.070000000000000E-002    8.439365265568628E-015
 -2.060000000000000E-002    9.372955293523277E-015
 -2.050000000000000E-002    9.849420991477794E-015
 -2.040000000000000E-002    9.827914239411457E-015
 -2.030000000000000E-002    9.309267274432787E-015
 -2.020000000000000E-002    8.336695577820749E-015
 -2.010000000000000E-002    6.991059241865699E-015
 -2.000000000000000E-002    5.380652615908492E-015
 -1.990000000000000E-002    3.626255084548413E-015
 -1.980000000000000E-002    1.842935973478415E-015
 -1.970000000000000E-002    1.208129176351402E-016
 -1.960000000000000E-002   -1.492520160789045E-015
 -1.950000000000000E-002   -3.004979774061427E-015
 -1.940000000000000E-002   -4.485600508813627E-015
 -1.930000000000000E-002   -6.060542536417499E-015
 -1.920000000000000E-002   -7.898238029004210E-015
 -1.910000000000000E-002   -1.018371758178432E-014
 -1.900000000000000E-002   -1.308370042220183E-014
 -1.890000000000000E-002   -1.670564041356905E-014
 -1.880000000000000E-002   -2.105535506886615E-014
 -1.870000000000000E-002   -2.599901538625245E-014
 -1.860000000000000E-002   -3.123575032054189E-014
 -1.850000000000000E-002   -3.628699445593841E-014
 -1.840000000000000E-002   -4.050762753159176E-014
 -1.830000000000000E-002   -4.312212273777140E-014
 -1.820000000000000E-002   -4.328629584158469E-014
 -1.810000000000000E-002   -4.017210764998835E-014
 -1.800000000000000E-002   -3.306962359337388E-014
 -1.790000000000000E-002   -2.149699356984930E-014
 -1.780000000000000E-002   -5.306758868798445E-015
 -1.770000000000000E-002    1.522477542396876E-014
 -1.760000000000000E-002    3.933865857535541E-014
 -1.750000000000000E-002    6.577695362028394E-014
 -1.740000000000000E-002    9.281791960547058E-014
 -1.730000000000000E-002    1.183670680202930E-013
 -1.720000000000000E-002    1.401024913759094E-013
 -1.710000000000000E-002    1.556663923493445E-013
 -1.700000000000000E-002    1.628880264750512E-013
 -1.690000000000000E-002    1.600177782190962E-013
 -1.680000000000000E-002    1.459478847054198E-013
 -1.670000000000000E-002    1.203936306608610E-013
 -1.660000000000000E-002    8.401017962554543E-014
 -1.650000000000000E-002    3.842450577372849E-014
 -1.640000000000000E-002   -1.383065969686342E-014
 -1.630000000000000E-002   -6.948404077413423E-014
 -1.620000000000000E-002   -1.247855721231318E-013
 -1.610000000000000E-002   -1.758385626615146E-013
 -1.600000000000000E-002   -2.189725593877217E-013
 -1.590000000000000E-002   -2.511172882599061E-013
 -1.580000000000000E-002   -2.701335352882395E-013
 -1.570000000000000E-002   -2.750569196179943E-013
 -1.560000000000000E-002   -2.662172135045224E-013
 -1.550000000000000E-002   -2.452069478819111E-013
 -1.540000000000000E-002   -2.146896980156800E-013
 -1.530000000000000E-002   -1.780579212725769E-013
 -1.520000000000000E-002   -1.389709287109497E-013
 -1.510000000000000E-002   -1.008230491119160E-013
 -1.500000000000000E-002   -6.620729434236823E-014
 -1.490000000000000E-002   -3.644863319204613E-014
 -1.480000000000000E-002   -1.128108452978432E-014
 -1.470000000000000E-002    1.126680264612513E-014
 -1.460000000000000E-002    3.473289999776284E-014
 -1.450000000000000E-002    6.381179638412895E-014
 -1.440000000000000E-002    1.036916648316862E-013
 -1.430000000000000E-002    1.591913500037034E-013
 -1.420000000000000E-002    2.337867525053602E-013
 -1.410000000000000E-002    3.286431409394458E-013
 -1.400000000000000E-002    4.417874539456342E-013
 -1.390000000000000E-002    5.675564507466564E-013
 -1.380000000000000E-002    6.964415140606206E-013
 -1.370000000000000E-002    8.154175739511941E-013
 -1.360000000000000E-002    9.087959277225502E-013
 -1.350000000000000E-002    9.595787183656689E-013
 -1.340000000000000E-002    9.512280657586409E-013
 -1.330000000000000E-002    8.696979936558782E-013
 -1.320000000000000E-002    7.055225984507923E-013
 -1.310000000000000E-002    4.557190654989414E-013
 -1.300000000000000E-002    1.252523313960099E-013
 -1.290000000000000E-002   -2.721722799243517E-013
 -1.280000000000000E-002   -7.141737299985868E-013
 -1.270000000000000E-002   -1.170722806432450E-012
 -1.260000000000000E-002   -1.606140822134769E-012
 -1.250000000000000E-002   -1.981961686478052E-012
 -1.240000000000000E-002   -2.260439407921689E-012
 -1.230000000000000E-002   -2.408380305616142E-012
 -1.220000000000000E-002   -2.400910844497037E-012
 -1.210000000000000E-002   -2.224753585289732E-012
 -1.200000000000000E-002   -1.880600737851412E-012
 -1.190000000000000E-002   -1.384234915479816E-012
 -1.180000000000000E-002   -7.661594439265907E-013
 -1.170000000000000E-002   -6.964934683472483E-014
 -1.160000000000000E-002    6.526924107124214E-013
 -1.150000000000000E-002    1.343608061992218E-012
 -1.140000000000000E-002    1.946659604962392E-012
 -1.130000000000000E-002    2.411946667472891E-012
 -1.120000000000000E-002    2.701442915798023E-012
 -1.110000000000000E-002    2.793318176164640E-012
 -1.100000000000000E-002    2.684689942836226E-012
 -1.090000000000000E-002    2.392391240663437E-012
 -1.080000000000000E-002    1.951550344825355E-012
 -1.070000000000000E-002    1.412023605225275E-012
 -1.060000000000000E-002    8.329823485192966E-013
 -1.050000000000000E-002    2.762008997900447E-013
 -1.040000000000000E-002   -2.012172042206391E-013
 -1.030000000000000E-002   -5.538181535015866E-013
 -1.020000000000000E-002   -7.536061321675621E-013
 -1.010000000000000E-002   -7.938927272795037E-013
 -1.000000000000000E-002   -6.905920723959163E-013
 -9.899999999999999E-003   -4.806460677893457E-013
 -9.800000000000000E-003   -2.176050858613506E-013
 -9.699999999999999E-003    3.524735856958151E-014
 -9.599999999999999E-003    2.134986474494402E-013
 -9.500000000000000E-003    2.609369611266218E-013
 -9.399999999999999E-003    1.384388305154053E-013
 -9.299999999999999E-003   -1.687883836224685E-013
 -9.200000000000000E-003   -6.466914840475659E-013
 -9.099999999999999E-003   -1.251401268447786E-012
 -8.999999999999999E-003   -1.912239852902908E-012
 -8.900000000000000E-003   -2.538658300084104E-012
 -8.799999999999999E-003   -3.030554518732027E-012
 -8.699999999999999E-003   -3.290943819362764E-012
 -8.600000000000000E-003   -3.239567339393042E-012
 -8.499999999999999E-003   -2.825781720998676E-012
 -8.399999999999999E-003   -2.039026163533759E-012
 -8.300000000000000E-003   -9.153073262259729E-013
 -8.199999999999999E-003    4.614892151167330E-013
 -8.100000000000000E-003    1.964126432926154E-012
 -8.000000000000000E-003    3.432372228460239E-012
 -7.899999999999999E-003    4.688500462292469E-012
 -7.800000000000000E-003    5.556531295993660E-012
 -7.699999999999999E-003    5.883272866960370E-012
 -7.599999999999999E-003    5.558839858046714E-012
 -7.499999999999999E-003    4.534204117071641E-012
 -7.399999999999999E-003    2.833477417605700E-012
 -7.299999999999999E-003    5.590764995228595E-013
 -7.199999999999999E-003   -2.111419794517520E-012
 -7.100000000000000E-003   -4.937038148808733E-012
 -6.999999999999999E-003   -7.633165026630434E-012
 -6.899999999999999E-003   -9.897733327923788E-012
 -6.800000000000000E-003   -1.144143198321481E-011
 -6.699999999999999E-003   -1.201898728489654E-011
 -6.599999999999999E-003   -1.145819500723928E-011
 -6.499999999999999E-003   -9.683548800745896E-012
 -6.399999999999999E-003   -6.731589209620907E-012
 -6.299999999999999E-003   -2.755944801035026E-012
 -6.199999999999999E-003    1.979028079507302E-012
 -6.100000000000000E-003    7.115932610568339E-012
 -5.999999999999999E-003    1.223210343292974E-011
 -5.899999999999999E-003    1.687512616538510E-011
 -5.800000000000000E-003    2.060289654474744E-011
 -5.699999999999999E-003    2.302449766388761E-011
 -5.599999999999999E-003    2.383793610362288E-011
 -5.499999999999999E-003    2.286109343122185E-011
 -5.399999999999999E-003    2.005281753599259E-011
 -5.299999999999999E-003    1.552200807007921E-011
 -5.199999999999999E-003    9.523766767392952E-012
 -5.099999999999999E-003    2.442838925359161E-012
 -4.999999999999999E-003   -5.234125689296896E-012
 -4.899999999999999E-003   -1.295500673349043E-011
 -4.799999999999999E-003   -2.014404546268026E-011
 -4.699999999999999E-003   -2.624539431957025E-011
 -4.599999999999999E-003   -3.076467300697583E-011
 -4.499999999999999E-003   -3.330517338474061E-011
 -4.399999999999999E-003   -3.359600302624110E-011
 -4.299999999999999E-003   -3.151042193283963E-011
 -4.199999999999999E-003   -2.707356329105545E-011
 -4.099999999999999E-003   -2.045980399616207E-011
 -3.999999999999999E-003   -1.198096724982109E-011
 -3.899999999999999E-003   -2.067181127948221E-012
 -3.799999999999999E-003    8.757341350789134E-012
 -3.699999999999999E-003    1.990122258230349E-011
 -3.599999999999999E-003    3.073336549821432E-011
 -3.499999999999999E-003    4.060920020395853E-011
 -3.399999999999999E-003    4.889459895589494E-011
 -3.299999999999999E-003    5.498700556838096E-011
 -3.199999999999999E-003    5.833406098346437E-011
 -3.099999999999999E-003    5.845041734741574E-011
 -2.999999999999999E-003    5.493390985262414E-011
 -2.899999999999999E-003    4.748235223911016E-011
 -2.799999999999999E-003    3.591190427012015E-011
 -2.699999999999999E-003    2.017783150612231E-011
 -2.599999999999999E-003    3.976130571377721E-013
 -2.499999999999999E-003   -2.312419897677443E-011
 -2.399999999999999E-003   -4.987085675673352E-011
 -2.299999999999999E-003   -7.909022512368265E-011
 -2.199999999999999E-003   -1.097763460857611E-010
 -2.099999999999999E-003   -1.406591071655568E-010
 -1.999999999999999E-003   -1.702055302438665E-010
 -1.899999999999999E-003   -1.966360949346754E-010
 -1.799999999999999E-003   -2.179592403251201E-010
 -1.699999999999999E-003   -2.320264534607130E-010
 -1.599999999999999E-003   -2.366095530855944E-010
 -1.499999999999999E-003   -2.295003638553606E-010
 -1.399999999999999E-003   -2.086316733991657E-010
 -1.299999999999999E-003   -1.722168465633605E-010
 -1.199999999999999E-003   -1.189035242958128E-010
 -1.099999999999999E-003   -4.793523639512071E-011
 -9.999999999999989E-004    4.068699887934549E-011
 -8.999999999999990E-004    1.460527255470830E-010
 -7.999999999999990E-004    2.662103436130812E-010
 -6.999999999999989E-004    3.980675129569419E-010
 -5.999999999999990E-004    5.373351335265644E-010
 -4.999999999999989E-004    6.785265215638255E-010
 -3.999999999999989E-004    8.150214469190842E-010
 -2.999999999999989E-004    9.392026452091577E-010
 -1.999999999999989E-004    1.042669247411580E-009
 -9.999999999999892E-005    1.116527561596770E-009
  1.084202172485504E-018    1.151754123769555E-009
  1.000000000000011E-004    1.139621962152239E-009
  2.000000000000011E-004    1.072175035465694E-009
  3.000000000000011E-004    9.427312412670910E-010
  4.000000000000011E-004    7.463894823678953E-010
  5.000000000000011E-004    4.805150185386191E-010
  6.000000000000011E-004    1.451740086047769E-010
  7.000000000000011E-004   -2.565102117153614E-010
  8.000000000000011E-004   -7.181053213433121E-010
  9.000000000000012E-004   -1.229743757592295E-009
  1.000000000000001E-003   -1.778138713107799E-009
  1.100000000000001E-003   -2.346750387492920E-009
  1.200000000000001E-003   -2.916106979544917E-009
  1.300000000000001E-003   -3.464271005743354E-009
  1.400000000000001E-003   -3.967440313775937E-009
  1.500000000000001E-003   -4.400663529094796E-009
  1.600000000000001E-003   -4.738648051500827E-009
  1.700000000000001E-003   -4.956630422963831E-009
  1.800000000000001E-003   -5.031285997116126E-009
  1.900000000000001E-003   -4.941648822171470E-009
  2.000000000000001E-003   -4.670016435715043E-009
  2.100000000000001E-003   -4.202822297985825E-009
  2.200000000000001E-003   -3.531453866223177E-009
  2.300000000000001E-003   -2.653002976560030E-009
  2.400000000000001E-003   -1.570936575437702E-009
  2.500000000000001E-003   -2.956736105301431E-010
  2.600000000000001E-003    1.154945289504258E-009
  2.700000000000001E-003    2.755307451874932E-009
  2.800000000000001E-003    4.471823356455515E-009
  2.900000000000001E-003    6.262883954131888E-009
  3.000000000000001E-003    8.079014548791009E-009
  3.100000000000001E-003    9.863254096613012E-009
  3.200000000000001E-003    1.155179341110765E-008
  3.300000000000001E-003    1.307490375809223E-008
  3.400000000000001E-003    1.435818301475331E-008
  3.500000000000001E-003    1.532414202776521E-008
  3.600000000000001E-003    1.589413530776023E-008
  3.700000000000001E-003    1.599063806142094E-008
  3.800000000000001E-003    1.553984034997130E-008
  3.900000000000001E-003    1.447453795526175E-008
  4.000000000000001E-003    1.273725536227763E-008
  4.100000000000001E-003    1.028355080806854E-008
  4.200000000000001E-003    7.085425872785602E-009
  4.300000000000001E-003    3.134772831107686E-009
  4.400000000000001E-003   -1.553225404813766E-009
  4.500000000000001E-003   -6.936795175086286E-009
  4.600000000000002E-003   -1.294444944727305E-008
  4.700000000000001E-003   -1.947207459121821E-008
  4.800000000000001E-003   -2.638025348073830E-008
  4.900000000000002E-003   -3.349185923034844E-008
  5.000000000000001E-003   -4.058989404302708E-008
  5.100000000000001E-003   -4.741559027006914E-008
  5.200000000000001E-003   -5.366673152261105E-008
  5.300000000000002E-003   -5.899619453645407E-008
  5.400000000000001E-003   -6.301069128358459E-008
  5.500000000000001E-003   -6.526968362698847E-008
  5.600000000000002E-003   -6.528447867107607E-008
  5.700000000000001E-003   -6.251755981554130E-008
  5.800000000000001E-003   -5.638209305179818E-008
  5.900000000000002E-003   -4.624172960369539E-008
  6.000000000000001E-003   -3.141064777015215E-008
  6.100000000000001E-003   -1.115402929600842E-008
  6.200000000000002E-003    1.531119036402673E-008
  6.300000000000002E-003    4.881512763696755E-008
  6.400000000000001E-003    9.023332979345396E-008
  6.500000000000001E-003    1.404848038612017E-007
  6.600000000000002E-003    2.005295677593316E-007
  6.700000000000001E-003    2.713661124704714E-007
  6.800000000000001E-003    3.540282775601464E-007
  6.900000000000002E-003    4.495824308232003E-007
  7.000000000000001E-003    5.591242603785164E-007
  7.100000000000001E-003    6.837757242331382E-007
  7.200000000000002E-003    8.246824182979459E-007
  7.300000000000002E-003    9.830110198475829E-007
  7.400000000000001E-003    1.159947018580883E-006
  7.500000000000001E-003    1.356693297773044E-006
  7.600000000000002E-003    1.574468970261517E-006
  7.700000000000001E-003    1.814508877744831E-006
  7.800000000000001E-003    2.078063558186551E-006
  7.900000000000001E-003    2.366400712705450E-006
  8.000000000000002E-003    2.680805582167889E-006
  8.100000000000001E-003    3.022583694785995E-006
  8.200000000000001E-003    3.393063844121047E-006
  8.300000000000002E-003    3.793601404947906E-006
  8.400000000000001E-003    4.225582233327107E-006
  8.500000000000002E-003    4.690429045201040E-006
  8.600000000000002E-003    5.189606896792851E-006
  8.700000000000001E-003    5.724629560047733E-006
  8.800000000000002E-003    6.297068245531827E-006
  8.900000000000002E-003    6.908560079516128E-006
  9.000000000000001E-003    7.560818439697300E-006
  9.100000000000002E-003    8.255642763130676E-006
  9.200000000000002E-003    8.994930633673926E-006
  9.300000000000001E-003    9.780688535148211E-006
  9.400000000000002E-003    1.061504733923117E-005
  9.500000000000001E-003    1.150027092167822E-005
  9.600000000000001E-003    1.243877276475545E-005
  9.700000000000002E-003    1.343312675676727E-005
  9.800000000000001E-003    1.448607977064992E-005
  9.900000000000001E-003    1.560056772371992E-005
  1.000000000000000E-002    1.677972201363173E-005
  1.010000000000000E-002    1.802688496089811E-005
  1.020000000000000E-002    1.934561925564692E-005
  1.030000000000000E-002    2.073972440875988E-005
  1.040000000000000E-002    2.221323776886786E-005
  1.050000000000000E-002    2.377045770429184E-005
  1.060000000000000E-002    2.541594250794524E-005
  1.070000000000000E-002    2.715453372878105E-005
  1.080000000000000E-002    2.899136044089339E-005
  1.090000000000000E-002    3.093185815892317E-005
  1.100000000000000E-002    3.298178432635456E-005
  1.110000000000000E-002    3.514722623507719E-005
  1.120000000000000E-002    3.743462366971622E-005
  1.130000000000000E-002    3.985078325909083E-005
  1.140000000000000E-002    4.240289926923868E-005
  1.150000000000000E-002    4.509856920070475E-005
  1.160000000000000E-002    4.794581101901225E-005
  1.170000000000000E-002    5.095308079292402E-005
  1.180000000000000E-002    5.412929199086545E-005
  1.190000000000000E-002    5.748383460325499E-005
  1.200000000000000E-002    6.102658823324570E-005
  1.210000000000000E-002    6.476793527084428E-005
  1.220000000000000E-002    6.871877882759251E-005
  1.230000000000000E-002    7.289054894359109E-005
  1.240000000000000E-002    7.729523720519482E-005
  1.250000000000000E-002    8.194538465325735E-005
  1.260000000000000E-002    8.685411451338173E-005
  1.270000000000000E-002    9.203514454957257E-005
  1.280000000000000E-002    9.750280730687217E-005
  1.290000000000000E-002    1.032720599203831E-004
  1.300000000000000E-002    1.093585242712189E-004
  1.310000000000000E-002    1.157784848041403E-004
  1.320000000000000E-002    1.225489440695066E-004
  1.330000000000000E-002    1.296876327296761E-004
  1.340000000000000E-002    1.372130739372051E-004
  1.350000000000000E-002    1.451445889641025E-004
  1.360000000000000E-002    1.535023436246785E-004
  1.370000000000000E-002    1.623073886350572E-004
  1.380000000000000E-002    1.715817184375671E-004
  1.390000000000000E-002    1.813482948240482E-004
  1.400000000000000E-002    1.916310943353307E-004
  1.410000000000000E-002    2.024551539274067E-004
  1.420000000000000E-002    2.138466263659557E-004
  1.430000000000000E-002    2.258327885974641E-004
  1.440000000000000E-002    2.384420932517314E-004
  1.450000000000000E-002    2.517042461318171E-004
  1.460000000000000E-002    2.656502003264026E-004
  1.470000000000000E-002    2.803122429449808E-004
  1.480000000000000E-002    2.957240122691148E-004
  1.490000000000000E-002    3.119205384487421E-004
  1.500000000000000E-002    3.289382909633348E-004
  1.510000000000000E-002    3.468152754362322E-004
  1.520000000000000E-002    3.655910413230337E-004
  1.530000000000000E-002    3.853066783515226E-004
  1.540000000000000E-002    4.060049998389037E-004
  1.550000000000000E-002    4.277305944134779E-004
  1.560000000000000E-002    4.505297152524781E-004
  1.570000000000000E-002    4.744505553077324E-004
  1.580000000000000E-002    4.995432109519201E-004
  1.590000000000000E-002    5.258597486696563E-004
  1.600000000000000E-002    5.534542938958984E-004
  1.610000000000000E-002    5.823830580397399E-004
  1.620000000000000E-002    6.127044665439792E-004
  1.630000000000000E-002    6.444790911125693E-004
  1.640000000000000E-002    6.777698894739983E-004
  1.650000000000000E-002    7.126421619851292E-004
  1.660000000000000E-002    7.491635272074572E-004
  1.670000000000000E-002    7.874040797839426E-004
  1.680000000000000E-002    8.274364662351214E-004
  1.690000000000000E-002    8.693359494038915E-004
  1.700000000000000E-002    9.131802201157541E-004
  1.710000000000000E-002    9.590498345635470E-004
  1.720000000000000E-002    1.007027966748353E-003
  1.730000000000000E-002    1.057200730367693E-003
  1.740000000000000E-002    1.109656974337186E-003
  1.750000000000000E-002    1.164488584759538E-003
  1.760000000000000E-002    1.221790477915756E-003
  1.770000000000000E-002    1.281660778485868E-003
  1.780000000000000E-002    1.344200779643750E-003
  1.790000000000000E-002    1.409515138980221E-003
  1.800000000000000E-002    1.477711889701285E-003
  1.810000000000000E-002    1.548902647934803E-003
  1.820000000000000E-002    1.623202468158450E-003
  1.830000000000000E-002    1.700730293647983E-003
  1.840000000000000E-002    1.781608654452283E-003
  1.850000000000000E-002    1.865963994399665E-003
  1.860000000000000E-002    1.953926712058352E-003
  1.870000000000000E-002    2.045631105852577E-003