 -4.000000000000000E-002    0.000000000000000E+000
 -3.990000000000000E-002    0.000000000000000E+000
 -3.980000000000000E-002    0.000000000000000E+000
 -3.970000000000000E-002    0.000000000000000E+000
 -3.960000000000000E-002    0.000000000000000E+000
 -3.950000000000000E-002    0.000000000000000E+000
 -3.940000000000000E-002    0.000000000000000E+000
 -3.930000000000000E-002    0.000000000000000E+000
 -3.920000000000000E-002    0.000000000000000E+000
 -3.910000000000000E-002    0.000000000000000E+000
 -3.900000000000000E-002    0.000000000000000E+000
 -3.890000000000000E-002    0.000000000000000E+000
 -3.880000000000000E-002    0.000000000000000E+000
 -3.870000000000000E-002    0.000000000000000E+000
 -3.860000000000000E-002    0.000000000000000E+000
 -3.850000000000000E-002    0.000000000000000E+000
 -3.840000000000000E-002    0.000000000000000E+000
 -3.830000000000000E-002    0.000000000000000E+000
 -3.820000000000000E-002    0.000000000000000E+000
 -3.810000000000000E-002    0.000000000000000E+000
 -3.800000000000000E-002    0.000000000000000E+000
 -3.790000000000000E-002    0.000000000000000E+000
 -3.780000000000000E-002    0.000000000000000E+000
 -3.770000000000000E-002    0.000000000000000E+000
 -3.760000000000000E-002    0.000000000000000E+000
 -3.750000000000000E-002    0.000000000000000E+000
 -3.740000000000000E-002    0.000000000000000E+000
 -3.730000000000000E-002    0.000000000000000E+000
 -3.720000000000000E-002    0.000000000000000E+000
 -3.710000000000000E-002    0.000000000000000E+000
 -3.700000000000000E-002    0.000000000000000E+000
 -3.690000000000000E-002    0.000000000000000E+000
 -3.680000000000000E-002    0.000000000000000E+000
 -3.670000000000000E-002    0.000000000000000E+000
 -3.660000000000000E-002    0.000000000000000E+000
 -3.650000000000000E-002    0.000000000000000E+000
 -3.640000000000000E-002    0.000000000000000E+000
 -3.630000000000000E-002    0.000000000000000E+000
 -3.620000000000000E-002    0.000000000000000E+000
 -3.610000000000000E-002    0.000000000000000E+000
 -3.600000000000000E-002    0.000000000000000E+000
 -3.590000000000000E-002    0.000000000000000E+000
 -3.580000000000000E-002    0.000000000000000E+000
 -3.570000000000000E-002    0.000000000000000E+000
 -3.560000000000000E-002    0.000000000000000E+000
 -3.550000000000000E-002    0.000000000000000E+000
 -3.540000000000000E-002    0.000000000000000E+000
 -3.530000000000000E-002    0.000000000000000E+000
 -3.520000000000000E-002    0.000000000000000E+000
 -3.510000000000000E-002    0.000000000000000E+000
 -3.500000000000000E-002    0.000000000000000E+000
 -3.490000000000000E-002    0.000000000000000E+000
 -3.480000000000000E-002    0.000000000000000E+000
 -3.470000000000000E-002    0.000000000000000E+000
 -3.460000000000000E-002    0.000000000000000E+000
 -3.450000000000000E-002    0.000000000000000E+000
 -3.440000000000000E-002    0.000000000000000E+000
 -3.430000000000000E-002    0.000000000000000E+000
 -3.420000000000000E-002    0.000000000000000E+000
 -3.410000000000000E-002    0.000000000000000E+000
 -3.400000000000000E-002    0.000000000000000E+000
 -3.390000000000000E-002    0.000000000000000E+000
 -3.380000000000000E-002    0.000000000000000E+000
 -3.370000000000000E-002    0.000000000000000E+000
 -3.360000000000000E-002    0.000000000000000E+000
 -3.350000000000000E-002    0.000000000000000E+000
 -3.340000000000000E-002    0.000000000000000E+000
 -3.330000000000000E-002    0.000000000000000E+000
 -3.320000000000000E-002    0.000000000000000E+000
 -3.310000000000000E-002    0.000000000000000E+000
 -3.300000000000000E-002    0.000000000000000E+000
 -3.290000000000000E-002    0.000000000000000E+000
 -3.280000000000000E-002    0.000000000000000E+000
 -3.270000000000000E-002    0.000000000000000E+000
 -3.260000000000000E-002    0.000000000000000E+000
 -3.250000000000000E-002    0.000000000000000E+000
 -3.240000000000000E-002    0.000000000000000E+000
 -3.230000000000000E-002    0.000000000000000E+000
 -3.220000000000000E-002    0.000000000000000E+000
 -3.210000000000000E-002    0.000000000000000E+000
 -3.200000000000000E-002    0.000000000000000E+000
 -3.190000000000000E-002    0.000000000000000E+000
 -3.180000000000000E-002    0.000000000000000E+000
 -3.170000000000000E-002    0.000000000000000E+000
 -3.160000000000000E-002    0.000000000000000E+000
 -3.150000000000000E-002    0.000000000000000E+000
 -3.140000000000000E-002    0.000000000000000E+000
 -3.130000000000000E-002    0.000000000000000E+000
 -3.120000000000000E-002    0.000000000000000E+000
 -3.110000000000000E-002    0.000000000000000E+000
 -3.100000000000000E-002    0.000000000000000E+000
 -3.090000000000000E-002    0.000000000000000E+000
 -3.080000000000000E-002    0.000000000000000E+000
 -3.070000000000000E-002    0.000000000000000E+000
 -3.060000000000000E-002    0.000000000000000E+000
 -3.050000000000000E-002    0.000000000000000E+000
 -3.040000000000000E-002    0.000000000000000E+000
 -3.030000000000000E-002    0.000000000000000E+000
 -3.020000000000000E-002    0.000000000000000E+000
 -3.010000000000000E-002    0.000000000000000E+000
 -3.000000000000000E-002    0.000000000000000E+000
 -2.990000000000000E-002    0.000000000000000E+000
 -2.980000000000000E-002    0.000000000000000E+000
 -2.970000000000000E-002    0.000000000000000E+000
 -2.960000000000000E-002    0.000000000000000E+000
 -2.950000000000000E-002    0.000000000000000E+000
 -2.940000000000000E-002    0.000000000000000E+000
 -2.930000000000000E-002    0.000000000000000E+000
 -2.920000000000000E-002    0.000000000000000E+000
 -2.910000000000000E-002    0.000000000000000E+000
 -2.900000000000000E-002    0.000000000000000E+000
 -2.890000000000000E-002    0.000000000000000E+000
 -2.880000000000000E-002    0.000000000000000E+000
 -2.870000000000000E-002    0.000000000000000E+000
 -2.860000000000000E-002    0.000000000000000E+000
 -2.850000000000000E-002    0.000000000000000E+000
 -2.840000000000000E-002    0.000000000000000E+000
 -2.830000000000000E-002    0.000000000000000E+000
 -2.820000000000000E-002    0.000000000000000E+000
 -2.810000000000000E-002    0.000000000000000E+000
 -2.800000000000000E-002    0.000000000000000E+000
 -2.790000000000000E-002    0.000000000000000E+000
 -2.780000000000000E-002    0.000000000000000E+000
 -2.770000000000000E-002    0.000000000000000E+000
 -2.760000000000000E-002    0.000000000000000E+000
 -2.750000000000000E-002    0.000000000000000E+000
 -2.740000000000000E-002    0.000000000000000E+000
 -2.730000000000000E-002    0.000000000000000E+000
 -2.720000000000000E-002    0.000000000000000E+000
 -2.710000000000000E-002    0.000000000000000E+000
 -2.700000000000000E-002    0.000000000000000E+000
 -2.690000000000000E-002    0.000000000000000E+000
 -2.680000000000000E-002    0.000000000000000E+000
 -2.670000000000000E-002    0.000000000000000E+000
 -2.660000000000000E-002    0.000000000000000E+000
 -2.650000000000000E-002    0.000000000000000E+000
 -2.640000000000000E-002    0.000000000000000E+000
 -2.630000000000000E-002    0.000000000000000E+000
 -2.620000000000000E-002    0.000000000000000E+000
 -2.610000000000000E-002    0.000000000000000E+000
 -2.600000000000000E-002    0.000000000000000E+000
 -2.590000000000000E-002    0.000000000000000E+000
 -2.580000000000000E-002    0.000000000000000E+000
 -2.570000000000000E-002    0.000000000000000E+000
 -2.560000000000000E-002    0.000000000000000E+000
 -2.550000000000000E-002    0.000000000000000E+000
 -2.540000000000000E-002    0.000000000000000E+000
 -2.530000000000000E-002    0.000000000000000E+000
 -2.520000000000000E-002    0.000000000000000E+000
 -2.510000000000000E-002    0.000000000000000E+000
 -2.500000000000000E-002    0.000000000000000E+000
 -2.490000000000000E-002    0.000000000000000E+000
 -2.480000000000000E-002    0.000000000000000E+000
 -2.470000000000000E-002    0.000000000000000E+000
 -2.460000000000000E-002    0.000000000000000E+000
 -2.450000000000000E-002    0.000000000000000E+000
 -2.440000000000000E-002    0.000000000000000E+000
 -2.430000000000000E-002    0.000000000000000E+000
 -2.420000000000000E-002    0.000000000000000E+000
 -2.410000000000000E-002    0.000000000000000E+000
 -2.400000000000000E-002    0.000000000000000E+000
 -2.390000000000000E-002    0.000000000000000E+000
 -2.380000000000000E-002    0.000000000000000E+000
 -2.370000000000000E-002    0.000000000000000E+000
 -2.360000000000000E-002    0.000000000000000E+000
 -2.350000000000000E-002    0.000000000000000E+000
 -2.340000000000000E-002    0.000000000000000E+000
 -2.330000000000000E-002    0.000000000000000E+000
 -2.320000000000000E-002    0.000000000000000E+000
 -2.310000000000000E-002    0.000000000000000E+000
 -2.300000000000000E-002    0.000000000000000E+000
 -2.290000000000000E-002    0.000000000000000E+000
 -2.280000000000000E-002    0.000000000000000E+000
 -2.270000000000000E-002    0.000000000000000E+000
 -2.260000000000000E-002    0.000000000000000E+000
 -2.250000000000000E-002    0.000000000000000E+000
 -2.240000000000000E-002    0.000000000000000E+000
 -2.230000000000000E-002    0.000000000000000E+000
 -2.220000000000000E-002    0.000000000000000E+000
 -2.210000000000000E-002    0.000000000000000E+000
 -2.200000000000000E-002    0.000000000000000E+000
 -2.190000000000000E-002    0.000000000000000E+000
 -2.180000000000000E-002    0.000000000000000E+000
 -2.170000000000000E-002    0.000000000000000E+000
 -2.160000000000000E-002    0.000000000000000E+000
 -2.150000000000000E-002    0.000000000000000E+000
 -2.140000000000000E-002    0.000000000000000E+000
 -2.130000000000000E-002    0.000000000000000E+000
 -2.120000000000000E-002    0.000000000000000E+000
 -2.110000000000000E-002    0.000000000000000E+000
 -2.100000000000000E-002    0.000000000000000E+000
 -2.090000000000000E-002    0.000000000000000E+000
 -2.080000000000000E-002    0.000000000000000E+000
 -2.070000000000000E-002    0.000000000000000E+000
 -2.060000000000000E-002    0.000000000000000E+000
 -2.050000000000000E-002    0.000000000000000E+000
 -2.040000000000000E-002    0.000000000000000E+000
 -2.030000000000000E-002    0.000000000000000E+000
 -2.020000000000000E-002    0.000000000000000E+000
 -2.010000000000000E-002    0.000000000000000E+000
 -2.000000000000000E-002    0.000000000000000E+000
 -1.990000000000000E-002    0.000000000000000E+000
 -1.980000000000000E-002    0.000000000000000E+000
 -1.970000000000000E-002    0.000000000000000E+000
 -1.960000000000000E-002    0.000000000000000E+000
 -1.950000000000000E-002    0.000000000000000E+000
 -1.940000000000000E-002    0.000000000000000E+000
 -1.930000000000000E-002    0.000000000000000E+000
 -1.920000000000000E-002    0.000000000000000E+000
 -1.910000000000000E-002    0.000000000000000E+000
 -1.900000000000000E-002    0.000000000000000E+000
 -1.890000000000000E-002    0.000000000000000E+000
 -1.880000000000000E-002    0.000000000000000E+000
 -1.870000000000000E-002    0.000000000000000E+000
 -1.860000000000000E-002    0.000000000000000E+000
 -1.850000000000000E-002    0.000000000000000E+000
 -1.840000000000000E-002    0.000000000000000E+000
 -1.830000000000000E-002    0.000000000000000E+000
 -1.820000000000000E-002    0.000000000000000E+000
 -1.810000000000000E-002    0.000000000000000E+000
 -1.800000000000000E-002    0.000000000000000E+000
 -1.790000000000000E-002    0.000000000000000E+000
 -1.780000000000000E-002    0.000000000000000E+000
 -1.770000000000000E-002    0.000000000000000E+000
 -1.760000000000000E-002    0.000000000000000E+000
 -1.750000000000000E-002    0.000000000000000E+000
 -1.740000000000000E-002    0.000000000000000E+000
 -1.730000000000000E-002    0.000000000000000E+000
 -1.720000000000000E-002    0.000000000000000E+000
 -1.710000000000000E-002    0.000000000000000E+000
 -1.700000000000000E-002    0.000000000000000E+000
 -1.690000000000000E-002    0.000000000000000E+000
 -1.680000000000000E-002    0.000000000000000E+000
 -1.670000000000000E-002    0.000000000000000E+000
 -1.660000000000000E-002    0.000000000000000E+000
 -1.650000000000000E-002    0.000000000000000E+000
 -1.640000000000000E-002    0.000000000000000E+000
 -1.630000000000000E-002    0.000000000000000E+000
 -1.620000000000000E-002    0.000000000000000E+000
 -1.610000000000000E-002    0.000000000000000E+000
 -1.600000000000000E-002    0.000000000000000E+000
 -1.590000000000000E-002    0.000000000000000E+000
 -1.580000000000000E-002    0.000000000000000E+000
 -1.570000000000000E-002    0.000000000000000E+000
 -1.560000000000000E-002    0.000000000000000E+000
 -1.550000000000000E-002    0.000000000000000E+000
 -1.540000000000000E-002    0.000000000000000E+000
 -1.530000000000000E-002    0.000000000000000E+000
 -1.520000000000000E-002    0.000000000000000E+000
 -1.510000000000000E-002    0.000000000000000E+000
 -1.500000000000000E-002    0.000000000000000E+000
 -1.490000000000000E-002    0.000000000000000E+000
 -1.480000000000000E-002    0.000000000000000E+000
 -1.470000000000000E-002    0.000000000000000E+000
 -1.460000000000000E-002    0.000000000000000E+000
 -1.450000000000000E-002    0.000000000000000E+000
 -1.440000000000000E-002    0.000000000000000E+000
 -1.430000000000000E-002    0.000000000000000E+000
 -1.420000000000000E-002    0.000000000000000E+000
 -1.410000000000000E-002    0.000000000000000E+000
 -1.400000000000000E-002    0.000000000000000E+000
 -1.390000000000000E-002    0.000000000000000E+000
 -1.380000000000000E-002    0.000000000000000E+000
 -1.370000000000000E-002    0.000000000000000E+000
 -1.360000000000000E-002    0.000000000000000E+000
 -1.350000000000000E-002    0.000000000000000E+000
 -1.340000000000000E-002    0.000000000000000E+000
 -1.330000000000000E-002    0.000000000000000E+000
 -1.320000000000000E-002    0.000000000000000E+000
 -1.310000000000000E-002    0.000000000000000E+000
 -1.300000000000000E-002    0.000000000000000E+000
 -1.290000000000000E-002    0.000000000000000E+000
 -1.280000000000000E-002    0.000000000000000E+000
 -1.270000000000000E-002    0.000000000000000E+000
 -1.260000000000000E-002    0.000000000000000E+000
 -1.250000000000000E-002    0.000000000000000E+000
 -1.240000000000000E-002    0.000000000000000E+000
 -1.230000000000000E-002    0.000000000000000E+000
 -1.220000000000000E-002    0.000000000000000E+000
 -1.210000000000000E-002    0.000000000000000E+000
 -1.200000000000000E-002    0.000000000000000E+000
 -1.190000000000000E-002    0.000000000000000E+000
 -1.180000000000000E-002    0.000000000000000E+000
 -1.170000000000000E-002    0.000000000000000E+000
 -1.160000000000000E-002    0.000000000000000E+000
 -1.150000000000000E-002    0.000000000000000E+000
 -1.140000000000000E-002    0.000000000000000E+000
 -1.130000000000000E-002    0.000000000000000E+000
 -1.120000000000000E-002    1.036108896286169E-048
 -1.110000000000000E-002    1.036108896286169E-048
 -1.100000000000000E-002    1.036108896286169E-048
 -1.090000000000000E-002    1.036108896286169E-048
 -1.080000000000000E-002    0.000000000000000E+000
 -1.070000000000000E-002   -2.072217792572338E-048
 -1.060000000000000E-002   -8.326556360069250E-048
 -1.050000000000000E-002   -1.143488304892776E-047
 -1.040000000000000E-002   -1.758246255057104E-047
 -1.030000000000000E-002   -1.954792127728975E-047
 -1.020000000000000E-002   -1.840505331514995E-047
 -1.010000000000000E-002    3.124732072832781E-049
 -1.000000000000000E-002    7.255047721258171E-048
 -9.899999999999999E-003    2.241741952944868E-047
 -9.800000000000000E-003    6.686813202059483E-047
 -9.699999999999999E-003    1.050032360584480E-046
 -9.599999999999999E-003    1.437577276720269E-046
 -9.500000000000000E-003    1.626518248010328E-046
 -9.399999999999999E-003    1.724243705576379E-046
 -9.299999999999999E-003    1.858711497906978E-046
 -9.200000000000000E-003    1.388823412283329E-046
 -9.099999999999999E-003    2.132033350639318E-047
 -8.999999999999999E-003   -1.620893683075575E-046
 -8.900000000000000E-003   -4.564820259771576E-046
 -8.799999999999999E-003   -7.686138179269418E-046
 -8.699999999999999E-003   -1.161438822837566E-045
 -8.600000000000000E-003   -1.624486370975560E-045
 -8.499999999999999E-003   -1.807021452443600E-045
 -8.399999999999999E-003   -1.833860105542358E-045
 -8.300000000000000E-003   -1.461307195285356E-045
 -8.199999999999999E-003   -7.480793153409259E-046
 -8.100000000000000E-003    6.593118973770246E-046
 -8.000000000000000E-003    2.279420373010656E-045
 -7.899999999999999E-003    4.440158716816379E-045
 -7.800000000000000E-003    7.021124238522684E-045
 -7.699999999999999E-003    9.324110007036362E-045
 -7.599999999999999E-003    1.155800453339490E-044
 -7.499999999999999E-003    1.304103476877135E-044
 -7.399999999999999E-003    1.245079696319253E-044
 -7.299999999999999E-003    9.149980939718962E-045
 -7.199999999999999E-003    2.839937992113557E-045
 -7.100000000000000E-003   -6.739598666026416E-045
 -6.999999999999999E-003   -1.899862953253785E-044
 -6.899999999999999E-003   -3.323036996895901E-044
 -6.800000000000000E-003   -4.657298260335335E-044
 -6.699999999999999E-003   -5.720490220101075E-044
 -6.599999999999999E-003   -6.329239603362838E-044
 -6.499999999999999E-003   -6.094896392512164E-044
 -6.399999999999999E-003   -4.732352352489970E-044
 -6.299999999999999E-003   -2.009762847255294E-044
 -6.199999999999999E-003    2.113767721538638E-044
 -6.100000000000000E-003    7.390953993098414E-044
 -5.999999999999999E-003    1.352212772824602E-043
 -5.899999999999999E-003    1.972036460410823E-043
 -5.800000000000000E-003    2.516933651354041E-043
 -5.699999999999999E-003    2.861656820640177E-043
 -5.599999999999999E-003    2.895172748093410E-043
 -5.499999999999999E-003    2.504740280505524E-043
 -5.399999999999999E-003    1.606145852264133E-043
 -5.299999999999999E-003    1.706546235889219E-044
 -5.199999999999999E-003   -1.763813759050036E-043
 -5.099999999999999E-003   -4.096376645893834E-043
 -4.999999999999999E-003   -6.618150820924463E-043
 -4.899999999999999E-003   -9.061754910427928E-043
 -4.799999999999999E-003   -1.108931308063154E-042
 -4.699999999999999E-003   -1.232868185149585E-042
 -4.599999999999999E-003   -1.239849744167832E-042
 -4.499999999999999E-003   -1.094596979692859E-042
 -4.399999999999999E-003   -7.689707045059625E-043
 -4.299999999999999E-003   -2.451690049200647E-043
 -4.199999999999999E-003    4.818427205548324E-043
 -4.099999999999999E-003    1.399368331213435E-042
 -3.999999999999999E-003    2.476545453152919E-042
 -3.899999999999999E-003    3.657827472615417E-042
 -3.799999999999999E-003    4.855762231257359E-042
 -3.699999999999999E-003    5.945055562235279E-042
 -3.599999999999999E-003    6.755320284381318E-042
 -3.499999999999999E-003    7.065958591329791E-042
 -3.399999999999999E-003    6.604383405491364E-042
 -3.299999999999999E-003    5.057334132183612E-042
 -3.199999999999999E-003    2.104200998821226E-042
 -3.099999999999999E-003   -2.535292951985312E-042
 -2.999999999999999E-003   -9.019833973528088E-042
 -2.899999999999999E-003   -1.728043725546457E-041
 -2.799999999999999E-003   -2.690212075178153E-041
 -2.699999999999999E-003   -3.699973713121186E-041
 -2.599999999999999E-003   -4.612720655929146E-041
 -2.499999999999999E-003   -5.224597360188917E-041
 -2.399999999999999E-003   -5.279940333846063E-041
 -2.299999999999999E-003   -4.493687140328134E-041
 -2.199999999999999E-003   -2.590226984867988E-041
 -2.099999999999999E-003    6.390731094904633E-042
 -1.999999999999999E-003    5.263721253480125E-041
 -1.899999999999999E-003    1.113414763541604E-040
 -1.799999999999999E-003    1.780656859193308E-040
 -1.699999999999999E-003    2.448922172815570E-040
 -1.599999999999999E-003    3.003028664777212E-040
 -1.499999999999999E-003    3.296921284324382E-040
 -1.399999999999999E-003    3.166699626789496E-040
 -1.299999999999999E-003    2.452632147602426E-040
 -1.199999999999999E-003    1.029642167481964E-040
 -1.099999999999999E-003   -1.155923771737618E-040
 -9.999999999999989E-004   -4.047538774174721E-040
 -8.999999999999990E-004   -7.444140648902697E-040
 -7.999999999999990E-004   -1.097808997102108E-039
 -6.999999999999989E-004   -1.411436144385056E-039
 -5.999999999999990E-004   -1.617898186928899E-039
 -4.999999999999989E-004   -1.642256738796426E-039
 -3.999999999999989E-004   -1.412043065744899E-039
 -2.999999999999989E-004   -8.704733189268641E-040
 -1.999999999999989E-004    8.331503448102254E-042
 -9.999999999999892E-005    1.204086833141279E-039
  1.084202172485504E-018    2.637686265135798E-039
  1.000000000000011E-004    4.164215502623309E-039
  2.000000000000011E-004    5.574703490509402E-039
  3.000000000000011E-004    6.609161365213428E-039
  4.000000000000011E-004    6.982273264579928E-039
  5.000000000000011E-004    6.421348447727308E-039
  6.000000000000011E-004    4.713905767147531E-039
  7.000000000000011E-004    1.759807276706776E-039
  8.000000000000011E-004   -2.379414636053996E-039
  9.000000000000012E-004   -7.443023700591736E-039
  1.000000000000001E-003   -1.295486655696646E-038
  1.100000000000001E-003   -1.823700222940877E-038
  1.200000000000001E-003   -2.245893078894618E-038
  1.300000000000001E-003   -2.472367626972200E-038
  1.400000000000001E-003   -2.418606164278680E-038
  1.500000000000001E-003   -2.019187412353496E-038
  1.600000000000001E-003   -1.242036628138506E-038
  1.700000000000001E-003   -1.007757977873649E-039
  1.800000000000001E-003    1.337248587442561E-038
  1.900000000000001E-003    2.949483665428915E-038
  2.000000000000001E-003    4.564818593239653E-038
  2.100000000000001E-003    5.978856134318902E-038
  2.200000000000001E-003    6.976897852065515E-038
  2.300000000000001E-003    7.362160479170207E-038
  2.400000000000001E-003    6.985321463037211E-038
  2.500000000000001E-003    5.770500391668001E-038
  2.600000000000001E-003    3.732545218451500E-038
  2.700000000000001E-003    9.812661563585079E-039
  2.800000000000001E-003   -2.289915611147759E-038
  2.900000000000001E-003   -5.830603144547078E-038
  3.000000000000001E-003   -9.371588682497753E-038
  3.100000000000001E-003   -1.266729525528105E-037
  3.200000000000001E-003   -1.553245093271870E-037
  3.300000000000001E-003   -1.786172501327593E-037
  3.400000000000001E-003   -1.962213903781055E-037
  3.500000000000001E-003   -2.081199107196829E-037
  3.600000000000001E-003   -2.138681552778415E-037
  3.700000000000001E-003   -2.116198103650150E-037
  3.800000000000001E-003   -1.971168588037708E-037
  3.900000000000001E-003   -1.629342523551778E-037
  4.000000000000001E-003   -9.833081788549819E-038
  4.100000000000001E-003    9.937588757097196E-039
  4.200000000000001E-003    1.755619715883926E-037
  4.300000000000001E-003    4.092663603294425E-037
  4.400000000000001E-003    7.141785471233593E-037
  4.500000000000001E-003    1.080455467709744E-036
  4.600000000000002E-003    1.479990362516630E-036
  4.700000000000001E-003    1.862357310733872E-036
  4.800000000000001E-003    2.153370917658461E-036
  4.900000000000002E-003    2.257677818269204E-036
  5.000000000000001E-003    2.066579763152258E-036
  5.100000000000001E-003    1.471768480376982E-036
  5.200000000000001E-003    3.848168909699262E-037
  5.300000000000002E-003   -1.238821105636835E-036
  5.400000000000001E-003   -3.373809495390932E-036
  5.500000000000001E-003   -5.900684455152956E-036
  5.600000000000002E-003   -8.588137412052506E-036
  5.700000000000001E-003   -1.108716218159909E-035
  5.800000000000001E-003   -1.294223437822553E-035
  5.900000000000002E-003   -1.362364292156700E-035
  6.000000000000001E-003   -1.258303923262048E-035
  6.100000000000001E-003   -9.331244288644485E-036
  6.200000000000002E-003   -3.533578261987253E-036
  6.300000000000002E-003    4.886223828927827E-036
  6.400000000000001E-003    1.564650105767438E-035
  6.500000000000001E-003    2.802881946713354E-035
  6.600000000000002E-003    4.083785120406682E-035
  6.700000000000001E-003    5.241767932410889E-035
  6.800000000000001E-003    6.073920599776071E-035
  6.900000000000002E-003    6.356739676726011E-035
  7.000000000000001E-003    5.870831712885665E-035
  7.100000000000001E-003    4.432478296517426E-035
  7.200000000000002E-003    1.929699335338785E-035
  7.300000000000002E-003   -1.640809196112675E-035
  7.400000000000001E-003   -6.140573776837395E-035
  7.500000000000001E-003   -1.126553959745023E-034
  7.600000000000002E-003   -1.653725423677824E-034
  7.700000000000001E-003   -2.131428145336195E-034
  7.800000000000001E-003   -2.482787629228370E-034
  7.900000000000001E-003   -2.624392846155105E-034
  8.000000000000002E-003   -2.475043322150831E-034
  8.100000000000001E-003   -1.966640914817770E-034
  8.200000000000001E-003   -1.056452429663701E-034
  8.300000000000002E-003    2.603941070282347E-035
  8.400000000000001E-003    1.939632434487729E-034
  8.500000000000002E-003    3.879483971846729E-034
  8.600000000000002E-003    5.916956554925710E-034
  8.700000000000001E-003    7.830498282864407E-034
  8.800000000000002E-003    9.350385388790310E-034
  8.900000000000002E-003    1.017769261473903E-033
  9.000000000000001E-003    1.001192545804130E-033
  9.100000000000002E-003    8.586430523112928E-034
  9.200000000000002E-003    5.709566572593765E-034
  9.300000000000001E-003    1.308434987914141E-034
  9.400000000000002E-003   -4.529200669871605E-034
  9.500000000000001E-003   -1.152015410693747E-033
  9.600000000000001E-003   -1.916421356658239E-033
  9.700000000000002E-003   -2.674185278404491E-033
  9.800000000000001E-003   -3.333689599314910E-033
  9.900000000000001E-003   -3.788850670140642E-033
  1.000000000000000E-002   -3.927469510053360E-033
  1.010000000000000E-002   -3.642652494472493E-033
  1.020000000000000E-002   -2.846838577919316E-033
  1.030000000000000E-002   -1.487538039889721E-033
  1.040000000000000E-002    4.365752240998671E-034
  1.050000000000000E-002    2.860995471412189E-033
  1.060000000000000E-002    5.644269713713613E-033
  1.070000000000000E-002    8.562743336518658E-033
  1.080000000000000E-002    1.131345562299336E-032
  1.090000000000000E-002    1.352715439509103E-032
  1.100000000000000E-002    1.479277146763569E-032
  1.110000000000000E-002    1.469372444159486E-032
  1.120000000000000E-002    1.285512025461549E-032
  1.130000000000000E-002    8.999375365982778E-033
  1.140000000000000E-002    3.006089270337683E-033
  1.150000000000000E-002   -5.029680596927860E-033
  1.160000000000000E-002   -1.474804200749909E-032
  1.170000000000000E-002   -2.549207440518003E-032
  1.180000000000000E-002   -3.630140101729424E-032
  1.190000000000000E-002   -4.593946954687754E-032
  1.200000000000000E-002   -5.296071126225359E-032
  1.210000000000000E-002   -5.582080624675967E-032
  1.220000000000000E-002   -5.302909425868358E-032
  1.230000000000000E-002   -4.333698725438739E-032
  1.240000000000000E-002   -2.595032767019875E-032
  1.250000000000000E-002   -7.475184756988395E-034
  1.260000000000000E-002    3.152048207225311E-032
  1.270000000000000E-002    6.907661938637819E-032
  1.280000000000000E-002    1.090413540140158E-031
  1.290000000000000E-002    1.474636800307338E-031
  1.300000000000000E-002    1.794854812690849E-031
  1.310000000000000E-002    1.996567639871148E-031
  1.320000000000000E-002    2.024064510937207E-031
  1.330000000000000E-002    1.826566299463431E-031
  1.340000000000000E-002    1.365477582719084E-031
  1.350000000000000E-002    6.222035574841181E-032
  1.360000000000000E-002   -3.942283077360413E-032
  1.370000000000000E-002   -1.640691860690970E-031
  1.380000000000000E-002   -3.035707218667472E-031
  1.390000000000000E-002   -4.458519704927425E-031
  1.400000000000000E-002   -5.752532326644633E-031
  1.410000000000000E-002   -6.733883448064215E-031
  1.420000000000000E-002   -7.205556245853122E-031
  1.430000000000000E-002   -6.976861388962291E-031
  1.440000000000000E-002   -5.887441783527538E-031
  1.450000000000000E-002   -3.834170657992151E-031
  1.460000000000000E-002   -7.985274081830523E-032
  1.470000000000000E-002    3.128687623686651E-031
  1.480000000000000E-002    7.728966715508463E-031
  1.490000000000000E-002    1.264793317853211E-030
  1.500000000000000E-002    1.740111966322909E-030
  1.510000000000000E-002    2.139669492206176E-030
  1.520000000000000E-002    2.397691577170289E-030
  1.530000000000000E-002    2.447825843004292E-030
  1.540000000000000E-002    2.230791480786626E-030
  1.550000000000000E-002    1.703173574855164E-030
  1.560000000000000E-002    8.466019926744970E-031
  1.570000000000000E-002   -3.236900154938331E-031
  1.580000000000000E-002   -1.752114482534239E-030
  1.590000000000000E-002   -3.339057716458313E-030
  1.600000000000000E-002   -4.941514000157591E-030
  1.610000000000000E-002   -6.379029318223372E-030
  1.620000000000000E-002   -7.445572220330431E-030
  1.630000000000000E-002   -7.927378793923292E-030
  1.640000000000000E-002   -7.626106358032609E-030
  1.650000000000000E-002   -6.385823059749820E-030
  1.660000000000000E-002   -4.121530656562482E-030
  1.670000000000000E-002   -8.461806371357673E-031
  1.680000000000000E-002    3.307409479412526E-030
  1.690000000000000E-002    8.073569562919395E-030
  1.700000000000000E-002    1.305338321311289E-029
  1.710000000000000E-002    1.772988441345718E-029
  1.720000000000000E-002    2.150067239562150E-029
  1.730000000000000E-002    2.372809083728013E-029
  1.740000000000000E-002    2.380504364450725E-029
  1.750000000000000E-002    2.123221682865137E-029
  1.760000000000000E-002    1.570014097596718E-029
  1.770000000000000E-002    7.167489539133842E-030
  1.780000000000000E-002   -4.074459263366545E-030
  1.790000000000000E-002   -1.736183327120527E-029
  1.800000000000000E-002   -3.165269417806702E-029
  1.810000000000000E-002   -4.556422855442658E-029
  1.820000000000000E-002   -5.745742582125996E-029
  1.830000000000000E-002   -6.556946848383031E-029
  1.840000000000000E-002   -6.818849182701416E-029
  1.850000000000000E-002   -6.385924638512841E-029
  1.860000000000000E-002   -5.160216211815021E-029
  1.870000000000000E-002   -3.112314482895170E-029