 -4.000000000000000E-002    0.000000000000000E+000
 -3.990000000000000E-002    0.000000000000000E+000
 -3.980000000000000E-002    0.000000000000000E+000
 -3.970000000000000E-002    0.000000000000000E+000
 -3.960000000000000E-002    0.000000000000000E+000
 -3.950000000000000E-002    0.000000000000000E+000
 -3.940000000000000E-002    0.000000000000000E+000
 -3.930000000000000E-002    0.000000000000000E+000
 -3.920000000000000E-002    0.000000000000000E+000
 -3.910000000000000E-002    0.000000000000000E+000
 -3.900000000000000E-002    0.000000000000000E+000
 -3.890000000000000E-002    0.000000000000000E+000
 -3.880000000000000E-002    0.000000000000000E+000
 -3.870000000000000E-002    0.000000000000000E+000
 -3.860000000000000E-002    0.000000000000000E+000
 -3.850000000000000E-002    0.000000000000000E+000
 -3.840000000000000E-002    0.000000000000000E+000
 -3.830000000000000E-002    0.000000000000000E+000
 -3.820000000000000E-002    0.000000000000000E+000
 -3.810000000000000E-002    0.000000000000000E+000
 -3.800000000000000E-002    0.000000000000000E+000
 -3.790000000000000E-002    0.000000000000000E+000
 -3.780000000000000E-002    0.000000000000000E+000
 -3.770000000000000E-002    0.000000000000000E+000
 -3.760000000000000E-002    0.000000000000000E+000
 -3.750000000000000E-002    0.000000000000000E+000
 -3.740000000000000E-002    0.000000000000000E+000
 -3.730000000000000E-002    0.000000000000000E+000
 -3.720000000000000E-002    0.000000000000000E+000
 -3.710000000000000E-002    0.000000000000000E+000
 -3.700000000000000E-002    0.000000000000000E+000
 -3.690000000000000E-002    0.000000000000000E+000
 -3.680000000000000E-002    0.000000000000000E+000
 -3.670000000000000E-002    0.000000000000000E+000
 -3.660000000000000E-002    0.000000000000000E+000
 -3.650000000000000E-002    0.000000000000000E+000
 -3.640000000000000E-002    0.000000000000000E+000
 -3.630000000000000E-002    0.000000000000000E+000
 -3.620000000000000E-002    0.000000000000000E+000
 -3.610000000000000E-002    0.000000000000000E+000
 -3.600000000000000E-002    0.000000000000000E+000
 -3.590000000000000E-002    0.000000000000000E+000
 -3.580000000000000E-002    0.000000000000000E+000
 -3.570000000000000E-002    0.000000000000000E+000
 -3.560000000000000E-002    0.000000000000000E+000
 -3.550000000000000E-002    0.000000000000000E+000
 -3.540000000000000E-002    0.000000000000000E+000
 -3.530000000000000E-002    0.000000000000000E+000
 -3.520000000000000E-002    0.000000000000000E+000
 -3.510000000000000E-002    0.000000000000000E+000
 -3.500000000000000E-002    0.000000000000000E+000
 -3.490000000000000E-002    0.000000000000000E+000
 -3.480000000000000E-002    0.000000000000000E+000
 -3.470000000000000E-002    0.000000000000000E+000
 -3.460000000000000E-002    0.000000000000000E+000
 -3.450000000000000E-002    0.000000000000000E+000
 -3.440000000000000E-002    0.000000000000000E+000
 -3.430000000000000E-002    0.000000000000000E+000
 -3.420000000000000E-002    0.000000000000000E+000
 -3.410000000000000E-002    0.000000000000000E+000
 -3.400000000000000E-002    0.000000000000000E+000
 -3.390000000000000E-002    0.000000000000000E+000
 -3.380000000000000E-002    0.000000000000000E+000
 -3.370000000000000E-002    0.000000000000000E+000
 -3.360000000000000E-002    0.000000000000000E+000
 -3.350000000000000E-002    0.000000000000000E+000
 -3.340000000000000E-002    0.000000000000000E+000
 -3.330000000000000E-002    0.000000000000000E+000
 -3.320000000000000E-002    0.000000000000000E+000
 -3.310000000000000E-002    0.000000000000000E+000
 -3.300000000000000E-002    0.000000000000000E+000
 -3.290000000000000E-002    0.000000000000000E+000
 -3.280000000000000E-002    0.000000000000000E+000
 -3.270000000000000E-002    0.000000000000000E+000
 -3.260000000000000E-002    0.000000000000000E+000
 -3.250000000000000E-002    0.000000000000000E+000
 -3.240000000000000E-002    0.000000000000000E+000
 -3.230000000000000E-002    0.000000000000000E+000
 -3.220000000000000E-002    0.000000000000000E+000
 -3.210000000000000E-002    0.000000000000000E+000
 -3.200000000000000E-002    0.000000000000000E+000
 -3.190000000000000E-002    0.000000000000000E+000
 -3.180000000000000E-002    0.000000000000000E+000
 -3.170000000000000E-002    0.000000000000000E+000
 -3.160000000000000E-002    0.000000000000000E+000
 -3.150000000000000E-002    0.000000000000000E+000
 -3.140000000000000E-002    0.000000000000000E+000
 -3.130000000000000E-002    0.000000000000000E+000
 -3.120000000000000E-002    0.000000000000000E+000
 -3.110000000000000E-002    0.000000000000000E+000
 -3.100000000000000E-002    0.000000000000000E+000
 -3.090000000000000E-002    0.000000000000000E+000
 -3.080000000000000E-002    0.000000000000000E+000
 -3.070000000000000E-002    0.000000000000000E+000
 -3.060000000000000E-002   -4.953544471243522E-048
 -3.050000000000000E-002   -1.672334363362561E-047
 -3.040000000000000E-002   -6.130692242597413E-048
 -3.030000000000000E-002   -2.180293637308599E-048
 -3.020000000000000E-002   -8.310985879906012E-048
 -3.010000000000000E-002   -4.360587274617198E-048
 -3.000000000000000E-002   -1.100284006035658E-047
 -2.990000000000000E-002    9.606258099774597E-048
 -2.980000000000000E-002    8.928357059113159E-047
 -2.970000000000000E-002    2.140959728586375E-046
 -2.960000000000000E-002    3.177028840466512E-046
 -2.950000000000000E-002    5.555584382861882E-046
 -2.940000000000000E-002    9.643351189627636E-046
 -2.930000000000000E-002    1.321257150477084E-045
 -2.920000000000000E-002    1.529672185288975E-045
 -2.910000000000000E-002    9.560899812050464E-046
 -2.900000000000000E-002   -1.191463884120903E-045
 -2.890000000000000E-002   -3.978193810842374E-045
 -2.880000000000000E-002   -8.891353082581565E-045
 -2.870000000000000E-002   -1.707955728240025E-044
 -2.860000000000000E-002   -2.870420607583410E-044
 -2.850000000000000E-002   -4.245573643733121E-044
 -2.840000000000000E-002   -5.661830378025336E-044
 -2.830000000000000E-002   -6.511836641304649E-044
 -2.820000000000000E-002   -5.899034703653422E-044
 -2.810000000000000E-002   -2.466506308865499E-044
 -2.800000000000000E-002    5.895785810216441E-044
 -2.790000000000000E-002    2.144213327034630E-043
 -2.780000000000000E-002    4.638650449475169E-043
 -2.770000000000000E-002    8.242852221420160E-043
 -2.760000000000000E-002    1.286553740486408E-042
 -2.750000000000000E-002    1.803191646633701E-042
 -2.740000000000000E-002    2.259323707216032E-042
 -2.730000000000000E-002    2.445196008478827E-042
 -2.720000000000000E-002    2.034912843148734E-042
 -2.710000000000000E-002    5.778860830644035E-043
 -2.700000000000000E-002   -2.480615837956038E-042
 -2.690000000000000E-002   -7.724823259554860E-042
 -2.680000000000000E-002   -1.561682700765925E-041
 -2.670000000000000E-002   -2.625742303963925E-041
 -2.660000000000000E-002   -3.904183561027271E-041
 -2.650000000000000E-002   -5.221800323326659E-041
 -2.640000000000000E-002   -6.241607361427231E-041
 -2.630000000000000E-002   -6.422852224444299E-041
 -2.620000000000000E-002   -5.002057552877204E-041
 -2.610000000000000E-002   -1.018637765709887E-041
 -2.600000000000000E-002    6.586243865622787E-041
 -2.590000000000000E-002    1.876848486965087E-040
 -2.580000000000000E-002    3.605307680971990E-040
 -2.570000000000000E-002    5.807034778381482E-040
 -2.560000000000000E-002    8.297737630472071E-040
 -2.550000000000000E-002    1.068253972807891E-039
 -2.540000000000000E-002    1.229950827296916E-039
 -2.530000000000000E-002    1.218836079184810E-039
 -2.520000000000000E-002    9.109353138118674E-040
 -2.510000000000000E-002    1.641330641246473E-040
 -2.500000000000000E-002   -1.161163677525834E-039
 -2.490000000000000E-002   -3.168262123639420E-039
 -2.480000000000000E-002   -5.876722540533425E-039
 -2.470000000000000E-002   -9.163380947365037E-039
 -2.460000000000000E-002   -1.269796834411001E-038
 -2.450000000000000E-002   -1.588435325299374E-038
 -2.440000000000000E-002   -1.782361945241967E-038
 -2.430000000000000E-002   -1.731977713968421E-038
 -2.420000000000000E-002   -1.295142328930686E-038
 -2.410000000000000E-002   -3.231473389744325E-039
 -2.400000000000000E-002    1.312950692938603E-038
 -2.390000000000000E-002    3.685428432997706E-038
 -2.380000000000000E-002    6.764287760002934E-038
 -2.370000000000000E-002    1.036753872793712E-037
 -2.360000000000000E-002    1.411509383788763E-037
 -2.350000000000000E-002    1.739704302083657E-037
 -2.340000000000000E-002    1.936935998821258E-037
 -2.330000000000000E-002    1.899080464085156E-037
 -2.320000000000000E-002    1.511304686131115E-037
 -2.310000000000000E-002    6.631197906448707E-038
 -2.300000000000000E-002   -7.306435897519562E-038
 -2.290000000000000E-002   -2.704205670301410E-037
 -2.280000000000000E-002   -5.213186566074197E-037
 -2.270000000000000E-002   -8.108953078081173E-037
 -2.260000000000000E-002   -1.112008646879506E-036
 -2.250000000000000E-002   -1.384664310251334E-036
 -2.240000000000000E-002   -1.577246324827691E-036
 -2.230000000000000E-002   -1.629925686513227E-036
 -2.220000000000000E-002   -1.480339926932973E-036
 -2.210000000000000E-002   -1.071252291312915E-036
 -2.200000000000000E-002   -3.594608261466582E-037
 -2.190000000000000E-002    6.751896324149372E-037
 -2.180000000000000E-002    2.022116591669277E-036
 -2.170000000000000E-002    3.635096288676276E-036
 -2.160000000000000E-002    5.431292796822634E-036
 -2.150000000000000E-002    7.294657731263845E-036
 -2.140000000000000E-002    9.083048300723053E-036
 -2.130000000000000E-002    1.063710395908144E-035
 -2.120000000000000E-002    1.178761998051248E-035
 -2.110000000000000E-002    1.235727171472429E-035
 -2.100000000000000E-002    1.215250664313131E-035
 -2.090000000000000E-002    1.094265132531810E-035
 -2.080000000000000E-002    8.426179795642097E-036
 -2.070000000000000E-002    4.188655542079295E-036
 -2.060000000000000E-002   -2.337025033788643E-036
 -2.050000000000000E-002   -1.189063718238417E-035
 -2.040000000000000E-002   -2.536102463679131E-035
 -2.030000000000000E-002   -4.369075011417188E-035
 -2.020000000000000E-002   -6.768078971770260E-035
 -2.010000000000000E-002   -9.767312083296570E-035
 -2.000000000000000E-002   -1.331033554817585E-034
 -1.990000000000000E-002   -1.719390437250574E-034
 -1.980000000000000E-002   -2.100521726062828E-034
 -1.970000000000000E-002   -2.406146868414877E-034
 -1.960000000000000E-002   -2.536511290986900E-034
 -1.950000000000000E-002   -2.359253528013996E-034
 -1.940000000000000E-002   -1.713724204259830E-034
 -1.930000000000000E-002   -4.230094439175168E-035
 -1.920000000000000E-002    1.684262031712508E-034
 -1.910000000000000E-002    4.740861312095291E-034
 -1.900000000000000E-002    8.796359405748561E-034
 -1.890000000000000E-002    1.376251828817756E-033
 -1.880000000000000E-002    1.935273615368413E-033
 -1.870000000000000E-002    2.502274766649424E-033
 -1.860000000000000E-002    2.992336071779590E-033
 -1.850000000000000E-002    3.287964252212095E-033
 -1.840000000000000E-002    3.241397176721858E-033
 -1.830000000000000E-002    2.683193508239860E-033
 -1.820000000000000E-002    1.438904836389658E-033
 -1.810000000000000E-002   -6.448617216157751E-034
 -1.800000000000000E-002   -3.664663380225487E-033
 -1.790000000000000E-002   -7.615980719745205E-033
 -1.780000000000000E-002   -1.234394953823873E-032
 -1.770000000000000E-002   -1.749518875302904E-032
 -1.760000000000000E-002   -2.247978179432397E-032
 -1.750000000000000E-002   -2.645517836476728E-032
 -1.740000000000000E-002   -2.834564075979402E-032
 -1.730000000000000E-002   -2.691101151169638E-032
 -1.720000000000000E-002   -2.087612995778902E-032
 -1.710000000000000E-002   -9.126418414193341E-033
 -1.700000000000000E-002    9.034642374672778E-033
 -1.690000000000000E-002    3.358403168217647E-032
 -1.680000000000000E-002    6.346819126663072E-032
 -1.670000000000000E-002    9.633461140130642E-032
 -1.660000000000000E-002    1.283737396676047E-031
 -1.650000000000000E-002    1.543482924981549E-031
 -1.640000000000000E-002    1.678855998023722E-031
 -1.630000000000000E-002    1.620917307816961E-031
 -1.620000000000000E-002    1.305101116811959E-031
 -1.610000000000000E-002    6.839153674375645E-032
 -1.600000000000000E-002   -2.583088406731667E-032
 -1.590000000000000E-002   -1.490517568532276E-031
 -1.580000000000000E-002   -2.922590727164124E-031
 -1.570000000000000E-002   -4.398873021888963E-031
 -1.560000000000000E-002   -5.701101480053315E-031
 -1.550000000000000E-002   -6.563848806937030E-031
 -1.540000000000000E-002   -6.704415123576131E-031
 -1.530000000000000E-002   -5.867068530789618E-031
 -1.520000000000000E-002   -3.878715960363246E-031
 -1.510000000000000E-002   -7.097388338741250E-032
 -1.500000000000000E-002    3.469671406205814E-031
 -1.490000000000000E-002    8.250160186015307E-031
 -1.480000000000000E-002    1.297473907363914E-030
 -1.470000000000000E-002    1.677432770883722E-030
 -1.460000000000000E-002    1.865679308406966E-030
 -1.450000000000000E-002    1.765211439066427E-030
 -1.440000000000000E-002    1.300637051921753E-030
 -1.430000000000000E-002    4.405114761961748E-031
 -1.420000000000000E-002   -7.806104243393744E-031
 -1.410000000000000E-002   -2.244746576582079E-030
 -1.400000000000000E-002   -3.742704756680799E-030
 -1.390000000000000E-002   -4.980917484626546E-030
 -1.380000000000000E-002   -5.606854987069931E-030
 -1.370000000000000E-002   -5.254853520965924E-030
 -1.360000000000000E-002   -3.610992780180612E-030
 -1.350000000000000E-002   -4.916091271935036E-031
 -1.340000000000000E-002    4.074360021290166E-030
 -1.330000000000000E-002    9.773045952002124E-030
 -1.320000000000000E-002    1.595998751332870E-029
 -1.310000000000000E-002    2.165845367699147E-029
 -1.300000000000000E-002    2.561677132632234E-029
 -1.290000000000000E-002    2.643394126302444E-029
 -1.280000000000000E-002    2.275361674411923E-029
 -1.270000000000000E-002    1.351445584886749E-029
 -1.260000000000000E-002   -1.768700480578781E-030
 -1.250000000000000E-002   -2.273150341604892E-029
 -1.240000000000000E-002   -4.794345944236203E-029
 -1.230000000000000E-002   -7.480146124500522E-029
 -1.220000000000000E-002   -9.958366265119192E-029
 -1.210000000000000E-002   -1.177011059491073E-028
 -1.200000000000000E-002   -1.241619456874119E-028
 -1.190000000000000E-002   -1.142320878349040E-028
 -1.180000000000000E-002   -8.423971802857537E-029
 -1.170000000000000E-002   -3.243439687282122E-029
 -1.160000000000000E-002    4.021976986944636E-029
 -1.150000000000000E-002    1.294564029486166E-028
 -1.140000000000000E-002    2.274649658382282E-028
 -1.130000000000000E-002    3.231138080783025E-028
 -1.120000000000000E-002    4.027123246009440E-028
 -1.110000000000000E-002    4.513204218827832E-028
 -1.100000000000000E-002    4.545326908528534E-028
 -1.090000000000000E-002    4.005795211193300E-028
 -1.080000000000000E-002    2.825101814231847E-028
 -1.070000000000000E-002    1.001671543632186E-028
 -1.060000000000000E-002   -1.383603571539545E-028
 -1.050000000000000E-002   -4.160957635233346E-028
 -1.040000000000000E-002   -7.075729042872604E-028
 -1.030000000000000E-002   -9.803914275884673E-028
 -1.020000000000000E-002   -1.197912087136438E-027
 -1.010000000000000E-002   -1.322924434240246E-027
 -1.000000000000000E-002   -1.321978194431621E-027
 -9.899999999999999E-003   -1.169956437635988E-027
 -9.800000000000000E-003   -8.544020945423280E-028
 -9.699999999999999E-003   -3.790974033358876E-028
 -9.599999999999999E-003    2.335584025538773E-028
 -9.500000000000000E-003    9.417365604808441E-028
 -9.399999999999999E-003    1.685172172993261E-027
 -9.299999999999999E-003    2.388074192602229E-027
 -9.200000000000000E-003    2.963941159585406E-027
 -9.099999999999999E-003    3.322172795358418E-027
 -8.999999999999999E-003    3.376288530665694E-027
 -8.900000000000000E-003    3.053488265566637E-027
 -8.799999999999999E-003    2.305191332793443E-027
 -8.699999999999999E-003    1.118032809990526E-027
 -8.600000000000000E-003   -4.754493647441095E-028
 -8.499999999999999E-003   -2.387540134613232E-027
 -8.399999999999999E-003   -4.468995191753865E-027
 -8.300000000000000E-003   -6.507528394149991E-027
 -8.199999999999999E-003   -8.233345595552167E-027
 -8.100000000000000E-003   -9.333953255278715E-027
 -8.000000000000000E-003   -9.480069016383633E-027
 -7.899999999999999E-003   -8.363482614590290E-027
 -7.800000000000000E-003   -5.746095794671270E-027
 -7.699999999999999E-003   -1.517134826792155E-027
 -7.599999999999999E-003    4.247120185100937E-027
 -7.499999999999999E-003    1.122948922867989E-026
 -7.399999999999999E-003    1.883463919489063E-026
 -7.299999999999999E-003    2.618041940035849E-026
 -7.199999999999999E-003    3.212942881066286E-026
 -7.100000000000000E-003    3.536992204001018E-026
 -6.999999999999999E-003    3.455019001226807E-026
 -6.899999999999999E-003    2.846317618293586E-026
 -6.800000000000000E-003    1.626888015841461E-026
 -6.699999999999999E-003   -2.267889249253807E-027
 -6.599999999999999E-003   -2.655623455661950E-026
 -6.499999999999999E-003   -5.501302634432498E-026
 -6.399999999999999E-003   -8.499313221714959E-026
 -6.299999999999999E-003   -1.128538815327882E-025
 -6.199999999999999E-003   -1.341812983781239E-025
 -6.100000000000000E-003   -1.441882315051243E-025
 -5.999999999999999E-003   -1.382712558408161E-025
 -5.899999999999999E-003   -1.126861461558754E-025
 -5.800000000000000E-003   -6.527455865582624E-026
 -5.699999999999999E-003    3.848532096586498E-027
 -5.599999999999999E-003    9.175168798323585E-026
 -5.499999999999999E-003    1.923951005268447E-025
 -5.399999999999999E-003    2.966833284755540E-025
 -5.299999999999999E-003    3.929262973239944E-025
 -5.199999999999999E-003    4.677275566984541E-025
 -5.099999999999999E-003    5.072636642496368E-025
 -4.999999999999999E-003    4.988595386384600E-025
 -4.899999999999999E-003    4.327097986218855E-025
 -4.799999999999999E-003    3.035546111955026E-025
 -4.699999999999999E-003    1.120978300959453E-025
 -4.599999999999999E-003   -1.340382028949834E-025
 -4.499999999999999E-003   -4.199919401845863E-025
 -4.399999999999999E-003   -7.240849279366545E-025
 -4.299999999999999E-003   -1.019015134941832E-024
 -4.199999999999999E-003   -1.273759295194488E-024
 -4.099999999999999E-003   -1.456037679543040E-024
 -3.999999999999999E-003   -1.535128159138166E-024
 -3.899999999999999E-003   -1.484778970381823E-024
 -3.799999999999999E-003   -1.285969817443702E-024
 -3.699999999999999E-003   -9.293051634386918E-025
 -3.599999999999999E-003   -4.168879456562389E-025
 -3.499999999999999E-003    2.364025176228626E-025
 -3.399999999999999E-003    1.002233423160471E-024
 -3.299999999999999E-003    1.838704250928527E-024
 -3.199999999999999E-003    2.690757599975621E-024
 -3.099999999999999E-003    3.491132336293041E-024
 -2.999999999999999E-003    4.161976663064876E-024
 -2.899999999999999E-003    4.617372672188947E-024
 -2.799999999999999E-003    4.767149122033982E-024
 -2.699999999999999E-003    4.522437480914677E-024
 -2.599999999999999E-003    3.803400552734378E-024
 -2.499999999999999E-003    2.549390764875456E-024
 -2.399999999999999E-003    7.314520734856203E-025
 -2.299999999999999E-003   -1.633444741925360E-024
 -2.199999999999999E-003   -4.467704243572394E-024
 -2.099999999999999E-003   -7.619934234265194E-024
 -1.999999999999999E-003   -1.085595431123690E-023
 -1.899999999999999E-003   -1.385709306691342E-023
 -1.799999999999999E-003   -1.622897956568957E-023
 -1.699999999999999E-003   -1.752361227920589E-023
 -1.599999999999999E-003   -1.727646108591584E-023
 -1.499999999999999E-003   -1.505868549607689E-023
 -1.399999999999999E-003   -1.054231032026907E-023
 -1.299999999999999E-003   -3.573551358365704E-024
 -1.199999999999999E-003    5.753245851962035E-024
 -1.099999999999999E-003    1.703104135439461E-023
 -9.999999999999989E-004    2.949659545299407E-023
 -8.999999999999990E-004    4.202022063997657E-023
 -7.999999999999990E-004    5.313987756613044E-023
 -6.999999999999989E-004    6.114776647265513E-023
 -5.999999999999990E-004    6.423270146019385E-023
 -4.999999999999989E-004    6.067496326033657E-023
 -3.999999999999989E-004    4.908257157019829E-023
 -2.999999999999989E-004    2.864962169365842E-023
 -1.999999999999989E-004   -5.903259347324707E-025
 -9.999999999999892E-005   -3.754885101617054E-023
  1.084202172485504E-018   -7.994144157222113E-023
  1.000000000000011E-004   -1.242558762572792E-022
  2.000000000000011E-004   -1.658603036140167E-022
  3.000000000000011E-004   -1.992708165943944E-022
  4.000000000000011E-004   -2.185834168855219E-022
  5.000000000000011E-004   -2.180566795706871E-022
  6.000000000000011E-004   -1.928104328365081E-022
  7.000000000000011E-004   -1.395850248361109E-022
  8.000000000000011E-004   -5.748696460957428E-023
  9.000000000000012E-004    5.136689696832514E-023
  1.000000000000001E-003    1.814007231534831E-022
  1.100000000000001E-003    3.234174117688964E-022
  1.200000000000001E-003    4.647997034899672E-022
  1.300000000000001E-003    5.901266812178596E-022
  1.400000000000001E-003    6.822226514236534E-022
  1.500000000000001E-003    7.236120678214526E-022
  1.600000000000001E-003    6.983066508871586E-022
  1.700000000000001E-003    5.938020472266374E-022
  1.800000000000001E-003    4.031175077632164E-022
  1.900000000000001E-003    1.266770988404240E-022
  2.000000000000001E-003   -2.261890651087596E-022
  2.100000000000001E-003   -6.363473060085341E-022
  2.200000000000001E-003   -1.074770509949342E-021
  2.300000000000001E-003   -1.503417815950400E-021
  2.400000000000001E-003   -1.877180487525484E-021
  2.500000000000001E-003   -2.146905943820286E-021
  2.600000000000001E-003   -2.263412130463540E-021
  2.700000000000001E-003   -2.182294661996840E-021
  2.800000000000001E-003   -1.869219611171809E-021
  2.900000000000001E-003   -1.305292294032764E-021
  3.000000000000001E-003   -4.920112269307176E-022
  3.100000000000001E-003    5.447395242041938E-022
  3.200000000000001E-003    1.752220190468879E-021
  3.300000000000001E-003    3.050415689570651E-021
  3.400000000000001E-003    4.334109441665331E-021
  3.500000000000001E-003    5.477751110089758E-021
  3.600000000000001E-003    6.343220511596379E-021
  3.700000000000001E-003    6.790342575459350E-021
  3.800000000000001E-003    6.689723681340408E-021
  3.900000000000001E-003    5.937174925715764E-021
  4.000000000000001E-003    4.468689310388616E-021
  4.100000000000001E-003    2.274672213228351E-021
  4.200000000000001E-003   -5.880721255228847E-022
  4.300000000000001E-003   -3.988194962552380E-021
  4.400000000000001E-003   -7.717060131981285E-021
  4.500000000000001E-003   -1.149276870638802E-020
  4.600000000000002E-003   -1.497195071094250E-020
  4.700000000000001E-003   -1.776977238461735E-020
  4.800000000000001E-003   -1.948790635473406E-020
  4.900000000000002E-003   -1.974938487900056E-020
  5.000000000000001E-003   -1.823836152875775E-020
  5.100000000000001E-003   -1.474193822482277E-020
  5.200000000000001E-003   -9.190441050260272E-021
  5.300000000000002E-003   -1.691976627513153E-021
  5.400000000000001E-003    7.443163980213800E-021
  5.500000000000001E-003    1.769253011060666E-020
  5.600000000000002E-003    2.832966234880303E-020
  5.700000000000001E-003    3.845299593850734E-020
  5.800000000000001E-003    4.703660987012471E-020
  5.900000000000002E-003    5.300203557333701E-020
  6.000000000000001E-003    5.530814460130120E-020
  6.100000000000001E-003    5.305391840539229E-020
  6.200000000000002E-003    4.558676132482893E-020
  6.300000000000002E-003    3.260725583433828E-020
  6.400000000000001E-003    1.426003631559133E-020
  6.500000000000001E-003   -8.799922616121675E-021
  6.600000000000002E-003   -3.537582428959343E-020
  6.700000000000001E-003   -6.374105090300726E-020
  6.800000000000001E-003   -9.170072871864506E-020
  6.900000000000002E-003   -1.167054986191753E-019
  7.000000000000001E-003   -1.360158123530550E-019
  7.100000000000001E-003   -1.469104433991917E-019
  7.200000000000002E-003   -1.469279841612012E-019
  7.300000000000002E-003   -1.341256702730936E-019
  7.400000000000001E-003   -1.073358873379611E-019
  7.500000000000001E-003   -6.639813315239593E-020
  7.600000000000002E-003   -1.234283352859442E-020
  7.700000000000001E-003    5.249601956412734E-020
  7.800000000000001E-003    1.244600140291527E-019
  7.900000000000001E-003    1.986534467262804E-019
  8.000000000000002E-003    2.691481963968412E-019
  8.100000000000001E-003    3.293082338523500E-019
  8.200000000000001E-003    3.722261111067021E-019
  8.300000000000002E-003    3.912539046213501E-019
  8.400000000000001E-003    3.806005082696242E-019
  8.500000000000002E-003    3.359577879047479E-019
  8.600000000000002E-003    2.551095087946673E-019
  8.700000000000001E-003    1.384710290480960E-019
  8.800000000000002E-003   -1.049539620021593E-020
  8.900000000000002E-003   -1.850441863311177E-019
  9.000000000000001E-003   -3.751382070644299E-019
  9.100000000000002E-003   -5.677083770626330E-019
  9.200000000000002E-003   -7.472059105497523E-019
  9.300000000000001E-003   -8.964529347156931E-019
  9.400000000000002E-003   -9.977739614476305E-019
  9.500000000000001E-003   -1.034364679104582E-018
  9.600000000000001E-003   -9.918276705917145E-019
  9.700000000000002E-003   -8.597782462500700E-019
  9.800000000000001E-003   -6.334004936003723E-019
  9.900000000000001E-003   -3.148164988182904E-019
  1.000000000000000E-002    8.587753627517533E-020
  1.010000000000000E-002    5.500528921566279E-019
  1.020000000000000E-002    1.050597987117411E-018
  1.030000000000000E-002    1.552679215854998E-018
  1.040000000000000E-002    2.015274335229203E-018
  1.050000000000000E-002    2.393485802127317E-018
  1.060000000000000E-002    2.641577565488505E-018
  1.070000000000000E-002    2.716607635858680E-018
  1.080000000000000E-002    2.582456689956721E-018
  1.090000000000000E-002    2.213984728173412E-018
  1.100000000000000E-002    1.600991109372702E-018
  1.110000000000000E-002    7.516140379381814E-019
  1.120000000000000E-002   -3.052097064763820E-019
  1.130000000000000E-002   -1.518589011182378E-018
  1.140000000000000E-002   -2.816143630298565E-018
  1.150000000000000E-002   -4.106324630961490E-018
  1.160000000000000E-002   -5.282708825445958E-018
  1.170000000000000E-002   -6.230240324090404E-018
  1.180000000000000E-002   -6.833226812277559E-018
  1.190000000000000E-002   -6.984718959445535E-018
  1.200000000000000E-002   -6.596727309991244E-018
  1.210000000000000E-002   -5.610569635262709E-018
  1.220000000000000E-002   -4.006519078448029E-018
  1.230000000000000E-002   -1.811841634089583E-018
  1.240000000000000E-002    8.936996583392229E-019
  1.250000000000000E-002    3.975739233939696E-018
  1.260000000000000E-002    7.247324814592458E-018
  1.270000000000000E-002    1.047555733492055E-017
  1.280000000000000E-002    1.339305697598921E-017
  1.290000000000000E-002    1.571409119518649E-017
  1.300000000000000E-002    1.715479638037519E-017
  1.310000000000000E-002    1.745649430347331E-017
  1.320000000000000E-002    1.641069148080385E-017
  1.330000000000000E-002    1.388399338944436E-017
  1.340000000000000E-002    9.840887056905637E-018
  1.350000000000000E-002    4.362197866009670E-018
  1.360000000000000E-002   -2.342962801909017E-018
  1.370000000000000E-002   -9.933754953703047E-018
  1.380000000000000E-002   -1.794428617916474E-017
  1.390000000000000E-002   -2.580144768761867E-017
  1.400000000000000E-002   -3.285419660986523E-017
  1.410000000000000E-002   -3.841369668121160E-017
  1.420000000000000E-002   -4.180273933812368E-017
  1.430000000000000E-002   -4.241187758473821E-017
  1.440000000000000E-002   -3.975877059120524E-017
  1.450000000000000E-002   -3.354643390557275E-017
  1.460000000000000E-002   -2.371552566757892E-017
  1.470000000000000E-002   -1.048555271343967E-017
  1.480000000000000E-002    5.620005160668654E-018
  1.490000000000000E-002    2.376910343845560E-017
  1.500000000000000E-002    4.284052378169466E-017
  1.510000000000000E-002    6.146929941620195E-017
  1.520000000000000E-002    7.811841558539356E-017
  1.530000000000000E-002    9.117496382834528E-017
  1.540000000000000E-002    9.906668485941226E-017
  1.550000000000000E-002    1.003926229280967E-016
  1.560000000000000E-002    9.405953400983050E-017
  1.570000000000000E-002    7.941406310649159E-017
  1.580000000000000E-002    5.635951252538858E-017
  1.590000000000000E-002    2.544573429977568E-017
  1.600000000000000E-002   -1.207893788484338E-017
  1.610000000000000E-002   -5.426331761314219E-017
  1.620000000000000E-002   -9.850376828975907E-017
  1.630000000000000E-002   -1.416533195903838E-016
  1.640000000000000E-002   -1.801893121389492E-016
  1.650000000000000E-002   -2.104347645845660E-016
  1.660000000000000E-002   -2.288236988793946E-016
  1.670000000000000E-002   -2.321958450796067E-016
  1.680000000000000E-002   -2.181018194606936E-016
  1.690000000000000E-002   -1.850962353508549E-016
  1.700000000000000E-002   -1.329941584091911E-016
  1.710000000000000E-002   -6.306564199803310E-017
  1.720000000000000E-002    2.185556833398671E-017
  1.730000000000000E-002    1.173697253264335E-016
  1.740000000000000E-002    2.176302449959385E-016
  1.750000000000000E-002    3.155920044331817E-016
  1.760000000000000E-002    4.033876015771280E-016
  1.770000000000000E-002    4.728199603269992E-016
  1.780000000000000E-002    5.159493725886912E-016
  1.790000000000000E-002    5.257423707648695E-016
  1.800000000000000E-002    4.967408045268347E-016
  1.810000000000000E-002    4.257020260307280E-016
  1.820000000000000E-002    3.121567090274721E-016
  1.830000000000000E-002    1.588298368445427E-016
  1.840000000000000E-002   -2.812643055258913E-017
  1.850000000000000E-002   -2.391316582230538E-016
  1.860000000000000E-002   -4.614397252734541E-016
  1.870000000000000E-002   -6.796805484065841E-016