 -4.000000000000000E-002    0.000000000000000E+000
 -3.990000000000000E-002    0.000000000000000E+000
 -3.980000000000000E-002    0.000000000000000E+000
 -3.970000000000000E-002    0.000000000000000E+000
 -3.960000000000000E-002    0.000000000000000E+000
 -3.950000000000000E-002    0.000000000000000E+000
 -3.940000000000000E-002    0.000000000000000E+000
 -3.930000000000000E-002    0.000000000000000E+000
 -3.920000000000000E-002    0.000000000000000E+000
 -3.910000000000000E-002    0.000000000000000E+000
 -3.900000000000000E-002    0.000000000000000E+000
 -3.890000000000000E-002    0.000000000000000E+000
 -3.880000000000000E-002    0.000000000000000E+000
 -3.870000000000000E-002    0.000000000000000E+000
 -3.860000000000000E-002    0.000000000000000E+000
 -3.850000000000000E-002    0.000000000000000E+000
 -3.840000000000000E-002   -2.079786669824741E-046
 -3.830000000000000E-002   -1.915303172074211E-045
 -3.820000000000000E-002   -1.822073014675468E-044
 -3.810000000000000E-002   -1.340283271316582E-043
 -3.800000000000000E-002   -8.060358985136491E-043
 -3.790000000000000E-002   -4.106298660544888E-042
 -3.780000000000000E-002   -1.818781644447939E-041
 -3.770000000000000E-002   -7.131712758312231E-041
 -3.760000000000000E-002   -2.508427609341335E-040
 -3.750000000000000E-002   -7.986999648084640E-040
 -3.740000000000000E-002   -2.315756634357994E-039
 -3.730000000000000E-002   -6.129984319048635E-039
 -3.720000000000000E-002   -1.479421163123554E-038
 -3.710000000000000E-002   -3.231351651692752E-038
 -3.700000000000000E-002   -6.267676485452872E-038
 -3.690000000000000E-002   -1.029015028848664E-037
 -3.680000000000000E-002   -1.220823153675034E-037
 -3.670000000000000E-002   -9.682963368440089E-039
 -3.660000000000000E-002    5.361678453492360E-037
 -3.650000000000000E-002    2.225114286543590E-036
 -3.640000000000000E-002    6.553288517692174E-036
 -3.630000000000000E-002    1.639804244732068E-035
 -3.620000000000000E-002    3.683557217601208E-035
 -3.610000000000000E-002    7.605649119736212E-035
 -3.600000000000000E-002    1.459823818958451E-034
 -3.590000000000000E-002    2.617176945767497E-034
 -3.580000000000000E-002    4.382785169926166E-034
 -3.570000000000000E-002    6.821746062405720E-034
 -3.560000000000000E-002    9.745887753811746E-034
 -3.550000000000000E-002    1.242539955945869E-033
 -3.540000000000000E-002    1.315266446192626E-033
 -3.530000000000000E-002    8.661501967838541E-034
 -3.520000000000000E-002   -6.530521930380517E-034
 -3.510000000000000E-002   -4.068220298582372E-033
 -3.500000000000000E-002   -1.049679343236100E-032
 -3.490000000000000E-002   -2.127010700619636E-032
 -3.480000000000000E-002   -3.769978221870296E-032
 -3.470000000000000E-002   -6.061934868959629E-032
 -3.460000000000000E-002   -8.964927946451643E-032
 -3.450000000000000E-002   -1.221844840910047E-031
 -3.440000000000000E-002   -1.521967971521888E-031
 -3.430000000000000E-002   -1.690803386959750E-031
 -3.420000000000000E-002   -1.569240461175212E-031
 -3.410000000000000E-002   -9.472541062974863E-032
 -3.400000000000000E-002    4.191974220396932E-032
 -3.390000000000000E-002    2.773140095334854E-031
 -3.380000000000000E-002    6.305306644038438E-031
 -3.370000000000000E-002    1.109793112580673E-030
 -3.360000000000000E-002    1.708801340291512E-030
 -3.350000000000000E-002    2.408910629587613E-030
 -3.340000000000000E-002    3.192146641513666E-030
 -3.330000000000000E-002    4.069889486206681E-030
 -3.320000000000000E-002    5.129486130656604E-030
 -3.310000000000000E-002    6.594728291596880E-030
 -3.300000000000000E-002    8.884906468592778E-030
 -3.290000000000000E-002    1.264082280600985E-029
 -3.280000000000000E-002    1.866583400204231E-029
 -3.270000000000000E-002    2.770965480372487E-029
 -3.260000000000000E-002    4.000938252404782E-029
 -3.250000000000000E-002    5.450615745024329E-029
 -3.240000000000000E-002    6.769119317465018E-029
 -3.230000000000000E-002    7.211546977416317E-029
 -3.220000000000000E-002    5.473511461591195E-029
 -3.210000000000000E-002   -4.536742687058066E-030
 -3.200000000000000E-002   -1.334524971564871E-028
 -3.190000000000000E-002   -3.663427495752110E-028
 -3.180000000000000E-002   -7.402110822269248E-028
 -3.170000000000000E-002   -1.286811720834916E-027
 -3.160000000000000E-002   -2.019658516546662E-027
 -3.150000000000000E-002   -2.915430892813641E-027
 -3.140000000000000E-002   -3.890209597087052E-027
 -3.130000000000000E-002   -4.772482690506009E-027
 -3.120000000000000E-002   -5.276843897273200E-027
 -3.110000000000000E-002   -4.984589890389282E-027
 -3.100000000000000E-002   -3.339743580012550E-027
 -3.090000000000000E-002    3.291773654693784E-028
 -3.080000000000000E-002    6.750608903557993E-027
 -3.070000000000000E-002    1.660459318290137E-026
 -3.060000000000000E-002    3.036400216130329E-026
 -3.050000000000000E-002    4.808179298700281E-026
 -3.040000000000000E-002    6.913246244159617E-026
 -3.030000000000000E-002    9.192694227545025E-026
 -3.020000000000000E-002    1.136318589078009E-025
 -3.010000000000000E-002    1.299361974912684E-025
 -3.000000000000000E-002    1.349172749942871E-025
 -2.990000000000000E-002    1.210637498403027E-025
 -2.980000000000000E-002    7.951438426987168E-026
 -2.970000000000000E-002    5.676030404794466E-028
 -2.960000000000000E-002   -1.254896905127097E-025
 -2.950000000000000E-002   -3.071926143517750E-025
 -2.940000000000000E-002   -5.503104931856210E-025
 -2.930000000000000E-002   -8.558220576416603E-025
 -2.920000000000000E-002   -1.217412285055172E-024
 -2.910000000000000E-002   -1.618447367506471E-024
 -2.900000000000000E-002   -2.028401881368716E-024
 -2.890000000000000E-002   -2.398781573380582E-024
 -2.880000000000000E-002   -2.658714356964807E-024
 -2.870000000000000E-002   -2.710642878213567E-024
 -2.860000000000000E-002   -2.426941509148248E-024
 -2.850000000000000E-002   -1.648828504946583E-024
 -2.840000000000000E-002   -1.896143952483369E-025
 -2.830000000000000E-002    2.154960070844819E-024
 -2.820000000000000E-002    5.585963725117551E-024
 -2.810000000000000E-002    1.026651370817612E-023
 -2.800000000000000E-002    1.626985899195462E-023
 -2.790000000000000E-002    2.350867239126431E-023
 -2.780000000000000E-002    3.164660546114036E-023
 -2.770000000000000E-002    3.999770058857372E-023
 -2.760000000000000E-002    4.742505414529161E-023
 -2.750000000000000E-002    5.225754838299060E-023
 -2.740000000000000E-002    5.225097874584347E-023
 -2.730000000000000E-002    4.462693774881041E-023
 -2.720000000000000E-002    2.622684641116455E-023
 -2.710000000000000E-002   -6.182187027894994E-024
 -2.700000000000000E-002   -5.542108089767267E-023
 -2.690000000000000E-002   -1.232211933070693E-022
 -2.680000000000000E-002   -2.093730252369237E-022
 -2.670000000000000E-002   -3.107579989881047E-022
 -2.660000000000000E-002   -4.203682069147979E-022
 -2.650000000000000E-002   -5.264710114087535E-022
 -2.640000000000000E-002   -6.121236834977036E-022
 -2.630000000000000E-002   -6.552778805970228E-022
 -2.620000000000000E-002   -6.297226576348305E-022
 -2.610000000000000E-002   -5.070865310799713E-022
 -2.600000000000000E-002   -2.600401887973116E-022
 -2.590000000000000E-002    1.332912598883013E-022
 -2.580000000000000E-002    6.838833706303925E-022
 -2.570000000000000E-002    1.385747199038713E-021
 -2.560000000000000E-002    2.209905451667969E-021
 -2.550000000000000E-002    3.099321230657251E-021
 -2.540000000000000E-002    3.965875686559752E-021
 -2.530000000000000E-002    4.690578206066084E-021
 -2.520000000000000E-002    5.128125139078149E-021
 -2.510000000000000E-002    5.116663075398131E-021
 -2.500000000000000E-002    4.493125656096051E-021
 -2.490000000000000E-002    3.113834187287066E-021
 -2.480000000000000E-002    8.791838252984167E-022
 -2.470000000000000E-002   -2.239705653518921E-021
 -2.460000000000000E-002   -6.175399632982061E-021
 -2.450000000000000E-002   -1.074337643250041E-020
 -2.440000000000000E-002   -1.563019643637073E-020
 -2.430000000000000E-002   -2.039459406194798E-020
 -2.420000000000000E-002   -2.448471104760288E-020
 -2.410000000000000E-002   -2.727327742238128E-020
 -2.400000000000000E-002   -2.811044515813325E-020
 -2.390000000000000E-002   -2.639152107714379E-020
 -2.380000000000000E-002   -2.163413238825332E-020
 -2.370000000000000E-002   -1.355686424020443E-020
 -2.360000000000000E-002   -2.149620307966681E-021
 -2.350000000000000E-002    1.227480108291070E-020
 -2.340000000000000E-002    2.905766797376131E-020
 -2.330000000000000E-002    4.720720645614775E-020
 -2.320000000000000E-002    6.545071525952904E-020
 -2.310000000000000E-002    8.232387817161092E-020
 -2.300000000000000E-002    9.628919390013783E-020
 -2.290000000000000E-002    1.058696894551976E-019
 -2.280000000000000E-002    1.097794664744215E-019
 -2.270000000000000E-002    1.070307946563177E-019
 -2.260000000000000E-002    9.699871838307127E-020
 -2.250000000000000E-002    7.942941900813141E-020
 -2.240000000000000E-002    5.438815220148768E-020
 -2.230000000000000E-002    2.215458658440407E-020
 -2.220000000000000E-002   -1.691222031976886E-020
 -2.210000000000000E-002   -6.250410715384358E-020
 -2.200000000000000E-002   -1.144444163480717E-019
 -2.190000000000000E-002   -1.726712666353583E-019
 -2.180000000000000E-002   -2.370816988066024E-019
 -2.170000000000000E-002   -3.072122504610999E-019
 -2.160000000000000E-002   -3.817586501614084E-019
 -2.150000000000000E-002   -4.579748998682819E-019
 -2.140000000000000E-002   -5.310318197206049E-019
 -2.130000000000000E-002   -5.934569317091300E-019
 -2.120000000000000E-002   -6.348060910486353E-019
 -2.110000000000000E-002   -6.417324063161836E-019
 -2.100000000000000E-002   -5.986044309099878E-019
 -2.090000000000000E-002   -4.887842981191388E-019
 -2.080000000000000E-002   -2.966010001571616E-019
 -2.070000000000000E-002   -9.951249467257674E-021
 -2.060000000000000E-002    3.766634947232726E-019
 -2.050000000000000E-002    8.589826258590316E-019
 -2.040000000000000E-002    1.420146820562703E-018
 -2.030000000000000E-002    2.028682814627520E-018
 -2.020000000000000E-002    2.637840157895897E-018
 -2.010000000000000E-002    3.186748301239241E-018
 -2.000000000000000E-002    3.603722076669602E-018
 -1.990000000000000E-002    3.811812044506636E-018
 -1.980000000000000E-002    3.736402618355449E-018
 -1.970000000000000E-002    3.314323258396812E-018
 -1.960000000000000E-002    2.503605826994829E-018
 -1.950000000000000E-002    1.292743485966617E-018
 -1.940000000000000E-002   -2.918620979721710E-019
 -1.930000000000000E-002   -2.181591109379358E-018
 -1.920000000000000E-002   -4.265581932782738E-018
 -1.910000000000000E-002   -6.395753367243111E-018
 -1.900000000000000E-002   -8.397073665817719E-018
 -1.890000000000000E-002   -1.008257060694628E-017
 -1.880000000000000E-002   -1.127182251941301E-017
 -1.870000000000000E-002   -1.181096985589838E-017
 -1.860000000000000E-002   -1.159175496288953E-017
 -1.850000000000000E-002   -1.056684571235608E-017
 -1.840000000000000E-002   -8.758827497001965E-018
 -1.830000000000000E-002   -6.260796575909975E-018
 -1.820000000000000E-002   -3.227442011568776E-018
 -1.810000000000000E-002    1.431797679490437E-019
 -1.800000000000000E-002    3.635510774058428E-018
 -1.790000000000000E-002    7.046819145307412E-018
 -1.780000000000000E-002    1.021759211881770E-017
 -1.770000000000000E-002    1.305684827296823E-017
 -1.760000000000000E-002    1.555717108427978E-017
 -1.750000000000000E-002    1.779505037573466E-017
 -1.740000000000000E-002    1.991377927964346E-017
 -1.730000000000000E-002    2.208856234449963E-017
 -1.720000000000000E-002    2.447640664766190E-017
 -1.710000000000000E-002    2.715648954651936E-017
 -1.700000000000000E-002    3.006940128913883E-017
 -1.690000000000000E-002    3.296570992476054E-017
 -1.680000000000000E-002    3.537490411596340E-017
 -1.670000000000000E-002    3.660493105780283E-017
 -1.660000000000000E-002    3.577984172162669E-017
 -1.650000000000000E-002    3.191872233404229E-017
 -1.640000000000000E-002    2.405346043087542E-017
 -1.630000000000000E-002    1.137655448556493E-017
 -1.620000000000000E-002   -6.595991105616206E-018
 -1.610000000000000E-002   -2.986668275712070E-017
 -1.600000000000000E-002   -5.782648916322115E-017
 -1.590000000000000E-002   -8.917595240189542E-017
 -1.580000000000000E-002   -1.219175119692093E-016
 -1.570000000000000E-002   -1.534327369803346E-016
 -1.560000000000000E-002   -1.806486004287334E-016
 -1.550000000000000E-002   -2.002856321083989E-016
 -1.540000000000000E-002   -2.091689040241332E-016
 -1.530000000000000E-002   -2.045715593459620E-016
 -1.520000000000000E-002   -1.845526348932280E-016
 -1.510000000000000E-002   -1.482470015815231E-016
 -1.500000000000000E-002   -9.606666665689994E-017
 -1.490000000000000E-002   -2.978038755096576E-017
 -1.480000000000000E-002    4.754873671981339E-017
 -1.470000000000000E-002    1.317707261210846E-016
 -1.460000000000000E-002    2.179846274160584E-016
 -1.450000000000000E-002    3.009674026876296E-016
 -1.440000000000000E-002    3.756445082568042E-016
 -1.430000000000000E-002    4.375410888385459E-016
 -1.420000000000000E-002    4.831510684213795E-016
 -1.410000000000000E-002    5.101691867421518E-016
 -1.400000000000000E-002    5.175483169241425E-016
 -1.390000000000000E-002    5.053682452383565E-016
 -1.380000000000000E-002    4.745318895890640E-016
 -1.370000000000000E-002    4.263345975311346E-016
 -1.360000000000000E-002    3.619780687818533E-016
 -1.350000000000000E-002    2.821179047531841E-016
 -1.340000000000000E-002    1.865387909848719E-016
 -1.330000000000000E-002    7.404305720852849E-017
 -1.320000000000000E-002   -5.738761481598909E-017
 -1.310000000000000E-002   -2.101329241972984E-016
 -1.300000000000000E-002   -3.861995140150014E-016
 -1.290000000000000E-002   -5.862822641485838E-016
 -1.280000000000000E-002   -8.087374738541368E-016
 -1.270000000000000E-002   -1.048614579996745E-015
 -1.260000000000000E-002   -1.296912226315670E-015
 -1.250000000000000E-002   -1.540212898342345E-015
 -1.240000000000000E-002   -1.760824205369112E-015
 -1.230000000000000E-002   -1.937499228596151E-015
 -1.220000000000000E-002   -2.046742265454808E-015
 -1.210000000000000E-002   -2.064629625317690E-015
 -1.200000000000000E-002   -1.969000449476473E-015
 -1.190000000000000E-002   -1.741813168334161E-015
 -1.180000000000000E-002   -1.371424030187598E-015
 -1.170000000000000E-002   -8.545364385643738E-016
 -1.160000000000000E-002   -1.975932184738543E-016
 -1.150000000000000E-002    5.825600669330778E-016
 -1.140000000000000E-002    1.458833790158077E-015
 -1.130000000000000E-002    2.394875006755984E-015
 -1.120000000000000E-002    3.346776145601057E-015
 -1.110000000000000E-002    4.265339301781240E-015
 -1.100000000000000E-002    5.098670246260718E-015
 -1.090000000000000E-002    5.794857509828469E-015
 -1.080000000000000E-002    6.304512502122821E-015
 -1.070000000000000E-002    6.583003276842694E-015
 -1.060000000000000E-002    6.592290480100299E-015
 -1.050000000000000E-002    6.302371031782549E-015
 -1.040000000000000E-002    5.692411888556926E-015
 -1.030000000000000E-002    4.751717562419965E-015
 -1.020000000000000E-002    3.480689752609527E-015
 -1.010000000000000E-002    1.891912204341143E-015
 -1.000000000000000E-002    1.141028975286690E-017
 -9.899999999999999E-003   -2.119971026059873E-015
 -9.800000000000000E-003   -4.445271092907518E-015
 -9.699999999999999E-003   -6.890502570967754E-015
 -9.599999999999999E-003   -9.364542054319328E-015
 -9.500000000000000E-003   -1.176023546830253E-014
 -9.399999999999999E-003   -1.395709466565732E-014
 -9.299999999999999E-003   -1.582580251582579E-014
 -9.200000000000000E-003   -1.723454317938428E-014
 -9.099999999999999E-003   -1.805687386733158E-014
 -8.999999999999999E-003   -1.818059487241615E-014
 -8.900000000000000E-003   -1.751679637283186E-014
 -8.799999999999999E-003   -1.600811928454125E-014
 -8.699999999999999E-003   -1.363520685207518E-014
 -8.600000000000000E-003   -1.042046088075168E-014
 -8.499999999999999E-003   -6.428475198059277E-015
 -8.399999999999999E-003   -1.762963355576646E-015
 -8.300000000000000E-003    3.439523775938384E-015
 -8.199999999999999E-003    9.018242499570849E-015
 -8.100000000000000E-003    1.479799811063324E-014
 -8.000000000000000E-003    2.059840402830423E-014
 -7.899999999999999E-003    2.624106922588618E-014
 -7.800000000000000E-003    3.155333106078471E-014
 -7.699999999999999E-003    3.636774345377416E-014
 -7.599999999999999E-003    4.051724700049658E-014
 -7.499999999999999E-003    4.382699198729394E-014
 -7.399999999999999E-003    4.610461600955751E-014
 -7.299999999999999E-003    4.713171158152649E-014
 -7.199999999999999E-003    4.665961742630986E-014
 -7.100000000000000E-003    4.441271191754886E-014
 -6.999999999999999E-003    4.010186110183253E-014
 -6.899999999999999E-003    3.344950651138845E-014
 -6.800000000000000E-003    2.422626050057437E-014
 -6.699999999999999E-003    1.229686585664580E-014
 -6.599999999999999E-003   -2.328687344714329E-015
 -6.499999999999999E-003   -1.944501754772234E-014
 -6.399999999999999E-003   -3.860956747383466E-014
 -6.299999999999999E-003   -5.911717093759227E-014
 -6.199999999999999E-003   -7.999823692737287E-014
 -6.100000000000000E-003   -1.000462533113116E-013
 -5.999999999999999E-003   -1.178772945493671E-013
 -5.899999999999999E-003   -1.320206153711173E-013
 -5.800000000000000E-003   -1.410351381470013E-013
 -5.699999999999999E-003   -1.436424931491911E-013
 -5.599999999999999E-003   -1.388637271995759E-013
 -5.499999999999999E-003   -1.261445061872472E-013
 -5.399999999999999E-003   -1.054529075530874E-013
 -5.299999999999999E-003   -7.733541430394424E-014
 -5.199999999999999E-003   -4.292010136245456E-014
 -5.099999999999999E-003   -3.861345124490164E-015
 -4.999999999999999E-003    3.777291969255650E-014
 -4.899999999999999E-003    7.966312601715570E-014
 -4.799999999999999E-003    1.194339792441035E-013
 -4.699999999999999E-003    1.548635019637407E-013
 -4.599999999999999E-003    1.840810633679648E-013
 -4.499999999999999E-003    2.057297864523281E-013
 -4.399999999999999E-003    2.190715744774007E-013
 -4.299999999999999E-003    2.240190266655976E-013
 -4.199999999999999E-003    2.210874826973831E-013
 -4.099999999999999E-003    2.112706446814550E-013
 -3.999999999999999E-003    1.958543719584727E-013
 -3.899999999999999E-003    1.761928851268483E-013
 -3.799999999999999E-003    1.534789636653126E-013
 -3.699999999999999E-003    1.285428647268634E-013
 -3.599999999999999E-003    1.017135107672446E-013
 -3.499999999999999E-003    7.276894318692478E-014
 -3.399999999999999E-003    4.099210906815063E-014
 -3.299999999999999E-003    5.333684355451931E-015
 -3.199999999999999E-003   -3.533259462393643E-014
 -3.099999999999999E-003   -8.189211801912242E-014
 -2.999999999999999E-003   -1.346524001726843E-013
 -2.899999999999999E-003   -1.930377702897055E-013
 -2.799999999999999E-003   -2.553687745960484E-013
 -2.699999999999999E-003   -3.187727633291731E-013
 -2.599999999999999E-003   -3.792591470668779E-013
 -2.499999999999999E-003   -4.319730651934792E-013
 -2.399999999999999E-003   -4.716176163585866E-013
 -2.299999999999999E-003   -4.930095961314552E-013
 -2.199999999999999E-003   -4.917108798679949E-013
 -2.099999999999999E-003   -4.646605224268519E-013
 -1.999999999999999E-003   -4.107230784520937E-013
 -1.899999999999999E-003   -3.310713422494559E-013
 -1.799999999999999E-003   -2.293339538723197E-013
 -1.699999999999999E-003   -1.114623288066074E-013
 -1.599999999999999E-003    1.469619549973607E-014
 -1.499999999999999E-003    1.400957474391346E-013
 -1.399999999999999E-003    2.553982831026489E-013
 -1.299999999999999E-003    3.519953278097140E-013
 -1.199999999999999E-003    4.230272216692523E-013
 -1.099999999999999E-003    4.642732820286196E-013
 -9.999999999999989E-004    4.747901312466911E-013
 -8.999999999999990E-004    4.571990985386718E-013
 -7.999999999999990E-004    4.175584264997007E-013
 -6.999999999999989E-004    3.648051137330782E-013
 -5.999999999999990E-004    3.098025277452694E-013
 -4.999999999999989E-004    2.640825825897896E-013
 -3.999999999999989E-004    2.384160147634896E-013
 -2.999999999999989E-004    2.413724855721349E-013
 -1.999999999999989E-004    2.780457290286226E-013
 -9.999999999999892E-005    3.491061127434564E-013
  1.084202172485504E-018    4.503139886907499E-013
  1.000000000000011E-004    5.725759132349203E-013
  2.000000000000011E-004    7.025628349944129E-013
  3.000000000000011E-004    8.238428021573349E-013
  4.000000000000011E-004    9.184163462332034E-013
  5.000000000000011E-004    9.684879696169203E-013
  6.000000000000011E-004    9.582780216144292E-013
  7.000000000000011E-004    8.756662593465858E-013
  8.000000000000011E-004    7.134822165567760E-013
  9.000000000000012E-004    4.702939497780875E-013
  1.000000000000001E-003    1.506153938338085E-013
  1.100000000000001E-003   -2.354749918113273E-013
  1.200000000000001E-003   -6.732314249522098E-013
  1.300000000000001E-003   -1.144517811111046E-012
  1.400000000000001E-003   -1.629272571745120E-012
  1.500000000000001E-003   -2.106950800897317E-012
  1.600000000000001E-003   -2.557736553879259E-012
  1.700000000000001E-003   -2.963363571063171E-012
  1.800000000000001E-003   -3.307444183638756E-012
  1.900000000000001E-003   -3.575294795933129E-012
  2.000000000000001E-003   -3.753332745981107E-012
  2.100000000000001E-003   -3.828218249491032E-012
  2.200000000000001E-003   -3.785966536733962E-012
  2.300000000000001E-003   -3.611303504550985E-012
  2.400000000000001E-003   -3.287522884655267E-012
  2.500000000000001E-003   -2.797070300315408E-012
  2.600000000000001E-003   -2.122980154104477E-012
  2.700000000000001E-003   -1.251181059312509E-012
  2.800000000000001E-003   -1.735500188086802E-013
  2.900000000000001E-003    1.108543344859169E-012
  3.000000000000001E-003    2.580586470494844E-012
  3.100000000000001E-003    4.211622979746525E-012
  3.200000000000001E-003    5.951812284669183E-012
  3.300000000000001E-003    7.731325965075842E-012
  3.400000000000001E-003    9.460984273956252E-012
  3.500000000000001E-003    1.103489056931068E-011
  3.600000000000001E-003    1.233515012566149E-011
  3.700000000000001E-003    1.323854148098101E-011
  3.800000000000001E-003    1.362479723499392E-011
  3.900000000000001E-003    1.338595604199287E-011
  4.000000000000001E-003    1.243610259550957E-011
  4.100000000000001E-003    1.072068610420823E-011
  4.200000000000001E-003    8.224613309795705E-012
  4.300000000000001E-003    4.978352715110037E-012
  4.400000000000001E-003    1.061393183122792E-012
  4.500000000000001E-003   -3.397398244315752E-012
  4.600000000000002E-003   -8.222749457796912E-012
  4.700000000000001E-003   -1.319928048978794E-011
  4.800000000000001E-003   -1.808085403199674E-011
  4.900000000000002E-003   -2.260248429426345E-011
  5.000000000000001E-003   -2.649414348248741E-011
  5.100000000000001E-003   -2.949566043225807E-011
  5.200000000000001E-003   -3.137184498238836E-011
  5.300000000000002E-003   -3.192696197188025E-011
  5.400000000000001E-003   -3.101777369059722E-011
  5.500000000000001E-003   -2.856439336854091E-011
  5.600000000000002E-003   -2.455839500910697E-011
  5.700000000000001E-003   -1.906771458180785E-011
  5.800000000000001E-003   -1.223806326590376E-011
  5.900000000000002E-003   -4.290694070181076E-012
  6.000000000000001E-003    4.483511942097269E-012
  6.100000000000001E-003    1.373349837311622E-011
  6.200000000000002E-003    2.306087245719743E-011
  6.300000000000002E-003    3.203572352913982E-011
  6.400000000000001E-003    4.021504497137996E-011
  6.500000000000001E-003    4.716308467951082E-011
  6.600000000000002E-003    5.247297536345326E-011
  6.700000000000001E-003    5.578870592530371E-011
  6.800000000000001E-003    5.682643186002821E-011
  6.900000000000002E-003    5.539396856042568E-011
  7.000000000000001E-003    5.140721526899688E-011
  7.100000000000001E-003    4.490231286513310E-011
  7.200000000000002E-003    3.604229730588351E-011
  7.300000000000002E-003    2.511727628034524E-011
  7.400000000000001E-003    1.253738040239112E-011
  7.500000000000001E-003   -1.181816231988187E-012
  7.600000000000002E-003   -1.544131354507413E-011
  7.700000000000001E-003   -2.958743671158797E-011
  7.800000000000001E-003   -4.294609287218360E-011
  7.900000000000001E-003   -5.486075466660869E-011
  8.000000000000002E-003   -6.473191960335242E-011
  8.100000000000001E-003   -7.205548457268924E-011
  8.200000000000001E-003   -7.645724116810201E-011
  8.300000000000002E-003   -7.772078763206100E-011
  8.400000000000001E-003   -7.580634779351860E-011
  8.500000000000002E-003   -7.085848041508659E-011
  8.600000000000002E-003   -6.320130735824039E-011
  8.700000000000001E-003   -5.332070686330808E-011
  8.800000000000002E-003   -4.183384840073527E-011
  8.900000000000002E-003   -2.944745550401145E-011
  9.000000000000001E-003   -1.690697377099457E-011
  9.100000000000002E-003   -4.939963081222451E-012
  9.200000000000002E-003    5.802699818368647E-012
  9.300000000000001E-003    1.480339378085012E-011
  9.400000000000002E-003    2.172787684329616E-011
  9.500000000000001E-003    2.646451029043236E-011
  9.600000000000001E-003    2.914887360850313E-011
  9.700000000000002E-003    3.017065412258101E-011
  9.800000000000001E-003    3.016067629157102E-011
  9.900000000000001E-003    2.995718106812064E-011
  1.000000000000000E-002    3.055175556581447E-011
  1.010000000000000E-002    3.301675935052409E-011
  1.020000000000000E-002    3.841742235303627E-011
  1.030000000000000E-002    4.771323475456524E-011
  1.040000000000000E-002    6.165409747066707E-011
  1.050000000000000E-002    8.067795519119196E-011
  1.060000000000000E-002    1.048166685399183E-010
  1.070000000000000E-002    1.336174748175765E-010
  1.080000000000000E-002    1.660870998059468E-010
  1.090000000000000E-002    2.006644005825289E-010
  1.100000000000000E-002    2.352272797515479E-010
  1.110000000000000E-002    2.671370454990711E-010
  1.120000000000000E-002    2.933223877934842E-010
  1.130000000000000E-002    3.104024784530641E-010
  1.140000000000000E-002    3.148469524321110E-010
  1.150000000000000E-002    3.031674521859900E-010
  1.160000000000000E-002    2.721338874865726E-010
  1.170000000000000E-002    2.190057709674489E-010
  1.180000000000000E-002    1.417677117399422E-010
  1.190000000000000E-002    3.935659294515845E-011
  1.200000000000000E-002   -8.813303008161334E-011
  1.210000000000000E-002   -2.392783180930650E-010
  1.220000000000000E-002   -4.112055562247775E-010
  1.230000000000000E-002   -5.995267223078663E-010
  1.240000000000000E-002   -7.983449247549475E-010
  1.250000000000000E-002   -1.000335667179814E-009
  1.260000000000000E-002   -1.196907328131970E-009
  1.270000000000000E-002   -1.378441102893259E-009
  1.280000000000000E-002   -1.534606552200745E-009
  1.290000000000000E-002   -1.654744630465635E-009
  1.300000000000000E-002   -1.728307158980637E-009
  1.310000000000000E-002   -1.745337703582284E-009
  1.320000000000000E-002   -1.696975022939108E-009
  1.330000000000000E-002   -1.575959686657737E-009
  1.340000000000000E-002   -1.377122235399527E-009
  1.350000000000000E-002   -1.097830328745334E-009
  1.360000000000000E-002   -7.383739565250140E-010
  1.370000000000000E-002   -3.022683190494179E-010
  1.380000000000000E-002    2.035427293210660E-010
  1.390000000000000E-002    7.685964898879477E-010
  1.400000000000000E-002    1.378945472001761E-009
  1.410000000000000E-002    2.017319949105682E-009
  1.420000000000000E-002    2.663420632500710E-009
  1.430000000000000E-002    3.294336533135811E-009
  1.440000000000000E-002    3.885081045852914E-009
  1.450000000000000E-002    4.409230516327402E-009
  1.460000000000000E-002    4.839652611075541E-009
  1.470000000000000E-002    5.149303360100833E-009
  1.480000000000000E-002    5.312072686249501E-009
  1.490000000000000E-002    5.303659701538284E-009
  1.500000000000000E-002    5.102454314542796E-009
  1.510000000000000E-002    4.690408228236795E-009
  1.520000000000000E-002    4.053877690644711E-009
  1.530000000000000E-002    3.184422717215515E-009
  1.540000000000000E-002    2.079554701766049E-009
  1.550000000000000E-002    7.434215351377407E-010
  1.560000000000000E-002   -8.125716347798477E-010
  1.570000000000000E-002   -2.569209307516110E-009
  1.580000000000000E-002   -4.498975305261292E-009
  1.590000000000000E-002   -6.565627803410641E-009
  1.600000000000000E-002   -8.723823769178742E-009
  1.610000000000000E-002   -1.091879843780457E-008
  1.620000000000000E-002   -1.308608285303477E-008
  1.630000000000000E-002   -1.515125568085867E-008
  1.640000000000000E-002   -1.702972354268121E-008
  1.650000000000000E-002   -1.862651841096616E-008
  1.660000000000000E-002   -1.983610864037734E-008
  1.670000000000000E-002   -2.054221997395623E-008
  1.680000000000000E-002   -2.061764434047815E-008
  1.690000000000000E-002   -1.992405975000008E-008
  1.700000000000000E-002   -1.831183287099880E-008
  1.710000000000000E-002   -1.561980154986093E-008
  1.720000000000000E-002   -1.167505222560647E-008
  1.730000000000000E-002   -6.292668874495607E-009
  1.740000000000000E-002    7.245254894033234E-010
  1.750000000000000E-002    9.586274689724750E-009
  1.760000000000000E-002    2.051518222538599E-008
  1.770000000000000E-002    3.374703536410691E-008
  1.780000000000000E-002    4.953111603387644E-008
  1.790000000000000E-002    6.813056535051851E-008
  1.800000000000000E-002    8.982266116495428E-008
  1.810000000000000E-002    1.148991975220696E-007
  1.820000000000000E-002    1.436667524834858E-007
  1.830000000000000E-002    1.764469522085379E-007
  1.840000000000000E-002    2.135767833937296E-007
  1.850000000000000E-002    2.554088664595783E-007
  1.860000000000000E-002    3.023116230862465E-007
  1.870000000000000E-002    3.546695693048468E-007