 -4.000000000000000E-002    0.000000000000000E+000
 -3.990000000000000E-002    0.000000000000000E+000
 -3.980000000000000E-002    0.000000000000000E+000
 -3.970000000000000E-002    0.000000000000000E+000
 -3.960000000000000E-002    0.000000000000000E+000
 -3.950000000000000E-002    0.000000000000000E+000
 -3.940000000000000E-002    0.000000000000000E+000
 -3.930000000000000E-002    0.000000000000000E+000
 -3.920000000000000E-002    0.000000000000000E+000
 -3.910000000000000E-002    0.000000000000000E+000
 -3.900000000000000E-002    0.000000000000000E+000
 -3.890000000000000E-002   -6.590032888583760E-037
 -3.880000000000000E-002   -1.405553736297293E-035
 -3.870000000000000E-002   -1.551411891228224E-034
 -3.860000000000000E-002   -1.179013959513831E-033
 -3.850000000000000E-002   -6.925657985619675E-033
 -3.840000000000000E-002   -3.347242731841254E-032
 -3.830000000000000E-002   -1.383688032381778E-031
 -3.820000000000000E-002   -5.021718356683689E-031
 -3.810000000000000E-002   -1.629906043014356E-030
 -3.800000000000000E-002   -4.795542830593036E-030
 -3.790000000000000E-002   -1.291883655220504E-029
 -3.780000000000000E-002   -3.210053536891220E-029
 -3.770000000000000E-002   -7.395190718443255E-029
 -3.760000000000000E-002   -1.584578079828934E-028
 -3.750000000000000E-002   -3.161386008421853E-028
 -3.740000000000000E-002   -5.864054309342148E-028
 -3.730000000000000E-002   -1.005998604497830E-027
 -3.720000000000000E-002   -1.577360530362027E-027
 -3.710000000000000E-002   -2.202555171748031E-027
 -3.700000000000000E-002   -2.565925097154864E-027
 -3.690000000000000E-002   -1.951673422602438E-027
 -3.680000000000000E-002    1.003867107339047E-027
 -3.670000000000000E-002    8.595330029254482E-027
 -3.660000000000000E-002    2.428504418328699E-026
 -3.650000000000000E-002    5.273754560086138E-026
 -3.640000000000000E-002    9.940731387078244E-026
 -3.630000000000000E-002    1.693529466605926E-025
 -3.620000000000000E-002    2.649125709255521E-025
 -3.610000000000000E-002    3.819331942940648E-025
 -3.600000000000000E-002    5.044614342961352E-025
 -3.590000000000000E-002    5.982254640197653E-025
 -3.580000000000000E-002    6.038822203701925E-025
 -3.570000000000000E-002    4.318179377056226E-025
 -3.560000000000000E-002   -3.888181547528807E-026
 -3.550000000000000E-002   -9.541012465859661E-025
 -3.540000000000000E-002   -2.467858828857208E-024
 -3.530000000000000E-002   -4.712875867161107E-024
 -3.520000000000000E-002   -7.758838327395763E-024
 -3.510000000000000E-002   -1.156233906099526E-023
 -3.500000000000000E-002   -1.591702617802704E-023
 -3.490000000000000E-002   -2.041673908676013E-023
 -3.480000000000000E-002   -2.444645436068976E-023
 -3.470000000000000E-002   -2.721330104489860E-023
 -3.460000000000000E-002   -2.782013939079882E-023
 -3.450000000000000E-002   -2.536571926490949E-023
 -3.440000000000000E-002   -1.902836406802559E-023
 -3.430000000000000E-002   -8.058307243408264E-024
 -3.420000000000000E-002    8.423961769035897E-024
 -3.410000000000000E-002    3.193696982294621E-023
 -3.400000000000000E-002    6.554396074052053E-023
 -3.390000000000000E-002    1.151643390082243E-022
 -3.380000000000000E-002    1.911489429534014E-022
 -3.370000000000000E-002    3.097496361480030E-022
 -3.360000000000000E-002    4.938201232413429E-022
 -3.350000000000000E-002    7.717699834258699E-022
 -3.340000000000000E-002    1.173530307193939E-021
 -3.330000000000000E-002    1.722187371194984E-021
 -3.320000000000000E-002    2.420133868071078E-021
 -3.310000000000000E-002    3.229225984694472E-021
 -3.300000000000000E-002    4.045621897296558E-021
 -3.290000000000000E-002    4.671777174044362E-021
 -3.280000000000000E-002    4.790393920605126E-021
 -3.270000000000000E-002    3.947754931887685E-021
 -3.260000000000000E-002    1.556346905805768E-021
 -3.250000000000000E-002   -3.071573978876816E-021
 -3.240000000000000E-002   -1.064765469963250E-020
 -3.230000000000000E-002   -2.177873858895623E-020
 -3.220000000000000E-002   -3.678137533696693E-020
 -3.210000000000000E-002   -5.544413042959429E-020
 -3.200000000000000E-002   -7.675433417269735E-020
 -3.190000000000000E-002   -9.862094781459778E-020
 -3.180000000000000E-002   -1.176408883178821E-019
 -3.170000000000000E-002   -1.289703905701196E-019
 -3.160000000000000E-002   -1.263720702899640E-019
 -3.150000000000000E-002   -1.025093054179019E-019
 -3.140000000000000E-002   -4.954824547922223E-020
 -3.130000000000000E-002    3.989745542838398E-020
 -3.120000000000000E-002    1.714836430364562E-019
 -3.110000000000000E-002    3.475728241363897E-019
 -3.100000000000000E-002    5.655093105688901E-019
 -3.090000000000000E-002    8.159129174624532E-019
 -3.080000000000000E-002    1.081223826675202E-018
 -3.070000000000000E-002    1.334762672111496E-018
 -3.060000000000000E-002    1.540571881445728E-018
 -3.050000000000000E-002    1.654273699982290E-018
 -3.040000000000000E-002    1.625102392287423E-018
 -3.030000000000000E-002    1.399170020675831E-018
 -3.020000000000000E-002    9.238971749560630E-019
 -3.010000000000000E-002    1.534221142975166E-019
 -3.000000000000000E-002   -9.453026460540647E-019
 -2.990000000000000E-002   -2.386063626533363E-018
 -2.980000000000000E-002   -4.156924074025186E-018
 -2.970000000000000E-002   -6.214011766511978E-018
 -2.960000000000000E-002   -8.475700265856418E-018
 -2.950000000000000E-002   -1.081723222534244E-017
 -2.940000000000000E-002   -1.306574807103485E-017
 -2.930000000000000E-002   -1.499579327937434E-017
 -2.920000000000000E-002   -1.632561757325644E-017
 -2.910000000000000E-002   -1.671512577904965E-017
 -2.900000000000000E-002   -1.576712901334429E-017
 -2.890000000000000E-002   -1.303449893288189E-017
 -2.880000000000000E-002   -8.036839738449687E-018
 -2.870000000000000E-002   -2.911002030104168E-019
 -2.860000000000000E-002    1.063917790546551E-017
 -2.850000000000000E-002    2.507192445746479E-017
 -2.840000000000000E-002    4.310970626036775E-017
 -2.830000000000000E-002    6.451919034148553E-017
 -2.820000000000000E-002    8.859310347203305E-017
 -2.810000000000000E-002    1.140070919512188E-016
 -2.800000000000000E-002    1.386913533975998E-016
 -2.790000000000000E-002    1.597435709440426E-016
 -2.780000000000000E-002    1.734157203404436E-016
 -2.770000000000000E-002    1.752096892479333E-016
 -2.760000000000000E-002    1.601149054512740E-016
 -2.750000000000000E-002    1.230129248558094E-016
 -2.740000000000000E-002    5.925933892998627E-017
 -2.730000000000000E-002   -3.456949862427729E-017
 -2.720000000000000E-002   -1.598049904708101E-016
 -2.710000000000000E-002   -3.147624748414743E-016
 -2.700000000000000E-002   -4.938698527728061E-016
 -2.690000000000000E-002   -6.869807351977953E-016
 -2.680000000000000E-002   -8.790202890974109E-016
 -2.670000000000000E-002   -1.050114711621242E-015
 -2.660000000000000E-002   -1.176333340276930E-015
 -2.650000000000000E-002   -1.231130693626946E-015
 -2.640000000000000E-002   -1.187505253518848E-015
 -2.630000000000000E-002   -1.020806491849841E-015
 -2.620000000000000E-002   -7.120162816764660E-016
 -2.610000000000000E-002   -2.512306291615483E-016
 -2.600000000000000E-002    3.590280863683775E-016
 -2.590000000000000E-002    1.101098827645572E-015
 -2.580000000000000E-002    1.940520943002800E-015
 -2.570000000000000E-002    2.825841826414204E-015
 -2.560000000000000E-002    3.690205937605774E-015
 -2.550000000000000E-002    4.454884695428278E-015
 -2.540000000000000E-002    5.034681778813841E-015
 -2.530000000000000E-002    5.344916234702561E-015
 -2.520000000000000E-002    5.309420102513085E-015
 -2.510000000000000E-002    4.868788804317265E-015
 -2.500000000000000E-002    3.987964435635605E-015
 -2.490000000000000E-002    2.662194765139929E-015
 -2.480000000000000E-002    9.204978415584618E-016
 -2.470000000000000E-002   -1.174014593022255E-015
 -2.460000000000000E-002   -3.527247010745563E-015
 -2.450000000000000E-002   -6.020506144940393E-015
 -2.440000000000000E-002   -8.519521876026746E-015
 -2.430000000000000E-002   -1.088499593664080E-014
 -2.420000000000000E-002   -1.298321863101783E-014
 -2.410000000000000E-002   -1.469514320535438E-014
 -2.400000000000000E-002   -1.592235859097225E-014
 -2.390000000000000E-002   -1.658881505818183E-014
 -2.380000000000000E-002   -1.663773381998893E-014
 -2.370000000000000E-002   -1.602404135124717E-014
 -2.360000000000000E-002   -1.470361639924617E-014
 -2.350000000000000E-002   -1.262158468962732E-014
 -2.340000000000000E-002   -9.702651716007938E-015
 -2.330000000000000E-002   -5.846878214856184E-015
 -2.320000000000000E-002   -9.341022973747819E-016
 -2.310000000000000E-002    5.160473712514751E-015
 -2.300000000000000E-002    1.253842587736776E-014
 -2.290000000000000E-002    2.123880121704125E-014
 -2.280000000000000E-002    3.119048234920062E-014
 -2.270000000000000E-002    4.216167222517452E-014
 -2.260000000000000E-002    5.371407358301454E-014
 -2.250000000000000E-002    6.517068251776358E-014
 -2.240000000000000E-002    7.560643816964198E-014
 -2.230000000000000E-002    8.387006083951253E-014
 -2.220000000000000E-002    8.864274866192743E-014
 -2.210000000000000E-002    8.853573432574120E-014
 -2.200000000000000E-002    8.222344031959227E-014
 -2.190000000000000E-002    6.860349017272916E-014
 -2.180000000000000E-002    4.696918418669516E-014
 -2.170000000000000E-002    1.717539963115417E-014
 -2.160000000000000E-002   -2.022406662957251E-014
 -2.150000000000000E-002   -6.389005895922381E-014
 -2.140000000000000E-002   -1.116824398943456E-013
 -2.130000000000000E-002   -1.607293373507187E-013
 -2.120000000000000E-002   -2.075867430038398E-013
 -2.110000000000000E-002   -2.484833534349144E-013
 -2.100000000000000E-002   -2.796335472536789E-013
 -2.090000000000000E-002   -2.975902633957089E-013
 -2.080000000000000E-002   -2.996006167325851E-013
 -2.070000000000000E-002   -2.839217029650352E-013
 -2.060000000000000E-002   -2.500538718785352E-013
 -2.050000000000000E-002   -1.988544525531947E-013
 -2.040000000000000E-002   -1.325068504897924E-013
 -2.030000000000000E-002   -5.433630837994617E-014
 -2.020000000000000E-002    3.151602551319622E-014
 -2.010000000000000E-002    1.205278284616935E-013
 -2.000000000000000E-002    2.082871705830143E-013
 -1.990000000000000E-002    2.909746056431669E-013
 -1.980000000000000E-002    3.657633695754456E-013
 -1.970000000000000E-002    4.310683548506258E-013
 -1.960000000000000E-002    4.865892785681576E-013
 -1.950000000000000E-002    5.331179178594848E-013
 -1.940000000000000E-002    5.721117623250390E-013
 -1.930000000000000E-002    6.050735572931244E-013
 -1.920000000000000E-002    6.328133967522786E-013
 -1.910000000000000E-002    6.547006529818920E-013
 -1.900000000000000E-002    6.680321219357384E-013
 -1.890000000000000E-002    6.676478150377727E-013
 -1.880000000000000E-002    6.459096060865584E-013
 -1.870000000000000E-002    5.931242311388227E-013
 -1.860000000000000E-002    4.984399960622476E-013
 -1.850000000000000E-002    3.511827135917194E-013
 -1.840000000000000E-002    1.425265557727949E-013
 -1.830000000000000E-002   -1.326694417450190E-013
 -1.820000000000000E-002   -4.740809851881895E-013
 -1.810000000000000E-002   -8.744432775325768E-013
 -1.800000000000000E-002   -1.318631459935006E-012
 -1.790000000000000E-002   -1.783508240807694E-012
 -1.780000000000000E-002   -2.238686734276851E-012
 -1.770000000000000E-002   -2.648252479471153E-012
 -1.760000000000000E-002   -2.973379616512892E-012
 -1.750000000000000E-002   -3.175649271842688E-012
 -1.740000000000000E-002   -3.220768050397676E-012
 -1.730000000000000E-002   -3.082301985766507E-012
 -1.720000000000000E-002   -2.744993410095092E-012
 -1.710000000000000E-002   -2.207239142978956E-012
 -1.700000000000000E-002   -1.482370875966380E-012
 -1.690000000000000E-002   -5.984929939736244E-013
 -1.680000000000000E-002    4.032043154648003E-013
 -1.670000000000000E-002    1.471554439161454E-012
 -1.660000000000000E-002    2.549659934698534E-012
 -1.650000000000000E-002    3.579813416437252E-012
 -1.640000000000000E-002    4.508525375284454E-012
 -1.630000000000000E-002    5.291030995654002E-012
 -1.620000000000000E-002    5.894680420481462E-012
 -1.610000000000000E-002    6.300736497638371E-012
 -1.600000000000000E-002    6.504289531503442E-012
 -1.590000000000000E-002    6.512246924188935E-012
 -1.580000000000000E-002    6.339637013011062E-012
 -1.570000000000000E-002    6.004723205870553E-012
 -1.560000000000000E-002    5.523653873931799E-012
 -1.550000000000000E-002    4.905500068631778E-012
 -1.540000000000000E-002    4.148564689854387E-012
 -1.530000000000000E-002    3.238744607652745E-012
 -1.520000000000000E-002    2.150505847243700E-012
 -1.510000000000000E-002    8.506988741990783E-013
 -1.500000000000000E-002   -6.949483106375999E-013
 -1.490000000000000E-002   -2.513247377258329E-012
 -1.480000000000000E-002   -4.613845478870518E-012
 -1.470000000000000E-002   -6.979663082764088E-012
 -1.460000000000000E-002   -9.558876218258268E-012
 -1.450000000000000E-002   -1.225984362795762E-011
 -1.440000000000000E-002   -1.495013608232700E-011
 -1.430000000000000E-002   -1.746045808338943E-011
 -1.420000000000000E-002   -1.959369022698499E-011
 -1.410000000000000E-002   -2.113867478957458E-011
 -1.400000000000000E-002   -2.188773097080244E-011
 -1.390000000000000E-002   -2.165631091347491E-011
 -1.380000000000000E-002   -2.030281394028293E-011
 -1.370000000000000E-002   -1.774636570648163E-011
 -1.360000000000000E-002   -1.398044958682126E-011
 -1.350000000000000E-002   -9.080587633581635E-012
 -1.340000000000000E-002   -3.204865966157242E-012
 -1.330000000000000E-002    3.413149784388977E-012
 -1.320000000000000E-002    1.047870300831135E-011
 -1.310000000000000E-002    1.765606980587319E-011
 -1.300000000000000E-002    2.459271035178484E-011
 -1.290000000000000E-002    3.094481943245416E-011
 -1.280000000000000E-002    3.640154695871509E-011
 -1.270000000000000E-002    4.070525070246819E-011
 -1.260000000000000E-002    4.366561997639310E-011
 -1.250000000000000E-002    4.516625961706676E-011
 -1.240000000000000E-002    4.516333014925595E-011
 -1.230000000000000E-002    4.367679680102719E-011
 -1.220000000000000E-002    4.077595925725649E-011
 -1.210000000000000E-002    3.656164195837618E-011
 -1.200000000000000E-002    3.114797382586334E-011
 -1.190000000000000E-002    2.464674798415209E-011
 -1.180000000000000E-002    1.715706216380410E-011
 -1.170000000000000E-002    8.762178307735398E-012
 -1.160000000000000E-002   -4.655211189861024E-013
 -1.150000000000000E-002   -1.045182322363363E-011
 -1.140000000000000E-002   -2.110186087813941E-011
 -1.130000000000000E-002   -3.227792944438237E-011
 -1.120000000000000E-002   -4.377750202406419E-011
 -1.110000000000000E-002   -5.531535048043027E-011
 -1.100000000000000E-002   -6.651355768943226E-011
 -1.090000000000000E-002   -7.690239001939016E-011
 -1.080000000000000E-002   -8.593398427919019E-011
 -1.070000000000000E-002   -9.300908203913935E-011
 -1.060000000000000E-002   -9.751555874165099E-011
 -1.050000000000000E-002   -9.887572201062004E-011
 -1.040000000000000E-002   -9.659804876741554E-011
 -1.030000000000000E-002   -9.032816716613113E-011
 -1.020000000000000E-002   -7.989355404378501E-011
 -1.010000000000000E-002   -6.533680473788208E-011
 -1.000000000000000E-002   -4.693334209340607E-011
 -9.899999999999999E-003   -2.519097806466589E-011
 -9.800000000000000E-003   -8.306693352009295E-013
 -9.699999999999999E-003    2.525021646726080E-011
 -9.599999999999999E-003    5.202888988719211E-011
 -9.500000000000000E-003    7.841757936323879E-011
 -9.399999999999999E-003    1.033278154797342E-010
 -9.299999999999999E-003    1.257324772854203E-010
 -9.200000000000000E-003    1.447201719280482E-010
 -9.099999999999999E-003    1.595375210359097E-010
 -8.999999999999999E-003    1.696166277001396E-010
 -8.900000000000000E-003    1.745868140513915E-010
 -8.799999999999999E-003    1.742716421152998E-010
 -8.699999999999999E-003    1.686740684352141E-010
 -8.600000000000000E-003    1.579534726617099E-010
 -8.499999999999999E-003    1.423991370579707E-010
 -8.399999999999999E-003    1.224044853525274E-010
 -8.300000000000000E-003    9.844559086515983E-011
 -8.199999999999999E-003    7.106620227332424E-011
 -8.100000000000000E-003    4.086990064721100E-011
 -8.000000000000000E-003    8.518258357900537E-012
 -7.899999999999999E-003   -2.526741832500303E-011
 -7.800000000000000E-003   -5.970428055822113E-011
 -7.699999999999999E-003   -9.394984061147017E-011
 -7.599999999999999E-003   -1.271109084752234E-010
 -7.499999999999999E-003   -1.582619770135220E-010
 -7.399999999999999E-003   -1.864737357116996E-010
 -7.299999999999999E-003   -2.108507003171719E-010
 -7.199999999999999E-003   -2.305748686242901E-010
 -7.100000000000000E-003   -2.449512203039081E-010
 -6.999999999999999E-003   -2.534495116919672E-010
 -6.899999999999999E-003   -2.557370550424781E-010
 -6.800000000000000E-003   -2.516975675542800E-010
 -6.699999999999999E-003   -2.414331587661453E-010
 -6.599999999999999E-003   -2.252481703982653E-010
 -6.499999999999999E-003   -2.036161349212362E-010
 -6.399999999999999E-003   -1.771338837773341E-010
 -6.299999999999999E-003   -1.464681795757250E-010
 -6.199999999999999E-003   -1.123020159713556E-010
 -6.100000000000000E-003   -7.528765638018080E-011
 -5.999999999999999E-003   -3.601280460109676E-011
 -5.899999999999999E-003    5.015477106490200E-012
 -5.800000000000000E-003    4.736706398961020E-011
 -5.699999999999999E-003    9.066625882219679E-011
 -5.599999999999999E-003    1.345542154305875E-010
 -5.499999999999999E-003    1.786425977286938E-010
 -5.399999999999999E-003    2.224662156606984E-010
 -5.299999999999999E-003    2.654430355571168E-010
 -5.199999999999999E-003    3.068483443212021E-010
 -5.099999999999999E-003    3.458088389502712E-010
 -4.999999999999999E-003    3.813181933166406E-010
 -4.899999999999999E-003    4.122731255883917E-010
 -4.799999999999999E-003    4.375249678298007E-010
 -4.699999999999999E-003    4.559392524966587E-010
 -4.599999999999999E-003    4.664542234272609E-010
 -4.499999999999999E-003    4.681289066452087E-010
 -4.399999999999999E-003    4.601731238548271E-010
 -4.299999999999999E-003    4.419548246778618E-010
 -4.199999999999999E-003    4.129842254002493E-010
 -4.099999999999999E-003    3.728791951576695E-010
 -3.999999999999999E-003    3.213209074566072E-010
 -3.899999999999999E-003    2.580119579945786E-010
 -3.799999999999999E-003    1.826515181359376E-010
 -3.699999999999999E-003    9.494118332823106E-011
 -3.599999999999999E-003   -5.366735990323541E-012
 -3.499999999999999E-003   -1.183735975275966E-010
 -3.399999999999999E-003   -2.438914434023317E-010
 -3.299999999999999E-003   -3.812623234504676E-010
 -3.199999999999999E-003   -5.291573264205196E-010
 -3.099999999999999E-003   -6.853781980106482E-010
 -2.999999999999999E-003   -8.466910677936171E-010
 -2.899999999999999E-003   -1.008721469301285E-009
 -2.799999999999999E-003   -1.165937306637737E-009
 -2.699999999999999E-003   -1.311741219644314E-009
 -2.599999999999999E-003   -1.438682742547969E-009
 -2.499999999999999E-003   -1.538788658845107E-009
 -2.399999999999999E-003   -1.603997329170628E-009
 -2.299999999999999E-003   -1.626667611013511E-009
 -2.199999999999999E-003   -1.600124664537025E-009
 -2.099999999999999E-003   -1.519195247197472E-009
 -1.999999999999999E-003   -1.380684578087931E-009
 -1.899999999999999E-003   -1.183747963051037E-009
 -1.799999999999999E-003   -9.301199560250569E-010
 -1.699999999999999E-003   -6.241761308118865E-010
 -1.599999999999999E-003   -2.728191649850520E-010
 -1.499999999999999E-003    1.148014671870065E-010
 -1.399999999999999E-003    5.277092448284443E-010
 -1.299999999999999E-003    9.536189786505145E-010
 -1.199999999999999E-003    1.379502168810479E-009
 -1.099999999999999E-003    1.792144359917015E-009
 -9.999999999999989E-004    2.178642302001689E-009
 -8.999999999999990E-004    2.526795446036249E-009
 -7.999999999999990E-004    2.825365834890840E-009
 -6.999999999999989E-004    3.064192405318020E-009
 -5.999999999999990E-004    3.234171550256070E-009
 -4.999999999999989E-004    3.327131700356670E-009
 -3.999999999999989E-004    3.335646073063338E-009
 -2.999999999999989E-004    3.252839613676728E-009
 -1.999999999999989E-004    3.072249505620875E-009
 -9.999999999999892E-005    2.787794101683931E-009
  1.084202172485504E-018    2.393897101697564E-009
  1.000000000000011E-004    1.885796598544767E-009
  2.000000000000011E-004    1.260047678539073E-009
  3.000000000000011E-004    5.152087039818277E-010
  4.000000000000011E-004   -3.473179039556220E-010
  5.000000000000011E-004   -1.322340377113756E-009
  6.000000000000011E-004   -2.399881419309124E-009
  7.000000000000011E-004   -3.564188499040253E-009
  8.000000000000011E-004   -4.792807257830973E-009
  9.000000000000012E-004   -6.055757536260270E-009
  1.000000000000001E-003   -7.314839749390965E-009
  1.100000000000001E-003   -8.523073881504860E-009
  1.200000000000001E-003   -9.624256121744143E-009
  1.300000000000001E-003   -1.055260699269202E-008
  1.400000000000001E-003   -1.123245814108948E-008
  1.500000000000001E-003   -1.157793284122294E-008
  1.600000000000001E-003   -1.149257050569630E-008
  1.700000000000001E-003   -1.086885442525811E-008
  1.800000000000001E-003   -9.587635690886279E-009
  1.900000000000001E-003   -7.517420899572280E-009
  2.000000000000001E-003   -4.513584403182600E-009
  2.100000000000001E-003   -4.175180720559619E-010
  2.200000000000001E-003    4.944202402953457E-009
  2.300000000000001E-003    1.176058333549572E-008
  2.400000000000001E-003    2.023679063488278E-008
  2.500000000000001E-003    3.059452677661499E-008
  2.600000000000001E-003    4.307212226484540E-008
  2.700000000000001E-003    5.792429224793262E-008
  2.800000000000001E-003    7.542156403859192E-008
  2.900000000000001E-003    9.584942441619826E-008
  3.000000000000001E-003    1.195071881485823E-007
  3.100000000000001E-003    1.467066293691429E-007
  3.200000000000001E-003    1.777706156940047E-007
  3.300000000000001E-003    2.130316358307699E-007
  3.400000000000001E-003    2.528304731066086E-007
  3.500000000000001E-003    2.975151137599680E-007
  3.600000000000001E-003    3.474399250765484E-007
  3.700000000000001E-003    4.029650586545962E-007
  3.800000000000001E-003    4.644565984145282E-007
  3.900000000000001E-003    5.322866762144071E-007
  4.000000000000001E-003    6.068345141723588E-007
  4.100000000000001E-003    6.884875225157136E-007
  4.200000000000001E-003    7.776430420780304E-007
  4.300000000000001E-003    8.747102219383798E-007
  4.400000000000001E-003    9.801122126380525E-007
  4.500000000000001E-003    1.094288984676035E-006
  4.600000000000002E-003    1.217699781480454E-006
  4.700000000000001E-003    1.350825656202559E-006
  4.800000000000001E-003    1.494172300546416E-006
  4.900000000000002E-003    1.648272988427871E-006
  5.000000000000001E-003    1.813690736369794E-006
  5.100000000000001E-003    1.991020227999610E-006
  5.200000000000001E-003    2.180890595996925E-006
  5.300000000000002E-003    2.383966235968471E-006
  5.400000000000001E-003    2.600948626409803E-006
  5.500000000000001E-003    2.832576856900467E-006
  5.600000000000002E-003    3.079629403228002E-006
  5.700000000000001E-003    3.342923255295530E-006
  5.800000000000001E-003    3.623316122786665E-006
  5.900000000000002E-003    3.921705836244630E-006
  6.000000000000001E-003    4.239032369457563E-006
  6.100000000000001E-003    4.576278265240938E-006
  6.200000000000002E-003    4.934472498322661E-006
  6.300000000000002E-003    5.314691790337423E-006
  6.400000000000001E-003    5.718066009885503E-006
  6.500000000000001E-003    6.145781347880951E-006
  6.600000000000002E-003    6.599087934600133E-006
  6.700000000000001E-003    7.079304517813286E-006
  6.800000000000001E-003    7.587827448307820E-006
  6.900000000000002E-003    8.126137014817169E-006
  7.000000000000001E-003    8.695807059610655E-006
  7.100000000000001E-003    9.298509948726371E-006
  7.200000000000002E-003    9.936026981605001E-006
  7.300000000000002E-003    1.061025340651127E-005
  7.400000000000001E-003    1.132320603352259E-005
  7.500000000000001E-003    1.207702796837280E-005
  7.600000000000002E-003    1.287399282367652E-005
  7.700000000000001E-003    1.371650814912650E-005
  7.800000000000001E-003    1.460711951230144E-005
  7.900000000000001E-003    1.554851251390571E-005
  8.000000000000002E-003    1.654351607893570E-005
  8.100000000000001E-003    1.759510429027016E-005
  8.200000000000001E-003    1.870640103731465E-005
  8.300000000000002E-003    1.988068364807284E-005
  8.400000000000001E-003    2.112138682682037E-005
  8.500000000000002E-003    2.243210825060540E-005
  8.600000000000002E-003    2.381661617197016E-005
  8.700000000000001E-003    2.527885917875015E-005
  8.800000000000002E-003    2.682296950887471E-005
  8.900000000000002E-003    2.845327478649502E-005
  9.000000000000001E-003    3.017431136292010E-005
  9.100000000000002E-003    3.199082729505434E-005
  9.200000000000002E-003    3.390779909578434E-005
  9.300000000000001E-003    3.593043390033270E-005
  9.400000000000002E-003    3.806418493231589E-005
  9.500000000000001E-003    4.031476263914457E-005
  9.600000000000001E-003    4.268813451635813E-005
  9.700000000000002E-003    4.519054731997318E-005
  9.800000000000001E-003    4.782852696279057E-005
  9.900000000000001E-003    5.060889136853426E-005
  1.000000000000000E-002    5.353876153418574E-005
  1.010000000000000E-002    5.662557594304634E-005
  1.020000000000000E-002    5.987710158374439E-005
  1.030000000000000E-002    6.330144006630934E-005
  1.040000000000000E-002    6.690705650774771E-005
  1.050000000000000E-002    7.070278230677793E-005
  1.060000000000000E-002    7.469783734177990E-005
  1.070000000000000E-002    7.890184272224150E-005
  1.080000000000000E-002    8.332484330381975E-005
  1.090000000000000E-002    8.797732370678208E-005
  1.100000000000000E-002    9.287021773419497E-005
  1.110000000000000E-002    9.801495363662678E-005
  1.120000000000000E-002    1.034234328922956E-004
  1.130000000000000E-002    1.091080690641266E-004
  1.140000000000000E-002    1.150818095932106E-004
  1.150000000000000E-002    1.213581354801461E-004
  1.160000000000000E-002    1.279510953388734E-004
  1.170000000000000E-002    1.348753219639946E-004
  1.180000000000000E-002    1.421460330674543E-004
  1.190000000000000E-002    1.497790745658770E-004
  1.200000000000000E-002    1.577909265397767E-004
  1.210000000000000E-002    1.661987198153723E-004
  1.220000000000000E-002    1.750202514799974E-004
  1.230000000000000E-002    1.842740331267141E-004
  1.240000000000000E-002    1.939792980843568E-004
  1.250000000000000E-002    2.041559869542101E-004
  1.260000000000000E-002    2.148248604200553E-004
  1.270000000000000E-002    2.260074343032260E-004
  1.280000000000000E-002    2.377260506145404E-004
  1.290000000000000E-002    2.500038992764772E-004
  1.300000000000000E-002    2.628650169002556E-004
  1.310000000000000E-002    2.763343606280594E-004
  1.320000000000000E-002    2.904377879263672E-004
  1.330000000000000E-002    3.052021180091718E-004
  1.340000000000000E-002    3.206551668198503E-004
  1.350000000000000E-002    3.368257242752979E-004
  1.360000000000000E-002    3.537436054578542E-004
  1.370000000000000E-002    3.714397539292617E-004
  1.380000000000000E-002    3.899461335134210E-004
  1.390000000000000E-002    4.092958774803044E-004
  1.400000000000000E-002    4.295232279601333E-004
  1.410000000000000E-002    4.506636580684287E-004
  1.420000000000000E-002    4.727538201600827E-004
  1.430000000000000E-002    4.958315661138541E-004
  1.440000000000000E-002    5.199360631290684E-004
  1.450000000000000E-002    5.451077541967910E-004
  1.460000000000000E-002    5.713883584872947E-004
  1.470000000000000E-002    5.988208667345717E-004
  1.480000000000000E-002    6.274497186831778E-004
  1.490000000000000E-002    6.573207264309487E-004
  1.500000000000000E-002    6.884809923217803E-004
  1.510000000000000E-002    7.209791172276621E-004
  1.520000000000000E-002    7.548651268358765E-004
  1.530000000000000E-002    7.901904897568533E-004
  1.540000000000000E-002    8.270081751092168E-004
  1.550000000000000E-002    8.653726960863667E-004
  1.560000000000000E-002    9.053402383860604E-004
  1.570000000000000E-002    9.469684354080664E-004
  1.580000000000000E-002    9.903165992842604E-004
  1.590000000000000E-002    1.035445923619952E-003
  1.600000000000000E-002    1.082419151300316E-003
  1.610000000000000E-002    1.131300863943727E-003
  1.620000000000000E-002    1.182157535884510E-003
  1.630000000000000E-002    1.235057383701398E-003
  1.640000000000000E-002    1.290070679804259E-003
  1.650000000000000E-002    1.347269622008134E-003
  1.660000000000000E-002    1.406728211970778E-003
  1.670000000000000E-002    1.468522628196527E-003
  1.680000000000000E-002    1.532730777863673E-003
  1.690000000000000E-002    1.599432898728716E-003
  1.700000000000000E-002    1.668710917873869E-003
  1.710000000000000E-002    1.740648852226412E-003
  1.720000000000000E-002    1.815332677646200E-003
  1.730000000000000E-002    1.892850511107325E-003
  1.740000000000000E-002    1.973292025297636E-003
  1.750000000000000E-002    2.056749195614310E-003
  1.760000000000000E-002    2.143315734501545E-003
  1.770000000000000E-002    2.233087484397353E-003
  1.780000000000000E-002    2.326162000488972E-003
  1.790000000000000E-002    2.422639091039170E-003
  1.800000000000000E-002    2.522620117642148E-003
  1.810000000000000E-002    2.626208995143890E-003
  1.820000000000000E-002    2.733511000092689E-003
  1.830000000000000E-002    2.844634016288819E-003
  1.840000000000000E-002    2.959687505799139E-003
  1.850000000000000E-002    3.078783279600825E-003
  1.860000000000000E-002    3.202035021154501E-003
  1.870000000000000E-002    3.329558616911945E-003