 -4.000000000000000E-002    0.000000000000000E+000
 -3.990000000000000E-002    0.000000000000000E+000
 -3.980000000000000E-002    0.000000000000000E+000
 -3.970000000000000E-002    0.000000000000000E+000
 -3.960000000000000E-002    0.000000000000000E+000
 -3.950000000000000E-002    0.000000000000000E+000
 -3.940000000000000E-002    0.000000000000000E+000
 -3.930000000000000E-002    0.000000000000000E+000
 -3.920000000000000E-002    0.000000000000000E+000
 -3.910000000000000E-002    0.000000000000000E+000
 -3.900000000000000E-002    4.812196873568707E-035
 -3.890000000000000E-002    1.000299667650568E-033
 -3.880000000000000E-002    1.086975536390138E-032
 -3.870000000000000E-002    8.211147000279690E-032
 -3.860000000000000E-002    4.838492468672008E-031
 -3.850000000000000E-002    2.366273936119708E-030
 -3.840000000000000E-002    9.979556112708923E-030
 -3.830000000000000E-002    3.724012069225588E-029
 -3.820000000000000E-002    1.252154655630346E-028
 -3.810000000000000E-002    3.844444373022492E-028
 -3.800000000000000E-002    1.088602238576746E-027
 -3.790000000000000E-002    2.864471646688384E-027
 -3.780000000000000E-002    7.044241172822095E-027
 -3.770000000000000E-002    1.625763581380241E-026
 -3.760000000000000E-002    3.531473569296384E-026
 -3.750000000000000E-002    7.231188586196565E-026
 -3.740000000000000E-002    1.395981116241969E-025
 -3.730000000000000E-002    2.536558146365564E-025
 -3.720000000000000E-002    4.319628333403363E-025
 -3.710000000000000E-002    6.834571852929773E-025
 -3.700000000000000E-002    9.874299761957269E-025
 -3.690000000000000E-002    1.253959042149780E-024
 -3.680000000000000E-002    1.258311267894977E-024
 -3.670000000000000E-002    5.437216801827939E-025
 -3.660000000000000E-002   -1.706030065931093E-024
 -3.650000000000000E-002   -6.807830841496765E-024
 -3.640000000000000E-002   -1.669199061209415E-023
 -3.630000000000000E-002   -3.390593675942441E-023
 -3.620000000000000E-002   -6.137876955359301E-023
 -3.610000000000000E-002   -1.017627438428443E-022
 -3.600000000000000E-002   -1.561242315943806E-022
 -3.590000000000000E-002   -2.217480266159626E-022
 -3.580000000000000E-002   -2.888799553775530E-022
 -3.570000000000000E-002   -3.364057289707775E-022
 -3.560000000000000E-002   -3.267922450061930E-022
 -3.550000000000000E-002   -2.011316549664180E-022
 -3.540000000000000E-002    1.241689826923194E-022
 -3.530000000000000E-002    7.566721279533150E-022
 -3.520000000000000E-002    1.819936169887528E-021
 -3.510000000000000E-002    3.434407653736440E-021
 -3.500000000000000E-002    5.683183151700850E-021
 -3.490000000000000E-002    8.559436674027953E-021
 -3.480000000000000E-002    1.189446028717331E-020
 -3.470000000000000E-002    1.526912782356711E-020
 -3.460000000000000E-002    1.791741693120539E-020
 -3.450000000000000E-002    1.863825877010140E-020
 -3.440000000000000E-002    1.574088162426007E-020
 -3.430000000000000E-002    7.057802154483497E-021
 -3.420000000000000E-002   -9.933253825462543E-021
 -3.410000000000000E-002   -3.783429110635106E-020
 -3.400000000000000E-002   -7.885902469397445E-020
 -3.390000000000000E-002   -1.341467190416565E-019
 -3.380000000000000E-002   -2.028601264359461E-019
 -3.370000000000000E-002   -2.811114263315640E-019
 -3.360000000000000E-002   -3.608153144018020E-019
 -3.350000000000000E-002   -4.286336608380125E-019
 -3.340000000000000E-002   -4.652453614238811E-019
 -3.330000000000000E-002   -4.452368175557162E-019
 -3.320000000000000E-002   -3.379510174984777E-019
 -3.310000000000000E-002   -1.096383264165238E-019
 -3.300000000000000E-002    2.727929233334338E-019
 -3.290000000000000E-002    8.362424748268456E-019
 -3.280000000000000E-002    1.594106732885492E-018
 -3.270000000000000E-002    2.537464843262945E-018
 -3.260000000000000E-002    3.625378067026557E-018
 -3.250000000000000E-002    4.775306630698173E-018
 -3.240000000000000E-002    5.855051767421216E-018
 -3.230000000000000E-002    6.677995920979591E-018
 -3.220000000000000E-002    7.003685648259391E-018
 -3.210000000000000E-002    6.545902305066646E-018
 -3.200000000000000E-002    4.990232071358205E-018
 -3.190000000000000E-002    2.022707910004493E-018
 -3.180000000000000E-002   -2.629692393533447E-018
 -3.170000000000000E-002   -9.147078544917686E-018
 -3.160000000000000E-002   -1.755513643895452E-017
 -3.150000000000000E-002   -2.765787108153205E-017
 -3.140000000000000E-002   -3.897046616680162E-017
 -3.130000000000000E-002   -5.066030493590508E-017
 -3.120000000000000E-002   -6.150613719460385E-017
 -3.110000000000000E-002   -6.988703312793807E-017
 -3.100000000000000E-002   -7.381348358437486E-017
 -3.090000000000000E-002   -7.101280758963690E-017
 -3.080000000000000E-002   -5.907919500957723E-017
 -3.070000000000000E-002   -3.569512127851111E-017
 -3.060000000000000E-002    1.074767939287640E-018
 -3.050000000000000E-002    5.242421399495589E-017
 -3.040000000000000E-002    1.183971899884777E-016
 -3.030000000000000E-002    1.974595897480479E-016
 -3.020000000000000E-002    2.860921501269753E-016
 -3.010000000000000E-002    3.784582495133479E-016
 -3.000000000000000E-002    4.662108241612280E-016
 -2.990000000000000E-002    5.385093963654721E-016
 -2.980000000000000E-002    5.823184063154625E-016
 -2.970000000000000E-002    5.830501825257264E-016
 -2.960000000000000E-002    5.255973003174817E-016
 -2.950000000000000E-002    3.957683907188944E-016
 -2.940000000000000E-002    1.820993048661172E-016
 -2.930000000000000E-002   -1.220426021565119E-016
 -2.920000000000000E-002   -5.162035621361778E-016
 -2.910000000000000E-002   -9.906442871077804E-016
 -2.900000000000000E-002   -1.524460676320176E-015
 -2.890000000000000E-002   -2.084333083519478E-015
 -2.880000000000000E-002   -2.624232067888826E-015
 -2.870000000000000E-002   -3.086393166191034E-015
 -2.860000000000000E-002   -3.403819376787815E-015
 -2.850000000000000E-002   -3.504461703645907E-015
 -2.840000000000000E-002   -3.317079382877978E-015
 -2.830000000000000E-002   -2.778588924895949E-015
 -2.820000000000000E-002   -1.842486204855424E-015
 -2.810000000000000E-002   -4.877029938314834E-016
 -2.800000000000000E-002    1.272954525585847E-015
 -2.790000000000000E-002    3.385790348498167E-015
 -2.780000000000000E-002    5.751712126475459E-015
 -2.770000000000000E-002    8.225276550852121E-015
 -2.760000000000000E-002    1.061816856046176E-014
 -2.750000000000000E-002    1.270767734405916E-014
 -2.740000000000000E-002    1.425030054491992E-014
 -2.730000000000000E-002    1.500004970918084E-014
 -2.720000000000000E-002    1.473044403300201E-014
 -2.710000000000000E-002    1.325856176556297E-014
 -2.700000000000000E-002    1.046902439868295E-014
 -2.690000000000000E-002    6.335435926804417E-015
 -2.680000000000000E-002    9.366767914480193E-016
 -2.670000000000000E-002   -5.534347569252112E-015
 -2.660000000000000E-002   -1.277143600978403E-014
 -2.650000000000000E-002   -2.036638171939240E-014
 -2.640000000000000E-002   -2.783091595399102E-014
 -2.630000000000000E-002   -3.462812712918729E-014
 -2.620000000000000E-002   -4.021102081971395E-014
 -2.610000000000000E-002   -4.406477196750553E-014
 -2.600000000000000E-002   -4.574849306350120E-014
 -2.590000000000000E-002   -4.493202459614412E-014
 -2.580000000000000E-002   -4.142354149431381E-014
 -2.570000000000000E-002   -3.518460539418271E-014
 -2.560000000000000E-002   -2.633079350635988E-014
 -2.550000000000000E-002   -1.511779058354579E-014
 -2.540000000000000E-002   -1.915040240153065E-015
 -2.530000000000000E-002    1.282903353986414E-014
 -2.520000000000000E-002    2.862458088302201E-014
 -2.510000000000000E-002    4.497400851401669E-014
 -2.500000000000000E-002    6.139530353584576E-014
 -2.490000000000000E-002    7.742950438853324E-014
 -2.480000000000000E-002    9.262919958964528E-014
 -2.470000000000000E-002    1.065280698398808E-013
 -2.460000000000000E-002    1.185953717928161E-013
 -2.450000000000000E-002    1.281831268404301E-013
 -2.440000000000000E-002    1.344772901252047E-013
 -2.430000000000000E-002    1.364664118997111E-013
 -2.420000000000000E-002    1.329419245975811E-013
 -2.410000000000000E-002    1.225425706248724E-013
 -2.400000000000000E-002    1.038513780769616E-013
 -2.390000000000000E-002    7.554762381681618E-014
 -2.380000000000000E-002    3.660792252918201E-014
 -2.370000000000000E-002   -1.345817793750558E-014
 -2.360000000000000E-002   -7.436156163049989E-014
 -2.350000000000000E-002   -1.448066525971065E-013
 -2.340000000000000E-002   -2.223195728551500E-013
 -2.330000000000000E-002   -3.031671869944089E-013
 -2.320000000000000E-002   -3.823987664681026E-013
 -2.310000000000000E-002   -4.540325336696648E-013
 -2.300000000000000E-002   -5.113956206843455E-013
 -2.290000000000000E-002   -5.476082781474847E-013
 -2.280000000000000E-002   -5.561837013913807E-013
 -2.270000000000000E-002   -5.316955559767801E-013
 -2.260000000000000E-002   -4.704494820147591E-013
 -2.250000000000000E-002   -3.710837511878503E-013
 -2.240000000000000E-002   -2.350217861178527E-013
 -2.230000000000000E-002   -6.670530344917689E-014
 -2.220000000000000E-002    1.264465766617579E-013
 -2.210000000000000E-002    3.343819174700955E-013
 -2.200000000000000E-002    5.450611043236262E-013
 -2.190000000000000E-002    7.453631925502713E-013
 -2.180000000000000E-002    9.221780548850368E-013
 -2.170000000000000E-002    1.063577184986400E-012
 -2.160000000000000E-002    1.159935138645199E-012
 -2.150000000000000E-002    1.204865431506665E-012
 -2.140000000000000E-002    1.195842671597880E-012
 -2.130000000000000E-002    1.134409835012920E-012
 -2.120000000000000E-002    1.025910618678550E-012
 -2.110000000000000E-002    8.787428879018618E-013
 -2.100000000000000E-002    7.031904767476094E-013
 -2.090000000000000E-002    5.099547898903990E-013
 -2.080000000000000E-002    3.085602600482568E-013
 -2.070000000000000E-002    1.058470656689398E-013
 -2.060000000000000E-002   -9.522051831509092E-014
 -2.050000000000000E-002   -2.962152310386776E-013
 -2.040000000000000E-002   -5.032066983636077E-013
 -2.030000000000000E-002   -7.259189193337616E-013
 -2.020000000000000E-002   -9.760824302934426E-013
 -2.010000000000000E-002   -1.265085013804686E-012
 -2.000000000000000E-002   -1.601137178508414E-012
 -1.990000000000000E-002   -1.986266538241114E-012
 -1.980000000000000E-002   -2.413528571476986E-012
 -1.970000000000000E-002   -2.864857034129638E-012
 -1.960000000000000E-002   -3.309961603402032E-012
 -1.950000000000000E-002   -3.706615041147951E-012
 -1.940000000000000E-002   -4.002554298943030E-012
 -1.930000000000000E-002   -4.139057620386408E-012
 -1.920000000000000E-002   -4.056067363456332E-012
 -1.910000000000000E-002   -3.698524886565424E-012
 -1.900000000000000E-002   -3.023390445034669E-012
 -1.890000000000000E-002   -2.006667531997316E-012
 -1.880000000000000E-002   -6.496482588568059E-013
 -1.870000000000000E-002    1.016420443822584E-012
 -1.860000000000000E-002    2.927987620716912E-012
 -1.850000000000000E-002    4.989743081856310E-012
 -1.840000000000000E-002    7.078393548014457E-012
 -1.830000000000000E-002    9.049694567013065E-012
 -1.820000000000000E-002    1.074842587007951E-011
 -1.810000000000000E-002    1.202062997159500E-011
 -1.800000000000000E-002    1.272714610520488E-011
 -1.790000000000000E-002    1.275719239745751E-011
 -1.780000000000000E-002    1.204064697221061E-011
 -1.770000000000000E-002    1.055766932523455E-011
 -1.760000000000000E-002    8.344448226173610E-012
 -1.750000000000000E-002    5.494167235506099E-012
 -1.740000000000000E-002    2.152695214543292E-012
 -1.730000000000000E-002   -1.490960518142172E-012
 -1.720000000000000E-002   -5.218851563192744E-012
 -1.710000000000000E-002   -8.801794024084908E-012
 -1.700000000000000E-002   -1.201897578156799E-011
 -1.690000000000000E-002   -1.467751106596890E-011
 -1.680000000000000E-002   -1.662987822948609E-011
 -1.670000000000000E-002   -1.778721335529968E-011
 -1.660000000000000E-002   -1.812678194157154E-011
 -1.650000000000000E-002   -1.769247897032321E-011
 -1.640000000000000E-002   -1.658790916195696E-011
 -1.630000000000000E-002   -1.496246057729503E-011
 -1.620000000000000E-002   -1.299161043134039E-011
 -1.610000000000000E-002   -1.085352218756503E-011
 -1.600000000000000E-002   -8.704609590586208E-012
 -1.590000000000000E-002   -6.657078786101685E-012
 -1.580000000000000E-002   -4.761527873702611E-012
 -1.570000000000000E-002   -2.997324933847711E-012
 -1.560000000000000E-002   -1.272784487767149E-012
 -1.550000000000000E-002    5.638541463090402E-013
 -1.540000000000000E-002    2.702903321126662E-012
 -1.530000000000000E-002    5.342778371528911E-012
 -1.520000000000000E-002    8.653557547991078E-012
 -1.510000000000000E-002    1.273858744858241E-011
 -1.500000000000000E-002    1.759894591077360E-011
 -1.490000000000000E-002    2.310575203117104E-011
 -1.480000000000000E-002    2.898507253987898E-011
 -1.470000000000000E-002    3.481913728615783E-011
 -1.460000000000000E-002    4.006613912151765E-011
 -1.450000000000000E-002    4.409888777033239E-011
 -1.440000000000000E-002    4.626040177841482E-011
 -1.430000000000000E-002    4.593226395380925E-011
 -1.420000000000000E-002    4.260951755546013E-011
 -1.410000000000000E-002    3.597438338380849E-011
 -1.400000000000000E-002    2.596027340426773E-011
 -1.390000000000000E-002    1.279765547863655E-011
 -1.380000000000000E-002   -2.965526804388627E-012
 -1.370000000000000E-002   -2.047419450654383E-011
 -1.360000000000000E-002   -3.860958421508747E-011
 -1.350000000000000E-002   -5.606485087243022E-011
 -1.340000000000000E-002   -7.144798341355828E-011
 -1.330000000000000E-002   -8.340384875382121E-011
 -1.320000000000000E-002   -9.074429415129552E-011
 -1.310000000000000E-002   -9.257313523164440E-011
 -1.300000000000000E-002   -8.839246567482263E-011
 -1.290000000000000E-002   -7.817749848395342E-011
 -1.280000000000000E-002   -6.240956487644705E-011
 -1.270000000000000E-002   -4.206067602081043E-011
 -1.260000000000000E-002   -1.852799127785335E-011
 -1.250000000000000E-002    6.478231334776077E-012
 -1.240000000000000E-002    3.108400706262795E-011
 -1.230000000000000E-002    5.342447446122469E-011
 -1.220000000000000E-002    7.182281215457741E-011
 -1.210000000000000E-002    8.495595825946078E-011
 -1.200000000000000E-002    9.198826776608048E-011
 -1.190000000000000E-002    9.265677490613684E-011
 -1.180000000000000E-002    8.729618310375125E-011
 -1.170000000000000E-002    7.679817555191533E-011
 -1.160000000000000E-002    6.250690140792505E-011
 -1.150000000000000E-002    4.606013003387704E-011
 -1.140000000000000E-002    2.919248454097507E-011
 -1.130000000000000E-002    1.352270764798432E-011
 -1.120000000000000E-002    3.500799195236017E-013
 -1.110000000000000E-002   -9.514502364481917E-012
 -1.100000000000000E-002   -1.586002058718146E-011
 -1.090000000000000E-002   -1.911212163786963E-011
 -1.080000000000000E-002   -2.028609227431190E-011
 -1.070000000000000E-002   -2.085666550260690E-011
 -1.060000000000000E-002   -2.255549136109471E-011
 -1.050000000000000E-002   -2.711690243601452E-011
 -1.040000000000000E-002   -3.600044606994963E-011
 -1.030000000000000E-002   -5.012345818176346E-011
 -1.020000000000000E-002   -6.963829784637725E-011
 -1.010000000000000E-002   -9.378581135756154E-011
 -1.000000000000000E-002   -1.208496899280843E-010
 -9.899999999999999E-003   -1.482260499728719E-010
 -9.800000000000000E-003   -1.726095784558638E-010
 -9.699999999999999E-003   -1.902839867895251E-010
 -9.599999999999999E-003   -1.974908347621742E-010
 -9.500000000000000E-003   -1.908402412918137E-010
 -9.399999999999999E-003   -1.677192101695434E-010
 -9.299999999999999E-003   -1.266510814278783E-010
 -9.200000000000000E-003   -6.756213287804849E-011
 -9.099999999999999E-003    8.079913839131950E-012
 -8.999999999999999E-003    9.727841128871862E-011
 -8.900000000000000E-003    1.956771383290478E-010
 -8.799999999999999E-003    2.978750981985998E-010
 -8.699999999999999E-003    3.978570459936445E-010
 -8.600000000000000E-003    4.894958116914173E-010
 -8.499999999999999E-003    5.670713598979343E-010
 -8.399999999999999E-003    6.257475414297159E-010
 -8.300000000000000E-003    6.619499340112061E-010
 -8.199999999999999E-003    6.735982069868052E-010
 -8.100000000000000E-003    6.601605537116617E-010
 -8.000000000000000E-003    6.225208149793029E-010
 -7.899999999999999E-003    5.626690016063379E-010
 -7.800000000000000E-003    4.832509997188796E-010
 -7.699999999999999E-003    3.870313585900137E-010
 -7.599999999999999E-003    2.763386845597426E-010
 -7.499999999999999E-003    1.525691043701344E-010
 -7.399999999999999E-003    1.582252561538146E-011
 -7.299999999999999E-003   -1.352652446579699E-010
 -7.199999999999999E-003   -3.034503051236427E-010
 -7.100000000000000E-003   -4.925485702257031E-010
 -6.999999999999999E-003   -7.068557101059300E-010
 -6.899999999999999E-003   -9.503583039175837E-010
 -6.800000000000000E-003   -1.225805010465663E-009
 -6.699999999999999E-003   -1.533727901045463E-009
 -6.599999999999999E-003   -1.871515790101932E-009
 -6.499999999999999E-003   -2.232646371054070E-009
 -6.399999999999999E-003   -2.606175097321747E-009
 -6.299999999999999E-003   -2.976558331066226E-009
 -6.199999999999999E-003   -3.323865862004984E-009
 -6.100000000000000E-003   -3.624396800456743E-009
 -5.999999999999999E-003   -3.851686368764249E-009
 -5.899999999999999E-003   -3.977846182380267E-009
 -5.800000000000000E-003   -3.975158469731387E-009
 -5.699999999999999E-003   -3.817817872702260E-009
 -5.599999999999999E-003   -3.483703022539000E-009
 -5.499999999999999E-003   -2.956059914180345E-009
 -5.399999999999999E-003   -2.224990220889535E-009
 -5.299999999999999E-003   -1.288653837302280E-009
 -5.199999999999999E-003   -1.541272781328459E-010
 -5.099999999999999E-003    1.162116255399050E-009
 -4.999999999999999E-003    2.634098678102811E-009
 -4.899999999999999E-003    4.226578833780821E-009
 -4.799999999999999E-003    5.895591601760349E-009
 -4.699999999999999E-003    7.589226190141288E-009
 -4.599999999999999E-003    9.248580838032962E-009
 -4.499999999999999E-003    1.080884341933609E-008
 -4.399999999999999E-003    1.220046524142504E-008
 -4.299999999999999E-003    1.335040903774982E-008
 -4.199999999999999E-003    1.418349876309518E-008
 -4.099999999999999E-003    1.462390495493383E-008
 -3.999999999999999E-003    1.459683132790365E-008
 -3.899999999999999E-003    1.403047863533842E-008
 -3.799999999999999E-003    1.285836444078173E-008
 -3.699999999999999E-003    1.102206881757596E-008
 -3.599999999999999E-003    8.474454752864161E-009
 -3.499999999999999E-003    5.183382880344488E-009
 -3.399999999999999E-003    1.135900194275110E-009
 -3.299999999999999E-003   -3.657156179042530E-009
 -3.199999999999999E-003   -9.156238302970655E-009
 -3.099999999999999E-003   -1.528800483888625E-008
 -2.999999999999999E-003   -2.194023261445929E-008
 -2.899999999999999E-003   -2.895690849885089E-008
 -2.799999999999999E-003   -3.613371242123489E-008
 -2.699999999999999E-003   -4.321408168779629E-008
 -2.599999999999999E-003   -4.988599240303252E-008
 -2.499999999999999E-003   -5.577963341553204E-008
 -2.399999999999999E-003   -6.046602903072501E-008
 -2.299999999999999E-003   -6.345670086979535E-008
 -2.199999999999999E-003   -6.420432388467209E-008
 -2.099999999999999E-003   -6.210433857130363E-008
 -1.999999999999999E-003   -5.649744057471035E-008
 -1.899999999999999E-003   -4.667278413747920E-008
 -1.799999999999999E-003   -3.187179653832054E-008
 -1.699999999999999E-003   -1.129227437658261E-008
 -1.599999999999999E-003    1.590713744884060E-008
 -1.499999999999999E-003    5.060258822363199E-008
 -1.399999999999999E-003    9.370073205777951E-008
 -1.299999999999999E-003    1.461347607555799E-007
 -1.199999999999999E-003    2.088607936558785E-007
 -1.099999999999999E-003    2.828547681729459E-007
 -9.999999999999989E-004    3.691099992957123E-007
 -8.999999999999990E-004    4.686349941221077E-007
 -7.999999999999990E-004    5.824523331545896E-007
 -6.999999999999989E-004    7.115974821895322E-007
 -5.999999999999990E-004    8.571184972689890E-007
 -4.999999999999989E-004    1.020076245772872E-006
 -3.999999999999989E-004    1.201544515939749E-006
 -2.999999999999989E-004    1.402610565437531E-006
 -1.999999999999989E-004    1.624376013584732E-006
 -9.999999999999892E-005    1.867957955504151E-006
  1.084202172485504E-018    2.134490389498133E-006
  1.000000000000011E-004    2.425124928244536E-006
  2.000000000000011E-004    2.741033821715257E-006
  3.000000000000011E-004    3.083410803701237E-006
  4.000000000000011E-004    3.453474313039295E-006
  5.000000000000011E-004    3.852470843475092E-006
  6.000000000000011E-004    4.281678445549644E-006
  7.000000000000011E-004    4.742411579768296E-006
  8.000000000000011E-004    5.236027323932910E-006
  9.000000000000012E-004    5.763931665162563E-006
  1.000000000000001E-003    6.327587333200451E-006
  1.100000000000001E-003    6.928523090611509E-006
  1.200000000000001E-003    7.568343668945437E-006
  1.300000000000001E-003    8.248738737442906E-006
  1.400000000000001E-003    8.971495310143206E-006
  1.500000000000001E-003    9.738509695526989E-006
  1.600000000000001E-003    1.055179746877300E-005
  1.700000000000001E-003    1.141350710032918E-005
  1.800000000000001E-003    1.232593093388520E-005
  1.900000000000001E-003    1.329151604857471E-005
  2.000000000000001E-003    1.431287886159518E-005
  2.100000000000001E-003    1.539281160117773E-005
  2.200000000000001E-003    1.653429767837709E-005
  2.300000000000001E-003    1.774052167019873E-005
  2.400000000000001E-003    1.901488270313226E-005
  2.500000000000001E-003    2.036100378459069E-005
  2.600000000000001E-003    2.178274874786320E-005
  2.700000000000001E-003    2.328423211857819E-005
  2.800000000000001E-003    2.486983252810556E-005
  2.900000000000001E-003    2.654421699103788E-005
  3.000000000000001E-003    2.831234536020883E-005
  3.100000000000001E-003    3.017948939466432E-005
  3.200000000000001E-003    3.215125080990583E-005
  3.300000000000001E-003    3.423357825862856E-005
  3.400000000000001E-003    3.643277736549375E-005
  3.500000000000001E-003    3.875552125619958E-005
  3.600000000000001E-003    4.120887367288659E-005
  3.700000000000001E-003    4.380029753607281E-005
  3.800000000000001E-003    4.653765003421445E-005
  3.900000000000001E-003    4.942921052967936E-005
  4.000000000000001E-003    5.248368097824332E-005
  4.100000000000001E-003    5.571019452419256E-005
  4.200000000000001E-003    5.911831984482188E-005
  4.300000000000001E-003    6.271807647282744E-005
  4.400000000000001E-003    6.651994718851250E-005
  4.500000000000001E-003    7.053488591769322E-005
  4.600000000000002E-003    7.477432337762164E-005
  4.700000000000001E-003    7.925021172492777E-005
  4.800000000000001E-003    8.397501928992322E-005
  4.900000000000002E-003    8.896176457293883E-005
  5.000000000000001E-003    9.422403523437196E-005
  5.100000000000001E-003    9.977601448859765E-005
  5.200000000000001E-003    1.056325215927135E-004
  5.300000000000002E-003    1.118090253034298E-004
  5.400000000000001E-003    1.183216917446642E-004
  5.500000000000001E-003    1.251873770581936E-004
  5.600000000000002E-003    1.324237026907212E-004
  5.700000000000001E-003    1.400490567524266E-004
  5.800000000000001E-003    1.480826387738939E-004
  5.900000000000002E-003    1.565444750994270E-004
  6.000000000000001E-003    1.654554720586810E-004
  6.100000000000001E-003    1.748374317821660E-004
  6.200000000000002E-003    1.847131077803771E-004
  6.300000000000002E-003    1.951062171705058E-004
  6.400000000000001E-003    2.060414892637163E-004
  6.500000000000001E-003    2.175447710488570E-004
  6.600000000000002E-003    2.296429630775899E-004
  6.700000000000001E-003    2.423641524000855E-004
  6.800000000000001E-003    2.557376463747126E-004
  6.900000000000002E-003    2.697940108781764E-004
  7.000000000000001E-003    2.845651691930034E-004
  7.100000000000001E-003    3.000843791636595E-004
  7.200000000000002E-003    3.163863293885322E-004
  7.300000000000002E-003    3.335071753802558E-004
  7.400000000000001E-003    3.514846083742423E-004
  7.500000000000001E-003    3.703578582977767E-004
  7.600000000000002E-003    3.901678123953717E-004
  7.700000000000001E-003    4.109568638085761E-004
  7.800000000000001E-003    4.327692122389457E-004
  7.900000000000001E-003    4.556507413731590E-004
  8.000000000000002E-003    4.796490536539439E-004
  8.100000000000001E-003    5.048135768825402E-004
  8.200000000000001E-003    5.311956034623809E-004
  8.300000000000002E-003    5.588482761695868E-004
  8.400000000000001E-003    5.878267197566983E-004
  8.500000000000002E-003    6.181880895576371E-004
  8.600000000000002E-003    6.499915930386899E-004
  8.700000000000001E-003    6.832985630390989E-004
  8.800000000000002E-003    7.181725651727753E-004
  8.900000000000002E-003    7.546794631501574E-004
  9.000000000000001E-003    7.928874959096699E-004
  9.100000000000002E-003    8.328672704146108E-004
  9.200000000000002E-003    8.746919555048298E-004
  9.300000000000001E-003    9.184373199576940E-004
  9.400000000000002E-003    9.641817156627314E-004
  9.500000000000001E-003    1.012006159076380E-003
  9.600000000000001E-003    1.061994418657986E-003
  9.700000000000002E-003    1.114233088088437E-003
  9.800000000000001E-003    1.168811670272380E-003
  9.900000000000001E-003    1.225822513163419E-003
  1.000000000000000E-002    1.285360977238743E-003
  1.010000000000000E-002    1.347525452514980E-003
  1.020000000000000E-002    1.412417430396283E-003
  1.030000000000000E-002    1.480141419787082E-003
  1.040000000000000E-002    1.550805411199395E-003
  1.050000000000000E-002    1.624520602426076E-003
  1.060000000000000E-002    1.701401567968601E-003
  1.070000000000000E-002    1.781566431961622E-003
  1.080000000000000E-002    1.865136911579436E-003
  1.090000000000000E-002    1.952238208572624E-003
  1.100000000000000E-002    2.042999527181899E-003
  1.110000000000000E-002    2.137553678384036E-003
  1.120000000000000E-002    2.236037521859254E-003
  1.130000000000000E-002    2.338591745014887E-003
  1.140000000000000E-002    2.445361255718204E-003
  1.150000000000000E-002    2.556494920639222E-003
  1.160000000000000E-002    2.672145453513574E-003
  1.170000000000000E-002    2.792469782515837E-003
  1.180000000000000E-002    2.917629245392378E-003
  1.190000000000000E-002    3.047788797492835E-003
  1.200000000000000E-002    3.183117994686149E-003
  1.210000000000000E-002    3.323790244970540E-003
  1.220000000000000E-002    3.469983441055674E-003
  1.230000000000000E-002    3.621879606100791E-003
  1.240000000000000E-002    3.779665177621925E-003
  1.250000000000000E-002    3.943530351789658E-003
  1.260000000000000E-002    4.113670160824231E-003
  1.270000000000000E-002    4.290283928201009E-003
  1.280000000000000E-002    4.473575269070733E-003
  1.290000000000000E-002    4.663752781112143E-003
  1.300000000000000E-002    4.861028736925739E-003
  1.310000000000000E-002    5.065620761577462E-003
  1.320000000000000E-002    5.277750441665062E-003
  1.330000000000000E-002    5.497644273582243E-003
  1.340000000000000E-002    5.725533445313279E-003
  1.350000000000000E-002    5.961653826191524E-003
  1.360000000000000E-002    6.206244539096845E-003
  1.370000000000000E-002    6.459550808566095E-003
  1.380000000000000E-002    6.721820868230600E-003
  1.390000000000000E-002    6.993308595360253E-003
  1.400000000000000E-002    7.274269924171597E-003
  1.410000000000000E-002    7.564966725873726E-003
  1.420000000000000E-002    7.865663704086671E-003
  1.430000000000000E-002    8.176629603405997E-003
  1.440000000000000E-002    8.498136484910672E-003
  1.450000000000000E-002    8.830460663252323E-003
  1.460000000000000E-002    9.173881623243684E-003
  1.470000000000000E-002    9.528682350477012E-003
  1.480000000000000E-002    9.895149619835635E-003
  1.490000000000000E-002    1.027357164670767E-002
  1.500000000000000E-002    1.066424288554998E-002
  1.510000000000000E-002    1.106745803224565E-002
  1.520000000000000E-002    1.148351636288522E-002
  1.530000000000000E-002    1.191271911872451E-002
  1.540000000000000E-002    1.235536994908027E-002
  1.550000000000000E-002    1.281177568579171E-002
  1.560000000000000E-002    1.328224522557993E-002
  1.570000000000000E-002    1.376708756874785E-002
  1.580000000000000E-002    1.426661626203801E-002
  1.590000000000000E-002    1.478114291076850E-002
  1.600000000000000E-002    1.531098313068196E-002
  1.610000000000000E-002    1.585645070079140E-002
  1.620000000000000E-002    1.641786085241015E-002
  1.630000000000000E-002    1.699552767799250E-002
  1.640000000000000E-002    1.758976481496323E-002
  1.650000000000000E-002    1.820088592443030E-002
  1.660000000000000E-002    1.882920134616417E-002
  1.670000000000000E-002    1.947502261213063E-002
  1.680000000000000E-002    2.013865655592217E-002
  1.690000000000000E-002    2.082041069480554E-002
  1.700000000000000E-002    2.152058726795015E-002
  1.710000000000000E-002    2.223948578181471E-002
  1.720000000000000E-002    2.297740371546490E-002
  1.730000000000000E-002    2.373463326088100E-002
  1.740000000000000E-002    2.451146432320031E-002
  1.750000000000000E-002    2.530818105449400E-002
  1.760000000000000E-002    2.612506073122009E-002
  1.770000000000000E-002    2.696238009327267E-002
  1.780000000000000E-002    2.782040390402363E-002
  1.790000000000000E-002    2.869939439852107E-002
  1.800000000000000E-002    2.959960455915305E-002
  1.810000000000000E-002    3.052127925710219E-002
  1.820000000000000E-002    3.146465375428308E-002
  1.830000000000000E-002    3.242995644050378E-002
  1.840000000000000E-002    3.341740364469080E-002
  1.850000000000000E-002    3.442720400939485E-002
  1.860000000000000E-002    3.545955049793014E-002
  1.870000000000000E-002    3.651462323159554E-002