 -4.000000000000000E-002    0.000000000000000E+000
 -3.990000000000000E-002    0.000000000000000E+000
 -3.980000000000000E-002    0.000000000000000E+000
 -3.970000000000000E-002    0.000000000000000E+000
 -3.960000000000000E-002    0.000000000000000E+000
 -3.950000000000000E-002    0.000000000000000E+000
 -3.940000000000000E-002    0.000000000000000E+000
 -3.930000000000000E-002    2.662568971517357E-029
 -3.920000000000000E-002    2.008786392376615E-028
 -3.910000000000000E-002   -2.669965218049857E-028
 -3.900000000000000E-002   -1.376562019638994E-026
 -3.890000000000000E-002   -1.241566398744631E-025
 -3.880000000000000E-002   -7.325183484158494E-025
 -3.870000000000000E-002   -3.377629282920766E-024
 -3.860000000000000E-002   -1.308016517780684E-023
 -3.850000000000000E-002   -4.424203667301706E-023
 -3.840000000000000E-002   -1.339548530626473E-022
 -3.830000000000000E-002   -3.691923910352711E-022
 -3.820000000000000E-002   -9.373723224073656E-022
 -3.810000000000000E-002   -2.211812916603768E-021
 -3.800000000000000E-002   -4.881801551417746E-021
 -3.790000000000000E-002   -1.012641327424693E-020
 -3.780000000000000E-002   -1.980484857978816E-020
 -3.770000000000000E-002   -3.658556944964738E-020
 -3.760000000000000E-002   -6.385464449544898E-020
 -3.750000000000000E-002   -1.051285173869322E-019
 -3.740000000000000E-002   -1.625575435787210E-019
 -3.730000000000000E-002   -2.339731463564276E-019
 -3.720000000000000E-002   -3.078590696957193E-019
 -3.710000000000000E-002   -3.557030974821003E-019
 -3.700000000000000E-002   -3.215238890307931E-019
 -3.690000000000000E-002   -1.090981716210463E-019
 -3.680000000000000E-002    4.313522152013843E-019
 -3.670000000000000E-002    1.513465417651350E-018
 -3.660000000000000E-002    3.416221493547947E-018
 -3.650000000000000E-002    6.468299529938059E-018
 -3.640000000000000E-002    1.100482462598576E-017
 -3.630000000000000E-002    1.728490762064986E-017
 -3.620000000000000E-002    2.535939888222741E-017
 -3.610000000000000E-002    3.488257813949524E-017
 -3.600000000000000E-002    4.487018882603448E-017
 -3.590000000000000E-002    5.342007783306122E-017
 -3.580000000000000E-002    5.743066921894262E-017
 -3.570000000000000E-002    5.237551288062646E-017
 -3.560000000000000E-002    3.221652539229602E-017
 -3.550000000000000E-002   -1.043987708867188E-017
 -3.540000000000000E-002   -8.382677443366121E-017
 -3.530000000000000E-002   -1.960267101027069E-016
 -3.520000000000000E-002   -3.534191444861575E-016
 -3.510000000000000E-002   -5.585320804811886E-016
 -3.500000000000000E-002   -8.073515186262317E-016
 -3.490000000000000E-002   -1.086262217580016E-015
 -3.480000000000000E-002   -1.368937037966339E-015
 -3.470000000000000E-002   -1.613647038100385E-015
 -3.460000000000000E-002   -1.761610586280686E-015
 -3.450000000000000E-002   -1.737105738555973E-015
 -3.440000000000000E-002   -1.450110884641502E-015
 -3.430000000000000E-002   -8.021787943952364E-016
 -3.420000000000000E-002    3.039360878616424E-016
 -3.410000000000000E-002    1.950701666821524E-015
 -3.400000000000000E-002    4.188548484882267E-015
 -3.390000000000000E-002    7.015775463429233E-015
 -3.380000000000000E-002    1.035711961107971E-014
 -3.370000000000000E-002    1.404315727254233E-014
 -3.360000000000000E-002    1.779328650912973E-014
 -3.350000000000000E-002    2.120548037521884E-014
 -3.340000000000000E-002    2.375615808257134E-014
 -3.330000000000000E-002    2.481337542898900E-014
 -3.320000000000000E-002    2.366599024359795E-014
 -3.310000000000000E-002    1.957051604459755E-014
 -3.300000000000000E-002    1.181605720614826E-014
 -3.290000000000000E-002   -1.939288824773963E-016
 -3.280000000000000E-002   -1.684614640963879E-014
 -3.270000000000000E-002   -3.821331797366239E-014
 -3.260000000000000E-002   -6.394835864292801E-014
 -3.250000000000000E-002   -9.318559203145498E-014
 -3.240000000000000E-002   -1.244591355542900E-013
 -3.230000000000000E-002   -1.556496450716017E-013
 -3.220000000000000E-002   -1.839710849341495E-013
 -3.210000000000000E-002   -2.060091571934886E-013
 -3.200000000000000E-002   -2.178221553236075E-013
 -3.190000000000000E-002   -2.151135189679858E-013
 -3.180000000000000E-002   -1.934825736587944E-013
 -3.170000000000000E-002   -1.487562689377403E-013
 -3.160000000000000E-002   -7.739922694254588E-014
 -3.150000000000000E-002    2.300735761098900E-014
 -3.140000000000000E-002    1.532362618086060E-013
 -3.130000000000000E-002    3.118628642946471E-013
 -3.120000000000000E-002    4.947319361937649E-013
 -3.110000000000000E-002    6.944946793717428E-013
 -3.100000000000000E-002    9.002793899707002E-013
 -3.090000000000000E-002    1.097566984925784E-012
 -3.080000000000000E-002    1.268347063546177E-012
 -3.070000000000000E-002    1.391626341579248E-012
 -3.060000000000000E-002    1.444348633655371E-012
 -3.050000000000000E-002    1.402762677013021E-012
 -3.040000000000000E-002    1.244238336083064E-012
 -3.030000000000000E-002    9.494854818769603E-013
 -3.020000000000000E-002    5.050746889966962E-013
 -3.010000000000000E-002   -9.390089603614290E-014
 -3.000000000000000E-002   -8.412423138308268E-013
 -2.990000000000000E-002   -1.717409515628032E-012
 -2.980000000000000E-002   -2.687936368864825E-012
 -2.970000000000000E-002   -3.702804348457835E-012
 -2.960000000000000E-002   -4.697058232604654E-012
 -2.950000000000000E-002   -5.592882920228499E-012
 -2.940000000000000E-002   -6.303257251191146E-012
 -2.930000000000000E-002   -6.737165811986741E-012
 -2.920000000000000E-002   -6.806181793928303E-012
 -2.910000000000000E-002   -6.432061945453758E-012
 -2.900000000000000E-002   -5.554824425414409E-012
 -2.890000000000000E-002   -4.140636907064273E-012
 -2.880000000000000E-002   -2.188752895129636E-012
 -2.870000000000000E-002    2.632924376519527E-013
 -2.860000000000000E-002    3.136951400197285E-012
 -2.850000000000000E-002    6.312979839258191E-012
 -2.840000000000000E-002    9.635143012433269E-012
 -2.830000000000000E-002    1.291735232070712E-011
 -2.820000000000000E-002    1.595392655866194E-011
 -2.810000000000000E-002    1.853232889345485E-011
 -2.800000000000000E-002    2.044739383960643E-011
 -2.790000000000000E-002    2.151584060452084E-011
 -2.780000000000000E-002    2.158973912411388E-011
 -2.770000000000000E-002    2.056762396535089E-011
 -2.760000000000000E-002    1.840213999451074E-011
 -2.750000000000000E-002    1.510344250570288E-011
 -2.740000000000000E-002    1.073804071139728E-011
 -2.730000000000000E-002    5.423311667557045E-012
 -2.720000000000000E-002   -6.815245199900555E-013
 -2.710000000000000E-002   -7.386700934219439E-012
 -2.700000000000000E-002   -1.448384492992620E-011
 -2.690000000000000E-002   -2.175679603647847E-011
 -2.680000000000000E-002   -2.898964065292025E-011
 -2.670000000000000E-002   -3.597067343498764E-011
 -2.660000000000000E-002   -4.249161164649258E-011
 -2.650000000000000E-002   -4.834220869128551E-011
 -2.640000000000000E-002   -5.330129019707966E-011
 -2.630000000000000E-002   -5.712614418005112E-011
 -2.620000000000000E-002   -5.954287789632029E-011
 -2.610000000000000E-002   -6.024080560986464E-011
 -2.600000000000000E-002   -5.887395597041503E-011
 -2.590000000000000E-002   -5.507231622679133E-011
 -2.580000000000000E-002   -4.846455485334936E-011
 -2.570000000000000E-002   -3.871258245078378E-011
 -2.560000000000000E-002   -2.555665065593564E-011
 -2.550000000000000E-002   -8.867900062860788E-012
 -2.540000000000000E-002    1.129644525580490E-011
 -2.530000000000000E-002    3.464141987544125E-011
 -2.520000000000000E-002    6.059319061285642E-011
 -2.510000000000000E-002    8.827555495251334E-011
 -2.500000000000000E-002    1.165103308322517E-010
 -2.490000000000000E-002    1.438462379670169E-010
 -2.480000000000000E-002    1.686183660295828E-010
 -2.470000000000000E-002    1.890372917446158E-010
 -2.460000000000000E-002    2.033034653684167E-010
 -2.450000000000000E-002    2.097391883857427E-010
 -2.440000000000000E-002    2.069277327581048E-010
 -2.430000000000000E-002    1.938470992281604E-010
 -2.420000000000000E-002    1.699852765650185E-010
 -2.410000000000000E-002    1.354243637334355E-010
 -2.400000000000000E-002    9.088316270751887E-011
 -2.390000000000000E-002    3.771129986133611E-011
 -2.380000000000000E-002   -2.216758608444457E-011
 -2.370000000000000E-002   -8.636079942781460E-011
 -2.360000000000000E-002   -1.521517281683772E-010
 -2.350000000000000E-002   -2.166724488306831E-010
 -2.340000000000000E-002   -2.770875724594104E-010
 -2.330000000000000E-002   -3.307714159840732E-010
 -2.320000000000000E-002   -3.754603378142409E-010
 -2.310000000000000E-002   -4.093648145506517E-010
 -2.300000000000000E-002   -4.312297680691780E-010
 -2.290000000000000E-002   -4.403377748498135E-010
 -2.280000000000000E-002   -4.364566684231772E-010
 -2.270000000000000E-002   -4.197403045405125E-010
 -2.260000000000000E-002   -3.905975678173210E-010
 -2.250000000000000E-002   -3.495500390585584E-010
 -2.240000000000000E-002   -2.971011304567336E-010
 -2.230000000000000E-002   -2.336397649543327E-010
 -2.220000000000000E-002   -1.593984453704046E-010
 -2.210000000000000E-002   -7.447954449868528E-011
 -2.200000000000000E-002    2.104455085546040E-011
 -2.190000000000000E-002    1.269618322378028E-010
 -2.180000000000000E-002    2.426965179455601E-010
 -2.170000000000000E-002    3.670547554060255E-010
 -2.160000000000000E-002    4.979725355886094E-010
 -2.150000000000000E-002    6.323023864818632E-010
 -2.140000000000000E-002    7.656764939202495E-010
 -2.130000000000000E-002    8.924794740657236E-010
 -2.120000000000000E-002    1.005956608018960E-009
 -2.110000000000000E-002    1.098470326655325E-009
 -2.100000000000000E-002    1.161903847807438E-009
 -2.090000000000000E-002    1.188193858656170E-009
 -2.080000000000000E-002    1.169958262113144E-009
 -2.070000000000000E-002    1.101171200416548E-009
 -2.060000000000000E-002    9.778273462789017E-010
 -2.050000000000000E-002    7.985318484118301E-010
 -2.040000000000000E-002    5.649544282116838E-010
 -2.030000000000000E-002    2.820923031055790E-010
 -2.020000000000000E-002   -4.169875683615942E-011
 -2.010000000000000E-002   -3.949279442445621E-010
 -2.000000000000000E-002   -7.634477183598209E-010
 -1.990000000000000E-002   -1.131163399830565E-009
 -1.980000000000000E-002   -1.480928552981851E-009
 -1.970000000000000E-002   -1.795560055888527E-009
 -1.960000000000000E-002   -2.058894387265895E-009
 -1.950000000000000E-002   -2.256799000956634E-009
 -1.940000000000000E-002   -2.378053565378515E-009
 -1.930000000000000E-002   -2.415027635558880E-009
 -1.920000000000000E-002   -2.364096676722465E-009
 -1.910000000000000E-002   -2.225764082384113E-009
 -1.900000000000000E-002   -2.004483260020329E-009
 -1.890000000000000E-002   -1.708203870185809E-009
 -1.880000000000000E-002   -1.347693040306255E-009
 -1.870000000000000E-002   -9.357048554786003E-010
 -1.860000000000000E-002   -4.860862826188534E-010
 -1.850000000000000E-002   -1.291358013941398E-011
 -1.840000000000000E-002    4.702513599707300E-010
 -1.830000000000000E-002    9.509111947606034E-010
 -1.820000000000000E-002    1.417938241966816E-009
 -1.810000000000000E-002    1.861615613674646E-009
 -1.800000000000000E-002    2.273427476018762E-009
 -1.790000000000000E-002    2.645646837098254E-009
 -1.780000000000000E-002    2.970797488202555E-009
 -1.770000000000000E-002    3.241089222409394E-009
 -1.760000000000000E-002    3.447934539824170E-009
 -1.750000000000000E-002    3.581653946615166E-009
 -1.740000000000000E-002    3.631460356510250E-009
 -1.730000000000000E-002    3.585783278282532E-009
 -1.720000000000000E-002    3.432955340328801E-009
 -1.710000000000000E-002    3.162238559018898E-009
 -1.700000000000000E-002    2.765118937201675E-009
 -1.690000000000000E-002    2.236756378744369E-009
 -1.680000000000000E-002    1.577441083331083E-009
 -1.670000000000000E-002    7.938884493754000E-010
 -1.660000000000000E-002   -9.979864614210144E-011
 -1.650000000000000E-002   -1.081655322557659E-009
 -1.640000000000000E-002   -2.121986031399978E-009
 -1.630000000000000E-002   -3.184171446924541E-009
 -1.620000000000000E-002   -4.226149797567349E-009
 -1.610000000000000E-002   -5.202510744028377E-009
 -1.600000000000000E-002   -6.067062707559383E-009
 -1.590000000000000E-002   -6.775681322416590E-009
 -1.580000000000000E-002   -7.289202558453293E-009
 -1.570000000000000E-002   -7.576105049988309E-009
 -1.560000000000000E-002   -7.614732102249471E-009
 -1.550000000000000E-002   -7.394837576189031E-009
 -1.540000000000000E-002   -6.918301267485488E-009
 -1.530000000000000E-002   -6.198935060890704E-009
 -1.520000000000000E-002   -5.261398337804182E-009
 -1.510000000000000E-002   -4.139329489760118E-009
 -1.500000000000000E-002   -2.872891544329498E-009
 -1.490000000000000E-002   -1.505996087874421E-009
 -1.480000000000000E-002   -8.351169637277569E-011
 -1.470000000000000E-002    1.351233943816133E-009
 -1.460000000000000E-002    2.758372572805098E-009
 -1.450000000000000E-002    4.102621675921761E-009
 -1.440000000000000E-002    5.353491599749139E-009
 -1.430000000000000E-002    6.484579273749266E-009
 -1.420000000000000E-002    7.472050854529540E-009
 -1.410000000000000E-002    8.292570840527832E-009
 -1.400000000000000E-002    8.920997728698155E-009
 -1.390000000000000E-002    9.328253557160497E-009
 -1.380000000000000E-002    9.479799289381382E-009
 -1.370000000000000E-002    9.335105501255638E-009
 -1.360000000000000E-002    8.848457204541833E-009
 -1.350000000000000E-002    7.971292090972524E-009
 -1.340000000000000E-002    6.656156207286720E-009
 -1.330000000000000E-002    4.862165617760662E-009
 -1.320000000000000E-002    2.561724608006735E-009
 -1.310000000000000E-002   -2.519100040905033E-010
 -1.300000000000000E-002   -3.556683641842972E-009
 -1.290000000000000E-002   -7.294029714763383E-009
 -1.280000000000000E-002   -1.136185424632850E-008
 -1.270000000000000E-002   -1.560880488411706E-008
 -1.260000000000000E-002   -1.983001691664161E-008
 -1.250000000000000E-002   -2.376468927421523E-008
 -1.240000000000000E-002   -2.709535498315422E-008
 -1.230000000000000E-002   -2.944867134034884E-008
 -1.220000000000000E-002   -3.039743084893580E-008
 -1.210000000000000E-002   -2.946309935515127E-008
 -1.200000000000000E-002   -2.611850700668286E-008
 -1.190000000000000E-002   -1.978994720408032E-008
 -1.180000000000000E-002   -9.858375588927821E-009
 -1.170000000000000E-002    4.340902462476456E-009
 -1.160000000000000E-002    2.351988787233269E-008
 -1.150000000000000E-002    4.844091739118728E-008
 -1.140000000000000E-002    7.992061055643571E-008
 -1.130000000000000E-002    1.188341430681317E-007
 -1.120000000000000E-002    1.661192775746160E-007
 -1.110000000000000E-002    2.227787628554043E-007
 -1.100000000000000E-002    2.898806988874603E-007
 -1.090000000000000E-002    3.685557762518760E-007
 -1.080000000000000E-002    4.599912489356793E-007
 -1.070000000000000E-002    5.654208317120494E-007
 -1.060000000000000E-002    6.861111947047413E-007
 -1.050000000000000E-002    8.233453713509429E-007
 -1.040000000000000E-002    9.784035154594230E-007
 -1.030000000000000E-002    1.152543388402647E-006
 -1.020000000000000E-002    1.346980937294009E-006
 -1.010000000000000E-002    1.562873195913385E-006
 -1.000000000000000E-002    1.801304953215805E-006
 -9.899999999999999E-003    2.063280099535355E-006
 -9.800000000000000E-003    2.349719542072515E-006
 -9.699999999999999E-003    2.661466325212770E-006
 -9.599999999999999E-003    2.999297039675126E-006
 -9.500000000000000E-003    3.363939391929735E-006
 -9.399999999999999E-003    3.756096791934333E-006
 -9.299999999999999E-003    4.176476046896380E-006
 -9.200000000000000E-003    4.625816500849150E-006
 -9.099999999999999E-003    5.104922613148100E-006
 -8.999999999999999E-003    5.614691229958209E-006
 -8.900000000000000E-003    6.156138030681287E-006
 -8.799999999999999E-003    6.730417698332972E-006
 -8.699999999999999E-003    7.338838587276775E-006
 -8.600000000000000E-003    7.982872617139502E-006
 -8.499999999999999E-003    8.664153916089201E-006
 -8.399999999999999E-003    9.384479209139046E-006
 -8.300000000000000E-003    1.014579551906812E-005
 -8.199999999999999E-003    1.095019458047280E-005
 -8.100000000000000E-003    1.179989761444107E-005
 -8.000000000000000E-003    1.269725118210530E-005
 -7.899999999999999E-003    1.364471712483328E-005
 -7.800000000000000E-003    1.464487216858864E-005
 -7.699999999999999E-003    1.570041699723810E-005
 -7.599999999999999E-003    1.681418779540262E-005
 -7.499999999999999E-003    1.798917287565841E-005
 -7.399999999999999E-003    1.922853777374794E-005
 -7.299999999999999E-003    2.053566041730885E-005
 -7.199999999999999E-003    2.191415570577321E-005
 -7.100000000000000E-003    2.336791356432379E-005
 -6.999999999999999E-003    2.490113006496969E-005
 -6.899999999999999E-003    2.651833232333239E-005
 -6.800000000000000E-003    2.822440114900515E-005
 -6.699999999999999E-003    3.002458238238059E-005
 -6.599999999999999E-003    3.192450047330826E-005
 -6.499999999999999E-003    3.393015064415751E-005
 -6.399999999999999E-003    3.604789357074312E-005
 -6.299999999999999E-003    3.828444232669758E-005
 -6.199999999999999E-003    4.064683851634111E-005
 -6.100000000000000E-003    4.314244471665417E-005
 -5.999999999999999E-003    4.577891750643590E-005
 -5.899999999999999E-003    4.856420269103813E-005
 -5.800000000000000E-003    5.150651760421019E-005
 -5.699999999999999E-003    5.461436478036965E-005
 -5.599999999999999E-003    5.789654737279222E-005
 -5.499999999999999E-003    6.136217689972725E-005
 -5.399999999999999E-003    6.502071777263671E-005
 -5.299999999999999E-003    6.888203033727984E-005
 -5.199999999999999E-003    7.295640865588425E-005
 -5.099999999999999E-003    7.725464898997069E-005
 -4.999999999999999E-003    8.178808610655144E-005
 -4.899999999999999E-003    8.656865579213531E-005
 -4.799999999999999E-003    9.160894527595820E-005
 -4.699999999999999E-003    9.692222423741927E-005
 -4.599999999999999E-003    1.025224872977526E-004
 -4.499999999999999E-003    1.084244701276658E-004
 -4.399999999999999E-003    1.146436564239145E-004
 -4.299999999999999E-003    1.211962907555423E-004
 -4.199999999999999E-003    1.280993650448361E-004
 -4.099999999999999E-003    1.353705947988496E-004
 -3.999999999999999E-003    1.430284287900578E-004
 -3.899999999999999E-003    1.510920222593342E-004
 -3.799999999999999E-003    1.595812111968383E-004
 -3.699999999999999E-003    1.685165487084812E-004
 -3.599999999999999E-003    1.779192775028104E-004
 -3.499999999999999E-003    1.878113634469136E-004
 -3.399999999999999E-003    1.982155170393807E-004
 -3.299999999999999E-003    2.091552765083495E-004
 -3.199999999999999E-003    2.206550145079225E-004
 -3.099999999999999E-003    2.327400548318786E-004
 -2.999999999999999E-003    2.454367414598574E-004
 -2.899999999999999E-003    2.587724953126705E-004
 -2.799999999999999E-003    2.727759306903429E-004
 -2.699999999999999E-003    2.874769530467448E-004
 -2.599999999999999E-003    3.029067813639675E-004
 -2.499999999999999E-003    3.190980824220304E-004
 -2.399999999999999E-003    3.360850192567896E-004
 -2.299999999999999E-003    3.539032652125167E-004
 -2.199999999999999E-003    3.725901243396084E-004
 -2.099999999999999E-003    3.921844977053257E-004
 -1.999999999999999E-003    4.127268894739872E-004
 -1.899999999999999E-003    4.342594510883124E-004
 -1.799999999999999E-003    4.568260284814658E-004
 -1.699999999999999E-003    4.804720389770830E-004
 -1.599999999999999E-003    5.052446108266271E-004
 -1.499999999999999E-003    5.311924425681898E-004
 -1.399999999999999E-003    5.583660150132735E-004
 -1.299999999999999E-003    5.868173602568200E-004
 -1.199999999999999E-003    6.166002045124339E-004
 -1.099999999999999E-003    6.477701003383698E-004
 -9.999999999999989E-004    6.803842979451461E-004
 -8.999999999999990E-004    7.145019101265762E-004
 -7.999999999999990E-004    7.501840432079814E-004
 -6.999999999999989E-004    7.874936500047043E-004
 -5.999999999999990E-004    8.264959190968603E-004
 -4.999999999999989E-004    8.672580640990413E-004
 -3.999999999999989E-004    9.098496105477904E-004
 -2.999999999999989E-004    9.543426082888755E-004
 -1.999999999999989E-004    1.000811212550109E-003
 -9.999999999999892E-005    1.049332469040698E-003
  1.084202172485504E-018    1.099985913244939E-003
  1.000000000000011E-004    1.152853651778265E-003
  2.000000000000011E-004    1.208020601000644E-003
  3.000000000000011E-004    1.265574548635642E-003
  4.000000000000011E-004    1.325606033831767E-003
  5.000000000000011E-004    1.388208294019638E-003
  6.000000000000011E-004    1.453477693753235E-003
  7.000000000000011E-004    1.521513251675708E-003
  8.000000000000011E-004    1.592417004255890E-003
  9.000000000000012E-004    1.666293658463272E-003
  1.000000000000001E-003    1.743250854926362E-003
  1.100000000000001E-003    1.823399255007395E-003
  1.200000000000001E-003    1.906852069998091E-003
  1.300000000000001E-003    1.993725493837142E-003
  1.400000000000001E-003    2.084138889226110E-003
  1.500000000000001E-003    2.178214470971163E-003
  1.600000000000001E-003    2.276077372875487E-003
  1.700000000000001E-003    2.377855757907984E-003
  1.800000000000001E-003    2.483681147709567E-003
  1.900000000000001E-003    2.593688245427199E-003
  2.000000000000001E-003    2.708015242780526E-003
  2.100000000000001E-003    2.826803428799684E-003
  2.200000000000001E-003    2.950197963221843E-003
  2.300000000000001E-003    3.078347627061448E-003
  2.400000000000001E-003    3.211404702403163E-003
  2.500000000000001E-003    3.349525301261823E-003
  2.600000000000001E-003    3.492869050719459E-003
  2.700000000000001E-003    3.641599504898133E-003
  2.800000000000001E-003    3.795883769436809E-003
  2.900000000000001E-003    3.955892031094454E-003
  3.000000000000001E-003    4.121798822212816E-003
  3.100000000000001E-003    4.293781132604348E-003
  3.200000000000001E-003    4.472019934491429E-003
  3.300000000000001E-003    4.656698477970810E-003
  3.400000000000001E-003    4.848003657980640E-003
  3.500000000000001E-003    5.046124712148433E-003
  3.600000000000001E-003    5.251254129784545E-003
  3.700000000000001E-003    5.463586815277353E-003
  3.800000000000001E-003    5.683319884623969E-003
  3.900000000000001E-003    5.910653962956583E-003
  4.000000000000001E-003    6.145791462629355E-003
  4.100000000000001E-003    6.388937614169658E-003
  4.200000000000001E-003    6.640300806634912E-003
  4.300000000000001E-003    6.900092000552841E-003
  4.400000000000001E-003    7.168524592089210E-003
  4.500000000000001E-003    7.445814713292115E-003
  4.600000000000002E-003    7.732181959996283E-003
  4.700000000000001E-003    8.027848099086072E-003
  4.800000000000001E-003    8.333037703540632E-003
  4.900000000000002E-003    8.647977025441586E-003
  5.000000000000001E-003    8.972895956310517E-003
  5.100000000000001E-003    9.308025126644809E-003
  5.200000000000001E-003    9.653597805911469E-003
  5.300000000000002E-003    1.000984873350839E-002
  5.400000000000001E-003    1.037701218669456E-002
  5.500000000000001E-003    1.075532407261669E-002
  5.600000000000002E-003    1.114502003729637E-002
  5.700000000000001E-003    1.154633665117653E-002
  5.800000000000001E-003    1.195950862729312E-002
  5.900000000000002E-003    1.238477053973012E-002
  6.000000000000001E-003    1.282235637657851E-002
  6.100000000000001E-003    1.327249807485727E-002
  6.200000000000002E-003    1.373542647949556E-002
  6.300000000000002E-003    1.421137187233981E-002
  6.400000000000001E-003    1.470056220529964E-002
  6.500000000000001E-003    1.520322317130122E-002
  6.600000000000002E-003    1.571957747468826E-002
  6.700000000000001E-003    1.624984819457428E-002
  6.800000000000001E-003    1.679425552130808E-002
  6.900000000000002E-003    1.735301532390239E-002
  7.000000000000001E-003    1.792634189842629E-002
  7.100000000000001E-003    1.851444790447737E-002
  7.200000000000002E-003    1.911753740982131E-002
  7.300000000000002E-003    1.973581301690266E-002
  7.400000000000001E-003    2.036947412787661E-002
  7.500000000000001E-003    2.101871172445611E-002
  7.600000000000002E-003    2.168370939684545E-002
  7.700000000000001E-003    2.236464769821444E-002
  7.800000000000001E-003    2.306169719774533E-002
  7.900000000000001E-003    2.377502209240461E-002
  8.000000000000002E-003    2.450477519255363E-002
  8.100000000000001E-003    2.525110141758863E-002
  8.200000000000001E-003    2.601413396930120E-002
  8.300000000000002E-003    2.679399922281652E-002
  8.400000000000001E-003    2.759080675496261E-002
  8.500000000000002E-003    2.840466091363265E-002
  8.600000000000002E-003    2.923564971642277E-002
  8.700000000000001E-003    3.008385106915065E-002
  8.800000000000002E-003    3.094933175801559E-002
  8.900000000000002E-003    3.183214198008882E-002
  9.000000000000001E-003    3.273231789355811E-002
  9.100000000000002E-003    3.364988476494346E-002
  9.200000000000002E-003    3.458485052064752E-002
  9.300000000000001E-003    3.553721082085636E-002
  9.400000000000002E-003    3.650693989657593E-002
  9.500000000000001E-003    3.749399769737800E-002
  9.600000000000001E-003    3.849832553155969E-002
  9.700000000000002E-003    3.951984915113144E-002
  9.800000000000001E-003    4.055847309504873E-002
  9.900000000000001E-003    4.161408340757300E-002
  1.000000000000000E-002    4.268654032138145E-002
  1.010000000000000E-002    4.377569001303871E-002
  1.020000000000000E-002    4.488135082329766E-002
  1.030000000000000E-002    4.600332312018856E-002
  1.040000000000000E-002    4.714137962140137E-002
  1.050000000000000E-002    4.829527086273421E-002
  1.060000000000000E-002    4.946471820444538E-002
  1.070000000000000E-002    5.064942717684575E-002
  1.080000000000000E-002    5.184906885836179E-002
  1.090000000000000E-002    5.306329560205259E-002
  1.100000000000000E-002    5.429172586271386E-002
  1.110000000000000E-002    5.553395350041312E-002
  1.120000000000000E-002    5.678954070027870E-002
  1.130000000000000E-002    5.805802995622029E-002
  1.140000000000000E-002    5.933892218343610E-002
  1.150000000000000E-002    6.063169479599922E-002
  1.160000000000000E-002    6.193579912404232E-002
  1.170000000000000E-002    6.325064568869300E-002
  1.180000000000000E-002    6.457561648492237E-002
  1.190000000000000E-002    6.591005844542179E-002
  1.200000000000000E-002    6.725329388726978E-002
  1.210000000000000E-002    6.860460307510310E-002
  1.220000000000000E-002    6.996323439906145E-002
  1.230000000000000E-002    7.132840613704933E-002
  1.240000000000000E-002    7.269929272056184E-002
  1.250000000000000E-002    7.407504390936462E-002
  1.260000000000000E-002    7.545477241730601E-002
  1.270000000000000E-002    7.683755343808508E-002
  1.280000000000000E-002    7.822242160392881E-002
  1.290000000000000E-002    7.960838308645808E-002
  1.300000000000000E-002    8.099440795478750E-002
  1.310000000000000E-002    8.237943012413375E-002
  1.320000000000000E-002    8.376233229616167E-002
  1.330000000000000E-002    8.514198410909762E-002
  1.340000000000000E-002    8.651720189020282E-002
  1.350000000000000E-002    8.788677393092882E-002
  1.360000000000000E-002    8.924944970495384E-002
  1.370000000000000E-002    9.060393000141083E-002
  1.380000000000000E-002    9.194889544826540E-002
  1.390000000000000E-002    9.328298326584984E-002
  1.400000000000000E-002    9.460478265468293E-002
  1.410000000000000E-002    9.591286556807484E-002
  1.420000000000000E-002    9.720574808312521E-002
  1.430000000000000E-002    9.848192939724187E-002
  1.440000000000000E-002    9.973986063051614E-002
  1.450000000000000E-002    0.100977957648647     
  1.460000000000000E-002    0.102194608475582     
  1.470000000000000E-002    0.103388161985622     
  1.480000000000000E-002    0.104556943306812     
  1.490000000000000E-002    0.105699236195465     
  1.500000000000000E-002    0.106813298581676     
  1.510000000000000E-002    0.107897355192725     
  1.520000000000000E-002    0.108949607612308     
  1.530000000000000E-002    0.109968218120606     
  1.540000000000000E-002    0.110951327425122     
  1.550000000000000E-002    0.111897051091624     
  1.560000000000000E-002    0.112803475441825     
  1.570000000000000E-002    0.113668661037613     
  1.580000000000000E-002    0.114490645570422     
  1.590000000000000E-002    0.115267446600991     
  1.600000000000000E-002    0.115997055015727     
  1.610000000000000E-002    0.116677435947209     
  1.620000000000000E-002    0.117306547513646     
  1.630000000000000E-002    0.117882323409373     
  1.640000000000000E-002    0.118402678502834     
  1.650000000000000E-002    0.118865514914879     
  1.660000000000000E-002    0.119268731568182     
  1.670000000000000E-002    0.119610195001988     
  1.680000000000000E-002    0.119887781168413     
  1.690000000000000E-002    0.120099353775465     
  1.700000000000000E-002    0.120242768219396     
  1.710000000000000E-002    0.120315877692077     
  1.720000000000000E-002    0.120316538978798     
  1.730000000000000E-002    0.120242607603821     
  1.740000000000000E-002    0.120091936338390     
  1.750000000000000E-002    0.119862391653958     
  1.760000000000000E-002    0.119551846556922     
  1.770000000000000E-002    0.119158178085765     
  1.780000000000000E-002    0.118679278329892     
  1.790000000000000E-002    0.118113048530340     
  1.800000000000000E-002    0.117457418366556     
  1.810000000000000E-002    0.116710324669344     
  1.820000000000000E-002    0.115869726785774     
  1.830000000000000E-002    0.114933610377939     
  1.840000000000000E-002    0.113899986187057     
  1.850000000000000E-002    0.112766889754205     
  1.860000000000000E-002    0.111532380545710     
  1.870000000000000E-002    0.110194557233459     