 -4.000000000000000E-002    0.000000000000000E+000
 -3.990000000000000E-002    0.000000000000000E+000
 -3.980000000000000E-002    0.000000000000000E+000
 -3.970000000000000E-002    0.000000000000000E+000
 -3.960000000000000E-002    3.627150847927125E-021
 -3.950000000000000E-002   -6.845324786585069E-021
 -3.940000000000000E-002   -2.882012211861076E-019
 -3.930000000000000E-002   -2.199073883011296E-018
 -3.920000000000000E-002   -1.061391011376185E-017
 -3.910000000000000E-002   -3.928292221812957E-017
 -3.900000000000000E-002   -1.207015853413004E-016
 -3.890000000000000E-002   -3.212941344876670E-016
 -3.880000000000000E-002   -7.602556830668160E-016
 -3.870000000000000E-002   -1.625533793805799E-015
 -3.860000000000000E-002   -3.172916454926077E-015
 -3.850000000000000E-002   -5.684680632491732E-015
 -3.840000000000000E-002   -9.354746910390901E-015
 -3.830000000000000E-002   -1.406126684202351E-014
 -3.820000000000000E-002   -1.898989559038099E-014
 -3.810000000000000E-002   -2.208717678396819E-014
 -3.800000000000000E-002   -1.935828504737583E-014
 -3.790000000000000E-002   -4.079392096306557E-015
 -3.780000000000000E-002    3.392966223950433E-014
 -3.770000000000000E-002    1.087396219553993E-013
 -3.760000000000000E-002    2.381360728675230E-013
 -3.750000000000000E-002    4.424571663070500E-013
 -3.740000000000000E-002    7.420584447019788E-013
 -3.730000000000000E-002    1.153086841251817E-012
 -3.720000000000000E-002    1.681413098028691E-012
 -3.710000000000000E-002    2.314850793609624E-012
 -3.700000000000000E-002    3.014174839688100E-012
 -3.690000000000000E-002    3.703912790281932E-012
 -3.680000000000000E-002    4.264365881504755E-012
 -3.670000000000000E-002    4.526744466604457E-012
 -3.660000000000000E-002    4.273584577158130E-012
 -3.650000000000000E-002    3.246639408531553E-012
 -3.640000000000000E-002    1.164134323388510E-012
 -3.630000000000000E-002   -2.251435195027838E-012
 -3.620000000000000E-002   -7.234897779355544E-012
 -3.610000000000000E-002   -1.393080494693429E-011
 -3.600000000000000E-002   -2.233976687196415E-011
 -3.590000000000000E-002   -3.226362824389556E-011
 -3.580000000000000E-002   -4.325595919880635E-011
 -3.570000000000000E-002   -5.458545448528032E-011
 -3.560000000000000E-002   -6.522023236967791E-011
 -3.550000000000000E-002   -7.384047760470162E-011
 -3.540000000000000E-002   -7.888523436316601E-011
 -3.530000000000000E-002   -7.863658125944185E-011
 -3.520000000000000E-002   -7.134075880478001E-011
 -3.510000000000000E-002   -5.536180774985864E-011
 -3.500000000000000E-002   -2.935889236416322E-011
 -3.490000000000000E-002    7.525330658723962E-012
 -3.480000000000000E-002    5.548101676108936E-011
 -3.470000000000000E-002    1.138693974170200E-010
 -3.460000000000000E-002    1.811001908897876E-010
 -3.450000000000000E-002    2.545634022853728E-010
 -3.440000000000000E-002    3.306271438729299E-010
 -3.430000000000000E-002    4.047080422816731E-010
 -3.420000000000000E-002    4.714150303126609E-010
 -3.410000000000000E-002    5.247616834510615E-010
 -3.400000000000000E-002    5.584372756388518E-010
 -3.390000000000000E-002    5.661229401590133E-010
 -3.380000000000000E-002    5.418381744125811E-010
 -3.370000000000000E-002    4.803026844862765E-010
 -3.360000000000000E-002    3.773011077640491E-010
 -3.350000000000000E-002    2.300410573783313E-010
 -3.340000000000000E-002    3.749808885963111E-011
 -3.330000000000000E-002   -1.992566455545944E-010
 -3.320000000000000E-002   -4.767501746372550E-010
 -3.310000000000000E-002   -7.888301388590279E-010
 -3.300000000000000E-002   -1.126429032339450E-009
 -3.290000000000000E-002   -1.477392667910683E-009
 -3.280000000000000E-002   -1.826405791518760E-009
 -3.270000000000000E-002   -2.155058071894588E-009
 -3.260000000000000E-002   -2.442102193467850E-009
 -3.250000000000000E-002   -2.663958003750180E-009
 -3.240000000000000E-002   -2.795511782502334E-009
 -3.230000000000000E-002   -2.811244890954203E-009
 -3.220000000000000E-002   -2.686701394288092E-009
 -3.210000000000000E-002   -2.400268775854341E-009
 -3.200000000000000E-002   -1.935204412332231E-009
 -3.190000000000000E-002   -1.281793200169183E-009
 -3.180000000000000E-002   -4.394792284653874E-010
 -3.170000000000000E-002    5.812238159469793E-010
 -3.160000000000000E-002    1.757259471303827E-009
 -3.150000000000000E-002    3.052211382080410E-009
 -3.140000000000000E-002    4.416340900898179E-009
 -3.130000000000000E-002    5.787628842444492E-009
 -3.120000000000000E-002    7.093902262715584E-009
 -3.110000000000000E-002    8.256035187008018E-009
 -3.100000000000000E-002    9.192109665958163E-009
 -3.090000000000000E-002    9.822319874034211E-009
 -3.080000000000000E-002    1.007430902382157E-008
 -3.070000000000000E-002    9.888546945146758E-009
 -3.060000000000000E-002    9.223327281902255E-009
 -3.050000000000000E-002    8.058946294650825E-009
 -3.040000000000000E-002    6.400677642836924E-009
 -3.030000000000000E-002    4.280229872557782E-009
 -3.020000000000000E-002    1.755498152230614E-009
 -3.010000000000000E-002   -1.091437859858477E-009
 -3.000000000000000E-002   -4.157960799955337E-009
 -2.990000000000000E-002   -7.325955659350668E-009
 -2.980000000000000E-002   -1.046785551886034E-008
 -2.970000000000000E-002   -1.345321900468260E-008
 -2.960000000000000E-002   -1.615533409493813E-008
 -2.950000000000000E-002   -1.845733277892398E-008
 -2.940000000000000E-002   -2.025738823613424E-008
 -2.930000000000000E-002   -2.147266971122884E-008
 -2.920000000000000E-002   -2.204186300818204E-008
 -2.910000000000000E-002   -2.192624764207271E-008
 -2.900000000000000E-002   -2.110945527178857E-008
 -2.890000000000000E-002   -1.959617510677088E-008
 -2.880000000000000E-002   -1.741016833723631E-008
 -2.870000000000000E-002   -1.459198223136012E-008
 -2.860000000000000E-002   -1.119674034397078E-008
 -2.850000000000000E-002   -7.292322068872275E-009
 -2.840000000000000E-002   -2.958108085831091E-009
 -2.830000000000000E-002    1.715661257829111E-009
 -2.820000000000000E-002    6.628027469048071E-009
 -2.810000000000000E-002    1.166720580549893E-008
 -2.800000000000000E-002    1.671058603862946E-008
 -2.790000000000000E-002    2.162523563373058E-008
 -2.780000000000000E-002    2.626930653753671E-008
 -2.770000000000000E-002    3.049465228863865E-008
 -2.760000000000000E-002    3.415083345938645E-008
 -2.750000000000000E-002    3.709051522524376E-008
 -2.740000000000000E-002    3.917604335830339E-008
 -2.730000000000000E-002    4.028681600418443E-008
 -2.720000000000000E-002    4.032687533037766E-008
 -2.710000000000000E-002    3.923205168067344E-008
 -2.700000000000000E-002    3.697594425597763E-008
 -2.690000000000000E-002    3.357405772335362E-008
 -2.680000000000000E-002    2.908556328237470E-008
 -2.670000000000000E-002    2.361230771771942E-008
 -2.660000000000000E-002    1.729498033874277E-008
 -2.650000000000000E-002    1.030659727427992E-008
 -2.640000000000000E-002    2.843746704832674E-009
 -2.630000000000000E-002   -4.883738735232381E-009
 -2.620000000000000E-002   -1.266382367880905E-008
 -2.610000000000000E-002   -2.029308486095068E-008
 -2.600000000000000E-002   -2.758635430918883E-008
 -2.590000000000000E-002   -3.438435759124493E-008
 -2.580000000000000E-002   -4.055868929626330E-008
 -2.570000000000000E-002   -4.601374433142036E-008
 -2.560000000000000E-002   -5.068550388869815E-008
 -2.550000000000000E-002   -5.453744837987605E-008
 -2.540000000000000E-002   -5.755409328020184E-008
 -2.530000000000000E-002   -5.973297241627126E-008
 -2.520000000000000E-002   -6.107600369879300E-008
 -2.510000000000000E-002   -6.158125351774769E-008
 -2.500000000000000E-002   -6.123607319717101E-008
 -2.490000000000000E-002   -6.001242974100808E-008
 -2.480000000000000E-002   -5.786493590497156E-008
 -2.470000000000000E-002   -5.473181179503403E-008
 -2.460000000000000E-002   -5.053854609954736E-008
 -2.450000000000000E-002   -4.520364324649262E-008
 -2.440000000000000E-002   -3.864546867557295E-008
 -2.430000000000000E-002   -3.078882463641780E-008
 -2.420000000000000E-002   -2.156982989931327E-008
 -2.410000000000000E-002   -1.093747935557088E-008
 -2.400000000000000E-002    1.149525521317175E-009
 -2.390000000000000E-002    1.473179813369168E-008
 -2.380000000000000E-002    2.986481680439409E-008
 -2.370000000000000E-002    4.664092517185391E-008
 -2.360000000000000E-002    6.521714359021177E-008
 -2.350000000000000E-002    8.584728102709711E-008
 -2.340000000000000E-002    1.089160017669745E-007
 -2.330000000000000E-002    1.349720547418735E-007
 -2.320000000000000E-002    1.647571742369086E-007
 -2.310000000000000E-002    1.992273368957500E-007
 -2.300000000000000E-002    2.395627007021745E-007
 -2.290000000000000E-002    2.871637013445549E-007
 -2.280000000000000E-002    3.436310445950899E-007
 -2.270000000000000E-002    4.107289469402276E-007
 -2.260000000000000E-002    4.903320638436175E-007
 -2.250000000000000E-002    5.843585354448357E-007
 -2.240000000000000E-002    6.946925942831479E-007
 -2.230000000000000E-002    8.231022041743387E-007
 -2.220000000000000E-002    9.711570465039990E-007
 -2.210000000000000E-002    1.140154993028675E-006
 -2.200000000000000E-002    1.331061602539089E-006
 -2.190000000000000E-002    1.544471444798023E-006
 -2.180000000000000E-002    1.780592807924584E-006
 -2.170000000000000E-002    2.039261895035134E-006
 -2.160000000000000E-002    2.319984176165519E-006
 -2.150000000000000E-002    2.622003350908838E-006
 -2.140000000000000E-002    2.944392010281933E-006
 -2.130000000000000E-002    3.286157337857759E-006
 -2.120000000000000E-002    3.646355577294920E-006
 -2.110000000000000E-002    4.024202013750649E-006
 -2.100000000000000E-002    4.419171003622443E-006
 -2.090000000000000E-002    4.831075072438716E-006
 -2.080000000000000E-002    5.260116202345467E-006
 -2.070000000000000E-002    5.706905355538547E-006
 -2.060000000000000E-002    6.172449530286421E-006
 -2.050000000000000E-002    6.658106703219138E-006
 -2.040000000000000E-002    7.165516502983579E-006
 -2.030000000000000E-002    7.696509568465755E-006
 -2.020000000000000E-002    8.253015297968022E-006
 -2.010000000000000E-002    8.836966415434191E-006
 -2.000000000000000E-002    9.450224570636337E-006
 -1.990000000000000E-002    1.009452597580247E-005
 -1.980000000000000E-002    1.077146163494875E-005
 -1.970000000000000E-002    1.148249371357725E-005
 -1.960000000000000E-002    1.222900494793503E-005
 -1.950000000000000E-002    1.301238522818052E-005
 -1.940000000000000E-002    1.383413875795283E-005
 -1.930000000000000E-002    1.469600619121305E-005
 -1.920000000000000E-002    1.560009030603970E-005
 -1.910000000000000E-002    1.654896261930355E-005
 -1.900000000000000E-002    1.754575097679620E-005
 -1.890000000000000E-002    1.859418575152472E-005
 -1.880000000000000E-002    1.969860716968241E-005
 -1.870000000000000E-002    2.086391612314045E-005
 -1.860000000000000E-002    2.209549187541687E-005
 -1.850000000000000E-002    2.339905971273265E-005
 -1.840000000000000E-002    2.478053214139435E-005
 -1.830000000000000E-002    2.624583930485743E-005
 -1.820000000000000E-002    2.780075504152418E-005
 -1.810000000000000E-002    2.945074100869650E-005
 -1.800000000000000E-002    3.120082238032901E-005
 -1.790000000000000E-002    3.305550990002594E-005
 -1.780000000000000E-002    3.501877495419588E-005
 -1.770000000000000E-002    3.709408690118620E-005
 -1.760000000000000E-002    3.928449812266682E-005
 -1.750000000000000E-002    4.159278351456667E-005
 -1.740000000000000E-002    4.402162759995363E-005
 -1.730000000000000E-002    4.657383020434542E-005
 -1.720000000000000E-002    4.925252019350317E-005
 -1.710000000000000E-002    5.206136930033501E-005
 -1.700000000000000E-002    5.500477658433943E-005
 -1.690000000000000E-002    5.808802272970795E-005
 -1.680000000000000E-002    6.131737124933299E-005
 -1.670000000000000E-002    6.470012948364397E-005
 -1.660000000000000E-002    6.824461596233273E-005
 -1.650000000000000E-002    7.196013980321041E-005
 -1.640000000000000E-002    7.585686820814068E-005
 -1.630000000000000E-002    7.994571572748574E-005
 -1.620000000000000E-002    8.423817692794354E-005
 -1.610000000000000E-002    8.874616300346158E-005
 -1.600000000000000E-002    9.348185732084627E-005
 -1.590000000000000E-002    9.845756227292803E-005
 -1.580000000000000E-002    1.036855991224498E-004
 -1.570000000000000E-002    1.091782399687031E-004
 -1.560000000000000E-002    1.149476661714271E-004
 -1.550000000000000E-002    1.210059776125250E-004
 -1.540000000000000E-002    1.273652419295278E-004
 -1.530000000000000E-002    1.340375736740005E-004
 -1.520000000000000E-002    1.410352087986631E-004
 -1.510000000000000E-002    1.483706495917754E-004
 -1.500000000000000E-002    1.560567695407350E-004
 -1.490000000000000E-002    1.641069520809666E-004
 -1.480000000000000E-002    1.725352057216504E-004
 -1.470000000000000E-002    1.813562206825165E-004
 -1.460000000000000E-002    1.905855247354224E-004
 -1.450000000000000E-002    2.002394728402843E-004
 -1.440000000000000E-002    2.103353828739538E-004
 -1.430000000000000E-002    2.208914592314455E-004
 -1.420000000000000E-002    2.319268872341195E-004
 -1.410000000000000E-002    2.434618170687540E-004
 -1.400000000000000E-002    2.555173326537337E-004
 -1.390000000000000E-002    2.681154454572148E-004
 -1.380000000000000E-002    2.812790546568130E-004
 -1.370000000000000E-002    2.950319084111013E-004
 -1.360000000000000E-002    3.093986508268247E-004
 -1.350000000000000E-002    3.244046917373177E-004
 -1.340000000000000E-002    3.400762088998153E-004
 -1.330000000000000E-002    3.564401127598923E-004
 -1.320000000000000E-002    3.735239514913809E-004
 -1.310000000000000E-002    3.913558702552638E-004
 -1.300000000000000E-002    4.099646007380596E-004
 -1.290000000000000E-002    4.293793874481814E-004
 -1.280000000000000E-002    4.496299679758705E-004
 -1.270000000000000E-002    4.707464234956613E-004
 -1.260000000000000E-002    4.927593752756385E-004
 -1.250000000000000E-002    5.156998151364987E-004
 -1.240000000000000E-002    5.395992230710446E-004
 -1.230000000000000E-002    5.644895361383991E-004
 -1.220000000000000E-002    5.904033998764064E-004
 -1.210000000000000E-002    6.173740599813654E-004
 -1.200000000000000E-002    6.454355923705922E-004
 -1.190000000000000E-002    6.746230566449402E-004
 -1.180000000000000E-002    7.049725583960065E-004
 -1.170000000000000E-002    7.365213778540893E-004
 -1.160000000000000E-002    7.693079552876167E-004
 -1.150000000000000E-002    8.033720450602496E-004
 -1.140000000000000E-002    8.387546017988497E-004
 -1.130000000000000E-002    8.754977458553694E-004
 -1.120000000000000E-002    9.136446352243540E-004
 -1.110000000000000E-002    9.532392851345046E-004
 -1.100000000000000E-002    9.943263640084530E-004
 -1.090000000000000E-002    1.036950838775764E-003
 -1.080000000000000E-002    1.081158070627493E-003
 -1.070000000000000E-002    1.126993213087719E-003
 -1.060000000000000E-002    1.174501401708971E-003
 -1.050000000000000E-002    1.223727181311709E-003
 -1.040000000000000E-002    1.274714684711524E-003
 -1.030000000000000E-002    1.327507877495815E-003
 -1.020000000000000E-002    1.382150373624619E-003
 -1.010000000000000E-002    1.438685366288747E-003
 -1.000000000000000E-002    1.497156346130700E-003
 -9.899999999999999E-003    1.557607023161305E-003
 -9.800000000000000E-003    1.620081568575995E-003
 -9.699999999999999E-003    1.684624926698259E-003
 -9.599999999999999E-003    1.751282877222663E-003
 -9.500000000000000E-003    1.820102436568750E-003
 -9.399999999999999E-003    1.891131416615339E-003
 -9.299999999999999E-003    1.964418498844296E-003
 -9.200000000000000E-003    2.040013225644470E-003
 -9.099999999999999E-003    2.117965273725880E-003
 -8.999999999999999E-003    2.198324595841916E-003
 -8.900000000000000E-003    2.281140731184035E-003
 -8.799999999999999E-003    2.366462122310577E-003
 -8.699999999999999E-003    2.454335932835062E-003
 -8.600000000000000E-003    2.544807396793200E-003
 -8.499999999999999E-003    2.637919757536523E-003
 -8.399999999999999E-003    2.733713986591333E-003
 -8.300000000000000E-003    2.832227818853332E-003
 -8.199999999999999E-003    2.933497068444210E-003
 -8.100000000000000E-003    3.037554135776239E-003
 -8.000000000000000E-003    3.144429117196213E-003
 -7.899999999999999E-003    3.254149449614769E-003
 -7.800000000000000E-003    3.366740203543851E-003
 -7.699999999999999E-003    3.482224313940149E-003
 -7.599999999999999E-003    3.600621984597703E-003
 -7.499999999999999E-003    3.721951272550420E-003
 -7.399999999999999E-003    3.846228214924195E-003
 -7.299999999999999E-003    3.973465774621697E-003
 -7.199999999999999E-003    4.103674385046127E-003
 -7.100000000000000E-003    4.236861053750142E-003
 -6.999999999999999E-003    4.373029151766203E-003
 -6.899999999999999E-003    4.512177454292747E-003
 -6.800000000000000E-003    4.654300745387387E-003
 -6.699999999999999E-003    4.799388112000916E-003
 -6.599999999999999E-003    4.947422655262411E-003
 -6.499999999999999E-003    5.098382179670099E-003
 -6.399999999999999E-003    5.252237732700395E-003
 -6.299999999999999E-003    5.408953780874780E-003
 -6.199999999999999E-003    5.568487553751867E-003
 -6.100000000000000E-003    5.730789224958227E-003
 -5.999999999999999E-003    5.895802225485421E-003
 -5.899999999999999E-003    6.063462224679031E-003
 -5.800000000000000E-003    6.233697697302126E-003
 -5.699999999999999E-003    6.406429530643411E-003
 -5.599999999999999E-003    6.581570809186628E-003
 -5.499999999999999E-003    6.759026216368738E-003
 -5.399999999999999E-003    6.938691838035888E-003
 -5.299999999999999E-003    7.120454629867896E-003
 -5.199999999999999E-003    7.304191671124440E-003
 -5.099999999999999E-003    7.489770184127485E-003
 -4.999999999999999E-003    7.677045839804899E-003
 -4.899999999999999E-003    7.865861743050073E-003
 -4.799999999999999E-003    8.056049226266345E-003
 -4.699999999999999E-003    8.247425771876479E-003
 -4.599999999999999E-003    8.439795704857877E-003
 -4.499999999999999E-003    8.632949433608374E-003
 -4.399999999999999E-003    8.826661492154303E-003
 -4.299999999999999E-003    9.020691725307513E-003
 -4.199999999999999E-003    9.214784995532365E-003
 -4.099999999999999E-003    9.408671424606323E-003
 -3.999999999999999E-003    9.602065385686632E-003
 -3.899999999999999E-003    9.794664601905888E-003
 -3.799999999999999E-003    9.986153152041913E-003
 -3.699999999999999E-003    1.017619828002869E-002
 -3.599999999999999E-003    1.036445169891840E-002
 -3.499999999999999E-003    1.055054922192267E-002
 -3.399999999999999E-003    1.073410824670342E-002
 -3.299999999999999E-003    1.091473065024118E-002
 -3.199999999999999E-003    1.109199888733981E-002
 -3.099999999999999E-003    1.126547654159326E-002
 -2.999999999999999E-003    1.143470782513339E-002
 -2.899999999999999E-003    1.159921602819087E-002
 -2.799999999999999E-003    1.175850177673059E-002
 -2.699999999999999E-003    1.191204364428113E-002
 -2.599999999999999E-003    1.205929705979850E-002
 -2.499999999999999E-003    1.219969211322789E-002
 -2.399999999999999E-003    1.233263484063817E-002
 -2.299999999999999E-003    1.245750611291086E-002
 -2.199999999999999E-003    1.257366053330066E-002
 -2.099999999999999E-003    1.268042898709102E-002
 -1.999999999999999E-003    1.277711631359013E-002
 -1.899999999999999E-003    1.286300036672016E-002
 -1.799999999999999E-003    1.293733622322635E-002
 -1.699999999999999E-003    1.299935242035550E-002
 -1.599999999999999E-003    1.304825341988967E-002
 -1.499999999999999E-003    1.308321805278055E-002
 -1.399999999999999E-003    1.310340012880308E-002
 -1.299999999999999E-003    1.310792833152742E-002
 -1.199999999999999E-003    1.309590525850239E-002
 -1.099999999999999E-003    1.306640829666724E-002
 -9.999999999999989E-004    1.301848651997351E-002
 -8.999999999999990E-004    1.295116336931810E-002
 -7.999999999999990E-004    1.286343270149625E-002
 -6.999999999999989E-004    1.275426093838989E-002
 -5.999999999999990E-004    1.262258503575203E-002
 -4.999999999999989E-004    1.246731198829503E-002
 -3.999999999999989E-004    1.228731940248409E-002
 -2.999999999999989E-004    1.208145471457161E-002
 -1.999999999999989E-004    1.184853621227052E-002
 -9.999999999999892E-005    1.158735232626688E-002
  1.084202172485504E-018    1.129666271423269E-002
  1.000000000000011E-004    1.097519857177981E-002
  2.000000000000011E-004    1.062166262595949E-002
  3.000000000000011E-004    1.023473066191658E-002
  4.000000000000011E-004    9.813051281857900E-003
  5.000000000000011E-004    9.355248090561308E-003
  6.000000000000011E-004    8.859919304098601E-003
  7.000000000000011E-004    8.325636921902380E-003
  8.000000000000011E-004    7.750949139712354E-003
  9.000000000000012E-004    7.134381129914076E-003
  1.000000000000001E-003    6.474434313342525E-003
  1.100000000000001E-003    5.769586080799469E-003
  1.200000000000001E-003    5.018292039758566E-003
  1.300000000000001E-003    4.218985824640299E-003
  1.400000000000001E-003    3.370078436248048E-003
  1.500000000000001E-003    2.469960901192642E-003
  1.600000000000001E-003    1.517004489679878E-003
  1.700000000000001E-003    5.095615949193505E-004
  1.800000000000001E-003   -5.540341891257274E-004
  1.900000000000001E-003   -1.675465523138351E-003
  2.000000000000001E-003   -2.856430135552180E-003
  2.100000000000001E-003   -4.098639275009955E-003
  2.200000000000001E-003   -5.403817478960647E-003
  2.300000000000001E-003   -6.773700082804529E-003
  2.400000000000001E-003   -8.210032930670783E-003
  2.500000000000001E-003   -9.714566818206944E-003
  2.600000000000001E-003   -1.128906242569799E-002
  2.700000000000001E-003   -1.293528256178004E-002
  2.800000000000001E-003   -1.465499323888496E-002
  2.900000000000001E-003   -1.644996321818890E-002
  3.000000000000001E-003   -1.832195807034450E-002
  3.100000000000001E-003   -2.027274305178056E-002
  3.200000000000001E-003   -2.230407874108206E-002
  3.300000000000001E-003   -2.441771790744487E-002
  3.400000000000001E-003   -2.661540612923280E-002
  3.500000000000001E-003   -2.889887664882335E-002
  3.600000000000001E-003   -3.126985181146610E-002
  3.700000000000001E-003   -3.373003724264402E-002
  3.800000000000001E-003   -3.628111880152137E-002
  3.900000000000001E-003   -3.892476604175399E-002
  4.000000000000001E-003   -4.166261737043576E-002
  4.100000000000001E-003   -4.449629398766752E-002
  4.200000000000001E-003   -4.742738551531253E-002
  4.300000000000001E-003   -5.045745071848153E-002
  4.400000000000001E-003   -5.358801317304260E-002
  4.500000000000001E-003   -5.682055851208009E-002
  4.600000000000002E-003   -6.015653535845509E-002
  4.700000000000001E-003   -6.359734869698863E-002
  4.800000000000001E-003   -6.714435830664525E-002
  4.900000000000002E-003   -7.079887910999846E-002
  5.000000000000001E-003   -7.456216357784515E-002
  5.100000000000001E-003   -7.843542173662946E-002
  5.200000000000001E-003   -8.241980458094375E-002
  5.300000000000002E-003   -8.651639584570341E-002
  5.400000000000001E-003   -9.072622830986657E-002
  5.500000000000001E-003   -9.505025777202229E-002
  5.600000000000002E-003   -9.948936919164089E-002
  5.700000000000001E-003   -0.104044378982829     
  5.800000000000001E-003   -0.108716032793783     
  5.900000000000002E-003   -0.113504987598149     
  6.000000000000001E-003   -0.118411804072476     
  6.100000000000001E-003   -0.123436989504456     
  6.200000000000002E-003   -0.128580937582263     
  6.300000000000002E-003   -0.133843938867509     
  6.400000000000001E-003   -0.139226217262995     
  6.500000000000001E-003   -0.144727860764820     
  6.600000000000002E-003   -0.150348882263410     
  6.700000000000001E-003   -0.156089182905751     
  6.800000000000001E-003   -0.161948552412431     
  6.900000000000002E-003   -0.167926662086581     
  7.000000000000001E-003   -0.174023067251021     
  7.100000000000001E-003   -0.180237209336957     
  7.200000000000002E-003   -0.186568397941536     
  7.300000000000002E-003   -0.193015830718617     
  7.400000000000001E-003   -0.199578576939291     
  7.500000000000001E-003   -0.206255554808642     
  7.600000000000002E-003   -0.213045578586010     
  7.700000000000001E-003   -0.219947302399799     
  7.800000000000001E-003   -0.226959227093975     
  7.900000000000001E-003   -0.234079756109453     
  8.000000000000002E-003   -0.241307143390591     
  8.100000000000001E-003   -0.248639441826367     
  8.200000000000001E-003   -0.256074627396114     
  8.300000000000002E-003   -0.263610471215834     
  8.400000000000001E-003   -0.271244583574010     
  8.500000000000002E-003   -0.278974467419355     
  8.600000000000002E-003   -0.286797449672539     
  8.700000000000001E-003   -0.294710695703340     
  8.800000000000002E-003   -0.302711220453281     
  8.900000000000002E-003   -0.310795827584087     
  9.000000000000001E-003   -0.318961223827994     
  9.100000000000002E-003   -0.327203939878933     
  9.200000000000002E-003   -0.335520297742112     
  9.300000000000001E-003   -0.343906520849421     
  9.400000000000002E-003   -0.352358585842263     
  9.500000000000001E-003   -0.360872381502703     
  9.600000000000001E-003   -0.369443606954188     
  9.700000000000002E-003   -0.378067772904391     
  9.800000000000001E-003   -0.386740235986036     
  9.900000000000001E-003   -0.395456179215697     
  1.000000000000000E-002   -0.404210643341331     
  1.010000000000000E-002   -0.412998467483302     
  1.020000000000000E-002   -0.421814369217269     
  1.030000000000000E-002   -0.430652891486308     
  1.040000000000000E-002   -0.439508366768631     
  1.050000000000000E-002   -0.448375009459206     
  1.060000000000000E-002   -0.457246902617058     
  1.070000000000000E-002   -0.466117952400082     
  1.080000000000000E-002   -0.474981822573145     
  1.090000000000000E-002   -0.483832152900645     
  1.100000000000000E-002   -0.492662370168224     
  1.110000000000000E-002   -0.501465806516887     
  1.120000000000000E-002   -0.510235542708630     
  1.130000000000000E-002   -0.518964604979690     
  1.140000000000000E-002   -0.527645906860429     
  1.150000000000000E-002   -0.536272125615327     
  1.160000000000000E-002   -0.544835940646922     
  1.170000000000000E-002   -0.553329796308423     
  1.180000000000000E-002   -0.561746062186126     
  1.190000000000000E-002   -0.570077028101392     
  1.200000000000000E-002   -0.578314808150247     
  1.210000000000000E-002   -0.586451522929454     
  1.220000000000000E-002   -0.594479050722075     
  1.230000000000000E-002   -0.602389277598471     
  1.240000000000000E-002   -0.610173920979490     
  1.250000000000000E-002   -0.617824732392074     
  1.260000000000000E-002   -0.625333313309991     
  1.270000000000000E-002   -0.632691164352469     
  1.280000000000000E-002   -0.639889770238322     
  1.290000000000000E-002   -0.646920576801697     
  1.300000000000000E-002   -0.653774986411925     
  1.310000000000000E-002   -0.660444258193455     
  1.320000000000000E-002   -0.666919771542644     
  1.330000000000000E-002   -0.673192728110818     
  1.340000000000000E-002   -0.679254425816676     
  1.350000000000000E-002   -0.685096150862756     
  1.360000000000000E-002   -0.690709147321837     
  1.370000000000000E-002   -0.696084654665026     
  1.380000000000000E-002   -0.701213944352191     
  1.390000000000000E-002   -0.706088298399091     
  1.400000000000000E-002   -0.710699117767173     
  1.410000000000000E-002   -0.715037734908344     
  1.420000000000000E-002   -0.719095607659087     
  1.430000000000000E-002   -0.722864212478845     
  1.440000000000000E-002   -0.726335116370529     
  1.450000000000000E-002   -0.729499932222703     
  1.460000000000000E-002   -0.732350434279645     
  1.470000000000000E-002   -0.734878372431351     
  1.480000000000000E-002   -0.737075747368740     
  1.490000000000000E-002   -0.738934535241893     
  1.500000000000000E-002   -0.740446989616214     
  1.510000000000000E-002   -0.741605358429014     
  1.520000000000000E-002   -0.742402153373820     
  1.530000000000000E-002   -0.742829999003481     
  1.540000000000000E-002   -0.742881612630456     
  1.550000000000000E-002   -0.742549979406816     
  1.560000000000000E-002   -0.741828243053980     
  1.570000000000000E-002   -0.740709780321186     
  1.580000000000000E-002   -0.739188077150341     
  1.590000000000000E-002   -0.737256918657649     
  1.600000000000000E-002   -0.734910280225721     
  1.610000000000000E-002   -0.732142308950351     
  1.620000000000000E-002   -0.728947544091952     
  1.630000000000000E-002   -0.725320618683366     
  1.640000000000000E-002   -0.721256479343192     
  1.650000000000000E-002   -0.716750368721110     
  1.660000000000000E-002   -0.711797779544438     
  1.670000000000000E-002   -0.706394500713907     
  1.680000000000000E-002   -0.700536623423042     
  1.690000000000000E-002   -0.694220473126051     
  1.700000000000000E-002   -0.687442755963421     
  1.710000000000000E-002   -0.680200470333752     
  1.720000000000000E-002   -0.672490874639124     
  1.730000000000000E-002   -0.664311662423868     
  1.740000000000000E-002   -0.655660794968806     
  1.750000000000000E-002   -0.646536611271878     
  1.760000000000000E-002   -0.636937783494419     
  1.770000000000000E-002   -0.626863303643126     
  1.780000000000000E-002   -0.616312623404658     
  1.790000000000000E-002   -0.605285490013428     
  1.800000000000000E-002   -0.593781995485242     
  1.810000000000000E-002   -0.581802670004341     
  1.820000000000000E-002   -0.569348349825738     
  1.830000000000000E-002   -0.556420354797492     
  1.840000000000000E-002   -0.543020295529679     
  1.850000000000000E-002   -0.529150236089438     
  1.860000000000000E-002   -0.514812610339156     
  1.870000000000000E-002   -0.500010245039011     