 -4.000000000000000E-002    0.000000000000000E+000
 -3.990000000000000E-002   -7.807108643061197E-012
 -3.980000000000000E-002    1.846457649496687E-011
 -3.970000000000000E-002    1.706471881326233E-010
 -3.960000000000000E-002    6.001023676150334E-010
 -3.950000000000000E-002    1.523921020731316E-009
 -3.940000000000000E-002    3.221003449641855E-009
 -3.930000000000000E-002    6.011622861996944E-009
 -3.920000000000000E-002    1.021617474666551E-008
 -3.910000000000000E-002    1.609241529118494E-008
 -3.900000000000000E-002    2.375497630766029E-008
 -3.890000000000000E-002    3.308551432586935E-008
 -3.880000000000000E-002    4.364557272715827E-008
 -3.870000000000000E-002    5.460627335998373E-008
 -3.860000000000000E-002    6.470880844681450E-008
 -3.850000000000000E-002    7.226698311123784E-008
 -3.840000000000000E-002    7.521826035821768E-008
 -3.830000000000000E-002    7.122320236252218E-008
 -3.820000000000000E-002    5.780616756657619E-008
 -3.810000000000000E-002    3.252354782154302E-008
 -3.800000000000000E-002   -6.858923119828253E-009
 -3.790000000000000E-002   -6.220050705664734E-008
 -3.780000000000000E-002   -1.348510099439185E-007
 -3.770000000000000E-002   -2.255628042890491E-007
 -3.760000000000000E-002   -3.344573621382648E-007
 -3.750000000000000E-002   -4.610454835148164E-007
 -3.740000000000000E-002   -6.042913385999460E-007
 -3.730000000000000E-002   -7.627020860711371E-007
 -3.720000000000000E-002   -9.344194058377127E-007
 -3.710000000000000E-002   -1.117288727339989E-006
 -3.700000000000000E-002   -1.308882444463390E-006
 -3.690000000000000E-002   -1.506464237632894E-006
 -3.680000000000000E-002   -1.706888695703992E-006
 -3.670000000000000E-002   -1.906445688503143E-006
 -3.660000000000000E-002   -2.100671081297667E-006
 -3.650000000000000E-002   -2.284156702841919E-006
 -3.640000000000000E-002   -2.450398682452958E-006
 -3.630000000000000E-002   -2.591726932905738E-006
 -3.620000000000000E-002   -2.699349504798034E-006
 -3.610000000000000E-002   -2.763539691893027E-006
 -3.600000000000000E-002   -2.773973464142415E-006
 -3.590000000000000E-002   -2.720204547682486E-006
 -3.580000000000000E-002   -2.592248403874992E-006
 -3.570000000000000E-002   -2.381221706756092E-006
 -3.560000000000000E-002   -2.079974187198851E-006
 -3.550000000000000E-002   -1.683643176967266E-006
 -3.540000000000000E-002   -1.190062354196789E-006
 -3.530000000000000E-002   -5.999664609832088E-007
 -3.520000000000000E-002    8.304071196270229E-008
 -3.510000000000000E-002    8.527688270258145E-007
 -3.500000000000000E-002    1.700953795665249E-006
 -3.490000000000000E-002    2.617951861862555E-006
 -3.480000000000000E-002    3.593543839330709E-006
 -3.470000000000000E-002    4.617760558211226E-006
 -3.460000000000000E-002    5.681632571551621E-006
 -3.450000000000000E-002    6.777776057294724E-006
 -3.440000000000000E-002    7.900739647828291E-006
 -3.430000000000000E-002    9.047067273356624E-006
 -3.420000000000000E-002    1.021506779848585E-005
 -3.410000000000000E-002    1.140430793246997E-005
 -3.400000000000000E-002    1.261490204722466E-005
 -3.390000000000000E-002    1.384667250789198E-005
 -3.380000000000000E-002    1.509830395048473E-005
 -3.370000000000000E-002    1.636659019139903E-005
 -3.360000000000000E-002    1.764588969551016E-005
 -3.350000000000000E-002    1.892786767172239E-005
 -3.340000000000000E-002    2.020157638008817E-005
 -3.330000000000000E-002    2.145387775881571E-005
 -3.320000000000000E-002    2.267017888176581E-005
 -3.310000000000000E-002    2.383540677292720E-005
 -3.300000000000000E-002    2.493510483295024E-005
 -3.290000000000000E-002    2.595654402041161E-005
 -3.280000000000000E-002    2.688968902288080E-005
 -3.270000000000000E-002    2.772792312023003E-005
 -3.260000000000000E-002    2.846842726702285E-005
 -3.250000000000000E-002    2.911214981790733E-005
 -3.240000000000000E-002    2.966337872334995E-005
 -3.230000000000000E-002    3.012893801739818E-005
 -3.220000000000000E-002    3.051710095077530E-005
 -3.210000000000000E-002    3.083634307615422E-005
 -3.200000000000000E-002    3.109408338436283E-005
 -3.190000000000000E-002    3.129555608139856E-005
 -3.180000000000000E-002    3.144295713849573E-005
 -3.170000000000000E-002    3.153497131025250E-005
 -3.160000000000000E-002    3.156674539644254E-005
 -3.150000000000000E-002    3.153032773241517E-005
 -3.140000000000000E-002    3.141552380973595E-005
 -3.130000000000000E-002    3.121109476499960E-005
 -3.120000000000000E-002    3.090613929322595E-005
 -3.110000000000000E-002    3.049153215556871E-005
 -3.100000000000000E-002    2.996122037456956E-005
 -3.090000000000000E-002    2.931325870890008E-005
 -3.080000000000000E-002    2.855041314893806E-005
 -3.070000000000000E-002    2.768029722667413E-005
 -3.060000000000000E-002    2.671496386925806E-005
 -3.050000000000000E-002    2.567002626211076E-005
 -3.040000000000000E-002    2.456336095679212E-005
 -3.030000000000000E-002    2.341354089708284E-005
 -3.020000000000000E-002    2.223815335818596E-005
 -3.010000000000000E-002    2.105218831933832E-005
 -3.000000000000000E-002    1.986664131047899E-005
 -2.990000000000000E-002    1.868750601045127E-005
 -2.980000000000000E-002    1.751523146239577E-005
 -2.970000000000000E-002    1.634467563725080E-005
 -2.960000000000000E-002    1.516558544729283E-005
 -2.950000000000000E-002    1.396347802869112E-005
 -2.940000000000000E-002    1.272083779160856E-005
 -2.930000000000000E-002    1.141845059797141E-005
 -2.920000000000000E-002    1.003669959567251E-005
 -2.910000000000000E-002    8.556679785730742E-006
 -2.900000000000000E-002    6.960957304057004E-006
 -2.890000000000000E-002    5.233911830701160E-006
 -2.880000000000000E-002    3.361544953874793E-006
 -2.870000000000000E-002    1.330867189477015E-006
 -2.860000000000000E-002   -8.711304112132387E-007
 -2.850000000000000E-002   -3.258776694566404E-006
 -2.840000000000000E-002   -5.849101188085091E-006
 -2.830000000000000E-002   -8.663198801765672E-006
 -2.820000000000000E-002   -1.172723863729544E-005
 -2.810000000000000E-002   -1.507319518966361E-005
 -2.800000000000000E-002   -1.873898916202872E-005
 -2.790000000000000E-002   -2.276816512063388E-005
 -2.780000000000000E-002   -2.720901359070843E-005
 -2.770000000000000E-002   -3.211330781868023E-005
 -2.760000000000000E-002   -3.753475790016699E-005
 -2.750000000000000E-002   -4.352737288125732E-005
 -2.740000000000000E-002   -5.014403966486482E-005
 -2.730000000000000E-002   -5.743528211268419E-005
 -2.720000000000000E-002   -6.544863860550763E-005
 -2.710000000000000E-002   -7.422855382049562E-005
 -2.700000000000000E-002   -8.381698617980097E-005
 -2.690000000000000E-002   -9.425455752550402E-005
 -2.680000000000000E-002   -1.055822583972668E-004
 -2.670000000000000E-002   -1.178434917842987E-004
 -2.660000000000000E-002   -1.310862435788156E-004
 -2.650000000000000E-002   -1.453650555649689E-004
 -2.640000000000000E-002   -1.607428474634571E-004
 -2.630000000000000E-002   -1.772921133581143E-004
 -2.620000000000000E-002   -1.950954701063393E-004
 -2.610000000000000E-002   -2.142455604034607E-004
 -2.600000000000000E-002   -2.348443717293017E-004
 -2.590000000000000E-002   -2.570018577803087E-004
 -2.580000000000000E-002   -2.808343469058675E-004
 -2.570000000000000E-002   -3.064626740381351E-004
 -2.560000000000000E-002   -3.340107640820075E-004
 -2.550000000000000E-002   -3.636041595857989E-004
 -2.540000000000000E-002   -3.953694281425348E-004
 -2.530000000000000E-002   -4.294342335015743E-004
 -2.520000000000000E-002   -4.659280961005767E-004
 -2.510000000000000E-002   -5.049837973432268E-004
 -2.500000000000000E-002   -5.467394254510865E-004
 -2.490000000000000E-002   -5.913409406752788E-004
 -2.480000000000000E-002   -6.389445096336866E-004
 -2.470000000000000E-002   -6.897188731192276E-004
 -2.460000000000000E-002   -7.438474028168851E-004
 -2.450000000000000E-002   -8.015292824882513E-004
 -2.440000000000000E-002   -8.629803705485295E-004
 -2.430000000000000E-002   -9.284325761179902E-004
 -2.420000000000000E-002   -9.981332398135252E-004
 -2.410000000000000E-002   -1.072343794764641E-003
 -2.400000000000000E-002   -1.151337891391572E-003
 -2.390000000000000E-002   -1.235399670958825E-003
 -2.380000000000000E-002   -1.324822737009566E-003
 -2.370000000000000E-002   -1.419908576649781E-003
 -2.360000000000000E-002   -1.520966997462143E-003
 -2.350000000000000E-002   -1.628316923907247E-003
 -2.340000000000000E-002   -1.742287439369941E-003
 -2.330000000000000E-002   -1.863220717905023E-003
 -2.320000000000000E-002   -1.991474684841437E-003
 -2.310000000000000E-002   -2.127426442790361E-003
 -2.300000000000000E-002   -2.271475592227962E-003
 -2.290000000000000E-002   -2.424046592636982E-003
 -2.280000000000000E-002   -2.585591236606738E-003
 -2.270000000000000E-002   -2.756590457650187E-003
 -2.260000000000000E-002   -2.937553717896369E-003
 -2.250000000000000E-002   -3.129019918105934E-003
 -2.240000000000000E-002   -3.331554288253095E-003
 -2.230000000000000E-002   -3.545748260637594E-003
 -2.220000000000000E-002   -3.772215722186151E-003
 -2.210000000000000E-002   -4.011592506014834E-003
 -2.200000000000000E-002   -4.264533653789778E-003
 -2.190000000000000E-002   -4.531712512431517E-003
 -2.180000000000000E-002   -4.813822905496097E-003
 -2.170000000000000E-002   -5.111576958479823E-003
 -2.160000000000000E-002   -5.425710213628925E-003
 -2.150000000000000E-002   -5.756983155461563E-003
 -2.140000000000000E-002   -6.106184872307174E-003
 -2.130000000000000E-002   -6.474137577975500E-003
 -2.120000000000000E-002   -6.861699931448511E-003
 -2.110000000000000E-002   -7.269770569401697E-003
 -2.100000000000000E-002   -7.699289947621660E-003
 -2.090000000000000E-002   -8.151243498697218E-003
 -2.080000000000000E-002   -8.626660332844586E-003
 -2.070000000000000E-002   -9.126613622427275E-003
 -2.060000000000000E-002   -9.652219626788527E-003
 -2.050000000000000E-002   -1.020463495647191E-002
 -2.040000000000000E-002   -1.078505527096515E-002
 -2.030000000000000E-002   -1.139471352738232E-002
 -2.020000000000000E-002   -1.203487759511873E-002
 -2.010000000000000E-002   -1.270685148700640E-002
 -2.000000000000000E-002   -1.341197623608828E-002
 -1.990000000000000E-002   -1.415162794775392E-002
 -1.980000000000000E-002   -1.492722607023578E-002
 -1.970000000000000E-002   -1.574023208359046E-002
 -1.960000000000000E-002   -1.659215684119447E-002
 -1.950000000000000E-002   -1.748456227492787E-002
 -1.940000000000000E-002   -1.841906706986994E-002
 -1.930000000000000E-002   -1.939735050824337E-002
 -1.920000000000000E-002   -2.042115119850743E-002
 -1.910000000000000E-002   -2.149227503513784E-002
 -1.900000000000000E-002   -2.261258796824514E-002
 -1.890000000000000E-002   -2.378402091715877E-002
 -1.880000000000000E-002   -2.500856508639624E-002
 -1.870000000000000E-002   -2.628827150289758E-002
 -1.860000000000000E-002   -2.762524648482182E-002
 -1.850000000000000E-002   -2.902165560433889E-002
 -1.840000000000000E-002   -3.047970937686526E-002
 -1.830000000000000E-002   -3.200167768307191E-002
 -1.820000000000000E-002   -3.358987701946756E-002
 -1.810000000000000E-002   -3.524667766058508E-002
 -1.800000000000000E-002   -3.697450909456359E-002
 -1.790000000000000E-002   -3.877585484902876E-002
 -1.780000000000000E-002   -4.065325865702356E-002
 -1.770000000000000E-002   -4.260933164396468E-002
 -1.760000000000000E-002   -4.464675194002436E-002
 -1.750000000000000E-002   -4.676826693378894E-002
 -1.740000000000000E-002   -4.897669316177897E-002
 -1.730000000000000E-002   -5.127492617899850E-002
 -1.720000000000000E-002   -5.366592514229414E-002
 -1.710000000000000E-002   -5.615272863349755E-002
 -1.700000000000000E-002   -5.873843849255526E-002
 -1.690000000000000E-002   -6.142622524954183E-002
 -1.680000000000000E-002   -6.421931639259902E-002
 -1.670000000000000E-002   -6.712100306188971E-002
 -1.660000000000000E-002   -7.013463426320600E-002
 -1.650000000000000E-002   -7.326361654722589E-002
 -1.640000000000000E-002   -7.651140576942586E-002
 -1.630000000000000E-002   -7.988150600812909E-002
 -1.620000000000000E-002   -8.337748831475193E-002
 -1.610000000000000E-002   -8.700295266775997E-002
 -1.600000000000000E-002   -9.076157939573533E-002
 -1.590000000000000E-002   -9.465708577985511E-002
 -1.580000000000000E-002   -9.869325092829079E-002
 -1.570000000000000E-002   -0.102873902936402     
 -1.560000000000000E-002   -0.107202940291477     
 -1.550000000000000E-002   -0.111684303617139     
 -1.540000000000000E-002   -0.116321996971921     
 -1.530000000000000E-002   -0.121120069513447     
 -1.520000000000000E-002   -0.126082620253938     
 -1.510000000000000E-002   -0.131213782877211     
 -1.500000000000000E-002   -0.136517737577089     
 -1.490000000000000E-002   -0.141998681293610     
 -1.480000000000000E-002   -0.147660849792655     
 -1.470000000000000E-002   -0.153508500471622     
 -1.460000000000000E-002   -0.159545912410844     
 -1.450000000000000E-002   -0.165777380068342     
 -1.440000000000000E-002   -0.172207183005078     
 -1.430000000000000E-002   -0.178839638757687     
 -1.420000000000000E-002   -0.185679072134098     
 -1.410000000000000E-002   -0.192729768564639     
 -1.400000000000000E-002   -0.199996070227112     
 -1.390000000000000E-002   -0.207482264455340     
 -1.380000000000000E-002   -0.215192665656817     
 -1.370000000000000E-002   -0.223131551438726     
 -1.360000000000000E-002   -0.231303214312673     
 -1.350000000000000E-002   -0.239711901816920     
 -1.340000000000000E-002   -0.248361831547801     
 -1.330000000000000E-002   -0.257257231254697     
 -1.320000000000000E-002   -0.266402241077417     
 -1.310000000000000E-002   -0.275800968467985     
 -1.300000000000000E-002   -0.285457469783114     
 -1.290000000000000E-002   -0.295375721782572     
 -1.280000000000000E-002   -0.305559633022651     
 -1.270000000000000E-002   -0.316013019153651     
 -1.260000000000000E-002   -0.326739620921880     
 -1.250000000000000E-002   -0.337743056167588     
 -1.240000000000000E-002   -0.349026877435779     
 -1.230000000000000E-002   -0.360594506779087     
 -1.220000000000000E-002   -0.372449269796849     
 -1.210000000000000E-002   -0.384594317433966     
 -1.200000000000000E-002   -0.397032711699532     
 -1.190000000000000E-002   -0.409767351865495     
 -1.180000000000000E-002   -0.422801017825695     
 -1.170000000000000E-002   -0.436136285159720     
 -1.160000000000000E-002   -0.449775600300956     
 -1.150000000000000E-002   -0.463721253668903     
 -1.140000000000000E-002   -0.477975325267522     
 -1.130000000000000E-002   -0.492539759242331     
 -1.120000000000000E-002   -0.507416189635743     
 -1.110000000000000E-002   -0.522606091599297     
 -1.100000000000000E-002   -0.538110788625497     
 -1.090000000000000E-002   -0.553931264415241     
 -1.080000000000000E-002   -0.570068347793200     
 -1.070000000000000E-002   -0.586522543253051     
 -1.060000000000000E-002   -0.603294057655658     
 -1.050000000000000E-002   -0.620382940372057     
 -1.040000000000000E-002   -0.637788789126219     
 -1.030000000000000E-002   -0.655511057469558     
 -1.020000000000000E-002   -0.673548853105841     
 -1.010000000000000E-002   -0.691900918937630     
 -1.000000000000000E-002   -0.710565720552460     
 -9.899999999999999E-003   -0.729541421037183     
 -9.800000000000000E-003   -0.748825792177246     
 -9.699999999999999E-003   -0.768416316177762     
 -9.599999999999999E-003   -0.788310047727794     
 -9.500000000000000E-003   -0.808503728491450     
 -9.399999999999999E-003   -0.828993728559769     
 -9.299999999999999E-003   -0.849776005791613     
 -9.200000000000000E-003   -0.870846189028913     
 -9.099999999999999E-003   -0.892199438161101     
 -8.999999999999999E-003   -0.913830542835293     
 -8.900000000000000E-003   -0.935733852113617     
 -8.799999999999999E-003   -0.957903255287779     
 -8.699999999999999E-003   -0.980332297474961     
 -8.600000000000000E-003    -1.00301398587225     
 -8.499999999999999E-003    -1.02594086000688     
 -8.399999999999999E-003    -1.04910505727256     
 -8.300000000000000E-003    -1.07249822402014     
 -8.199999999999999E-003    -1.09611155084771     
 -8.100000000000000E-003    -1.11993580166147     
 -8.000000000000000E-003    -1.14396113856312     
 -7.899999999999999E-003    -1.16817730125139     
 -7.800000000000000E-003    -1.19257361141067     
 -7.699999999999999E-003    -1.21713889036426     
 -7.599999999999999E-003    -1.24186152807293     
 -7.499999999999999E-003    -1.26672915233218     
 -7.399999999999999E-003    -1.29172922942542     
 -7.299999999999999E-003    -1.31684855764250     
 -7.199999999999999E-003    -1.34207347722777     
 -7.100000000000000E-003    -1.36738972867824     
 -6.999999999999999E-003    -1.39278278137781     
 -6.899999999999999E-003    -1.41823730669129     
 -6.800000000000000E-003    -1.44373773757324     
 -6.699999999999999E-003    -1.46926781604253     
 -6.599999999999999E-003    -1.49481093644823     
 -6.499999999999999E-003    -1.52034983070969     
 -6.399999999999999E-003    -1.54586682092135     
 -6.299999999999999E-003    -1.57134380690046     
 -6.199999999999999E-003    -1.59676211366831     
 -6.100000000000000E-003    -1.62210269166292     
 -5.999999999999999E-003    -1.64734596341317     
 -5.899999999999999E-003    -1.67247199739596     
 -5.800000000000000E-003    -1.69746023972706     
 -5.699999999999999E-003    -1.72228982467885     
 -5.599999999999999E-003    -1.74693954129140     
 -5.499999999999999E-003    -1.77138764683009     
 -5.399999999999999E-003    -1.79561195335519     
 -5.299999999999999E-003    -1.81959017844646     
 -5.199999999999999E-003    -1.84329926129719     
 -5.099999999999999E-003    -1.86671607296991     
 -4.999999999999999E-003    -1.88981709595932     
 -4.899999999999999E-003    -1.91257837870896     
 -4.799999999999999E-003    -1.93497565479802     
 -4.699999999999999E-003    -1.95698442774583     
 -4.599999999999999E-003    -1.97857993466062     
 -4.499999999999999E-003    -1.99973710629229     
 -4.399999999999999E-003    -2.02043052835836     
 -4.299999999999999E-003    -2.04063469455727     
 -4.199999999999999E-003    -2.06032391806832     
 -4.099999999999999E-003    -2.07947235970676     
 -3.999999999999999E-003    -2.09805382325162     
 -3.899999999999999E-003    -2.11604239589033     
 -3.799999999999999E-003    -2.13341154354661     
 -3.699999999999999E-003    -2.15013512902462     
 -3.599999999999999E-003    -2.16618662083571     
 -3.499999999999999E-003    -2.18153979646990     
 -3.399999999999999E-003    -2.19616810812493     
 -3.299999999999999E-003    -2.21004538654478     
 -3.199999999999999E-003    -2.22314520186898     
 -3.099999999999999E-003    -2.23544119079910     
 -2.999999999999999E-003    -2.24690754750144     
 -2.899999999999999E-003    -2.25751809606137     
 -2.799999999999999E-003    -2.26724702027931     
 -2.699999999999999E-003    -2.27606859122676     
 -2.599999999999999E-003    -2.28395743654788     
 -2.499999999999999E-003    -2.29088859981605     
 -2.399999999999999E-003    -2.29683709298225     
 -2.299999999999999E-003    -2.30177861536122     
 -2.199999999999999E-003    -2.30568901553227     
 -2.099999999999999E-003    -2.30854442832475     
 -1.999999999999999E-003    -2.31032168897675     
 -1.899999999999999E-003    -2.31099787257724     
 -1.799999999999999E-003    -2.31055077856593     
 -1.699999999999999E-003    -2.30895853364892     
 -1.599999999999999E-003    -2.30620004500023     
 -1.499999999999999E-003    -2.30225450194494     
 -1.399999999999999E-003    -2.29710204400786     
 -1.299999999999999E-003    -2.29072329855749     
 -1.199999999999999E-003    -2.28309968273443     
 -1.099999999999999E-003    -2.27421311167318     
 -9.999999999999989E-004    -2.26404649295020     
 -8.999999999999990E-004    -2.25258325940281     
 -7.999999999999990E-004    -2.23980772136776     
 -6.999999999999989E-004    -2.22570527901216     
 -5.999999999999990E-004    -2.21026180767492     
 -4.999999999999989E-004    -2.19346426444056     
 -3.999999999999989E-004    -2.17530077217289     
 -2.999999999999989E-004    -2.15576003956546     
 -1.999999999999989E-004    -2.13483201545719     
 -9.999999999999892E-005    -2.11250747630729     
  1.084202172485504E-018    -2.08877848480736     
  1.000000000000011E-004    -2.06363787776421     
  2.000000000000011E-004    -2.03707985299832     
  3.000000000000011E-004    -2.00909972629384     
  4.000000000000011E-004    -1.97969382115053     
  5.000000000000011E-004    -1.94885966901064     
  6.000000000000011E-004    -1.91659577349468     
  7.000000000000011E-004    -1.88290203293704     
  8.000000000000011E-004    -1.84777949460725     
  9.000000000000012E-004    -1.81123048006781     
  1.000000000000001E-003    -1.77325838811850     
  1.100000000000001E-003    -1.73386801145673     
  1.200000000000001E-003    -1.69306528306500     
  1.300000000000001E-003    -1.65085743445350     
  1.400000000000001E-003    -1.60725314955446     
  1.500000000000001E-003    -1.56226232465004     
  1.600000000000001E-003    -1.51589612941201     
  1.700000000000001E-003    -1.46816711997484     
  1.800000000000001E-003    -1.41908905848482     
  1.900000000000001E-003    -1.36867729709635     
  2.000000000000001E-003    -1.31694819265220     
  2.100000000000001E-003    -1.26391969511410     
  2.200000000000001E-003    -1.20961087776195     
  2.300000000000001E-003    -1.15404213897418     
  2.400000000000001E-003    -1.09723522405564     
  2.500000000000001E-003    -1.03921309670659     
  2.600000000000001E-003   -0.980000062652207     
  2.700000000000001E-003   -0.919621670860182     
  2.800000000000001E-003   -0.858104760511983     
  2.900000000000001E-003   -0.795477346753647     
  3.000000000000001E-003   -0.731768739123699     
  3.100000000000001E-003   -0.667009486087170     
  3.200000000000001E-003   -0.601231273991042     
  3.300000000000001E-003   -0.534467037998261     
  3.400000000000001E-003   -0.466750863049441     
  3.500000000000001E-003   -0.398117978989824     
  3.600000000000001E-003   -0.328604719016702     
  3.700000000000001E-003   -0.258248513991275     
  3.800000000000001E-003   -0.187087859265329     
  3.900000000000001E-003   -0.115162255855715     
  4.000000000000001E-003   -4.251220841366494E-002
  4.100000000000001E-003    3.082082763717098E-002
  4.200000000000001E-003    0.104794486514443     
  4.300000000000001E-003    0.179365512702845     
  4.400000000000001E-003    0.254489825519184     
  4.500000000000001E-003    0.330122512238890     
  4.600000000000002E-003    0.406217886559951     
  4.700000000000001E-003    0.482729568992663     
  4.800000000000001E-003    0.559610387611872     
  4.900000000000002E-003    0.636812651707301     
  5.000000000000001E-003    0.714287991623160     
  5.100000000000001E-003    0.791987442354788     
  5.200000000000001E-003    0.869861576908249     
  5.300000000000002E-003    0.947860391120523     
  5.400000000000001E-003     1.02593364481370     
  5.500000000000001E-003     1.10403056744861     
  5.600000000000002E-003     1.18209999476147     
  5.700000000000001E-003     1.26009076401825     
  5.800000000000001E-003     1.33795115782339     
  5.900000000000002E-003     1.41562957125625     
  6.000000000000001E-003     1.49307416428928     
  6.100000000000001E-003     1.57023301866242     
  6.200000000000002E-003     1.64705416521787     
  6.300000000000002E-003     1.72348577141786     
  6.400000000000001E-003     1.79947616474472     
  6.500000000000001E-003     1.87497363680507     
  6.600000000000002E-003     1.94992688796745     
  6.700000000000001E-003     2.02428456293585     
  6.800000000000001E-003     2.09799599283580     
  6.900000000000002E-003     2.17101052192180     
  7.000000000000001E-003     2.24327814233145     
  7.100000000000001E-003     2.31474918607044     
  7.200000000000002E-003     2.38537440274416     
  7.300000000000002E-003     2.45510524497969     
  7.400000000000001E-003     2.52389393109238     
  7.500000000000001E-003     2.59169282506895     
  7.600000000000002E-003     2.65845553351607     
  7.700000000000001E-003     2.72413599976346     
  7.800000000000001E-003     2.78868930541985     
  7.900000000000001E-003     2.85207097087138     
  8.000000000000002E-003     2.91423798131805     
  8.100000000000001E-003     2.97514805211906     
  8.200000000000001E-003     3.03475984083386     
  8.300000000000002E-003     3.09303289764101     
  8.400000000000001E-003     3.14992808011516     
  8.500000000000002E-003     3.20540708796243     
  8.600000000000002E-003     3.25943322093165     
  8.700000000000001E-003     3.31197080028706     
  8.800000000000002E-003     3.36298496409488     
  8.900000000000002E-003     3.41244264508693     
  9.000000000000001E-003     3.46031182653235     
  9.100000000000002E-003     3.50656173271284     
  9.200000000000002E-003     3.55116309675838     
  9.300000000000001E-003     3.59408804121679     
  9.400000000000002E-003     3.63531000764957     
  9.500000000000001E-003     3.67480391660612     
  9.600000000000001E-003     3.71254617477786     
  9.700000000000002E-003     3.74851474215668     
  9.800000000000001E-003     3.78268869525723     
  9.900000000000001E-003     3.81504911718394     
  1.000000000000000E-002     3.84557834126709     
  1.010000000000000E-002     3.87426034325040     
  1.020000000000000E-002     3.90108086142988     
  1.030000000000000E-002     3.92602677279169     
  1.040000000000000E-002     3.94908690123475     
  1.050000000000000E-002     3.97025179975566     
  1.060000000000000E-002     3.98951267896670     
  1.070000000000000E-002     4.00686381476978     
  1.080000000000000E-002     4.02229964502898     
  1.090000000000000E-002     4.03581713381389     
  1.100000000000000E-002     4.04741455462371     
  1.110000000000000E-002     4.05709189885935     
  1.120000000000000E-002     4.06485035145807     
  1.130000000000000E-002     4.07069294289705     
  1.140000000000000E-002     4.07462444414892     
  1.150000000000000E-002     4.07665080819703     
  1.160000000000000E-002     4.07678012664044     
  1.170000000000000E-002     4.07502103219083     
  1.180000000000000E-002     4.07138416072994     
  1.190000000000000E-002     4.06588199437055     
  1.200000000000000E-002     4.05852836630367     
  1.210000000000000E-002     4.04933771620900     
  1.220000000000000E-002     4.03832717510274     
  1.230000000000000E-002     4.02551449425580     
  1.240000000000000E-002     4.01091887920722     
  1.250000000000000E-002     3.99456127933268     
  1.260000000000000E-002     3.97646331576851     
  1.270000000000000E-002     3.95664838446823     
  1.280000000000000E-002     3.93514096814095     
  1.290000000000000E-002     3.91196668242690     
  1.300000000000000E-002     3.88715260700053     
  1.310000000000000E-002     3.86072673125686     
  1.320000000000000E-002     3.83271783226745     
  1.330000000000000E-002     3.80315637190378     
  1.340000000000000E-002     3.77207350676370     
  1.350000000000000E-002     3.73950166897654     
  1.360000000000000E-002     3.70547371607183     
  1.370000000000000E-002     3.67002392065136     
  1.380000000000000E-002     3.63318693665864     
  1.390000000000000E-002     3.59499888222943     
  1.400000000000000E-002     3.55549626006019     
  1.410000000000000E-002     3.51471641599408     
  1.420000000000000E-002     3.47269736791489     
  1.430000000000000E-002     3.42947771469074     
  1.440000000000000E-002     3.38509680535129     
  1.450000000000000E-002     3.33959461672079     
  1.460000000000000E-002     3.29301148419554     
  1.470000000000000E-002     3.24538804833123     
  1.480000000000000E-002     3.19676584795671     
  1.490000000000000E-002     3.14718628809750     
  1.500000000000000E-002     3.09669153626843     
  1.510000000000000E-002     3.04532366708935     
  1.520000000000000E-002     2.99312520921435     
  1.530000000000000E-002     2.94013887719204     
  1.540000000000000E-002     2.88640756178585     
  1.550000000000000E-002     2.83197428705642     
  1.560000000000000E-002     2.77688191768917     
  1.570000000000000E-002     2.72117362752593     
  1.580000000000000E-002     2.66489246200412     
  1.590000000000000E-002     2.60808140620086     
  1.600000000000000E-002     2.55078347250923     
  1.610000000000000E-002     2.49304135452405     
  1.620000000000000E-002     2.43489751742724     
  1.630000000000000E-002     2.37639449892056     
  1.640000000000000E-002     2.31757405387605     
  1.650000000000000E-002     2.25847806790036     
  1.660000000000000E-002     2.19914818125857     
  1.670000000000000E-002     2.13962528705504     
  1.680000000000000E-002     2.07995001261213     
  1.690000000000000E-002     2.02016250574208     
  1.700000000000000E-002     1.96030249678224     
  1.710000000000000E-002     1.90040914920237     
  1.720000000000000E-002     1.84052123575607     
  1.730000000000000E-002     1.78067676266854     
  1.740000000000000E-002     1.72091323348057     
  1.750000000000000E-002     1.66126744195108     
  1.760000000000000E-002     1.60177571726933     
  1.770000000000000E-002     1.54247352299082     
  1.780000000000000E-002     1.48339569220776     
  1.790000000000000E-002     1.42457622727117     
  1.800000000000000E-002     1.36604852388348     
  1.810000000000000E-002     1.30784519075304     
  1.820000000000000E-002     1.24999798629003     
  1.830000000000000E-002     1.19253777071308     
  1.840000000000000E-002     1.13549473191107     
  1.850000000000000E-002     1.07889817151629     
  1.860000000000000E-002     1.02277653808547     
  1.870000000000000E-002    0.967157371743719     