 -4.000000000000000E-002    0.000000000000000E+000
 -3.990000000000000E-002    0.000000000000000E+000
 -3.980000000000000E-002    0.000000000000000E+000
 -3.970000000000000E-002    0.000000000000000E+000
 -3.960000000000000E-002    0.000000000000000E+000
 -3.950000000000000E-002    0.000000000000000E+000
 -3.940000000000000E-002    0.000000000000000E+000
 -3.930000000000000E-002    0.000000000000000E+000
 -3.920000000000000E-002    0.000000000000000E+000
 -3.910000000000000E-002    0.000000000000000E+000
 -3.900000000000000E-002    0.000000000000000E+000
 -3.890000000000000E-002    0.000000000000000E+000
 -3.880000000000000E-002    0.000000000000000E+000
 -3.870000000000000E-002    0.000000000000000E+000
 -3.860000000000000E-002    0.000000000000000E+000
 -3.850000000000000E-002    0.000000000000000E+000
 -3.840000000000000E-002    0.000000000000000E+000
 -3.830000000000000E-002    0.000000000000000E+000
 -3.820000000000000E-002    0.000000000000000E+000
 -3.810000000000000E-002    0.000000000000000E+000
 -3.800000000000000E-002    0.000000000000000E+000
 -3.790000000000000E-002    0.000000000000000E+000
 -3.780000000000000E-002    0.000000000000000E+000
 -3.770000000000000E-002    0.000000000000000E+000
 -3.760000000000000E-002    0.000000000000000E+000
 -3.750000000000000E-002    0.000000000000000E+000
 -3.740000000000000E-002    0.000000000000000E+000
 -3.730000000000000E-002    0.000000000000000E+000
 -3.720000000000000E-002    0.000000000000000E+000
 -3.710000000000000E-002    0.000000000000000E+000
 -3.700000000000000E-002    0.000000000000000E+000
 -3.690000000000000E-002    0.000000000000000E+000
 -3.680000000000000E-002    0.000000000000000E+000
 -3.670000000000000E-002    0.000000000000000E+000
 -3.660000000000000E-002    0.000000000000000E+000
 -3.650000000000000E-002    0.000000000000000E+000
 -3.640000000000000E-002    0.000000000000000E+000
 -3.630000000000000E-002    0.000000000000000E+000
 -3.620000000000000E-002    0.000000000000000E+000
 -3.610000000000000E-002    0.000000000000000E+000
 -3.600000000000000E-002    0.000000000000000E+000
 -3.590000000000000E-002    0.000000000000000E+000
 -3.580000000000000E-002    0.000000000000000E+000
 -3.570000000000000E-002    0.000000000000000E+000
 -3.560000000000000E-002    0.000000000000000E+000
 -3.550000000000000E-002    0.000000000000000E+000
 -3.540000000000000E-002    0.000000000000000E+000
 -3.530000000000000E-002    0.000000000000000E+000
 -3.520000000000000E-002    0.000000000000000E+000
 -3.510000000000000E-002    0.000000000000000E+000
 -3.500000000000000E-002    0.000000000000000E+000
 -3.490000000000000E-002    0.000000000000000E+000
 -3.480000000000000E-002    0.000000000000000E+000
 -3.470000000000000E-002    0.000000000000000E+000
 -3.460000000000000E-002    0.000000000000000E+000
 -3.450000000000000E-002    0.000000000000000E+000
 -3.440000000000000E-002    0.000000000000000E+000
 -3.430000000000000E-002    0.000000000000000E+000
 -3.420000000000000E-002    0.000000000000000E+000
 -3.410000000000000E-002    0.000000000000000E+000
 -3.400000000000000E-002    0.000000000000000E+000
 -3.390000000000000E-002    0.000000000000000E+000
 -3.380000000000000E-002    0.000000000000000E+000
 -3.370000000000000E-002    0.000000000000000E+000
 -3.360000000000000E-002    0.000000000000000E+000
 -3.350000000000000E-002    0.000000000000000E+000
 -3.340000000000000E-002    0.000000000000000E+000
 -3.330000000000000E-002    0.000000000000000E+000
 -3.320000000000000E-002    0.000000000000000E+000
 -3.310000000000000E-002    0.000000000000000E+000
 -3.300000000000000E-002    0.000000000000000E+000
 -3.290000000000000E-002    0.000000000000000E+000
 -3.280000000000000E-002    0.000000000000000E+000
 -3.270000000000000E-002    0.000000000000000E+000
 -3.260000000000000E-002    0.000000000000000E+000
 -3.250000000000000E-002    0.000000000000000E+000
 -3.240000000000000E-002    0.000000000000000E+000
 -3.230000000000000E-002    0.000000000000000E+000
 -3.220000000000000E-002    0.000000000000000E+000
 -3.210000000000000E-002    0.000000000000000E+000
 -3.200000000000000E-002    0.000000000000000E+000
 -3.190000000000000E-002    0.000000000000000E+000
 -3.180000000000000E-002    0.000000000000000E+000
 -3.170000000000000E-002    0.000000000000000E+000
 -3.160000000000000E-002    0.000000000000000E+000
 -3.150000000000000E-002    4.464964760684711E-048
 -3.140000000000000E-002    1.355173397137347E-047
 -3.130000000000000E-002    1.969568547366924E-047
 -3.120000000000000E-002    2.121783252596096E-047
 -3.110000000000000E-002    1.827501481756798E-047
 -3.100000000000000E-002    1.132833647531206E-047
 -3.090000000000000E-002   -1.640431108459023E-047
 -3.080000000000000E-002   -3.027966275160909E-047
 -3.070000000000000E-002   -6.045801385809664E-047
 -3.060000000000000E-002   -4.105224023313986E-047
 -3.050000000000000E-002    3.972161801265437E-048
 -3.040000000000000E-002    9.397615787644647E-047
 -3.030000000000000E-002    2.777940270372680E-046
 -3.020000000000000E-002    7.508884570245281E-046
 -3.010000000000000E-002    1.309965350226660E-045
 -3.000000000000000E-002    2.065924877020620E-045
 -2.990000000000000E-002    3.290568712836939E-045
 -2.980000000000000E-002    4.358606923805984E-045
 -2.970000000000000E-002    5.882976447074675E-045
 -2.960000000000000E-002    7.610767946785416E-045
 -2.950000000000000E-002    8.347593180175476E-045
 -2.940000000000000E-002    5.918797834964801E-045
 -2.930000000000000E-002   -2.000861368926456E-045
 -2.920000000000000E-002   -2.174766651542150E-044
 -2.910000000000000E-002   -6.120796636754654E-044
 -2.900000000000000E-002   -1.299653197264567E-043
 -2.890000000000000E-002   -2.414618530637157E-043
 -2.880000000000000E-002   -4.058052210641274E-043
 -2.870000000000000E-002   -6.265928687892505E-043
 -2.860000000000000E-002   -8.913615539277032E-043
 -2.850000000000000E-002   -1.152293892904620E-042
 -2.840000000000000E-002   -1.309973873975091E-042
 -2.830000000000000E-002   -1.186153646011624E-042
 -2.820000000000000E-002   -4.973812118051033E-043
 -2.810000000000000E-002    1.158014398535664E-042
 -2.800000000000000E-002    4.293209937528348E-042
 -2.790000000000000E-002    9.474327296432328E-042
 -2.780000000000000E-002    1.719120408359646E-041
 -2.770000000000000E-002    2.761294891865824E-041
 -2.760000000000000E-002    4.021844888099709E-041
 -2.750000000000000E-002    5.327733071747774E-041
 -2.740000000000000E-002    6.322101382548373E-041
 -2.730000000000000E-002    6.399150131644269E-041
 -2.720000000000000E-002    4.655220735741206E-041
 -2.710000000000000E-002   -1.150303729141527E-042
 -2.700000000000000E-002   -9.336168809823333E-041
 -2.690000000000000E-002   -2.443376921427650E-040
 -2.680000000000000E-002   -4.642838730792125E-040
 -2.670000000000000E-002   -7.530331167401414E-040
 -2.660000000000000E-002   -1.091402075493176E-039
 -2.650000000000000E-002   -1.430809274237019E-039
 -2.640000000000000E-002   -1.682662040901139E-039
 -2.630000000000000E-002   -1.710276376201896E-039
 -2.620000000000000E-002   -1.327477942529745E-039
 -2.610000000000000E-002   -3.092862966399282E-040
 -2.600000000000000E-002    1.579232062734825E-039
 -2.590000000000000E-002    4.530415174865278E-039
 -2.580000000000000E-002    8.614690456775360E-039
 -2.570000000000000E-002    1.367650179116560E-038
 -2.560000000000000E-002    1.921552584851697E-038
 -2.550000000000000E-002    2.427408439260637E-038
 -2.540000000000000E-002    2.736410424045284E-038
 -2.530000000000000E-002    2.647878449702749E-038
 -2.520000000000000E-002    1.924126568121485E-038
 -2.510000000000000E-002    3.240099303693022E-039
 -2.500000000000000E-002   -2.341644225188806E-038
 -2.490000000000000E-002   -6.133370986086250E-038
 -2.480000000000000E-002   -1.089197091247369E-037
 -2.470000000000000E-002   -1.614805324449820E-037
 -2.460000000000000E-002   -2.105664716239664E-037
 -2.450000000000000E-002   -2.438984340278990E-037
 -2.440000000000000E-002   -2.462504856762206E-037
 -2.430000000000000E-002   -2.016336186662372E-037
 -2.420000000000000E-002   -9.697425316599410E-038
 -2.410000000000000E-002    7.282363202327740E-038
 -2.400000000000000E-002    2.990182020834179E-037
 -2.390000000000000E-002    5.535720371402452E-037
 -2.380000000000000E-002    7.859668872854475E-037
 -2.370000000000000E-002    9.247290836413651E-037
 -2.360000000000000E-002    8.863352570127341E-037
 -2.350000000000000E-002    5.937715789309325E-037
 -2.340000000000000E-002    5.694614061216705E-039
 -2.330000000000000E-002   -8.453493509504512E-037
 -2.320000000000000E-002   -1.810911866012025E-036
 -2.310000000000000E-002   -2.590804016032185E-036
 -2.300000000000000E-002   -2.718410174314728E-036
 -2.290000000000000E-002   -1.586263987671586E-036
 -2.280000000000000E-002    1.467495354533927E-036
 -2.270000000000000E-002    6.994374072297209E-036
 -2.260000000000000E-002    1.518516219649452E-035
 -2.250000000000000E-002    2.554532855135172E-035
 -2.240000000000000E-002    3.653520910247420E-035
 -2.230000000000000E-002    4.524924087204258E-035
 -2.220000000000000E-002    4.724633926517270E-035
 -2.210000000000000E-002    3.667641071019283E-035
 -2.200000000000000E-002    6.863695251965219E-036
 -2.190000000000000E-002   -4.850758269068842E-035
 -2.180000000000000E-002   -1.335212151113436E-034
 -2.170000000000000E-002   -2.475063456169527E-034
 -2.160000000000000E-002   -3.820826373992979E-034
 -2.150000000000000E-002   -5.182297468593645E-034
 -2.140000000000000E-002   -6.241048810341020E-034
 -2.130000000000000E-002   -6.545806501494487E-034
 -2.120000000000000E-002   -5.536359503435129E-034
 -2.110000000000000E-002   -2.607154360714104E-034
 -2.100000000000000E-002    2.781137601486867E-034
 -2.090000000000000E-002    1.094021519787946E-033
 -2.080000000000000E-002    2.175141877486049E-033
 -2.070000000000000E-002    3.444431958881266E-033
 -2.060000000000000E-002    4.739588243619548E-033
 -2.050000000000000E-002    5.800610322555621E-033
 -2.040000000000000E-002    6.271897763394128E-033
 -2.030000000000000E-002    5.726197131586413E-033
 -2.020000000000000E-002    3.716765053094234E-033
 -2.010000000000000E-002   -1.387514108648279E-034
 -2.000000000000000E-002   -6.044297993073679E-033
 -1.990000000000000E-002   -1.389015366047155E-032
 -1.980000000000000E-002   -2.311438077162733E-032
 -1.970000000000000E-002   -3.258861191983397E-032
 -1.960000000000000E-002   -4.056432152609649E-032
 -1.950000000000000E-002   -4.472069118767385E-032
 -1.940000000000000E-002   -4.235378016380881E-032
 -1.930000000000000E-002   -3.073627714386570E-032
 -1.920000000000000E-002   -7.655469996045498E-033
 -1.910000000000000E-002    2.789631178170660E-032
 -1.900000000000000E-002    7.494821061028168E-032
 -1.890000000000000E-002    1.298133787723965E-031
 -1.880000000000000E-002    1.855542724004627E-031
 -1.870000000000000E-002    2.318527471900655E-031
 -1.860000000000000E-002    2.554967704011392E-031
 -1.850000000000000E-002    2.416664057010399E-031
 -1.840000000000000E-002    1.761221564794186E-031
 -1.830000000000000E-002    4.826330801926766E-032
 -1.820000000000000E-002   -1.451651127387248E-031
 -1.810000000000000E-002   -3.961654728163809E-031
 -1.800000000000000E-002   -6.820653775008077E-031
 -1.790000000000000E-002   -9.634665133707386E-031
 -1.780000000000000E-002   -1.184562690680010E-030
 -1.770000000000000E-002   -1.276786854389227E-030
 -1.760000000000000E-002   -1.166505806832975E-030
 -1.750000000000000E-002   -7.869939650197160E-031
 -1.740000000000000E-002   -9.418696676190794E-032
 -1.730000000000000E-002    9.152234015280473E-031
 -1.720000000000000E-002    2.185835520341039E-030
 -1.710000000000000E-002    3.589203619709179E-030
 -1.700000000000000E-002    4.917331321281965E-030
 -1.690000000000000E-002    5.888425697276558E-030
 -1.680000000000000E-002    6.168818773319034E-030
 -1.670000000000000E-002    5.413500707758925E-030
 -1.660000000000000E-002    3.325207102010966E-030
 -1.650000000000000E-002   -2.714467808072102E-031
 -1.640000000000000E-002   -5.348433698599762E-030
 -1.630000000000000E-002   -1.159733172518664E-029
 -1.620000000000000E-002   -1.837260003168910E-029
 -1.610000000000000E-002   -2.467312227040818E-029
 -1.600000000000000E-002   -2.917994485418748E-029
 -1.590000000000000E-002   -3.036479971367943E-029
 -1.580000000000000E-002   -2.667687331013301E-029
 -1.570000000000000E-002   -1.680421838014458E-029
 -1.560000000000000E-002    8.114113256983627E-033
 -1.550000000000000E-002    2.361743795720717E-029
 -1.540000000000000E-002    5.267056127770399E-029
 -1.530000000000000E-002    8.438187325120197E-029
 -1.520000000000000E-002    1.144721409662199E-028
 -1.510000000000000E-002    1.373347608075702E-028
 -1.500000000000000E-002    1.464807857414470E-028
 -1.490000000000000E-002    1.352851953674414E-028
 -1.480000000000000E-002    9.801461037554181E-029
 -1.470000000000000E-002    3.106419579915036E-029
 -1.460000000000000E-002   -6.572605527832381E-029
 -1.450000000000000E-002   -1.878599783378014E-028
 -1.440000000000000E-002   -3.253051362471617E-028
 -1.430000000000000E-002   -4.621890601219127E-028
 -1.420000000000000E-002   -5.773027719732276E-028
 -1.410000000000000E-002   -6.455880023322643E-028
 -1.400000000000000E-002   -6.406866894279556E-028
 -1.390000000000000E-002   -5.384929955276248E-028
 -1.380000000000000E-002   -3.214790625720457E-028
 -1.370000000000000E-002    1.661674104678704E-029
 -1.360000000000000E-002    4.663220358699341E-028
 -1.350000000000000E-002    9.989004872936476E-028
 -1.340000000000000E-002    1.564542643098065E-027
 -1.330000000000000E-002    2.093032304514206E-027
 -1.320000000000000E-002    2.497501269532181E-027
 -1.310000000000000E-002    2.681620191590734E-027
 -1.300000000000000E-002    2.550195015524337E-027
 -1.290000000000000E-002    2.022665756032049E-027
 -1.280000000000000E-002    1.048486326852800E-027
 -1.270000000000000E-002   -3.771549297266181E-028
 -1.260000000000000E-002   -2.199253650809501E-027
 -1.250000000000000E-002   -4.292831100805151E-027
 -1.240000000000000E-002   -6.459071826226952E-027
 -1.230000000000000E-002   -8.429955092811184E-027
 -1.220000000000000E-002   -9.883103893675052E-027
 -1.210000000000000E-002   -1.046777786637540E-026
 -1.200000000000000E-002   -9.841849254688640E-027
 -1.190000000000000E-002   -7.718258148184442E-027
 -1.180000000000000E-002   -3.917939878656799E-027
 -1.170000000000000E-002    1.575366210531126E-027
 -1.160000000000000E-002    8.564480659967641E-027
 -1.150000000000000E-002    1.659962602360285E-026
 -1.140000000000000E-002    2.495883174812039E-026
 -1.130000000000000E-002    3.265613930374857E-026
 -1.120000000000000E-002    3.848508130362519E-026
 -1.110000000000000E-002    4.110312822023867E-026
 -1.100000000000000E-002    3.915968969509177E-026
 -1.090000000000000E-002    3.146584949062131E-026
 -1.080000000000000E-002    1.719825185983882E-026
 -1.070000000000000E-002   -3.877303950427793E-027
 -1.060000000000000E-002   -3.118454838574942E-026
 -1.050000000000000E-002   -6.314708693179879E-026
 -1.040000000000000E-002   -9.706606651293102E-026
 -1.030000000000000E-002   -1.291045379273932E-025
 -1.020000000000000E-002   -1.544175984771001E-025
 -1.010000000000000E-002   -1.674613896889542E-025
 -1.000000000000000E-002   -1.625011539389757E-025
 -9.899999999999999E-003   -1.343177996103139E-025
 -9.800000000000000E-003   -7.908425952645448E-026
 -9.699999999999999E-003    4.651634186715167E-027
 -9.599999999999999E-003    1.149786051287963E-025
 -9.500000000000000E-003    2.457651799632760E-025
 -9.399999999999999E-003    3.861007481826773E-025
 -9.299999999999999E-003    5.202151477310073E-025
 -9.200000000000000E-003    6.280498048432428E-025
 -9.099999999999999E-003    6.866169190735498E-025
 -8.999999999999999E-003    6.722150613793573E-025
 -8.900000000000000E-003    5.634661666366909E-025
 -8.799999999999999E-003    3.450086268518600E-025
 -8.699999999999999E-003    1.153084497254250E-026
 -8.600000000000000E-003   -4.283209636654724E-025
 -8.499999999999999E-003   -9.487574784709660E-025
 -8.399999999999999E-003   -1.505062774179886E-024
 -8.300000000000000E-003   -2.033900093699401E-024
 -8.199999999999999E-003   -2.456303618010071E-024
 -8.100000000000000E-003   -2.683746614694910E-024
 -8.000000000000000E-003   -2.627352231221700E-024
 -7.899999999999999E-003   -2.209882231882815E-024
 -7.800000000000000E-003   -1.379637454876547E-024
 -7.699999999999999E-003   -1.248813650603530E-025
 -7.599999999999999E-003    1.513069589046370E-024
 -7.499999999999999E-003    3.430278884987514E-024
 -7.399999999999999E-003    5.456448029546925E-024
 -7.299999999999999E-003    7.359116919660883E-024
 -7.199999999999999E-003    8.857391060492431E-024
 -7.100000000000000E-003    9.645881355101226E-024
 -6.999999999999999E-003    9.428318739003060E-024
 -6.899999999999999E-003    7.958836337434156E-024
 -6.800000000000000E-003    5.087362111211775E-024
 -6.699999999999999E-003    8.041063798263280E-025
 -6.599999999999999E-003   -4.722988003968827E-024
 -6.499999999999999E-003   -1.112452719008216E-023
 -6.399999999999999E-003   -1.782614503355096E-023
 -6.299999999999999E-003   -2.407052484200985E-023
 -6.199999999999999E-003   -2.896817868160806E-023
 -6.100000000000000E-003   -3.157719628070376E-023
 -5.999999999999999E-003   -3.100845975886301E-023
 -5.899999999999999E-003   -2.654875662727153E-023
 -5.800000000000000E-003   -1.779027426947189E-023
 -5.699999999999999E-003   -4.751651607342870E-024
 -5.599999999999999E-003    1.202630699092222E-023
 -5.499999999999999E-003    3.142755824134182E-023
 -5.399999999999999E-003    5.176592778799889E-023
 -5.299999999999999E-003    7.085996335776130E-023
 -5.199999999999999E-003    8.618294104274735E-023
 -5.099999999999999E-003    9.508537616382219E-023
 -4.999999999999999E-003    9.507830957514387E-023
 -4.899999999999999E-003    8.415618085811741E-023
 -4.799999999999999E-003    6.112960280356743E-023
 -4.699999999999999E-003    2.593169899036882E-023
 -4.599999999999999E-003   -2.014175554698630E-023
 -4.499999999999999E-003   -7.429785103638166E-023
 -4.399999999999999E-003   -1.322522124580559E-022
 -4.299999999999999E-003   -1.883999843706039E-022
 -4.199999999999999E-003   -2.361636068738647E-022
 -4.099999999999999E-003   -2.685119806487553E-022
 -3.999999999999999E-003   -2.786267758318534E-022
 -3.899999999999999E-003   -2.606724421132456E-022
 -3.799999999999999E-003   -2.106087411573976E-022
 -3.699999999999999E-003   -1.269705397281228E-022
 -3.599999999999999E-003   -1.153038871316502E-023
 -3.499999999999999E-003    1.302429151518053E-022
 -3.399999999999999E-003    2.890116587101304E-022
 -3.299999999999999E-003    4.517507818807265E-022
 -3.199999999999999E-003    6.023311461881671E-022
 -3.099999999999999E-003    7.225228034772804E-022
 -2.999999999999999E-003    7.934018063303610E-022
 -2.899999999999999E-003    7.971045761455879E-022
 -2.799999999999999E-003    7.188316267143118E-022
 -2.699999999999999E-003    5.489608939303877E-022
 -2.599999999999999E-003    2.850932370121366E-022
 -2.499999999999999E-003   -6.617894770923527E-023
 -2.399999999999999E-003   -4.880068631789128E-022
 -2.299999999999999E-003   -9.527552693265859E-022
 -2.199999999999999E-003   -1.422421062646649E-021
 -2.099999999999999E-003   -1.850171928416442E-021
 -1.999999999999999E-003   -2.183108738982170E-021
 -1.899999999999999E-003   -2.366258890114902E-021
 -1.799999999999999E-003   -2.347685470082233E-021
 -1.699999999999999E-003   -2.084455074766747E-021
 -1.599999999999999E-003   -1.549055037085808E-021
 -1.499999999999999E-003   -7.357012364855608E-022
 -1.399999999999999E-003    3.341472572840577E-022
 -1.299999999999999E-003    1.607838113585842E-021
 -1.199999999999999E-003    2.999927261409571E-021
 -1.099999999999999E-003    4.393660643028311E-021
 -9.999999999999989E-004    5.646100257122111E-021
 -8.999999999999990E-004    6.597190989946106E-021
 -7.999999999999990E-004    7.082703078691378E-021
 -6.999999999999989E-004    6.950533113781941E-021
 -5.999999999999990E-004    6.079355598451641E-021
 -4.999999999999989E-004    4.398122980603784E-021
 -3.999999999999989E-004    1.904477157248549E-021
 -2.999999999999989E-004   -1.320170846719309E-021
 -1.999999999999989E-004   -5.101258046142757E-021
 -9.999999999999892E-005   -9.169619073263609E-021
  1.084202172485504E-018   -1.316979950746902E-020
  1.000000000000011E-004   -1.667925838130381E-020
  2.000000000000011E-004   -1.923861723878124E-020
  3.000000000000011E-004   -2.039192668902851E-020
  4.000000000000011E-004   -1.973462797923472E-020
  5.000000000000011E-004   -1.696559113493355E-020
  6.000000000000011E-004   -1.193849986515836E-020
  7.000000000000011E-004   -4.707024576126338E-021
  8.000000000000011E-004    4.442103984852111E-021
  9.000000000000012E-004    1.497379029303044E-020
  1.000000000000001E-003    2.611182517154813E-020
  1.100000000000001E-003    3.687195960886014E-020
  1.200000000000001E-003    4.612190968257987E-020
  1.300000000000001E-003    5.266687977354644E-020
  1.400000000000001E-003    5.535629603119895E-020
  1.500000000000001E-003    5.320469225841147E-020
  1.600000000000001E-003    4.551712637437579E-020
  1.700000000000001E-003    3.200761227562590E-020
  1.800000000000001E-003    1.289796037792173E-020
  1.900000000000001E-003   -1.101554032819803E-020
  2.000000000000001E-003   -3.833898726729100E-020
  2.100000000000001E-003   -6.711022454656867E-020
  2.200000000000001E-003   -9.488607544441001E-020
  2.300000000000001E-003   -1.188882856660082E-019
  2.400000000000001E-003   -1.362038885918452E-019
  2.500000000000001E-003   -1.440302306883368E-019
  2.600000000000001E-003   -1.399495647853148E-019
  2.700000000000001E-003   -1.222134586517747E-019
  2.800000000000001E-003   -9.001358320770601E-020
  2.900000000000001E-003   -4.371316315959193E-020
  3.000000000000001E-003    1.498703467846078E-020
  3.100000000000001E-003    8.297283357878021E-020
  3.200000000000001E-003    1.557518047915965E-019
  3.300000000000001E-003    2.276144644415491E-019
  3.400000000000001E-003    2.919286676105934E-019
  3.500000000000001E-003    3.415644647020331E-019
  3.600000000000001E-003    3.694355077493419E-019
  3.700000000000001E-003    3.691311313225807E-019
  3.800000000000001E-003    3.356009807950965E-019
  3.900000000000001E-003    2.658428890712125E-019
  4.000000000000001E-003    1.595352410618164E-019
  4.100000000000001E-003    1.954883746675546E-020
  4.200000000000001E-003   -1.477287799616728E-019
  4.300000000000001E-003   -3.323201994030438E-019
  4.400000000000001E-003   -5.208898143721758E-019
  4.500000000000001E-003   -6.973178481690833E-019
  4.600000000000002E-003   -8.436300685120362E-019
  4.700000000000001E-003   -9.412673646385679E-019
  4.800000000000001E-003   -9.726449378607724E-019
  4.900000000000002E-003   -9.229136198263860E-019
  5.000000000000001E-003   -7.818006123150056E-019
  5.100000000000001E-003   -5.453746176895480E-019
  5.200000000000001E-003   -2.175583193123508E-019
  5.300000000000002E-003    1.887998922281590E-019
  5.400000000000001E-003    6.514762035627127E-019
  5.500000000000001E-003    1.139200122770427E-018
  5.600000000000002E-003    1.612873192196835E-018
  5.700000000000001E-003    2.027724221589386E-018
  5.800000000000001E-003    2.336367325551406E-018
  5.900000000000002E-003    2.492636366466504E-018
  6.000000000000001E-003    2.455974814467664E-018
  6.100000000000001E-003    2.196067463406231E-018
  6.200000000000002E-003    1.697326737968310E-018
  6.300000000000002E-003    9.627937241268945E-019
  6.400000000000001E-003    1.699829472711806E-020
  6.500000000000001E-003   -1.092653933356863E-018
  6.600000000000002E-003   -2.296330983537313E-018
  6.700000000000001E-003   -3.504311620748336E-018
  6.800000000000001E-003   -4.611706263936529E-018
  6.900000000000002E-003   -5.505274894120524E-018
  7.000000000000001E-003   -6.072052177621202E-018
  7.100000000000001E-003   -6.209284776564559E-018
  7.200000000000002E-003   -5.834999516179992E-018
  7.300000000000002E-003   -4.898366077896786E-018
  7.400000000000001E-003   -3.388923303138929E-018
  7.500000000000001E-003   -1.343702776130885E-018
  7.600000000000002E-003    1.148661834939232E-018
  7.700000000000001E-003    3.947621102425749E-018
  7.800000000000001E-003    6.864757130480853E-018
  7.900000000000001E-003    9.672463699497700E-018
  8.000000000000002E-003    1.211718851904069E-017
  8.100000000000001E-003    1.393677342285909E-017
  8.200000000000001E-003    1.488103843698716E-017
  8.300000000000002E-003    1.473437346696163E-017
  8.400000000000001E-003    1.333877424209398E-017
  8.500000000000002E-003    1.061551258221894E-017
  8.600000000000002E-003    6.583493234550327E-018
  8.700000000000001E-003    1.372344229092863E-018
  8.800000000000002E-003   -4.771571887510226E-018
  8.900000000000002E-003   -1.148773055724511E-017
  9.000000000000001E-003   -1.831364555106278E-017
  9.100000000000002E-003   -2.470713603616858E-017
  9.200000000000002E-003   -3.007837063777069E-017
  9.300000000000001E-003   -3.383057658740019E-017
  9.400000000000002E-003   -3.540745869497079E-017
  9.500000000000001E-003   -3.434453421130598E-017
  9.600000000000001E-003   -3.032085072674120E-017
  9.700000000000002E-003   -2.320696730001832E-017
  9.800000000000001E-003   -1.310476324402006E-017
  9.900000000000001E-003   -3.745593444896326E-019
  1.000000000000000E-002    1.435460505602024E-017
  1.010000000000000E-002    3.019499942987296E-017
  1.020000000000000E-002    4.603286412651873E-017
  1.030000000000000E-002    6.058455723841522E-017
  1.040000000000000E-002    7.247520611084869E-017
  1.050000000000000E-002    8.033685711283937E-017
  1.060000000000000E-002    8.292104709914423E-017
  1.070000000000000E-002    7.921867767453546E-017
  1.080000000000000E-002    6.857839437007666E-017
  1.090000000000000E-002    5.081343125110745E-017
  1.100000000000000E-002    2.628629989977931E-017
  1.110000000000000E-002   -4.038987690639877E-018
  1.120000000000000E-002   -3.858634490486231E-017
  1.130000000000000E-002   -7.520565609155847E-017
  1.140000000000000E-002   -1.112634179909429E-016
  1.150000000000000E-002   -1.437860372005929E-016
  1.160000000000000E-002   -1.696515222854066E-016
  1.170000000000000E-002   -1.858206201055561E-016
  1.180000000000000E-002   -1.895939343265355E-016
  1.190000000000000E-002   -1.788775752767959E-016
  1.200000000000000E-002   -1.524368080667842E-016
  1.210000000000000E-002   -1.101154637975007E-016
  1.220000000000000E-002   -5.299861048749025E-017
  1.230000000000000E-002    1.650208505229962E-017
  1.240000000000000E-002    9.465762520911211E-017
  1.250000000000000E-002    1.765370063041672E-016
  1.260000000000000E-002    2.562334270246397E-016
  1.270000000000000E-002    3.271977050068560E-016
  1.280000000000000E-002    3.826663572400239E-016
  1.290000000000000E-002    4.161626518958598E-016
  1.300000000000000E-002    4.220409216107807E-016
  1.310000000000000E-002    3.960369526588653E-016
  1.320000000000000E-002    3.357826515552326E-016
  1.330000000000000E-002    2.412406219288913E-016
  1.340000000000000E-002    1.150151307055521E-016
  1.350000000000000E-002   -3.749983043627819E-017
  1.360000000000000E-002   -2.081674612340560E-016
  1.370000000000000E-002   -3.863707262150265E-016
  1.380000000000000E-002   -5.594980940761445E-016
  1.390000000000000E-002   -7.136437498235471E-016
  1.400000000000000E-002   -8.344965918297567E-016
  1.410000000000000E-002   -9.083748932386918E-016
  1.420000000000000E-002   -9.233472748587933E-016
  1.430000000000000E-002   -8.703666954524808E-016
  1.440000000000000E-002   -7.443337320064880E-016
  1.450000000000000E-002   -5.450002383538379E-016
  1.460000000000000E-002   -2.776246635992040E-016
  1.470000000000000E-002    4.670245534703786E-017
  1.480000000000000E-002    4.111299525499179E-016
  1.490000000000000E-002    7.935613264041552E-016
  1.500000000000000E-002    1.167632293732250E-015
  1.510000000000000E-002    1.504137813791666E-015
  1.520000000000000E-002    1.772859176742346E-015
  1.530000000000000E-002    1.944705921033498E-015
  1.540000000000000E-002    1.994051047222476E-015
  1.550000000000000E-002    1.901108572442534E-015
  1.560000000000000E-002    1.654178434723171E-015
  1.570000000000000E-002    1.251571909212770E-015
  1.580000000000000E-002    7.030295131107109E-016
  1.590000000000000E-002    3.045962935647965E-017
  1.600000000000000E-002   -7.321454749990086E-016
  1.610000000000000E-002   -1.539714594876782E-015
  1.620000000000000E-002   -2.338064025006829E-015
  1.630000000000000E-002   -3.066796718506951E-015
  1.640000000000000E-002   -3.663031519149593E-015
  1.650000000000000E-002   -4.065783997283624E-015
  1.660000000000000E-002   -4.220747730114942E-015
  1.670000000000000E-002   -4.085164560749319E-015
  1.680000000000000E-002   -3.632429634912461E-015
  1.690000000000000E-002   -2.856052124455515E-015
  1.700000000000000E-002   -1.772597960076699E-015
  1.710000000000000E-002   -4.232760524209882E-016
  1.720000000000000E-002    1.126113146989648E-015
  1.730000000000000E-002    2.787052243652190E-015
  1.740000000000000E-002    4.452079115979524E-015
  1.750000000000000E-002    6.000396530752463E-015
  1.760000000000000E-002    7.305118935384033E-015
  1.770000000000000E-002    8.241810074125535E-015
  1.780000000000000E-002    8.697835847117139E-015
  1.790000000000000E-002    8.581941167732500E-015
  1.800000000000000E-002    7.833380010429895E-015
  1.810000000000000E-002    6.429888145083762E-015
  1.820000000000000E-002    4.393790236966091E-015
  1.830000000000000E-002    1.795592931046709E-015
  1.840000000000000E-002   -1.245476007356744E-015
  1.850000000000000E-002   -4.564367188263184E-015
  1.860000000000000E-002   -7.956718520171545E-015
  1.870000000000000E-002   -1.118891977199160E-014