 -4.000000000000000E-002    0.000000000000000E+000
 -3.990000000000000E-002    0.000000000000000E+000
 -3.980000000000000E-002    0.000000000000000E+000
 -3.970000000000000E-002    0.000000000000000E+000
 -3.960000000000000E-002    0.000000000000000E+000
 -3.950000000000000E-002    0.000000000000000E+000
 -3.940000000000000E-002    0.000000000000000E+000
 -3.930000000000000E-002    0.000000000000000E+000
 -3.920000000000000E-002    0.000000000000000E+000
 -3.910000000000000E-002    0.000000000000000E+000
 -3.900000000000000E-002    0.000000000000000E+000
 -3.890000000000000E-002    0.000000000000000E+000
 -3.880000000000000E-002    0.000000000000000E+000
 -3.870000000000000E-002    0.000000000000000E+000
 -3.860000000000000E-002    0.000000000000000E+000
 -3.850000000000000E-002    0.000000000000000E+000
 -3.840000000000000E-002    0.000000000000000E+000
 -3.830000000000000E-002    0.000000000000000E+000
 -3.820000000000000E-002    0.000000000000000E+000
 -3.810000000000000E-002    0.000000000000000E+000
 -3.800000000000000E-002    0.000000000000000E+000
 -3.790000000000000E-002    0.000000000000000E+000
 -3.780000000000000E-002    0.000000000000000E+000
 -3.770000000000000E-002    0.000000000000000E+000
 -3.760000000000000E-002    0.000000000000000E+000
 -3.750000000000000E-002    0.000000000000000E+000
 -3.740000000000000E-002    0.000000000000000E+000
 -3.730000000000000E-002    0.000000000000000E+000
 -3.720000000000000E-002    0.000000000000000E+000
 -3.710000000000000E-002    0.000000000000000E+000
 -3.700000000000000E-002    0.000000000000000E+000
 -3.690000000000000E-002    0.000000000000000E+000
 -3.680000000000000E-002    0.000000000000000E+000
 -3.670000000000000E-002    0.000000000000000E+000
 -3.660000000000000E-002    0.000000000000000E+000
 -3.650000000000000E-002    0.000000000000000E+000
 -3.640000000000000E-002    0.000000000000000E+000
 -3.630000000000000E-002    0.000000000000000E+000
 -3.620000000000000E-002    0.000000000000000E+000
 -3.610000000000000E-002    0.000000000000000E+000
 -3.600000000000000E-002    0.000000000000000E+000
 -3.590000000000000E-002    0.000000000000000E+000
 -3.580000000000000E-002    0.000000000000000E+000
 -3.570000000000000E-002    0.000000000000000E+000
 -3.560000000000000E-002    0.000000000000000E+000
 -3.550000000000000E-002    0.000000000000000E+000
 -3.540000000000000E-002    0.000000000000000E+000
 -3.530000000000000E-002    0.000000000000000E+000
 -3.520000000000000E-002    0.000000000000000E+000
 -3.510000000000000E-002    0.000000000000000E+000
 -3.500000000000000E-002    0.000000000000000E+000
 -3.490000000000000E-002    0.000000000000000E+000
 -3.480000000000000E-002    0.000000000000000E+000
 -3.470000000000000E-002    0.000000000000000E+000
 -3.460000000000000E-002    0.000000000000000E+000
 -3.450000000000000E-002    0.000000000000000E+000
 -3.440000000000000E-002    0.000000000000000E+000
 -3.430000000000000E-002    0.000000000000000E+000
 -3.420000000000000E-002    0.000000000000000E+000
 -3.410000000000000E-002    0.000000000000000E+000
 -3.400000000000000E-002    0.000000000000000E+000
 -3.390000000000000E-002    0.000000000000000E+000
 -3.380000000000000E-002    0.000000000000000E+000
 -3.370000000000000E-002    0.000000000000000E+000
 -3.360000000000000E-002    0.000000000000000E+000
 -3.350000000000000E-002    0.000000000000000E+000
 -3.340000000000000E-002    0.000000000000000E+000
 -3.330000000000000E-002    0.000000000000000E+000
 -3.320000000000000E-002    0.000000000000000E+000
 -3.310000000000000E-002    0.000000000000000E+000
 -3.300000000000000E-002    0.000000000000000E+000
 -3.290000000000000E-002    0.000000000000000E+000
 -3.280000000000000E-002    0.000000000000000E+000
 -3.270000000000000E-002    0.000000000000000E+000
 -3.260000000000000E-002    0.000000000000000E+000
 -3.250000000000000E-002    0.000000000000000E+000
 -3.240000000000000E-002    0.000000000000000E+000
 -3.230000000000000E-002    0.000000000000000E+000
 -3.220000000000000E-002    0.000000000000000E+000
 -3.210000000000000E-002    0.000000000000000E+000
 -3.200000000000000E-002    0.000000000000000E+000
 -3.190000000000000E-002    0.000000000000000E+000
 -3.180000000000000E-002    0.000000000000000E+000
 -3.170000000000000E-002    0.000000000000000E+000
 -3.160000000000000E-002    0.000000000000000E+000
 -3.150000000000000E-002    0.000000000000000E+000
 -3.140000000000000E-002    0.000000000000000E+000
 -3.130000000000000E-002    0.000000000000000E+000
 -3.120000000000000E-002    0.000000000000000E+000
 -3.110000000000000E-002    0.000000000000000E+000
 -3.100000000000000E-002    0.000000000000000E+000
 -3.090000000000000E-002    0.000000000000000E+000
 -3.080000000000000E-002    0.000000000000000E+000
 -3.070000000000000E-002    0.000000000000000E+000
 -3.060000000000000E-002    0.000000000000000E+000
 -3.050000000000000E-002    0.000000000000000E+000
 -3.040000000000000E-002    0.000000000000000E+000
 -3.030000000000000E-002    0.000000000000000E+000
 -3.020000000000000E-002    0.000000000000000E+000
 -3.010000000000000E-002    0.000000000000000E+000
 -3.000000000000000E-002    0.000000000000000E+000
 -2.990000000000000E-002    0.000000000000000E+000
 -2.980000000000000E-002    0.000000000000000E+000
 -2.970000000000000E-002    0.000000000000000E+000
 -2.960000000000000E-002    0.000000000000000E+000
 -2.950000000000000E-002    0.000000000000000E+000
 -2.940000000000000E-002    0.000000000000000E+000
 -2.930000000000000E-002    0.000000000000000E+000
 -2.920000000000000E-002    0.000000000000000E+000
 -2.910000000000000E-002    0.000000000000000E+000
 -2.900000000000000E-002    0.000000000000000E+000
 -2.890000000000000E-002    0.000000000000000E+000
 -2.880000000000000E-002    0.000000000000000E+000
 -2.870000000000000E-002    0.000000000000000E+000
 -2.860000000000000E-002    0.000000000000000E+000
 -2.850000000000000E-002    0.000000000000000E+000
 -2.840000000000000E-002    0.000000000000000E+000
 -2.830000000000000E-002    0.000000000000000E+000
 -2.820000000000000E-002    0.000000000000000E+000
 -2.810000000000000E-002    0.000000000000000E+000
 -2.800000000000000E-002    0.000000000000000E+000
 -2.790000000000000E-002    0.000000000000000E+000
 -2.780000000000000E-002    0.000000000000000E+000
 -2.770000000000000E-002    0.000000000000000E+000
 -2.760000000000000E-002    0.000000000000000E+000
 -2.750000000000000E-002    0.000000000000000E+000
 -2.740000000000000E-002    0.000000000000000E+000
 -2.730000000000000E-002    0.000000000000000E+000
 -2.720000000000000E-002    0.000000000000000E+000
 -2.710000000000000E-002    0.000000000000000E+000
 -2.700000000000000E-002    0.000000000000000E+000
 -2.690000000000000E-002    0.000000000000000E+000
 -2.680000000000000E-002    0.000000000000000E+000
 -2.670000000000000E-002    0.000000000000000E+000
 -2.660000000000000E-002    0.000000000000000E+000
 -2.650000000000000E-002    0.000000000000000E+000
 -2.640000000000000E-002    0.000000000000000E+000
 -2.630000000000000E-002    0.000000000000000E+000
 -2.620000000000000E-002    0.000000000000000E+000
 -2.610000000000000E-002    0.000000000000000E+000
 -2.600000000000000E-002    0.000000000000000E+000
 -2.590000000000000E-002    0.000000000000000E+000
 -2.580000000000000E-002    0.000000000000000E+000
 -2.570000000000000E-002    0.000000000000000E+000
 -2.560000000000000E-002    0.000000000000000E+000
 -2.550000000000000E-002    0.000000000000000E+000
 -2.540000000000000E-002    0.000000000000000E+000
 -2.530000000000000E-002    0.000000000000000E+000
 -2.520000000000000E-002    5.729748743698578E-047
 -2.510000000000000E-002    1.145949748739716E-046
 -2.500000000000000E-002    1.718924623109574E-046
 -2.490000000000000E-002   -2.084015199284348E-048
 -2.480000000000000E-002   -2.333579801465118E-046
 -2.470000000000000E-002   -9.855780612233292E-046
 -2.460000000000000E-002   -6.872891358658597E-046
 -2.450000000000000E-002   -9.724404412674341E-047
 -2.440000000000000E-002   -8.955890385328752E-046
 -2.430000000000000E-002   -9.396299366629053E-046
 -2.420000000000000E-002   -2.828443962421504E-046
 -2.410000000000000E-002    7.121766262258318E-046
 -2.400000000000000E-002    2.967461658929531E-045
 -2.390000000000000E-002    5.591485769125563E-045
 -2.380000000000000E-002    1.047859275526942E-044
 -2.370000000000000E-002    1.877681017965075E-044
 -2.360000000000000E-002    2.884140351039883E-044
 -2.350000000000000E-002    3.906270068112305E-044
 -2.340000000000000E-002    4.703858227428826E-044
 -2.330000000000000E-002    4.734029621189538E-044
 -2.320000000000000E-002    3.112653107822283E-044
 -2.310000000000000E-002   -1.109153150709722E-044
 -2.300000000000000E-002   -9.314381194437134E-044
 -2.290000000000000E-002   -2.225774963620923E-043
 -2.280000000000000E-002   -4.047343525877700E-043
 -2.270000000000000E-002   -6.291394490526447E-043
 -2.260000000000000E-002   -8.678318212923178E-043
 -2.250000000000000E-002   -1.062046379922506E-042
 -2.240000000000000E-002   -1.118618269215583E-042
 -2.230000000000000E-002   -9.093419079083329E-043
 -2.220000000000000E-002   -2.778907113030668E-043
 -2.210000000000000E-002    9.346232514991333E-043
 -2.200000000000000E-002    2.853773819479402E-042
 -2.190000000000000E-002    5.503180725369587E-042
 -2.180000000000000E-002    8.735900936818179E-042
 -2.170000000000000E-002    1.213841437233382E-041
 -2.160000000000000E-002    1.495821290086877E-041
 -2.150000000000000E-002    1.605914951386453E-041
 -2.140000000000000E-002    1.395328304456795E-041
 -2.130000000000000E-002    6.939116315814855E-042
 -2.120000000000000E-002   -6.606562876240051E-042
 -2.110000000000000E-002   -2.777111159941471E-041
 -2.100000000000000E-002   -5.648137296039727E-041
 -2.090000000000000E-002   -9.078164113007023E-041
 -2.080000000000000E-002   -1.261170462814845E-040
 -2.070000000000000E-002   -1.548188856089356E-040
 -2.060000000000000E-002   -1.660434874503640E-040
 -2.050000000000000E-002   -1.464472471678508E-040
 -2.040000000000000E-002   -8.186621617684379E-041
 -2.030000000000000E-002    3.981055179931192E-041
 -2.020000000000000E-002    2.245968222200530E-040
 -2.010000000000000E-002    4.675007251326841E-040
 -2.000000000000000E-002    7.474579912540616E-040
 -1.990000000000000E-002    1.023236371668192E-039
 -1.980000000000000E-002    1.231823826998258E-039
 -1.970000000000000E-002    1.291052011672880E-039
 -1.960000000000000E-002    1.108085887267441E-039
 -1.950000000000000E-002    5.948817398861484E-040
 -1.940000000000000E-002   -3.094068037172207E-040
 -1.930000000000000E-002   -1.610790946064197E-039
 -1.920000000000000E-002   -3.231433297684222E-039
 -1.910000000000000E-002   -4.985420726098377E-039
 -1.900000000000000E-002   -6.567446871110054E-039
 -1.890000000000000E-002   -7.563434670903430E-039
 -1.880000000000000E-002   -7.491307433438320E-039
 -1.870000000000000E-002   -5.876804866022141E-039
 -1.860000000000000E-002   -2.363089682237715E-039
 -1.850000000000000E-002    3.155959869144317E-039
 -1.840000000000000E-002    1.039955599303289E-038
 -1.830000000000000E-002    1.859225858086841E-038
 -1.820000000000000E-002    2.642392407937484E-038
 -1.810000000000000E-002    3.211813783335271E-038
 -1.800000000000000E-002    3.364201668855706E-038
 -1.790000000000000E-002    2.906987929932827E-038
 -1.780000000000000E-002    1.708000244532930E-038
 -1.770000000000000E-002   -2.480400108650742E-039
 -1.760000000000000E-002   -2.807505984344932E-038
 -1.750000000000000E-002   -5.615865800364833E-038
 -1.740000000000000E-002   -8.123345488106776E-038
 -1.730000000000000E-002   -9.644341177965157E-038
 -1.720000000000000E-002   -9.480075182902612E-038
 -1.710000000000000E-002   -7.101438536645325E-038
 -1.700000000000000E-002   -2.371042571017426E-038
 -1.690000000000000E-002    4.237845467607743E-038
 -1.680000000000000E-002    1.148840931385786E-037
 -1.670000000000000E-002    1.737037770391080E-037
 -1.660000000000000E-002    1.931009331269002E-037
 -1.650000000000000E-002    1.465668548918254E-037
 -1.640000000000000E-002    1.453169191139190E-038
 -1.630000000000000E-002   -2.057314120162076E-037
 -1.620000000000000E-002   -4.896250043457853E-037
 -1.610000000000000E-002   -7.768128645568298E-037
 -1.600000000000000E-002   -9.683749796212939E-037
 -1.590000000000000E-002   -9.334164866222239E-037
 -1.580000000000000E-002   -5.285518426721368E-037
 -1.570000000000000E-002    3.679175449637088E-037
 -1.560000000000000E-002    1.808243089249160E-036
 -1.550000000000000E-002    3.719182464219226E-036
 -1.540000000000000E-002    5.847964562047702E-036
 -1.530000000000000E-002    7.725566721359020E-036
 -1.520000000000000E-002    8.666259966824299E-036
 -1.510000000000000E-002    7.823226834884810E-036
 -1.500000000000000E-002    4.316311482936887E-036
 -1.490000000000000E-002   -2.561607460451980E-036
 -1.480000000000000E-002   -1.306917841172353E-035
 -1.470000000000000E-002   -2.670344323647155E-035
 -1.460000000000000E-002   -4.190544024307916E-035
 -1.450000000000000E-002   -5.586507245116933E-035
 -1.440000000000000E-002   -6.452251733017153E-035
 -1.430000000000000E-002   -6.286552720237418E-035
 -1.420000000000000E-002   -4.560185346670020E-035
 -1.410000000000000E-002   -8.237967672512455E-036
 -1.400000000000000E-002    5.148289001055300E-035
 -1.390000000000000E-002    1.319344063973036E-034
 -1.380000000000000E-002    2.260223855957142E-034
 -1.370000000000000E-002    3.200443116452516E-034
 -1.360000000000000E-002    3.934559947484730E-034
 -1.350000000000000E-002    4.200215168372913E-034
 -1.340000000000000E-002    3.707389883669206E-034
 -1.330000000000000E-002    2.187270677055441E-034
 -1.320000000000000E-002   -5.408053412328446E-035
 -1.310000000000000E-002   -4.490390341411624E-034
 -1.300000000000000E-002   -9.428211585029143E-034
 -1.290000000000000E-002   -1.481001532590212E-033
 -1.280000000000000E-002   -1.975205725415580E-033
 -1.270000000000000E-002   -2.305948863012670E-033
 -1.260000000000000E-002   -2.333017159316286E-033
 -1.250000000000000E-002   -1.914479572630607E-033
 -1.240000000000000E-002   -9.341191672259107E-034
 -1.230000000000000E-002    6.647016086898193E-034
 -1.220000000000000E-002    2.842811414300155E-033
 -1.210000000000000E-002    5.432799379915488E-033
 -1.200000000000000E-002    8.118228980354527E-033
 -1.190000000000000E-002    1.043313216264700E-032
 -1.180000000000000E-002    1.178982997999184E-032
 -1.170000000000000E-002    1.154074035827110E-032
 -1.160000000000000E-002    9.075503846041884E-033
 -1.150000000000000E-002    3.948546401044568E-033
 -1.140000000000000E-002   -3.975297312905446E-033
 -1.130000000000000E-002   -1.437733384619851E-032
 -1.120000000000000E-002   -2.637085912154928E-032
 -1.110000000000000E-002   -3.844761181714620E-032
 -1.100000000000000E-002   -4.851610278592356E-032
 -1.090000000000000E-002   -5.405726982778483E-032
 -1.080000000000000E-002   -5.241057859251252E-032
 -1.070000000000000E-002   -4.118495817911704E-032
 -1.060000000000000E-002   -1.876513117180456E-032
 -1.050000000000000E-002    1.514225303370866E-032
 -1.040000000000000E-002    5.900312314072683E-032
 -1.030000000000000E-002    1.090898909394568E-031
 -1.020000000000000E-002    1.593607045740684E-031
 -1.010000000000000E-002    2.016813955946644E-031
 -1.000000000000000E-002    2.264599162613664E-031
 -9.899999999999999E-003    2.237161501632748E-031
 -9.800000000000000E-003    1.845462555763234E-031
 -9.699999999999999E-003    1.028659211555308E-031
 -9.599999999999999E-003   -2.275916448852730E-032
 -9.500000000000000E-003   -1.874535242377063E-031
 -9.399999999999999E-003   -3.788437811940126E-031
 -9.299999999999999E-003   -5.766507455785010E-031
 -9.200000000000000E-003   -7.533350405085680E-031
 -9.099999999999999E-003   -8.759836914561426E-031
 -8.999999999999999E-003   -9.094955273018432E-031
 -8.900000000000000E-003   -8.209551828981739E-031
 -8.799999999999999E-003   -5.848976502496339E-031
 -8.699999999999999E-003   -1.889782938520491E-031
 -8.600000000000000E-003    3.605996489103807E-031
 -8.499999999999999E-003    1.034660017856684E-030
 -8.399999999999999E-003    1.778436677712801E-030
 -8.300000000000000E-003    2.511531226997682E-030
 -8.199999999999999E-003    3.131083232852754E-030
 -8.100000000000000E-003    3.518578075671107E-030
 -8.000000000000000E-003    3.550419029844388E-030
 -7.899999999999999E-003    3.112034128658636E-030
 -7.800000000000000E-003    2.114867088799763E-030
 -7.699999999999999E-003    5.151555662425523E-031
 -7.599999999999999E-003   -1.667081965583355E-030
 -7.499999999999999E-003   -4.330906133708465E-030
 -7.399999999999999E-003   -7.281668860574291E-030
 -7.299999999999999E-003   -1.022545575505746E-029
 -7.199999999999999E-003   -1.277384605143172E-029
 -7.100000000000000E-003   -1.446201999101164E-029
 -6.999999999999999E-003   -1.478277218846939E-029
 -6.899999999999999E-003   -1.323796415299832E-029
 -6.800000000000000E-003   -9.407213733690175E-030
 -6.699999999999999E-003   -3.031142464772249E-030
 -6.599999999999999E-003    5.896746137569488E-030
 -6.499999999999999E-003    1.703922210131265E-029
 -6.399999999999999E-003    2.963906455393046E-029
 -6.299999999999999E-003    4.247425574538440E-029
 -6.199999999999999E-003    5.386351697023516E-029
 -6.100000000000000E-003    6.174073814491968E-029
 -5.999999999999999E-003    6.381326560822852E-029
 -5.899999999999999E-003    5.781150978120638E-029
 -5.800000000000000E-003    4.182554622613461E-029
 -5.699999999999999E-003    1.470878907575567E-029
 -5.599999999999999E-003   -2.348938147663280E-029
 -5.499999999999999E-003   -7.111868036920148E-029
 -5.399999999999999E-003   -1.246231579852988E-028
 -5.299999999999999E-003   -1.784186616708483E-028
 -5.199999999999999E-003   -2.250335080391672E-028
 -5.099999999999999E-003   -2.555792829635332E-028
 -4.999999999999999E-003   -2.605881186701880E-028
 -4.899999999999999E-003   -2.312072020487885E-028
 -4.799999999999999E-003   -1.606818160321863E-028
 -4.699999999999999E-003   -4.599179130800361E-029
 -4.599999999999999E-003    1.105591908609851E-028
 -4.499999999999999E-003    3.000552184157368E-028
 -4.399999999999999E-003    5.062631454640776E-028
 -4.299999999999999E-003    7.057856861023515E-028
 -4.199999999999999E-003    8.692956387007341E-028
 -4.099999999999999E-003    9.639722119124148E-028
 -3.999999999999999E-003    9.571145221437907E-028
 -3.899999999999999E-003    8.207256280458719E-028
 -3.799999999999999E-003    5.366636594318171E-028
 -3.699999999999999E-003    1.017726990774908E-028
 -3.599999999999999E-003   -4.677367146683447E-028
 -3.499999999999999E-003   -1.133455367627971E-027
 -3.399999999999999E-003   -1.834256921874143E-027
 -3.299999999999999E-003   -2.488708292557750E-027
 -3.199999999999999E-003   -3.000753093989552E-027
 -3.099999999999999E-003   -3.268639653080998E-027
 -2.999999999999999E-003   -3.196618436029404E-027
 -2.899999999999999E-003   -2.708468259048387E-027
 -2.799999999999999E-003   -1.761491503981040E-027
 -2.699999999999999E-003   -3.593018030112499E-028
 -2.599999999999999E-003    1.438417135576895E-027
 -2.499999999999999E-003    3.510937235557410E-027
 -2.399999999999999E-003    5.677752741394778E-027
 -2.299999999999999E-003    7.707030279701268E-027
 -2.199999999999999E-003    9.331490898190221E-027
 -2.099999999999999E-003    1.027117145911468E-026
 -1.999999999999999E-003    1.026170048625862E-026
 -1.899999999999999E-003    9.085987206714085E-027
 -1.799999999999999E-003    6.606644994591610E-027
 -1.699999999999999E-003    2.796131523307845E-027
 -1.599999999999999E-003   -2.238518717586656E-027
 -1.499999999999999E-003   -8.239327473084838E-027
 -1.399999999999999E-003   -1.479199962884074E-026
 -1.299999999999999E-003   -2.133364924845305E-026
 -1.199999999999999E-003   -2.717517244159564E-026
 -1.099999999999999E-003   -3.153916046125020E-026
 -9.999999999999989E-004   -3.361356352779802E-026
 -8.999999999999990E-004   -3.262051141513336E-026
 -7.999999999999990E-004   -2.789864454951960E-026
 -6.999999999999989E-004   -1.899597818459234E-026
 -5.999999999999990E-004   -5.768454361171855E-027
 -4.999999999999989E-004    1.152294444918641E-026
 -3.999999999999989E-004    3.212633010386490E-026
 -2.999999999999989E-004    5.473689946199901E-026
 -1.999999999999989E-004    7.747380287344664E-026
 -9.999999999999892E-005    9.791225613229413E-026
  1.084202172485504E-018    1.131867896117257E-025
  1.000000000000011E-004    1.201783647978619E-025
  2.000000000000011E-004    1.157917647203856E-025
  3.000000000000011E-004    9.731952227274348E-026
  4.000000000000011E-004    6.287556970848394E-026
  5.000000000000011E-004    1.186579793427411E-026
  6.000000000000011E-004   -5.455350689190002E-026
  7.000000000000011E-004   -1.330933027989687E-025
  8.000000000000011E-004   -2.180997066719245E-025
  9.000000000000012E-004   -3.015491247843837E-025
  1.000000000000001E-003   -3.733398772621796E-025
  1.100000000000001E-003   -4.219298159077702E-025
  1.200000000000001E-003   -4.353365324093566E-025
  1.300000000000001E-003   -4.024727819705909E-025
  1.400000000000001E-003   -3.147369224203324E-025
  1.500000000000001E-003   -1.677228778233649E-025
  1.600000000000001E-003    3.713684337793198E-026
  1.700000000000001E-003    2.912205920994657E-025
  1.800000000000001E-003    5.779027739450143E-025
  1.900000000000001E-003    8.725081238726552E-025
  2.000000000000001E-003    1.143226272539649E-024
  2.100000000000001E-003    1.353101659452245E-024
  2.200000000000001E-003    1.463105829181555E-024
  2.300000000000001E-003    1.436170189628630E-024
  2.400000000000001E-003    1.241914821654533E-024
  2.500000000000001E-003    8.616720072764808E-025
  2.600000000000001E-003    2.932887138707965E-025
  2.700000000000001E-003   -4.448863692977938E-025
  2.800000000000001E-003   -1.311444945058793E-024
  2.900000000000001E-003   -2.241364832158182E-024
  3.000000000000001E-003   -3.147918395401996E-024
  3.100000000000001E-003   -3.927325414386248E-024
  3.200000000000001E-003   -4.466193897609068E-024
  3.300000000000001E-003   -4.651510954355644E-024
  3.400000000000001E-003   -4.382651316881993E-024
  3.500000000000001E-003   -3.584572515565703E-024
  3.600000000000001E-003   -2.221106998570067E-024
  3.700000000000001E-003   -3.070576408461850E-025
  3.800000000000001E-003    2.082320539163593E-024
  3.900000000000001E-003    4.805889141864706E-024
  4.000000000000001E-003    7.656586691515771E-024
  4.100000000000001E-003    1.036789205732298E-023
  4.200000000000001E-003    1.262754610488496E-023
  4.300000000000001E-003    1.409878689693283E-023
  4.400000000000001E-003    1.444872505632827E-023
  4.500000000000001E-003    1.338275071134140E-023
  4.600000000000002E-003    1.068303982113206E-023
  4.700000000000001E-003    6.248375705614550E-024
  4.800000000000001E-003    1.316692098337260E-025
  4.900000000000002E-003   -7.429116018292312E-024
  5.000000000000001E-003   -1.599139720456128E-023
  5.100000000000001E-003   -2.490463462823520E-023
  5.200000000000001E-003   -3.332766919597477E-023
  5.300000000000002E-003   -4.027021952943331E-023
  5.400000000000001E-003   -4.466033360449468E-023
  5.500000000000001E-003   -4.543724657296106E-023
  5.600000000000002E-003   -4.166612907093079E-023
  5.700000000000001E-003   -3.266781388001049E-023
  5.800000000000001E-003   -1.815309037753347E-023
  5.900000000000002E-003    1.652155700609941E-024
  6.000000000000001E-003    2.590715552612049E-023
  6.100000000000001E-003    5.309930872947553E-023
  6.200000000000002E-003    8.104703375546713E-023
  6.300000000000002E-003    1.069767797828100E-022
  6.400000000000001E-003    1.276834775591177E-022
  6.500000000000001E-003    1.397763959169947E-022
  6.600000000000002E-003    1.400029810773373E-022
  6.700000000000001E-003    1.256325431762576E-022
  6.800000000000001E-003    9.487056878018457E-023
  6.900000000000002E-003    4.726441696904669E-023
  7.000000000000001E-003   -1.594685738133467E-023
  7.100000000000001E-003   -9.158967870945519E-023
  7.200000000000002E-003   -1.744704380055330E-022
  7.300000000000002E-003   -2.574905656015604E-022
  7.400000000000001E-003   -3.319923440412824E-022
  7.500000000000001E-003   -3.883461578622426E-022
  7.600000000000002E-003   -4.167655659315959E-022
  7.700000000000001E-003   -4.083089760457461E-022
  7.800000000000001E-003   -3.559982615465583E-022
  7.900000000000001E-003   -2.559582084968541E-022
  8.000000000000002E-003   -1.084604975705437E-022
  8.100000000000001E-003    8.125719319237325E-023
  8.200000000000001E-003    3.025261080784087E-022
  8.300000000000002E-003    5.392526643862192E-022
  8.400000000000001E-003    7.704857010085930E-022
  8.500000000000002E-003    9.715934333198436E-022
  8.600000000000002E-003    1.116045680891801E-021
  8.700000000000001E-003    1.177734671817140E-021
  8.800000000000002E-003    1.133700569968480E-021
  8.900000000000002E-003    9.670644699755122E-022
  9.000000000000001E-003    6.699135518173481E-022
  9.100000000000002E-003    2.458419370634797E-022
  9.200000000000002E-003   -2.881693925731344E-022
  9.300000000000001E-003   -9.008433835761168E-022
  9.400000000000002E-003   -1.546941253486769E-021
  9.500000000000001E-003   -2.169041229819525E-021
  9.600000000000001E-003   -2.700859579530785E-021
  9.700000000000002E-003   -3.072081281341851E-021
  9.800000000000001E-003   -3.214513144887442E-021
  9.900000000000001E-003   -3.069210527937428E-021
  1.000000000000000E-002   -2.594065329537208E-021
  1.010000000000000E-002   -1.771201964728655E-021
  1.020000000000000E-002   -6.134191608140931E-022
  1.030000000000000E-002    8.311371196027114E-022
  1.040000000000000E-002    2.476870522792401E-021
  1.050000000000000E-002    4.201905298758672E-021
  1.060000000000000E-002    5.853050198600932E-021
  1.070000000000000E-002    7.254802550507683E-021
  1.080000000000000E-002    8.222283210655421E-021
  1.090000000000000E-002    8.577588559189103E-021
  1.100000000000000E-002    8.168597520612173E-021
  1.110000000000000E-002    6.888843324255702E-021
  1.120000000000000E-002    4.696678308478628E-021
  1.130000000000000E-002    1.631693890305160E-021
  1.140000000000000E-002   -2.173767498972327E-021
  1.150000000000000E-002   -6.490086558347146E-021
  1.160000000000000E-002   -1.099460316977287E-020
  1.170000000000000E-002   -1.528584363427745E-020
  1.180000000000000E-002   -1.890819326910415E-020
  1.190000000000000E-002   -2.138649812701682E-020
  1.200000000000000E-002   -2.226898885810650E-020
  1.210000000000000E-002   -2.117578824235237E-020
  1.220000000000000E-002   -1.784919477313743E-020
  1.230000000000000E-002   -1.220107126931340E-020
  1.240000000000000E-002   -4.352125858828150E-021
  1.250000000000000E-002    5.342259986234509E-021
  1.260000000000000E-002    1.628458281371435E-020
  1.270000000000000E-002    2.765013574290978E-020
  1.280000000000000E-002    3.842671655878907E-020
  1.290000000000000E-002    4.747954901557679E-020
  1.300000000000000E-002    5.363940031188070E-020
  1.310000000000000E-002    5.580926165342611E-020
  1.320000000000000E-002    5.308237329879798E-020
  1.330000000000000E-002    4.486202899270066E-020
  1.340000000000000E-002    3.097186323066274E-020
  1.350000000000000E-002    1.174440280609147E-020
  1.360000000000000E-002   -1.192429967322345E-020
  1.370000000000000E-002   -3.856477250168705E-020
  1.380000000000000E-002   -6.617728505643072E-020
  1.390000000000000E-002   -9.233263651291675E-020
  1.400000000000000E-002   -1.143303482481839E-019
  1.410000000000000E-002   -1.294085779159677E-019
  1.420000000000000E-002   -1.349942062282120E-019
  1.430000000000000E-002   -1.289759076975874E-019
  1.440000000000000E-002   -1.099782089349036E-019
  1.450000000000000E-002   -7.761075271847614E-020
  1.460000000000000E-002   -3.266553971459890E-020
  1.470000000000000E-002    2.276483524114921E-020
  1.480000000000000E-002    8.527150167737086E-020
  1.490000000000000E-002    1.502339735205191E-019
  1.500000000000000E-002    2.120545645498295E-019
  1.510000000000000E-002    2.645211060819700E-019
  1.520000000000000E-002    3.012845940168773E-019
  1.530000000000000E-002    3.164253871154649E-019
  1.540000000000000E-002    3.050692611659225E-019
  1.550000000000000E-002    2.640040009087214E-019
  1.560000000000000E-002    1.922391368458593E-019
  1.570000000000000E-002    9.144817704914788E-020
  1.580000000000000E-002   -3.376605046985181E-020
  1.590000000000000E-002   -1.758353434008804E-019
  1.600000000000000E-002   -3.244581633601633E-019
  1.610000000000000E-002   -4.671200266824119E-019
  1.620000000000000E-002   -5.898986911445360E-019
  1.630000000000000E-002   -6.785233538805136E-019
  1.640000000000000E-002   -7.196292417534992E-019
  1.650000000000000E-002   -7.021213857113639E-019
  1.660000000000000E-002   -6.185382215058407E-019
  1.670000000000000E-002   -4.662887807676022E-019
  1.680000000000000E-002   -2.486307809682499E-019
  1.690000000000000E-002    2.474045621078319E-020
  1.700000000000000E-002    3.376047555304504E-019
  1.710000000000000E-002    6.677145124423423E-019
  1.720000000000000E-002    9.879181040224034E-019
  1.730000000000000E-002    1.267898826791578E-018
  1.740000000000000E-002    1.476460543519658E-018
  1.750000000000000E-002    1.584229937204005E-018
  1.760000000000000E-002    1.566589196807415E-018
  1.770000000000000E-002    1.406603102965728E-018
  1.780000000000000E-002    1.097672400872348E-018
  1.790000000000000E-002    6.456318056603031E-019
  1.800000000000000E-002    7.002028137708285E-020
  1.810000000000000E-002   -5.957088388633835E-019
  1.820000000000000E-002   -1.305208683184002E-018
  1.830000000000000E-002   -2.001570716207086E-018
  1.840000000000000E-002   -2.620941231726877E-018
  1.850000000000000E-002   -3.097273737820221E-018
  1.860000000000000E-002   -3.367944725109515E-018
  1.870000000000000E-002   -3.379845124371463E-018