 -4.000000000000000E-002    0.000000000000000E+000
 -3.990000000000000E-002    0.000000000000000E+000
 -3.980000000000000E-002    0.000000000000000E+000
 -3.970000000000000E-002    0.000000000000000E+000
 -3.960000000000000E-002    0.000000000000000E+000
 -3.950000000000000E-002    0.000000000000000E+000
 -3.940000000000000E-002    0.000000000000000E+000
 -3.930000000000000E-002    0.000000000000000E+000
 -3.920000000000000E-002    0.000000000000000E+000
 -3.910000000000000E-002   -2.422862689639990E-032
 -3.900000000000000E-002   -4.519391027283049E-031
 -3.890000000000000E-002   -4.416339650228088E-030
 -3.880000000000000E-002   -3.005352801439928E-029
 -3.870000000000000E-002   -1.597754203433800E-028
 -3.860000000000000E-002   -7.059887417201601E-028
 -3.850000000000000E-002   -2.694148422872411E-027
 -3.840000000000000E-002   -9.111882220533803E-027
 -3.830000000000000E-002   -2.781962280390941E-026
 -3.820000000000000E-002   -7.772538990602475E-026
 -3.810000000000000E-002   -2.007849890598004E-025
 -3.800000000000000E-002   -4.834144717844332E-025
 -3.790000000000000E-002   -1.091487941200011E-024
 -3.780000000000000E-002   -2.322248222317312E-024
 -3.770000000000000E-002   -4.672584485693904E-024
 -3.760000000000000E-002   -8.914068313392085E-024
 -3.750000000000000E-002   -1.614847567477422E-023
 -3.740000000000000E-002   -2.779141046271455E-023
 -3.730000000000000E-002   -4.539609373855513E-023
 -3.720000000000000E-002   -7.018821558254783E-023
 -3.710000000000000E-002   -1.021457733063679E-022
 -3.700000000000000E-002   -1.384429836464790E-022
 -3.690000000000000E-002   -1.711115483175239E-022
 -3.680000000000000E-002   -1.838902339217304E-022
 -3.670000000000000E-002   -1.484728924984897E-022
 -3.660000000000000E-002   -2.075489529792738E-023
 -3.650000000000000E-002    2.617715916824207E-022
 -3.640000000000000E-002    7.796473077367990E-022
 -3.630000000000000E-002    1.625569295613522E-021
 -3.620000000000000E-002    2.889922450255472E-021
 -3.610000000000000E-002    4.634499864434104E-021
 -3.600000000000000E-002    6.851830619858779E-021
 -3.590000000000000E-002    9.409328085202261E-021
 -3.580000000000000E-002    1.198077824877338E-020
 -3.570000000000000E-002    1.397268804474594E-020
 -3.560000000000000E-002    1.445962274623053E-020
 -3.550000000000000E-002    1.215023194462723E-020
 -3.540000000000000E-002    5.413084941153691E-021
 -3.530000000000000E-002   -7.603296013724919E-021
 -3.520000000000000E-002   -2.872122532777605E-020
 -3.510000000000000E-002   -5.932751595861863E-020
 -3.500000000000000E-002   -9.979983708938112E-020
 -3.490000000000000E-002   -1.487862167659632E-019
 -3.480000000000000E-002   -2.024022368327845E-019
 -3.470000000000000E-002   -2.534661872106240E-019
 -3.460000000000000E-002   -2.909536853614744E-019
 -3.450000000000000E-002   -2.999101339275804E-019
 -3.440000000000000E-002   -2.620976236771714E-019
 -3.430000000000000E-002   -1.576536040770415E-019
 -3.420000000000000E-002    3.201658026260459E-020
 -3.410000000000000E-002    3.200215565023003E-019
 -3.400000000000000E-002    7.085642720039992E-019
 -3.390000000000000E-002    1.182745476944340E-018
 -3.380000000000000E-002    1.704384904755272E-018
 -3.370000000000000E-002    2.207050027795820E-018
 -3.360000000000000E-002    2.593842479357817E-018
 -3.350000000000000E-002    2.739730116137221E-018
 -3.340000000000000E-002    2.500223947230762E-018
 -3.330000000000000E-002    1.727881505495906E-018
 -3.320000000000000E-002    2.973786665336066E-019
 -3.310000000000000E-002   -1.861319727269767E-018
 -3.300000000000000E-002   -4.723825405896626E-018
 -3.290000000000000E-002   -8.130387690054192E-018
 -3.280000000000000E-002   -1.174947542715047E-017
 -3.270000000000000E-002   -1.505419303645028E-017
 -3.260000000000000E-002   -1.732124001484285E-017
 -3.250000000000000E-002   -1.766243438386186E-017
 -3.240000000000000E-002   -1.509758606550927E-017
 -3.230000000000000E-002   -8.674290092993529E-018
 -3.220000000000000E-002    2.365182156503655E-018
 -3.210000000000000E-002    1.837720390546615E-017
 -3.200000000000000E-002    3.908688169871332E-017
 -3.190000000000000E-002    6.336146052569466E-017
 -3.180000000000000E-002    8.902317536324807E-017
 -3.170000000000000E-002    1.127450759891228E-016
 -3.160000000000000E-002    1.300767457595617E-016
 -3.150000000000000E-002    1.356442247341665E-016
 -3.140000000000000E-002    1.235584008767463E-016
 -3.130000000000000E-002    8.804753644851759E-017
 -3.120000000000000E-002    2.430269693319059E-017
 -3.110000000000000E-002   -7.050924232280269E-017
 -3.100000000000000E-002   -1.961483570755528E-016
 -3.090000000000000E-002   -3.482420219039595E-016
 -3.080000000000000E-002   -5.174169110766790E-016
 -3.070000000000000E-002   -6.887978096603406E-016
 -3.060000000000000E-002   -8.420509116362522E-016
 -3.050000000000000E-002   -9.521284330091758E-016
 -3.040000000000000E-002   -9.908239164724563E-016
 -3.030000000000000E-002   -9.291719480383419E-016
 -3.020000000000000E-002   -7.406279105104334E-016
 -3.010000000000000E-002   -4.048454890049016E-016
 -3.000000000000000E-002    8.824937736214893E-017
 -2.990000000000000E-002    7.345020989200611E-016
 -2.980000000000000E-002    1.512187201444252E-015
 -2.970000000000000E-002    2.379818297326738E-015
 -2.960000000000000E-002    3.275625509891410E-015
 -2.950000000000000E-002    4.119129551093990E-015
 -2.940000000000000E-002    4.815076732111205E-015
 -2.930000000000000E-002    5.259774068839768E-015
 -2.920000000000000E-002    5.349588705773548E-015
 -2.910000000000000E-002    4.991076426043132E-015
 -2.900000000000000E-002    4.111924108876946E-015
 -2.890000000000000E-002    2.671657708418984E-015
 -2.880000000000000E-002    6.709363514714960E-016
 -2.870000000000000E-002   -1.841764179744455E-015
 -2.860000000000000E-002   -4.767133503617277E-015
 -2.850000000000000E-002   -7.956434878974107E-015
 -2.840000000000000E-002   -1.121767945906206E-014
 -2.830000000000000E-002   -1.432637277084229E-014
 -2.820000000000000E-002   -1.704008740495171E-014
 -2.810000000000000E-002   -1.911556995239478E-014
 -2.800000000000000E-002   -2.032669548788244E-014
 -2.790000000000000E-002   -2.048135093314169E-014
 -2.780000000000000E-002   -1.943537993544188E-014
 -2.770000000000000E-002   -1.710202004190621E-014
 -2.760000000000000E-002   -1.345588090165106E-014
 -2.750000000000000E-002   -8.531310174604056E-015
 -2.740000000000000E-002   -2.415946477139892E-015
 -2.730000000000000E-002    4.758831440029635E-015
 -2.720000000000000E-002    1.282808495012173E-014
 -2.710000000000000E-002    2.160127015570532E-014
 -2.700000000000000E-002    3.086513992014966E-014
 -2.690000000000000E-002    4.037943111997993E-014
 -2.680000000000000E-002    4.986438464673455E-014
 -2.670000000000000E-002    5.898081621449391E-014
 -2.660000000000000E-002    6.730552115461304E-014
 -2.650000000000000E-002    7.430682511761581E-014
 -2.640000000000000E-002    7.932682951078133E-014
 -2.630000000000000E-002    8.157799581127265E-014
 -2.620000000000000E-002    8.016171497702423E-014
 -2.610000000000000E-002    7.411523956859327E-014
 -2.600000000000000E-002    6.249067878908103E-014
 -2.590000000000000E-002    4.446562994472278E-014
 -2.580000000000000E-002    1.947999314743424E-014
 -2.570000000000000E-002   -1.261224063447718E-014
 -2.560000000000000E-002   -5.139278720454935E-014
 -2.550000000000000E-002   -9.575148696969487E-014
 -2.540000000000000E-002   -1.438047024696460E-013
 -2.530000000000000E-002   -1.928827873004291E-013
 -2.520000000000000E-002   -2.396058114388301E-013
 -2.510000000000000E-002   -2.800595547722080E-013
 -2.500000000000000E-002   -3.100728992000841E-013
 -2.490000000000000E-002   -3.255848569786639E-013
 -2.480000000000000E-002   -3.230744535947845E-013
 -2.470000000000000E-002   -3.000133823311269E-013
 -2.460000000000000E-002   -2.552894365508047E-013
 -2.450000000000000E-002   -1.895424619297168E-013
 -2.440000000000000E-002   -1.053543356123575E-013
 -2.430000000000000E-002   -7.242086014676936E-015
 -2.420000000000000E-002    9.857984616009469E-014
 -2.410000000000000E-002    2.046791145370996E-013
 -2.400000000000000E-002    3.031067945441443E-013
 -2.390000000000000E-002    3.862678157067710E-013
 -2.380000000000000E-002    4.478753815827222E-013
 -2.370000000000000E-002    4.838773599068641E-013
 -2.360000000000000E-002    4.932259505911211E-013
 -2.350000000000000E-002    4.783590837761452E-013
 -2.340000000000000E-002    4.452773026015814E-013
 -2.330000000000000E-002    4.031322023265899E-013
 -2.320000000000000E-002    3.632942775694079E-013
 -2.310000000000000E-002    3.379308611605877E-013
 -2.300000000000000E-002    3.381978996562957E-013
 -2.290000000000000E-002    3.722202236513826E-013
 -2.280000000000000E-002    4.430956081301240E-013
 -2.270000000000000E-002    5.471990436995226E-013
 -2.260000000000000E-002    6.730752821236083E-013
 -2.250000000000000E-002    8.011830717341785E-013
 -2.240000000000000E-002    9.046921779892533E-013
 -2.230000000000000E-002    9.514334294823908E-013
 -2.220000000000000E-002    9.069713136747322E-013
 -2.210000000000000E-002    7.386193390529652E-013
 -2.200000000000000E-002    4.200664442960237E-013
 -2.190000000000000E-002   -6.385283206385668E-014
 -2.180000000000000E-002   -7.128096812335465E-013
 -2.170000000000000E-002   -1.507662126195880E-012
 -2.160000000000000E-002   -2.408748365336353E-012
 -2.150000000000000E-002   -3.356270860035796E-012
 -2.140000000000000E-002   -4.273069942500623E-012
 -2.130000000000000E-002   -5.069842272079903E-012
 -2.120000000000000E-002   -5.652571812092390E-012
 -2.110000000000000E-002   -5.931639892434658E-012
 -2.100000000000000E-002   -5.831798127750780E-012
 -2.090000000000000E-002   -5.301974278465740E-012
 -2.080000000000000E-002   -4.323751341177233E-012
 -2.070000000000000E-002   -2.917367044332985E-012
 -2.060000000000000E-002   -1.144217807630021E-012
 -2.050000000000000E-002    8.948549427293297E-013
 -2.040000000000000E-002    3.065810711539160E-012
 -2.030000000000000E-002    5.211994679996621E-012
 -2.020000000000000E-002    7.168322678251354E-012
 -2.010000000000000E-002    8.777801507026192E-012
 -2.000000000000000E-002    9.908687410640623E-012
 -1.990000000000000E-002    1.047030643493006E-011
 -1.980000000000000E-002    1.042549464029837E-011
 -1.970000000000000E-002    9.797787601178947E-012
 -1.960000000000000E-002    8.671925673686294E-012
 -1.950000000000000E-002    7.186905613110415E-012
 -1.940000000000000E-002    5.521640102440768E-012
 -1.930000000000000E-002    3.874229708666580E-012
 -1.920000000000000E-002    2.436764778899692E-012
 -1.910000000000000E-002    1.368367055734600E-012
 -1.900000000000000E-002    7.697295819900728E-013
 -1.890000000000000E-002    6.626208698953029E-013
 -1.880000000000000E-002    9.775978534523513E-013
 -1.870000000000000E-002    1.552551737415500E-012
 -1.860000000000000E-002    2.143654581779144E-012
 -1.850000000000000E-002    2.448899737748317E-012
 -1.840000000000000E-002    2.142870783457688E-012
 -1.830000000000000E-002    9.197917123654535E-013
 -1.820000000000000E-002   -1.459518267888283E-012
 -1.810000000000000E-002   -5.122188424311404E-012
 -1.800000000000000E-002   -1.004525491439419E-011
 -1.790000000000000E-002   -1.603079136577403E-011
 -1.780000000000000E-002   -2.269906927078189E-011
 -1.770000000000000E-002   -2.950301712408994E-011
 -1.760000000000000E-002   -3.576508207210526E-011
 -1.750000000000000E-002   -4.073499924115202E-011
 -1.740000000000000E-002   -4.366430723937809E-011
 -1.730000000000000E-002   -4.389091352268464E-011
 -1.720000000000000E-002   -4.092504132252806E-011
 -1.710000000000000E-002   -3.452666176708701E-011
 -1.700000000000000E-002   -2.476441493293010E-011
 -1.690000000000000E-002   -1.204700043839580E-011
 -1.680000000000000E-002    2.879773578038117E-012
 -1.670000000000000E-002    1.897384009890633E-011
 -1.660000000000000E-002    3.497518919130917E-011
 -1.650000000000000E-002    4.951683446343712E-011
 -1.640000000000000E-002    6.125931530551585E-011
 -1.630000000000000E-002    6.903595410595499E-011
 -1.620000000000000E-002    7.199353591665066E-011
 -1.610000000000000E-002    6.971202474587876E-011
 -1.600000000000000E-002    6.228761644957387E-011
 -1.590000000000000E-002    5.036612794964464E-011
 -1.580000000000000E-002    3.511803718843982E-011
 -1.570000000000000E-002    1.815226285500440E-011
 -1.560000000000000E-002    1.372526747496164E-012
 -1.550000000000000E-002   -1.321306442313130E-011
 -1.540000000000000E-002   -2.371223682547691E-011
 -1.530000000000000E-002   -2.857655530523293E-011
 -1.520000000000000E-002   -2.681242303376721E-011
 -1.510000000000000E-002   -1.814971869053161E-011
 -1.500000000000000E-002   -3.145267846794680E-012
 -1.490000000000000E-002    1.679646332360455E-011
 -1.480000000000000E-002    3.949541063177678E-011
 -1.470000000000000E-002    6.216124636953894E-011
 -1.460000000000000E-002    8.164216860746332E-011
 -1.450000000000000E-002    9.473731684780570E-011
 -1.440000000000000E-002    9.854420179404324E-011
 -1.430000000000000E-002    9.080634176573315E-011
 -1.420000000000000E-002    7.022336638803744E-011
 -1.410000000000000E-002    3.668691951950065E-011
 -1.400000000000000E-002   -8.589152526824940E-012
 -1.390000000000000E-002   -6.306676806269184E-011
 -1.380000000000000E-002   -1.230199638635016E-010
 -1.370000000000000E-002   -1.838056339453354E-010
 -1.360000000000000E-002   -2.402498075903382E-010
 -1.350000000000000E-002   -2.871167325096548E-010
 -1.340000000000000E-002   -3.196168362853125E-010
 -1.330000000000000E-002   -3.339023478194456E-010
 -1.320000000000000E-002   -3.274972963381523E-010
 -1.310000000000000E-002   -2.996123163541973E-010
 -1.300000000000000E-002   -2.513036750664174E-010
 -1.290000000000000E-002   -1.854506400300817E-010
 -1.280000000000000E-002   -1.065432021945482E-010
 -1.270000000000000E-002   -2.029242195659858E-011
 -1.260000000000000E-002    6.690421468558113E-011
 -1.250000000000000E-002    1.485921106835747E-010
 -1.240000000000000E-002    2.189199213300623E-010
 -1.230000000000000E-002    2.732599730924029E-010
 -1.220000000000000E-002    3.087182332133246E-010
 -1.210000000000000E-002    3.244706923297451E-010
 -1.200000000000000E-002    3.218793593451054E-010
 -1.190000000000000E-002    3.043621823369833E-010
 -1.180000000000000E-002    2.770176929928104E-010
 -1.170000000000000E-002    2.460324806286814E-010
 -1.160000000000000E-002    2.179262156503253E-010
 -1.150000000000000E-002    1.987108676369159E-010
 -1.140000000000000E-002    1.930556664677524E-010
 -1.130000000000000E-002    2.035551215853786E-010
 -1.120000000000000E-002    2.301928534498702E-010
 -1.110000000000000E-002    2.700783565594355E-010
 -1.100000000000000E-002    3.175090671063190E-010
 -1.090000000000000E-002    3.643773722566793E-010
 -1.080000000000000E-002    4.009049016038892E-010
 -1.070000000000000E-002    4.166488230979115E-010
 -1.060000000000000E-002    4.016899899459951E-010
 -1.050000000000000E-002    3.478856579751985E-010
 -1.040000000000000E-002    2.500529767781274E-010
 -1.030000000000000E-002    1.069464635737599E-010
 -1.020000000000000E-002   -7.809601564678788E-011
 -1.010000000000000E-002   -2.969380239687360E-010
 -1.000000000000000E-002   -5.369213407674948E-010
 -9.899999999999999E-003   -7.816475822958222E-010
 -9.800000000000000E-003   -1.012225250487280E-009
 -9.699999999999999E-003   -1.208890141902176E-009
 -9.599999999999999E-003   -1.352860948502755E-009
 -9.500000000000000E-003   -1.428256411409974E-009
 -9.399999999999999E-003   -1.423881562265857E-009
 -9.299999999999999E-003   -1.334689728141883E-009
 -9.200000000000000E-003   -1.162746345959588E-009
 -9.099999999999999E-003   -9.175599751510353E-010
 -8.999999999999999E-003   -6.157009535672827E-010
 -8.900000000000000E-003   -2.796958007745692E-010
 -8.799999999999999E-003    6.374212346752660E-011
 -8.699999999999999E-003    3.860136049541094E-010
 -8.600000000000000E-003    6.592716790987524E-010
 -8.499999999999999E-003    8.591564752776070E-010
 -8.399999999999999E-003    9.673613432800632E-010
 -8.300000000000000E-003    9.737661689129047E-010
 -8.199999999999999E-003    8.779004515759425E-010
 -8.100000000000000E-003    6.895529629656445E-010
 -8.000000000000000E-003    4.284189169452105E-010
 -7.899999999999999E-003    1.227648102962166E-010
 -7.800000000000000E-003   -1.928119094977366E-010
 -7.699999999999999E-003   -4.803575140109108E-010
 -7.599999999999999E-003   -7.020196862487087E-010
 -7.499999999999999E-003   -8.236762559301216E-010
 -7.399999999999999E-003   -8.183917502089620E-010
 -7.299999999999999E-003   -6.693603623458744E-010
 -7.199999999999999E-003   -3.720292922712044E-010
 -7.100000000000000E-003    6.483554696262872E-011
 -6.999999999999999E-003    6.192821372064487E-010
 -6.899999999999999E-003    1.257534639048524E-009
 -6.800000000000000E-003    1.936490349177294E-009
 -6.699999999999999E-003    2.607144993760494E-009
 -6.599999999999999E-003    3.218636794914789E-009
 -6.499999999999999E-003    3.722529138188095E-009
 -6.399999999999999E-003    4.076916951543262E-009
 -6.299999999999999E-003    4.249946006049332E-009
 -6.199999999999999E-003    4.222386214883107E-009
 -6.100000000000000E-003    3.988986476044900E-009
 -5.999999999999999E-003    3.558462250310578E-009
 -5.899999999999999E-003    2.952104343800251E-009
 -5.800000000000000E-003    2.201149956812215E-009
 -5.699999999999999E-003    1.343199370091740E-009
 -5.599999999999999E-003    4.180771097830230E-010
 -5.499999999999999E-003   -5.363966200063358E-010
 -5.399999999999999E-003   -1.488200542555476E-009
 -5.299999999999999E-003   -2.413986943511970E-009
 -5.199999999999999E-003   -3.300618299828740E-009
 -5.099999999999999E-003   -4.145073789780867E-009
 -4.999999999999999E-003   -4.952589045823645E-009
 -4.899999999999999E-003   -5.733066259719100E-009
 -4.799999999999999E-003   -6.495987618776778E-009
 -4.699999999999999E-003   -7.244253511663041E-009
 -4.599999999999999E-003   -7.967464762121959E-009
 -4.499999999999999E-003   -8.635274834733682E-009
 -4.399999999999999E-003   -9.191515370574299E-009
 -4.299999999999999E-003   -9.549637009119105E-009
 -4.199999999999999E-003   -9.590057961209730E-009
 -4.099999999999999E-003   -9.159691299271120E-009
 -3.999999999999999E-003   -8.073823702271015E-009
 -3.899999999999999E-003   -6.120261388539406E-009
 -3.799999999999999E-003   -3.065345929232619E-009
 -3.699999999999999E-003    1.338688672561718E-009
 -3.599999999999999E-003    7.345670139213831E-009
 -3.499999999999999E-003    1.520762800785604E-008
 -3.399999999999999E-003    2.516800942373139E-008
 -3.299999999999999E-003    3.745659424080219E-008
 -3.199999999999999E-003    5.228689749578263E-008
 -3.099999999999999E-003    6.985625245797507E-008
 -2.999999999999999E-003    9.034897192732432E-008
 -2.899999999999999E-003    1.139420049497798E-007
 -2.799999999999999E-003    1.408131072646694E-007
 -2.699999999999999E-003    1.711503395919007E-007
 -2.599999999999999E-003    2.051621965121590E-007
 -2.499999999999999E-003    2.430872515985370E-007
 -2.399999999999999E-003    2.852022069173879E-007
 -2.299999999999999E-003    3.318274913137673E-007
 -2.199999999999999E-003    3.833295414202448E-007
 -2.099999999999999E-003    4.401193568137667E-007
 -1.999999999999999E-003    5.026470968948856E-007
 -1.899999999999999E-003    5.713934660402407E-007
 -1.799999999999999E-003    6.468576784343891E-007
 -1.699999999999999E-003    7.295442199025731E-007
 -1.599999999999999E-003    8.199478463305092E-007
 -1.499999999999999E-003    9.185405453676594E-007
 -1.399999999999999E-003    1.025759895041416E-006
 -1.299999999999999E-003    1.142001114433289E-006
 -1.199999999999999E-003    1.267613283361522E-006
 -1.099999999999999E-003    1.402900981040827E-006
 -9.999999999999989E-004    1.548130831090564E-006
 -8.999999999999990E-004    1.703543328202563E-006
 -7.999999999999990E-004    1.869368948582856E-006
 -6.999999999999989E-004    2.045847209214812E-006
 -5.999999999999990E-004    2.233247792505471E-006
 -4.999999999999989E-004    2.431890614143020E-006
 -3.999999999999989E-004    2.642165590137924E-006
 -2.999999999999989E-004    2.864547901969275E-006
 -1.999999999999989E-004    3.099609684397252E-006
 -9.999999999999892E-005    3.348026535026245E-006
  1.084202172485504E-018    3.610576376284750E-006
  1.000000000000011E-004    3.888135614397288E-006
  2.000000000000011E-004    4.181667942872220E-006
  3.000000000000011E-004    4.492212496452274E-006
  4.000000000000011E-004    4.820867310814377E-006
  5.000000000000011E-004    5.168773808161945E-006
  6.000000000000011E-004    5.537104851946130E-006
  7.000000000000011E-004    5.927052384644004E-006
  8.000000000000011E-004    6.339823848646924E-006
  9.000000000000012E-004    6.776640107140579E-006
  1.000000000000001E-003    7.238744357625109E-006
  1.100000000000001E-003    7.727411043840884E-006
  1.200000000000001E-003    8.243965653657857E-006
  1.300000000000001E-003    8.789801316552617E-006
  1.400000000000001E-003    9.366403107746367E-006
  1.500000000000001E-003    9.975365420782878E-006
  1.600000000000001E-003    1.061841523917208E-005
  1.700000000000001E-003    1.129742238170202E-005
  1.800000000000001E-003    1.201441173690444E-005
  1.900000000000001E-003    1.277156373272140E-005
  2.000000000000001E-003    1.357121204326045E-005
  2.100000000000001E-003    1.441583541795925E-005
  2.200000000000001E-003    1.530804308808498E-005
  2.300000000000001E-003    1.625055738986138E-005
  2.400000000000001E-003    1.724620198895807E-005
  2.500000000000001E-003    1.829788271033990E-005
  2.600000000000001E-003    1.940857894883697E-005
  2.700000000000001E-003    2.058134076841263E-005
  2.800000000000001E-003    2.181929332822136E-005
  2.900000000000001E-003    2.312564957719329E-005
  3.000000000000001E-003    2.450373043243814E-005
  3.100000000000001E-003    2.595699538334174E-005
  3.200000000000001E-003    2.748907453790523E-005
  3.300000000000001E-003    2.910380850765939E-005
  3.400000000000001E-003    3.080528552173876E-005
  3.500000000000001E-003    3.259787626755185E-005
  3.600000000000001E-003    3.448626610576088E-005
  3.700000000000001E-003    3.647548159330214E-005
  3.800000000000001E-003    3.857089595678576E-005
  3.900000000000001E-003    4.077823850561417E-005
  4.000000000000001E-003    4.310358341166131E-005
  4.100000000000001E-003    4.555333408099026E-005
  4.200000000000001E-003    4.813420010190521E-005
  4.300000000000001E-003    5.085316232406986E-005
  4.400000000000001E-003    5.371745867217236E-005
  4.500000000000001E-003    5.673453552508268E-005
  4.600000000000002E-003    5.991203762376946E-005
  4.700000000000001E-003    6.325780959054072E-005
  4.800000000000001E-003    6.677987145049679E-005
  4.900000000000002E-003    7.048645035195125E-005
  5.000000000000001E-003    7.438599526518488E-005
  5.100000000000001E-003    7.848722132416262E-005
  5.200000000000001E-003    8.279915482354677E-005
  5.300000000000002E-003    8.733119882757949E-005
  5.400000000000001E-003    9.209316706561774E-005
  5.500000000000001E-003    9.709536056536750E-005
  5.600000000000002E-003    1.023486072264448E-004
  5.700000000000001E-003    1.078643060889543E-004
  5.800000000000001E-003    1.136544745927970E-004
  5.900000000000002E-003    1.197317334430652E-004
  6.000000000000001E-003    1.261093299623266E-004
  6.100000000000001E-003    1.328011392283165E-004
  6.200000000000002E-003    1.398216304491299E-004
  6.300000000000002E-003    1.471858304593327E-004
  6.400000000000001E-003    1.549093406307813E-004
  6.500000000000001E-003    1.630082662407353E-004
  6.600000000000002E-003    1.714992254076079E-004
  6.700000000000001E-003    1.803993156951563E-004
  6.800000000000001E-003    1.897261452588905E-004
  6.900000000000002E-003    1.994978372039256E-004
  7.000000000000001E-003    2.097330472264462E-004
  7.100000000000001E-003    2.204510493119663E-004
  7.200000000000002E-003    2.316717479889408E-004
  7.300000000000002E-003    2.434157825930319E-004
  7.400000000000001E-003    2.557045763586870E-004
  7.500000000000001E-003    2.685603687629162E-004
  7.600000000000002E-003    2.820063554157387E-004
  7.700000000000001E-003    2.960666051347651E-004
  7.800000000000001E-003    3.107662147760263E-004
  7.900000000000001E-003    3.261312660106650E-004
  8.000000000000002E-003    3.421888277689405E-004
  8.100000000000001E-003    3.589669529281171E-004
  8.200000000000001E-003    3.764946080714412E-004
  8.300000000000002E-003    3.948017318556284E-004
  8.400000000000001E-003    4.139191211418607E-004
  8.500000000000002E-003    4.338784315023264E-004
  8.600000000000002E-003    4.547122043768119E-004
  8.700000000000001E-003    4.764537631658073E-004
  8.800000000000002E-003    4.991372948616113E-004
  8.900000000000002E-003    5.227978878129392E-004
  9.000000000000001E-003    5.474715892552844E-004
  9.100000000000002E-003    5.731954558410105E-004
  9.200000000000002E-003    6.000076336307848E-004
  9.300000000000001E-003    6.279475776624917E-004
  9.400000000000002E-003    6.570558546958722E-004
  9.500000000000001E-003    6.873745614127785E-004
  9.600000000000001E-003    7.189471939275482E-004
  9.700000000000002E-003    7.518187610235664E-004
  9.800000000000001E-003    7.860358688188620E-004
  9.900000000000001E-003    8.216465599278322E-004
  1.000000000000000E-002    8.587006183422834E-004
  1.010000000000000E-002    8.972491958491578E-004
  1.020000000000000E-002    9.373448520627737E-004
  1.030000000000000E-002    9.790417554026588E-004
  1.040000000000000E-002    1.022395264841231E-003
  1.050000000000000E-002    1.067462100380579E-003
  1.060000000000000E-002    1.114300154582194E-003
  1.070000000000000E-002    1.162968516255680E-003
  1.080000000000000E-002    1.213527537369566E-003
  1.090000000000000E-002    1.266038647524247E-003
  1.100000000000000E-002    1.320564651452620E-003
  1.110000000000000E-002    1.377169629617299E-003
  1.120000000000000E-002    1.435919218113645E-003
  1.130000000000000E-002    1.496880267583070E-003
  1.140000000000000E-002    1.560121480037528E-003
  1.150000000000000E-002    1.625713232283821E-003
  1.160000000000000E-002    1.693727600472574E-003
  1.170000000000000E-002    1.764238590053641E-003
  1.180000000000000E-002    1.837322026382643E-003
  1.190000000000000E-002    1.913055528932665E-003
  1.200000000000000E-002    1.991518519629374E-003
  1.210000000000000E-002    2.072792405161145E-003
  1.220000000000000E-002    2.156960202768855E-003
  1.230000000000000E-002    2.244106397058957E-003
  1.240000000000000E-002    2.334317079254848E-003
  1.250000000000000E-002    2.427679645958714E-003
  1.260000000000000E-002    2.524282622587368E-003
  1.270000000000000E-002    2.624215961030637E-003
  1.280000000000000E-002    2.727570579157400E-003
  1.290000000000000E-002    2.834438766684338E-003
  1.300000000000000E-002    2.944913770778719E-003
  1.310000000000000E-002    3.059089823055792E-003
  1.320000000000000E-002    3.177062809098115E-003
  1.330000000000000E-002    3.298929858461178E-003
  1.340000000000000E-002    3.424789274572961E-003
  1.350000000000000E-002    3.554741278687306E-003
  1.360000000000000E-002    3.688887119887389E-003
  1.370000000000000E-002    3.827330287024765E-003
  1.380000000000000E-002    3.970175043326970E-003
  1.390000000000000E-002    4.117527439791931E-003
  1.400000000000000E-002    4.269495723780464E-003
  1.410000000000000E-002    4.426188621998800E-003
  1.420000000000000E-002    4.587716236521021E-003
  1.430000000000000E-002    4.754190394528980E-003
  1.440000000000000E-002    4.925722918441490E-003
  1.450000000000000E-002    5.102426825491020E-003
  1.460000000000000E-002    5.284415600605056E-003
  1.470000000000000E-002    5.471803237352099E-003
  1.480000000000000E-002    5.664703789698374E-003
  1.490000000000000E-002    5.863231429334191E-003
  1.500000000000000E-002    6.067501114053870E-003
  1.510000000000000E-002    6.277627475849315E-003
  1.520000000000000E-002    6.493725823747842E-003
  1.530000000000000E-002    6.715911308753443E-003
  1.540000000000000E-002    6.944299681638752E-003
  1.550000000000000E-002    7.179006000501986E-003
  1.560000000000000E-002    7.420147228690619E-003
  1.570000000000000E-002    7.667840424175794E-003
  1.580000000000000E-002    7.922202441972103E-003
  1.590000000000000E-002    8.183350270017846E-003
  1.600000000000000E-002    8.451401494124072E-003
  1.610000000000000E-002    8.726473348676118E-003
  1.620000000000000E-002    9.008682726831549E-003
  1.630000000000000E-002    9.298145088292574E-003
  1.640000000000000E-002    9.594976334229807E-003
  1.650000000000000E-002    9.899290192833886E-003
  1.660000000000000E-002    1.021119897348275E-002
  1.670000000000000E-002    1.053081379780435E-002
  1.680000000000000E-002    1.085824411891868E-002
  1.690000000000000E-002    1.119359631358292E-002
  1.700000000000000E-002    1.153697545376061E-002
  1.710000000000000E-002    1.188848322316944E-002
  1.720000000000000E-002    1.224821927326538E-002
  1.730000000000000E-002    1.261628209738708E-002
  1.740000000000000E-002    1.299276714634003E-002
  1.750000000000000E-002    1.337776766945358E-002
  1.760000000000000E-002    1.377137446432799E-002
  1.770000000000000E-002    1.417367543831611E-002
  1.780000000000000E-002    1.458475715567816E-002
  1.790000000000000E-002    1.500470317461581E-002
  1.800000000000000E-002    1.543359505030691E-002
  1.810000000000000E-002    1.587150879616589E-002
  1.820000000000000E-002    1.631851927479267E-002
  1.830000000000000E-002    1.677469572356386E-002
  1.840000000000000E-002    1.724010639024864E-002
  1.850000000000000E-002    1.771481153636362E-002
  1.860000000000000E-002    1.819886849025524E-002
  1.870000000000000E-002    1.869233099457622E-002