 -4.000000000000000E-002    0.000000000000000E+000
 -3.990000000000000E-002    0.000000000000000E+000
 -3.980000000000000E-002    0.000000000000000E+000
 -3.970000000000000E-002    0.000000000000000E+000
 -3.960000000000000E-002    0.000000000000000E+000
 -3.950000000000000E-002    0.000000000000000E+000
 -3.940000000000000E-002    0.000000000000000E+000
 -3.930000000000000E-002    0.000000000000000E+000
 -3.920000000000000E-002    0.000000000000000E+000
 -3.910000000000000E-002    0.000000000000000E+000
 -3.900000000000000E-002    0.000000000000000E+000
 -3.890000000000000E-002    0.000000000000000E+000
 -3.880000000000000E-002    0.000000000000000E+000
 -3.870000000000000E-002    0.000000000000000E+000
 -3.860000000000000E-002    0.000000000000000E+000
 -3.850000000000000E-002    0.000000000000000E+000
 -3.840000000000000E-002    0.000000000000000E+000
 -3.830000000000000E-002    0.000000000000000E+000
 -3.820000000000000E-002    0.000000000000000E+000
 -3.810000000000000E-002    0.000000000000000E+000
 -3.800000000000000E-002   -6.667540550386130E-048
 -3.790000000000000E-002    1.745365965276699E-047
 -3.780000000000000E-002    7.393321716306270E-047
 -3.770000000000000E-002    4.200237652951380E-046
 -3.760000000000000E-002    1.651579311153687E-045
 -3.750000000000000E-002    5.939877771786691E-045
 -3.740000000000000E-002    1.688321078816273E-044
 -3.730000000000000E-002    4.476687670721402E-044
 -3.720000000000000E-002    1.017549402041891E-043
 -3.710000000000000E-002    1.785569151620272E-043
 -3.700000000000000E-002    1.453719445950247E-043
 -3.690000000000000E-002   -5.526681605731637E-043
 -3.680000000000000E-002   -3.719166325252375E-042
 -3.670000000000000E-002   -1.430537344514753E-041
 -3.660000000000000E-002   -4.435618419190669E-041
 -3.650000000000000E-002   -1.201580552235282E-040
 -3.640000000000000E-002   -2.931839407990224E-040
 -3.630000000000000E-002   -6.523774894100640E-040
 -3.620000000000000E-002   -1.326518458274595E-039
 -3.610000000000000E-002   -2.445272827310512E-039
 -3.600000000000000E-002   -3.987487894539951E-039
 -3.590000000000000E-002   -5.375211169427035E-039
 -3.580000000000000E-002   -4.563818713752950E-039
 -3.570000000000000E-002    3.762987546379081E-039
 -3.560000000000000E-002    3.142385118811842E-038
 -3.550000000000000E-002    1.019652231548778E-037
 -3.540000000000000E-002    2.581832062808001E-037
 -3.530000000000000E-002    5.713102156124109E-037
 -3.520000000000000E-002    1.149080253605378E-036
 -3.510000000000000E-002    2.135773614457085E-036
 -3.500000000000000E-002    3.690466693417548E-036
 -3.490000000000000E-002    5.919528476869411E-036
 -3.480000000000000E-002    8.726216589473613E-036
 -3.470000000000000E-002    1.152619591783445E-035
 -3.460000000000000E-002    1.276839962272437E-035
 -3.450000000000000E-002    9.206168046845241E-036
 -3.440000000000000E-002   -5.098718144870280E-036
 -3.430000000000000E-002   -3.996260922180856E-035
 -3.420000000000000E-002   -1.101995622722321E-034
 -3.410000000000000E-002   -2.361168318553572E-034
 -3.400000000000000E-002   -4.423893462518726E-034
 -3.390000000000000E-002   -7.537425034474007E-034
 -3.380000000000000E-002   -1.185229944343802E-033
 -3.370000000000000E-002   -1.724336955510476E-033
 -3.360000000000000E-002   -2.301963621139718E-033
 -3.350000000000000E-002   -2.750002345047205E-033
 -3.340000000000000E-002   -2.745363878971607E-033
 -3.330000000000000E-002   -1.744711540888604E-033
 -3.320000000000000E-002    1.078354699544809E-033
 -3.310000000000000E-002    6.870715538101336E-033
 -3.300000000000000E-002    1.707388735385615E-032
 -3.290000000000000E-002    3.327937961125450E-032
 -3.280000000000000E-002    5.689216879491612E-032
 -3.270000000000000E-002    8.851696257549029E-032
 -3.260000000000000E-002    1.269835274320519E-031
 -3.250000000000000E-002    1.679539356678378E-031
 -3.240000000000000E-002    2.021211263130266E-031
 -3.230000000000000E-002    2.131291889896235E-031
 -3.220000000000000E-002    1.755360067605467E-031
 -3.210000000000000E-002    5.340069024622471E-032
 -3.200000000000000E-002   -1.995929876582079E-031
 -3.190000000000000E-002   -6.372106451764189E-031
 -3.180000000000000E-002   -1.313349999455725E-030
 -3.170000000000000E-002   -2.268572806153851E-030
 -3.160000000000000E-002   -3.508856623287369E-030
 -3.150000000000000E-002   -4.975569421484189E-030
 -3.140000000000000E-002   -6.507022771346890E-030
 -3.130000000000000E-002   -7.794238597782676E-030
 -3.120000000000000E-002   -8.336900694431459E-030
 -3.110000000000000E-002   -7.409824518710051E-030
 -3.100000000000000E-002   -4.055402105572782E-030
 -3.090000000000000E-002    2.877339646394982E-030
 -3.080000000000000E-002    1.462222243277348E-029
 -3.070000000000000E-002    3.228761248806487E-029
 -3.060000000000000E-002    5.652722329663595E-029
 -3.050000000000000E-002    8.707739479932165E-029
 -3.040000000000000E-002    1.221683577683930E-028
 -3.030000000000000E-002    1.578486087976044E-028
 -3.020000000000000E-002    1.873050943731826E-028
 -3.010000000000000E-002    2.003163095541808E-028
 -3.000000000000000E-002    1.830348172847154E-028
 -2.990000000000000E-002    1.183519890666391E-028
 -2.980000000000000E-002   -1.286249572355980E-029
 -2.970000000000000E-002   -2.293502075919885E-028
 -2.960000000000000E-002   -5.456380332848493E-028
 -2.950000000000000E-002   -9.666834969732607E-028
 -2.940000000000000E-002   -1.481105360743966E-027
 -2.930000000000000E-002   -2.053453560235304E-027
 -2.920000000000000E-002   -2.616405715317194E-027
 -2.910000000000000E-002   -3.064299909983869E-027
 -2.900000000000000E-002   -3.249934606905410E-027
 -2.890000000000000E-002   -2.987034122549080E-027
 -2.880000000000000E-002   -2.061024143197395E-027
 -2.870000000000000E-002   -2.506812730122663E-028
 -2.860000000000000E-002    2.637393140459979E-027
 -2.850000000000000E-002    6.720786819792497E-027
 -2.840000000000000E-002    1.198112008145103E-026
 -2.830000000000000E-002    1.819585692534460E-026
 -2.820000000000000E-002    2.486966993699210E-026
 -2.810000000000000E-002    3.117675186369021E-026
 -2.800000000000000E-002    3.592908123911630E-026
 -2.790000000000000E-002    3.758847321736300E-026
 -2.780000000000000E-002    3.434123932318386E-026
 -2.770000000000000E-002    2.425267875090699E-026
 -2.760000000000000E-002    5.513329444436603E-027
 -2.750000000000000E-002   -2.322074640535745E-026
 -2.740000000000000E-002   -6.240554168684574E-026
 -2.730000000000000E-002   -1.111349102095967E-025
 -2.720000000000000E-002   -1.666663611307800E-025
 -2.710000000000000E-002   -2.240207766960356E-025
 -2.700000000000000E-002   -2.757492551039668E-025
 -2.690000000000000E-002   -3.119731488472982E-025
 -2.680000000000000E-002   -3.208043183010616E-025
 -2.670000000000000E-002   -2.892373431404118E-025
 -2.660000000000000E-002   -2.045696565561451E-025
 -2.650000000000000E-002   -5.634775820460317E-026
 -2.640000000000000E-002    1.612424609866218E-025
 -2.630000000000000E-002    4.467208773639524E-025
 -2.620000000000000E-002    7.886812733339940E-025
 -2.610000000000000E-002    1.163571496152361E-024
 -2.600000000000000E-002    1.534359065621955E-024
 -2.590000000000000E-002    1.850596944383583E-024
 -2.580000000000000E-002    2.050383676013699E-024
 -2.570000000000000E-002    2.064616063852725E-024
 -2.560000000000000E-002    1.823741560217476E-024
 -2.550000000000000E-002    1.266932175671063E-024
 -2.540000000000000E-002    3.532330310951386E-025
 -2.530000000000000E-002   -9.261853948741440E-025
 -2.520000000000000E-002   -2.535990694991158E-024
 -2.510000000000000E-002   -4.386581070418496E-024
 -2.500000000000000E-002   -6.327909754151323E-024
 -2.490000000000000E-002   -8.149340935457308E-024
 -2.480000000000000E-002   -9.587466438062827E-024
 -2.470000000000000E-002   -1.034334596136319E-023
 -2.460000000000000E-002   -1.010977104658477E-023
 -2.450000000000000E-002   -8.608033470388082E-024
 -2.440000000000000E-002   -5.632192832992476E-024
 -2.430000000000000E-002   -1.097268964974639E-024
 -2.420000000000000E-002    4.913800849766141E-024
 -2.410000000000000E-002    1.211096840818502E-023
 -2.400000000000000E-002    1.997301868562130E-023
 -2.390000000000000E-002    2.774619281319027E-023
 -2.380000000000000E-002    3.447218283978723E-023
 -2.370000000000000E-002    3.905026642518746E-023
 -2.360000000000000E-002    4.033527685710855E-023
 -2.350000000000000E-002    3.726884037205788E-023
 -2.340000000000000E-002    2.903640739944037E-023
 -2.330000000000000E-002    1.523704979291726E-023
 -2.320000000000000E-002   -3.952110889971405E-024
 -2.310000000000000E-002   -2.763942092319800E-023
 -2.300000000000000E-002   -5.413518987351994E-023
 -2.290000000000000E-002   -8.094643853406009E-023
 -2.280000000000000E-002   -1.048719440576094E-022
 -2.270000000000000E-002   -1.222127416995086E-022
 -2.260000000000000E-002   -1.291030050108798E-022
 -2.250000000000000E-002   -1.219517613637361E-022
 -2.240000000000000E-002   -9.796963090161918E-023
 -2.230000000000000E-002   -5.573687514372286E-023
 -2.220000000000000E-002    4.247969371756780E-024
 -2.210000000000000E-002    7.911332693117747E-023
 -2.200000000000000E-002    1.633364285637553E-022
 -2.190000000000000E-002    2.487241856134295E-022
 -2.180000000000000E-002    3.247247177631848E-022
 -2.170000000000000E-002    3.791192467045788E-022
 -2.160000000000000E-002    3.991081685431221E-022
 -2.150000000000000E-002    3.727608388046827E-022
 -2.140000000000000E-002    2.907434431979981E-022
 -2.130000000000000E-002    1.481827869536938E-022
 -2.120000000000000E-002   -5.353030469192095E-023
 -2.110000000000000E-002   -3.052381792035280E-022
 -2.100000000000000E-002   -5.890788798027343E-022
 -2.090000000000000E-002   -8.783763604657775E-022
 -2.080000000000000E-002   -1.138584209921576E-021
 -2.070000000000000E-002   -1.329437721532247E-021
 -2.060000000000000E-002   -1.408355195050317E-021
 -2.050000000000000E-002   -1.334988624732665E-021
 -2.040000000000000E-002   -1.076655480112065E-021
 -2.030000000000000E-002   -6.142113316085819E-022
 -2.020000000000000E-002    5.223865259540705E-023
 -2.010000000000000E-002    8.985148092329634E-022
 -2.000000000000000E-002    1.873215878005580E-021
 -1.990000000000000E-002    2.897019681839452E-021
 -1.980000000000000E-002    3.865090366109137E-021
 -1.970000000000000E-002    4.653019125135273E-021
 -1.960000000000000E-002    5.126411365049594E-021
 -1.950000000000000E-002    5.153811427934368E-021
 -1.940000000000000E-002    4.622208258171656E-021
 -1.930000000000000E-002    3.453892022270949E-021
 -1.920000000000000E-002    1.623015458544589E-021
 -1.910000000000000E-002   -8.300852362093677E-022
 -1.900000000000000E-002   -3.788897070004558E-021
 -1.890000000000000E-002   -7.057068085258831E-021
 -1.880000000000000E-002   -1.036274517069711E-020
 -1.870000000000000E-002   -1.337200840531116E-020
 -1.860000000000000E-002   -1.571166026084291E-020
 -1.850000000000000E-002   -1.700067880369197E-020
 -1.840000000000000E-002   -1.688849716253291E-020
 -1.830000000000000E-002   -1.509728444406522E-020
 -1.820000000000000E-002   -1.146442107349178E-020
 -1.810000000000000E-002   -5.980738022046399E-021
 -1.800000000000000E-002    1.180199693466290E-021
 -1.790000000000000E-002    9.646306606292525E-021
 -1.780000000000000E-002    1.884855288399199E-020
 -1.770000000000000E-002    2.804255337739898E-020
 -1.760000000000000E-002    3.635127825343478E-020
 -1.750000000000000E-002    4.282798424097707E-020
 -1.740000000000000E-002    4.653635834957574E-020
 -1.730000000000000E-002    4.664284445064503E-020
 -1.720000000000000E-002    4.251411855481342E-020
 -1.710000000000000E-002    3.381125328263992E-020
 -1.700000000000000E-002    2.057119871764250E-020
 -1.690000000000000E-002    3.265914716803391E-021
 -1.680000000000000E-002   -1.716985274598078E-020
 -1.670000000000000E-002   -3.934976118709486E-020
 -1.660000000000000E-002   -6.149140663515599E-020
 -1.650000000000000E-002   -8.151859064630710E-020
 -1.640000000000000E-002   -9.720881229244615E-020
 -1.630000000000000E-002   -1.063806274803193E-019
 -1.620000000000000E-002   -1.071105165292935E-019
 -1.610000000000000E-002   -9.796470046670214E-020
 -1.600000000000000E-002   -7.822684943774032E-020
 -1.590000000000000E-002   -4.809907459831083E-020
 -1.580000000000000E-002   -8.851254088902014E-021
 -1.570000000000000E-002    3.710678732917318E-020
 -1.560000000000000E-002    8.625412263037311E-020
 -1.550000000000000E-002    1.341076042665434E-019
 -1.540000000000000E-002    1.755020811866183E-019
 -1.530000000000000E-002    2.050018388369915E-019
 -1.520000000000000E-002    2.174287296993001E-019
 -1.510000000000000E-002    2.084758493974854E-019
 -1.500000000000000E-002    1.753582785876935E-019
 -1.490000000000000E-002    1.174351814290426E-019
 -1.480000000000000E-002    3.672533363654588E-020
 -1.470000000000000E-002   -6.176940695802842E-020
 -1.460000000000000E-002   -1.700162578416086E-019
 -1.450000000000000E-002   -2.772487258324366E-019
 -1.440000000000000E-002   -3.706544461704434E-019
 -1.430000000000000E-002   -4.364595422242711E-019
 -1.420000000000000E-002   -4.613681235726697E-019
 -1.410000000000000E-002   -4.342597233563348E-019
 -1.400000000000000E-002   -3.479915565236163E-019
 -1.390000000000000E-002   -2.011029398810080E-019
 -1.380000000000000E-002    8.149159633853383E-022
 -1.370000000000000E-002    2.443317067467597E-019
 -1.360000000000000E-002    5.082013919464718E-019
 -1.350000000000000E-002    7.643692441393724E-019
 -1.340000000000000E-002    9.800441515655855E-019
 -1.330000000000000E-002    1.120796816577777E-018
 -1.320000000000000E-002    1.154499954507207E-018
 -1.310000000000000E-002    1.055775004822362E-018
 -1.300000000000000E-002    8.104764795068255E-019
 -1.290000000000000E-002    4.196379662074244E-019
 -1.280000000000000E-002   -9.773753507907035E-020
 -1.270000000000000E-002   -7.036346910786833E-019
 -1.260000000000000E-002   -1.342204739330438E-018
 -1.250000000000000E-002   -1.943440454248613E-018
 -1.240000000000000E-002   -2.429339716507561E-018
 -1.230000000000000E-002   -2.722217830195016E-018
 -1.220000000000000E-002   -2.754479489564101E-018
 -1.210000000000000E-002   -2.478834626506380E-018
 -1.200000000000000E-002   -1.877697630071210E-018
 -1.190000000000000E-002   -9.703924547290097E-019
 -1.180000000000000E-002    1.831732703178730E-019
 -1.170000000000000E-002    1.483460340258327E-018
 -1.160000000000000E-002    2.797544235099895E-018
 -1.150000000000000E-002    3.970727651651958E-018
 -1.140000000000000E-002    4.842880044516009E-018
 -1.130000000000000E-002    5.268116410568075E-018
 -1.120000000000000E-002    5.135745570739004E-018
 -1.110000000000000E-002    4.389890852693828E-018
 -1.100000000000000E-002    3.044941481891431E-018
 -1.090000000000000E-002    1.194082751505362E-018
 -1.080000000000000E-002   -9.913572331694706E-019
 -1.070000000000000E-002   -3.273131875774173E-018
 -1.060000000000000E-002   -5.368032532183130E-018
 -1.050000000000000E-002   -6.979314730246123E-018
 -1.040000000000000E-002   -7.834824335805294E-018
 -1.030000000000000E-002   -7.727685934469514E-018
 -1.020000000000000E-002   -6.554409175201450E-018
 -1.010000000000000E-002   -4.344777284553109E-018
 -1.000000000000000E-002   -1.278104543954742E-018
 -9.899999999999999E-003    2.318561719244309E-018
 -9.800000000000000E-003    5.992968585343541E-018
 -9.699999999999999E-003    9.211182897363042E-018
 -9.599999999999999E-003    1.141956852901117E-017
 -9.500000000000000E-003    1.211975325998127E-017
 -9.399999999999999E-003    1.094845525920979E-017
 -9.299999999999999E-003    7.752081659642778E-018
 -9.200000000000000E-003    2.645077064223036E-018
 -9.099999999999999E-003   -3.958603972599150E-018
 -8.999999999999999E-003   -1.134965013698561E-017
 -8.900000000000000E-003   -1.856857687331474E-017
 -8.799999999999999E-003   -2.449280123385133E-017
 -8.699999999999999E-003   -2.796105828039927E-017
 -8.600000000000000E-003   -2.792500190876704E-017
 -8.499999999999999E-003   -2.361262800320870E-017
 -8.399999999999999E-003   -1.468425273121137E-017
 -8.300000000000000E-003   -1.359560341987469E-018
 -8.199999999999999E-003    1.550531004080194E-017
 -8.100000000000000E-003    3.440883751235922E-017
 -8.000000000000000E-003    5.327564662197608E-017
 -7.899999999999999E-003    6.961271274924663E-017
 -7.800000000000000E-003    8.074471989971043E-017
 -7.699999999999999E-003    8.411245363868723E-017
 -7.599999999999999E-003    7.760794105201841E-017
 -7.499999999999999E-003    5.991199890941308E-017
 -7.399999999999999E-003    3.079419783604860E-017
 -7.299999999999999E-003   -8.665875675178397E-018
 -7.199999999999999E-003   -5.597393080577010E-017
 -7.100000000000000E-003   -1.072624859673198E-016
 -6.999999999999999E-003   -1.574956883914277E-016
 -6.899999999999999E-003   -2.008381157965657E-016
 -6.800000000000000E-003   -2.311698517051887E-016
 -6.699999999999999E-003   -2.427116646469024E-016
 -6.599999999999999E-003   -2.307067831707829E-016
 -6.499999999999999E-003   -1.920930107419687E-016
 -6.399999999999999E-003   -1.260916486644120E-016
 -6.299999999999999E-003   -3.463900184378688E-017
 -6.199999999999999E-003    7.740559275735051E-017
 -6.100000000000000E-003    2.023257432330663E-016
 -5.999999999999999E-003    3.299160121301355E-016
 -5.899999999999999E-003    4.481513489170500E-016
 -5.800000000000000E-003    5.441273620522989E-016
 -5.699999999999999E-003    6.052082414225251E-016
 -5.599999999999999E-003    6.202920779207336E-016
 -5.499999999999999E-003    5.810823684012553E-016
 -5.399999999999999E-003    4.832401251681070E-016
 -5.299999999999999E-003    3.272915002244271E-016
 -5.199999999999999E-003    1.191755039413343E-016
 -5.099999999999999E-003   -1.296594638589655E-016
 -4.999999999999999E-003   -4.026671526458304E-016
 -4.899999999999999E-003   -6.791370381149351E-016
 -4.799999999999999E-003   -9.356137087379702E-016
 -4.699999999999999E-003   -1.147718172117210E-015
 -4.599999999999999E-003   -1.292237932280727E-015
 -4.499999999999999E-003   -1.349317399219074E-015
 -4.399999999999999E-003   -1.304552113520902E-015
 -4.299999999999999E-003   -1.150783709297891E-015
 -4.199999999999999E-003   -8.894004174165669E-016
 -4.099999999999999E-003   -5.309779579610971E-016
 -3.999999999999999E-003   -9.514347676801174E-017
 -3.899999999999999E-003    3.903914849039753E-016
 -3.799999999999999E-003    8.916076358971387E-016
 -3.699999999999999E-003    1.370663379321282E-015
 -3.599999999999999E-003    1.788910012653524E-015
 -3.499999999999999E-003    2.110193212460226E-015
 -3.399999999999999E-003    2.304141130904407E-015
 -3.299999999999999E-003    2.349124406426722E-015
 -3.199999999999999E-003    2.234573541216871E-015
 -3.099999999999999E-003    1.962376200126997E-015
 -2.999999999999999E-003    1.547153988628395E-015
 -2.899999999999999E-003    1.015314742268955E-015
 -2.799999999999999E-003    4.028968947775340E-016
 -2.699999999999999E-003   -2.476410959780969E-016
 -2.599999999999999E-003   -8.914096180836688E-016
 -2.499999999999999E-003   -1.485459868163908E-015
 -2.399999999999999E-003   -1.993068363316356E-015
 -2.299999999999999E-003   -2.387426585170687E-015
 -2.199999999999999E-003   -2.654245232898929E-015
 -2.099999999999999E-003   -2.792879589680456E-015
 -1.999999999999999E-003   -2.815689870555337E-015
 -1.899999999999999E-003   -2.745584322044106E-015
 -1.799999999999999E-003   -2.611878617385935E-015
 -1.699999999999999E-003   -2.444864223356414E-015
 -1.599999999999999E-003   -2.269695052880189E-015
 -1.499999999999999E-003   -2.100378523354059E-015
 -1.399999999999999E-003   -1.934759451907725E-015
 -1.299999999999999E-003   -1.751394508637556E-015
 -1.199999999999999E-003   -1.509107610816954E-015
 -1.099999999999999E-003   -1.149788299867284E-015
 -9.999999999999989E-004   -6.046590943359099E-016
 -8.999999999999990E-004    1.961730637464961E-016
 -7.999999999999990E-004    1.311545506765457E-015
 -6.999999999999989E-004    2.775574462912586E-015
 -5.999999999999990E-004    4.584004780729340E-015
 -4.999999999999989E-004    6.682402809152230E-015
 -3.999999999999989E-004    8.958099567982910E-015
 -2.999999999999989E-004    1.123769744058101E-014
 -1.999999999999989E-004    1.329159725442414E-014
 -9.999999999999892E-005    1.484645193142418E-014
  1.084202172485504E-018    1.560562890458951E-014
  1.000000000000011E-004    1.527688430084359E-014
  2.000000000000011E-004    1.360543752532363E-014
  3.000000000000011E-004    1.040971410306208E-014
  4.000000000000011E-004    5.616274545885704E-015
  5.000000000000011E-004   -7.100549394319725E-016
  6.000000000000011E-004   -8.344980992621891E-015
  7.000000000000011E-004   -1.689617840996671E-014
  8.000000000000011E-004   -2.581040819911420E-014
  9.000000000000012E-004   -3.439802296226707E-014
  1.000000000000001E-003   -4.187503780032399E-014
  1.100000000000001E-003   -4.742106422645723E-014
  1.200000000000001E-003   -5.024953228250964E-014
  1.300000000000001E-003   -4.968488432840975E-014
  1.400000000000001E-003   -4.523999192793906E-014
  1.500000000000001E-003   -3.668615332524614E-014
  1.600000000000001E-003   -2.410794995160788E-014
  1.700000000000001E-003   -7.935730616906757E-015
  1.800000000000001E-003    1.104986011112849E-014
  1.900000000000001E-003    3.174499234146195E-014
  2.000000000000001E-003    5.278185056503915E-014
  2.100000000000001E-003    7.261770264563650E-014
  2.200000000000001E-003    8.964801613401987E-014
  2.300000000000001E-003    1.023350933011575E-013
  2.400000000000001E-003    1.093413338324358E-013
  2.500000000000001E-003    1.096548688339184E-013
  2.600000000000001E-003    1.026951397427005E-013
  2.700000000000001E-003    8.838702266515628E-014
  2.800000000000001E-003    6.719454715557755E-014
  2.900000000000001E-003    4.010868623404416E-014
  3.000000000000001E-003    8.588103789957653E-015
  3.100000000000001E-003   -2.554356770545047E-014
  3.200000000000001E-003   -6.023567869724560E-014
  3.300000000000001E-003   -9.337097907820694E-014
  3.400000000000001E-003   -1.229334133095990E-013
  3.500000000000001E-003   -1.471659538505588E-013
  3.600000000000001E-003   -1.647019572815012E-013
  3.700000000000001E-003   -1.746555311792194E-013
  3.800000000000001E-003   -1.766603389073019E-013
  3.900000000000001E-003   -1.708520974721678E-013
  4.000000000000001E-003   -1.577963462304474E-013
  4.100000000000001E-003   -1.383698714100121E-013
  4.200000000000001E-003   -1.136106353981629E-013
  4.300000000000001E-003   -8.455611181843906E-014
  4.400000000000001E-003   -5.209290108296591E-014
  4.500000000000001E-003   -1.684098799691540E-014
  4.600000000000002E-003    2.090619191033831E-014
  4.700000000000001E-003    6.117052627811768E-014
  4.800000000000001E-003    1.041987688023433E-013
  4.900000000000002E-003    1.502954040596086E-013
  5.000000000000001E-003    1.995914500051424E-013
  5.100000000000001E-003    2.517735189657724E-013
  5.200000000000001E-003    3.058060086610666E-013
  5.300000000000002E-003    3.596858979135911E-013
  5.400000000000001E-003    4.102728849737934E-013
  5.500000000000001E-003    4.532354392290873E-013
  5.600000000000002E-003    4.831459221883594E-013
  5.700000000000001E-003    4.937470310732294E-013
  5.800000000000001E-003    4.783954614948904E-013
  5.900000000000002E-003    4.306678755307515E-013
  6.000000000000001E-003    3.450969642302357E-013
  6.100000000000001E-003    2.179826653670464E-013
  6.200000000000002E-003    4.820676304056939E-014
  6.300000000000002E-003   -1.620315874122078E-013
  6.400000000000001E-003   -4.066494823796679E-013
  6.500000000000001E-003   -6.753682727884670E-013
  6.600000000000002E-003   -9.537311303276765E-013
  6.700000000000001E-003   -1.223504291745013E-012
  6.800000000000001E-003   -1.463487265394741E-012
  6.900000000000002E-003   -1.650723515710020E-012
  7.000000000000001E-003   -1.762064298935742E-012
  7.100000000000001E-003   -1.776001231332358E-012
  7.200000000000002E-003   -1.674646212731807E-012
  7.300000000000002E-003   -1.445711218882279E-012
  7.400000000000001E-003   -1.084322634906595E-012
  7.500000000000001E-003   -5.944952354921681E-013
  7.600000000000002E-003    9.894196658614482E-015
  7.700000000000001E-003    7.047736749031885E-013
  7.800000000000001E-003    1.456284304036405E-012
  7.900000000000001E-003    2.221980535018437E-012
  8.000000000000002E-003    2.952814773542053E-012
  8.100000000000001E-003    3.595835263725010E-012
  8.200000000000001E-003    4.097462530462964E-012
  8.300000000000002E-003    4.407158496805245E-012
  8.400000000000001E-003    4.481247450641457E-012
  8.500000000000002E-003    4.286628878700205E-012
  8.600000000000002E-003    3.804102060745494E-012
  8.700000000000001E-003    3.031036306897537E-012
  8.800000000000002E-003    1.983151484489046E-012
  8.900000000000002E-003    6.952141950344568E-013
  9.000000000000001E-003   -7.794597208694705E-013
  9.100000000000002E-003   -2.370755365489949E-012
  9.200000000000002E-003   -3.994714985486874E-012
  9.300000000000001E-003   -5.557581377318457E-012
  9.400000000000002E-003   -6.960729404210817E-012
  9.500000000000001E-003   -8.106227809913923E-012
  9.600000000000001E-003   -8.902717906327797E-012
  9.700000000000002E-003   -9.271272504069457E-012
  9.800000000000001E-003   -9.150892279200455E-012
  9.900000000000001E-003   -8.503312805125401E-012
  1.000000000000000E-002   -7.316817411441360E-012
  1.010000000000000E-002   -5.608830437622719E-012
  1.020000000000000E-002   -3.427089499696770E-012
  1.030000000000000E-002   -8.492863205711791E-013
  1.040000000000000E-002    2.018849735888482E-012
  1.050000000000000E-002    5.047008786662986E-012
  1.060000000000000E-002    8.085220215191526E-012
  1.070000000000000E-002    1.097004881776948E-011
  1.080000000000000E-002    1.353189439900358E-011
  1.090000000000000E-002    1.560313601345426E-011
  1.100000000000000E-002    1.702683543202125E-011
  1.110000000000000E-002    1.766568057714921E-011
  1.120000000000000E-002    1.741080797134470E-011
  1.130000000000000E-002    1.619013713860430E-011
  1.140000000000000E-002    1.397577233718172E-011
  1.150000000000000E-002    1.079008506942200E-011
  1.160000000000000E-002    6.709966352457983E-012
  1.170000000000000E-002    1.868859915649623E-012
  1.180000000000000E-002   -3.543885125799167E-012
  1.190000000000000E-002   -9.286689005854074E-012
  1.200000000000000E-002   -1.507271080682218E-011
  1.210000000000000E-002   -2.058027321364396E-011
  1.220000000000000E-002   -2.546668538189338E-011
  1.230000000000000E-002   -2.938521402713192E-011
  1.240000000000000E-002   -3.200470352224958E-011
  1.250000000000000E-002   -3.303107943044576E-011
  1.260000000000000E-002   -3.222968008938572E-011
  1.270000000000000E-002   -2.944715200466643E-011
  1.280000000000000E-002   -2.463143930101106E-011
  1.290000000000000E-002   -1.784820484208144E-011
  1.300000000000000E-002   -9.292166660185992E-012
  1.310000000000000E-002    7.083172178081446E-013
  1.320000000000000E-002    1.169460266959248E-011
  1.330000000000000E-002    2.309006116700619E-011
  1.340000000000000E-002    3.422177996365713E-011
  1.350000000000000E-002    4.435146284651230E-011
  1.360000000000000E-002    5.271478910255565E-011
  1.370000000000000E-002    5.856760887792619E-011
  1.380000000000000E-002    6.123681079345084E-011
  1.390000000000000E-002    6.017298725620888E-011
  1.400000000000000E-002    5.500152676954119E-011
  1.410000000000000E-002    4.556856448320162E-011
  1.420000000000000E-002    3.197792837283894E-011
  1.430000000000000E-002    1.461565309304278E-011
  1.440000000000000E-002   -5.841065022241388E-012
  1.450000000000000E-002   -2.843287756905429E-011
  1.460000000000000E-002   -5.194660200485436E-011
  1.470000000000000E-002   -7.496305628327829E-011
  1.480000000000000E-002   -9.592347988290844E-011
  1.490000000000000E-002   -1.132119415605648E-010
  1.500000000000000E-002   -1.252502180610407E-010
  1.510000000000000E-002   -1.306002047828556E-010
  1.520000000000000E-002   -1.280681489564684E-010
  1.530000000000000E-002   -1.168043126538894E-010
  1.540000000000000E-002   -9.639152070218375E-011
  1.550000000000000E-002   -6.691618664509109E-011
  1.560000000000000E-002   -2.901608378865719E-011
  1.570000000000000E-002    1.609997980534490E-011
  1.580000000000000E-002    6.666394373242392E-011
  1.590000000000000E-002    1.203933120361337E-010
  1.600000000000000E-002    1.745688992863929E-010
  1.610000000000000E-002    2.261436213921556E-010
  1.620000000000000E-002    2.718780307135702E-010
  1.630000000000000E-002    3.084970763855748E-010
  1.640000000000000E-002    3.328608644034220E-010
  1.650000000000000E-002    3.421413030105673E-010
  1.660000000000000E-002    3.339954673772778E-010
  1.670000000000000E-002    3.067268335306572E-010
  1.680000000000000E-002    2.594256373281123E-010
  1.690000000000000E-002    1.920800224217458E-010
  1.700000000000000E-002    1.056518732256017E-010
  1.710000000000000E-002    2.111473182757770E-012
  1.720000000000000E-002   -1.155721380718456E-010
  1.730000000000000E-002   -2.434862945342831E-010
  1.740000000000000E-002   -3.768748052915117E-010
  1.750000000000000E-002   -5.102807515994480E-010
  1.760000000000000E-002   -6.377268218059000E-010
  1.770000000000000E-002   -7.529274170724711E-010
  1.780000000000000E-002   -8.495249792114280E-010
  1.790000000000000E-002   -9.213418736516949E-010
  1.800000000000000E-002   -9.626384817893670E-010
  1.810000000000000E-002   -9.683682255161548E-010
  1.820000000000000E-002   -9.344196140705726E-010
  1.830000000000000E-002   -8.578359482793777E-010
  1.840000000000000E-002   -7.370043219255174E-010
  1.850000000000000E-002   -5.718059073973687E-010
  1.860000000000000E-002   -3.637214190986170E-010
  1.870000000000000E-002   -1.158861353065231E-010