 -4.000000000000000E-002    0.000000000000000E+000
 -3.990000000000000E-002    0.000000000000000E+000
 -3.980000000000000E-002    0.000000000000000E+000
 -3.970000000000000E-002    0.000000000000000E+000
 -3.960000000000000E-002    0.000000000000000E+000
 -3.950000000000000E-002    0.000000000000000E+000
 -3.940000000000000E-002    0.000000000000000E+000
 -3.930000000000000E-002    0.000000000000000E+000
 -3.920000000000000E-002    0.000000000000000E+000
 -3.910000000000000E-002    0.000000000000000E+000
 -3.900000000000000E-002    0.000000000000000E+000
 -3.890000000000000E-002    0.000000000000000E+000
 -3.880000000000000E-002    0.000000000000000E+000
 -3.870000000000000E-002    0.000000000000000E+000
 -3.860000000000000E-002    0.000000000000000E+000
 -3.850000000000000E-002    0.000000000000000E+000
 -3.840000000000000E-002    0.000000000000000E+000
 -3.830000000000000E-002    0.000000000000000E+000
 -3.820000000000000E-002    0.000000000000000E+000
 -3.810000000000000E-002    0.000000000000000E+000
 -3.800000000000000E-002    0.000000000000000E+000
 -3.790000000000000E-002    0.000000000000000E+000
 -3.780000000000000E-002    0.000000000000000E+000
 -3.770000000000000E-002    0.000000000000000E+000
 -3.760000000000000E-002    0.000000000000000E+000
 -3.750000000000000E-002    0.000000000000000E+000
 -3.740000000000000E-002    0.000000000000000E+000
 -3.730000000000000E-002    0.000000000000000E+000
 -3.720000000000000E-002    0.000000000000000E+000
 -3.710000000000000E-002    0.000000000000000E+000
 -3.700000000000000E-002    0.000000000000000E+000
 -3.690000000000000E-002    0.000000000000000E+000
 -3.680000000000000E-002    0.000000000000000E+000
 -3.670000000000000E-002    0.000000000000000E+000
 -3.660000000000000E-002    0.000000000000000E+000
 -3.650000000000000E-002    0.000000000000000E+000
 -3.640000000000000E-002    0.000000000000000E+000
 -3.630000000000000E-002    0.000000000000000E+000
 -3.620000000000000E-002    0.000000000000000E+000
 -3.610000000000000E-002    0.000000000000000E+000
 -3.600000000000000E-002    0.000000000000000E+000
 -3.590000000000000E-002    0.000000000000000E+000
 -3.580000000000000E-002    0.000000000000000E+000
 -3.570000000000000E-002    0.000000000000000E+000
 -3.560000000000000E-002    0.000000000000000E+000
 -3.550000000000000E-002    0.000000000000000E+000
 -3.540000000000000E-002    0.000000000000000E+000
 -3.530000000000000E-002    0.000000000000000E+000
 -3.520000000000000E-002    0.000000000000000E+000
 -3.510000000000000E-002    0.000000000000000E+000
 -3.500000000000000E-002    0.000000000000000E+000
 -3.490000000000000E-002    0.000000000000000E+000
 -3.480000000000000E-002    0.000000000000000E+000
 -3.470000000000000E-002    0.000000000000000E+000
 -3.460000000000000E-002    0.000000000000000E+000
 -3.450000000000000E-002    0.000000000000000E+000
 -3.440000000000000E-002    0.000000000000000E+000
 -3.430000000000000E-002    0.000000000000000E+000
 -3.420000000000000E-002    0.000000000000000E+000
 -3.410000000000000E-002    0.000000000000000E+000
 -3.400000000000000E-002    0.000000000000000E+000
 -3.390000000000000E-002    0.000000000000000E+000
 -3.380000000000000E-002    0.000000000000000E+000
 -3.370000000000000E-002   -4.719654771388408E-048
 -3.360000000000000E-002   -4.848527214484368E-047
 -3.350000000000000E-002   -9.697054428968736E-047
 -3.340000000000000E-002   -1.778106700624179E-046
 -3.330000000000000E-002   -2.991399455070895E-046
 -3.320000000000000E-002   -4.993030340979960E-046
 -3.310000000000000E-002   -7.561211861519916E-046
 -3.300000000000000E-002   -9.598326965696480E-046
 -3.290000000000000E-002   -1.153692506445224E-045
 -3.280000000000000E-002   -1.027484718231638E-045
 -3.270000000000000E-002    1.706506074429029E-046
 -3.260000000000000E-002    3.629098978613507E-045
 -3.250000000000000E-002    1.001109896213587E-044
 -3.240000000000000E-002    2.069526425936539E-044
 -3.230000000000000E-002    3.970226736587039E-044
 -3.220000000000000E-002    6.901834617469019E-044
 -3.210000000000000E-002    1.124183854618451E-043
 -3.200000000000000E-002    1.720165731493468E-043
 -3.190000000000000E-002    2.422019045680505E-043
 -3.180000000000000E-002    3.117958709145729E-043
 -3.170000000000000E-002    3.499172080987721E-043
 -3.160000000000000E-002    2.967645755884034E-043
 -3.150000000000000E-002    5.279833112526195E-044
 -3.140000000000000E-002   -5.409617017158386E-043
 -3.130000000000000E-002   -1.714424295113020E-042
 -3.120000000000000E-002   -3.771714965317943E-042
 -3.110000000000000E-002   -7.068197145916922E-042
 -3.100000000000000E-002   -1.195176816200425E-041
 -3.090000000000000E-002   -1.861902664779298E-041
 -3.080000000000000E-002   -2.687731245659385E-041
 -3.070000000000000E-002   -3.575580521802375E-041
 -3.060000000000000E-002   -4.295077398961704E-041
 -3.050000000000000E-002   -4.409537479995687E-041
 -3.040000000000000E-002   -3.192356203557585E-041
 -3.030000000000000E-002    4.532401692468437E-042
 -3.020000000000000E-002    8.039667651363244E-041
 -3.010000000000000E-002    2.145761377313853E-040
 -3.000000000000000E-002    4.278054511049801E-040
 -2.990000000000000E-002    7.381520770517233E-040
 -2.980000000000000E-002    1.152834692509792E-039
 -2.970000000000000E-002    1.655216770574359E-039
 -2.960000000000000E-002    2.186215324385467E-039
 -2.950000000000000E-002    2.620264212852217E-039
 -2.940000000000000E-002    2.737711026735819E-039
 -2.930000000000000E-002    2.198213344700813E-039
 -2.920000000000000E-002    5.235158476927937E-040
 -2.910000000000000E-002   -2.897246576364336E-039
 -2.900000000000000E-002   -8.761372283604003E-039
 -2.890000000000000E-002   -1.774259172502653E-038
 -2.880000000000000E-002   -3.029203388347017E-038
 -2.870000000000000E-002   -4.632755896412534E-038
 -2.860000000000000E-002   -6.479948054476102E-038
 -2.850000000000000E-002   -8.314292380855906E-038
 -2.840000000000000E-002   -9.666397155039171E-038
 -2.830000000000000E-002   -9.796048881168138E-038
 -2.820000000000000E-002   -7.654779062164268E-038
 -2.810000000000000E-002   -1.893878083513069E-038
 -2.800000000000000E-002    9.049436475304778E-038
 -2.790000000000000E-002    2.674946476093070E-037
 -2.780000000000000E-002    5.243444116476758E-037
 -2.770000000000000E-002    8.644367849882833E-037
 -2.760000000000000E-002    1.274904578883719E-036
 -2.750000000000000E-002    1.717596154947892E-036
 -2.740000000000000E-002    2.119260323556443E-036
 -2.730000000000000E-002    2.362562866052949E-036
 -2.720000000000000E-002    2.280461620946318E-036
 -2.710000000000000E-002    1.657405562340847E-036
 -2.700000000000000E-002    2.416111426796449E-037
 -2.690000000000000E-002   -2.226946540915072E-036
 -2.680000000000000E-002   -5.968561170228756E-036
 -2.670000000000000E-002   -1.109304804035453E-035
 -2.660000000000000E-002   -1.750637319156831E-035
 -2.650000000000000E-002   -2.479947690865389E-035
 -2.640000000000000E-002   -3.213053280393819E-035
 -2.630000000000000E-002   -3.811976031075565E-035
 -2.620000000000000E-002   -4.078451401224369E-035
 -2.610000000000000E-002   -3.755037796221999E-035
 -2.600000000000000E-002   -2.537952273478054E-035
 -2.590000000000000E-002   -1.058310916528990E-036
 -2.580000000000000E-002    3.832065178053196E-035
 -2.570000000000000E-002    9.466371179299641E-035
 -2.560000000000000E-002    1.679791547336411E-034
 -2.550000000000000E-002    2.553301645676280E-034
 -2.540000000000000E-002    3.497428377695477E-034
 -2.530000000000000E-002    4.392347932062919E-034
 -2.520000000000000E-002    5.061901134633005E-034
 -2.510000000000000E-002    5.273566903368649E-034
 -2.500000000000000E-002    4.747681520328667E-034
 -2.490000000000000E-002    3.178806493682824E-034
 -2.480000000000000E-002    2.714902310997310E-035
 -2.470000000000000E-002   -4.208636483752553E-034
 -2.460000000000000E-002   -1.036949577211222E-033
 -2.450000000000000E-002   -1.811667435772416E-033
 -2.440000000000000E-002   -2.707393612473788E-033
 -2.430000000000000E-002   -3.651041368050554E-033
 -2.420000000000000E-002   -4.528790248653283E-033
 -2.410000000000000E-002   -5.184396527852426E-033
 -2.400000000000000E-002   -5.422742451380724E-033
 -2.390000000000000E-002   -5.020160713238531E-033
 -2.380000000000000E-002   -3.742699056932009E-033
 -2.370000000000000E-002   -1.372833682102635E-033
 -2.360000000000000E-002    2.255780247726550E-033
 -2.350000000000000E-002    7.217078541795764E-033
 -2.340000000000000E-002    1.344770299582734E-032
 -2.330000000000000E-002    2.070254109368719E-032
 -2.320000000000000E-002    2.851586757438554E-032
 -2.310000000000000E-002    3.617401648664862E-032
 -2.300000000000000E-002    4.270581544183179E-032
 -2.290000000000000E-002    4.689676580266793E-032
 -2.280000000000000E-002    4.733213035517128E-032
 -2.270000000000000E-002    4.247283859803526E-032
 -2.260000000000000E-002    3.076654163406410E-032
 -2.250000000000000E-002    1.079444256527787E-032
 -2.240000000000000E-002   -1.854700407786327E-032
 -2.230000000000000E-002   -5.783193257458883E-032
 -2.220000000000000E-002   -1.068621667465932E-031
 -2.210000000000000E-002   -1.644011437372900E-031
 -2.200000000000000E-002   -2.278930113288322E-031
 -2.190000000000000E-002   -2.931802969575789E-031
 -2.180000000000000E-002   -3.542418249997176E-031
 -2.170000000000000E-002   -4.029850003199274E-031
 -2.160000000000000E-002   -4.291438687865999E-031
 -2.150000000000000E-002   -4.203557514590789E-031
 -2.140000000000000E-002   -3.625121979429540E-031
 -2.130000000000000E-002   -2.405006257297287E-031
 -2.120000000000000E-002   -3.946458538405602E-032
 -2.110000000000000E-002    2.532966068471461E-031
 -2.100000000000000E-002    6.457025756342959E-031
 -2.090000000000000E-002    1.137528363327400E-030
 -2.080000000000000E-002    1.716409354962927E-030
 -2.070000000000000E-002    2.353489843679607E-030
 -2.060000000000000E-002    2.999202041038420E-030
 -2.050000000000000E-002    3.579899905090874E-030
 -2.040000000000000E-002    3.996303453014885E-030
 -2.030000000000000E-002    4.124893733576338E-030
 -2.020000000000000E-002    3.823471352841164E-030
 -2.010000000000000E-002    2.941995271250648E-030
 -2.000000000000000E-002    1.339485006356046E-030
 -1.990000000000000E-002   -1.092842380524627E-030
 -1.980000000000000E-002   -4.402950599329093E-030
 -1.970000000000000E-002   -8.545809258879484E-030
 -1.960000000000000E-002   -1.335097678888147E-029
 -1.950000000000000E-002   -1.849465343672863E-029
 -1.940000000000000E-002   -2.348212342752616E-029
 -1.930000000000000E-002   -2.764722689082119E-029
 -1.920000000000000E-002   -3.017546489472267E-029
 -1.910000000000000E-002   -3.015618831981234E-029
 -1.900000000000000E-002   -2.666693263182662E-029
 -1.890000000000000E-002   -1.888916142751306E-029
 -1.880000000000000E-002   -6.249733340823477E-030
 -1.870000000000000E-002    1.142344207753218E-029
 -1.860000000000000E-002    3.374903973020639E-029
 -1.850000000000000E-002    5.966588291525143E-029
 -1.840000000000000E-002    8.735838298461132E-029
 -1.830000000000000E-002    1.142600194562668E-028
 -1.820000000000000E-002    1.371571616329326E-028
 -1.810000000000000E-002    1.524070440881502E-028
 -1.800000000000000E-002    1.562703357648669E-028
 -1.790000000000000E-002    1.453416014923783E-028
 -1.780000000000000E-002    1.170414903993983E-028
 -1.770000000000000E-002    7.011541456660778E-029
 -1.760000000000000E-002    5.068299386029996E-030
 -1.750000000000000E-002   -7.554271165696273E-029
 -1.740000000000000E-002   -1.670322966882395E-028
 -1.730000000000000E-002   -2.627856883693659E-028
 -1.720000000000000E-002   -3.547582223192998E-028
 -1.710000000000000E-002   -4.342577358052583E-028
 -1.700000000000000E-002   -4.929385560294839E-028
 -1.690000000000000E-002   -5.238813007713040E-028
 -1.680000000000000E-002   -5.225867503861024E-028
 -1.670000000000000E-002   -4.876847322992358E-028
 -1.660000000000000E-002   -4.211627539477330E-028
 -1.650000000000000E-002   -3.279599229139215E-028
 -1.640000000000000E-002   -2.148562549639331E-028
 -1.630000000000000E-002   -8.870920685490179E-029
 -1.620000000000000E-002    4.575993530313129E-029
 -1.610000000000000E-002    1.882707008833220E-028
 -1.600000000000000E-002    3.448822492526273E-028
 -1.590000000000000E-002    5.289063147783228E-028
 -1.580000000000000E-002    7.602545537717759E-028
 -1.570000000000000E-002    1.062754211022565E-027
 -1.560000000000000E-002    1.459203694329268E-027
 -1.550000000000000E-002    1.964299739732875E-027
 -1.540000000000000E-002    2.576019624424982E-027
 -1.530000000000000E-002    3.266534925507628E-027
 -1.520000000000000E-002    3.974186356871783E-027
 -1.510000000000000E-002    4.598382281441867E-027
 -1.500000000000000E-002    4.999386320106802E-027
 -1.490000000000000E-002    5.004764310099824E-027
 -1.480000000000000E-002    4.423705127084314E-027
 -1.470000000000000E-002    3.069511793601674E-027
 -1.460000000000000E-002    7.893320339276682E-028
 -1.450000000000000E-002   -2.501222877488437E-027
 -1.440000000000000E-002   -6.782347632093198E-027
 -1.430000000000000E-002   -1.189817843657447E-026
 -1.420000000000000E-002   -1.753452392779117E-026
 -1.410000000000000E-002   -2.321195204082411E-026
 -1.400000000000000E-002   -2.829918040758288E-026
 -1.390000000000000E-002   -3.204996101243398E-026
 -1.380000000000000E-002   -3.366404139200969E-026
 -1.370000000000000E-002   -3.236950539436929E-026
 -1.360000000000000E-002   -2.752028329257654E-026
 -1.350000000000000E-002   -1.869926053937243E-026
 -1.340000000000000E-002   -5.814852604853886E-027
 -1.330000000000000E-002    1.082239895945331E-026
 -1.320000000000000E-002    3.045626627846103E-026
 -1.310000000000000E-002    5.188505877973038E-026
 -1.300000000000000E-002    7.351218363065625E-026
 -1.290000000000000E-002    9.344787322352888E-026
 -1.280000000000000E-002    1.096562589354397E-025
 -1.270000000000000E-002    1.201353447607408E-025
 -1.260000000000000E-002    1.231117303704592E-025
 -1.250000000000000E-002    1.172282521583727E-025
 -1.240000000000000E-002    1.017017188188788E-025
 -1.230000000000000E-002    7.643024839477425E-026
 -1.220000000000000E-002    4.203519504837545E-026
 -1.210000000000000E-002   -1.692039697652029E-028
 -1.200000000000000E-002   -4.827542531974229E-026
 -1.190000000000000E-002   -9.993842847697010E-026
 -1.180000000000000E-002   -1.525658680741572E-025
 -1.170000000000000E-002   -2.035151000988548E-025
 -1.160000000000000E-002   -2.502676702010299E-025
 -1.150000000000000E-002   -2.905550337314580E-025
 -1.140000000000000E-002   -3.224165459224979E-025
 -1.130000000000000E-002   -3.441822296287980E-025
 -1.120000000000000E-002   -3.543858588171923E-025
 -1.110000000000000E-002   -3.516271951336903E-025
 -1.100000000000000E-002   -3.344134034446072E-025
 -1.090000000000000E-002   -3.010166692884673E-025
 -1.080000000000000E-002   -2.493872501737939E-025
 -1.070000000000000E-002   -1.771572223649660E-025
 -1.060000000000000E-002   -8.176206314484197E-026
 -1.050000000000000E-002    3.930469334036091E-026
 -1.040000000000000E-002    1.881022505748328E-025
 -1.030000000000000E-002    3.657296853710560E-025
 -1.020000000000000E-002    5.717123738842993E-025
 -1.010000000000000E-002    8.033186213313253E-025
 -1.000000000000000E-002    1.054846564021594E-024
 -9.899999999999999E-003    1.316928195310040E-024
 -9.800000000000000E-003    1.575909347367382E-024
 -9.699999999999999E-003    1.813380798787674E-024
 -9.599999999999999E-003    2.005956761441978E-024
 -9.500000000000000E-003    2.125423416775752E-024
 -9.399999999999999E-003    2.139404237276912E-024
 -9.299999999999999E-003    2.012704337567573E-024
 -9.200000000000000E-003    1.709490308831026E-024
 -9.099999999999999E-003    1.196424714512744E-024
 -8.999999999999999E-003    4.467921063200070E-025
 -8.900000000000000E-003   -5.544728334068945E-025
 -8.799999999999999E-003   -1.805122360200944E-024
 -8.699999999999999E-003   -3.279771510345382E-024
 -8.600000000000000E-003   -4.924604310979999E-024
 -8.499999999999999E-003   -6.653487665227380E-024
 -8.399999999999999E-003   -8.346492274973505E-024
 -8.300000000000000E-003   -9.851818565248157E-024
 -8.199999999999999E-003   -1.099197319681516E-023
 -8.100000000000000E-003   -1.157471174387897E-023
 -8.000000000000000E-003   -1.140874803208491E-023
 -7.899999999999999E-003   -1.032357839954766E-023
 -7.800000000000000E-003   -8.192017829462539E-024
 -7.699999999999999E-003   -4.953326687089166E-024
 -7.599999999999999E-003   -6.341873894090488E-025
 -7.499999999999999E-003    4.635542528002916E-024
 -7.399999999999999E-003    1.061536759431374E-023
 -7.299999999999999E-003    1.695757435679032E-023
 -7.199999999999999E-003    2.322319371251760E-023
 -7.100000000000000E-003    2.891079857005530E-023
 -6.999999999999999E-003    3.349672027056932E-023
 -6.899999999999999E-003    3.648352970594208E-023
 -6.800000000000000E-003    3.745188501657415E-023
 -6.699999999999999E-003    3.610968020996258E-023
 -6.599999999999999E-003    3.233177499236180E-023
 -6.499999999999999E-003    2.618393177876588E-023
 -6.399999999999999E-003    1.792584451903714E-023
 -6.299999999999999E-003    7.990401986177685E-024
 -6.199999999999999E-003   -3.060668365993860E-024
 -6.100000000000000E-003   -1.460113796558921E-023
 -5.999999999999999E-003   -2.601749408843385E-023
 -5.899999999999999E-003   -3.678893131480745E-023
 -5.800000000000000E-003   -4.655811844629690E-023
 -5.699999999999999E-003   -5.518019567052666E-023
 -5.599999999999999E-003   -6.273876719402936E-023
 -5.499999999999999E-003   -6.952074691339195E-023
 -5.399999999999999E-003   -7.594663092598659E-023
 -5.299999999999999E-003   -8.245877866008218E-023
 -5.199999999999999E-003   -8.937681418506665E-023
 -5.099999999999999E-003   -9.673553114279200E-023
 -4.999999999999999E-003   -1.041260679176205E-022
 -4.899999999999999E-003   -1.105644375040794E-022
 -4.799999999999999E-003   -1.144125539739181E-022
 -4.699999999999999E-003   -1.133749881770954E-022
 -4.599999999999999E-003   -1.045899223224170E-022
 -4.499999999999999E-003   -8.482542685762657E-023
 -4.399999999999999E-003   -5.078250792218851E-023
 -4.299999999999999E-003    5.044005437242446E-025
 -4.199999999999999E-003    7.119054885759536E-023
 -4.099999999999999E-003    1.620997958216923E-022
 -3.999999999999999E-003    2.722016697858339E-022
 -3.899999999999999E-003    3.981372402407747E-022
 -3.799999999999999E-003    5.338503672807016E-022
 -3.699999999999999E-003    6.703836180570065E-022
 -3.599999999999999E-003    7.958975943733223E-022
 -3.499999999999999E-003    8.959669114927440E-022
 -3.399999999999999E-003    9.541963309841006E-022
 -3.299999999999999E-003    9.531843857423801E-022
 -3.199999999999999E-003    8.758391197649127E-022
 -3.099999999999999E-003    7.070212223098856E-022
 -2.999999999999999E-003    4.354529739305723E-022
 -2.899999999999999E-003    5.579039822176603E-023
 -2.799999999999999E-003   -4.292904986607095E-022
 -2.699999999999999E-003   -1.007185676681969E-021
 -2.599999999999999E-003   -1.653863936711903E-021
 -2.499999999999999E-003   -2.333033184258564E-021
 -2.399999999999999E-003   -2.996233208333691E-021
 -2.299999999999999E-003   -3.584094652925455E-021
 -2.199999999999999E-003   -4.028948475967335E-021
 -2.099999999999999E-003   -4.258882283067104E-021
 -1.999999999999999E-003   -4.203210696859979E-021
 -1.899999999999999E-003   -3.799178020141093E-021
 -1.799999999999999E-003   -2.999530610381800E-021
 -1.699999999999999E-003   -1.780427257350719E-021
 -1.599999999999999E-003   -1.489899673189279E-022
 -1.499999999999999E-003    1.850322797156578E-021
 -1.399999999999999E-003    4.131399285607915E-021
 -1.299999999999999E-003    6.565077930435216E-021
 -1.199999999999999E-003    8.981420033596463E-021
 -1.099999999999999E-003    1.117619562892821E-020
 -9.999999999999989E-004    1.292182159572944E-020
 -8.999999999999990E-004    1.398260192603942E-020
 -7.999999999999990E-004    1.413370458103900E-020
 -6.999999999999989E-004    1.318283586811307E-020
 -5.999999999999990E-004    1.099317020028162E-020
 -4.999999999999989E-004    7.505719470166242E-021
 -3.999999999999989E-004    2.759094313435209E-021
 -2.999999999999989E-004   -3.095502386135708E-021
 -1.999999999999989E-004   -9.786130849839750E-021
 -9.999999999999892E-005   -1.692066117268766E-020
  1.084202172485504E-018   -2.399740790544615E-020
  1.000000000000011E-004   -3.042668060056680E-020
  2.000000000000011E-004   -3.556331233892307E-020
  3.000000000000011E-004   -3.874945293986128E-020
  4.000000000000011E-004   -3.936597563720955E-020
  5.000000000000011E-004   -3.688999850277300E-020
  6.000000000000011E-004   -3.095514058343534E-020
  7.000000000000011E-004   -2.141039013911383E-020
  8.000000000000011E-004   -8.372824242146097E-021
  9.000000000000012E-004    7.731000661178913E-021
  1.000000000000001E-003    2.614034541157180E-020
  1.100000000000001E-003    4.575748132939068E-020
  1.200000000000001E-003    6.517142612237753E-020
  1.300000000000001E-003    8.271190019542232E-020
  1.400000000000001E-003    9.653561406702178E-020
  1.500000000000001E-003    1.047449005063002E-019
  1.600000000000001E-003    1.055361238996159E-019
  1.700000000000001E-003    9.737210894349261E-020
  1.800000000000001E-003    7.916928103327785E-020
  1.900000000000001E-003    5.048687264397314E-020
  2.000000000000001E-003    1.170193115523230E-020
  2.100000000000001E-003   -3.584874906746215E-020
  2.200000000000001E-003   -8.978021786296356E-020
  2.300000000000001E-003   -1.466450256423439E-019
  2.400000000000001E-003   -2.020114021969939E-019
  2.500000000000001E-003   -2.506481069367769E-019
  2.600000000000001E-003   -2.868230710629065E-019
  2.700000000000001E-003   -3.047135342094168E-019
  2.800000000000001E-003   -2.989142401277571E-019
  2.900000000000001E-003   -2.650170630278651E-019
  3.000000000000001E-003   -2.002231428776937E-019
  3.100000000000001E-003   -1.039360474185036E-019
  3.200000000000001E-003    2.172429761756752E-020
  3.300000000000001E-003    1.715525076308532E-019
  3.400000000000001E-003    3.370986431128706E-019
  3.500000000000001E-003    5.067771792907670E-019
  3.600000000000001E-003    6.662877444357777E-019
  3.700000000000001E-003    7.993699853612853E-019
  3.800000000000001E-003    8.888867462583789E-019
  3.900000000000001E-003    9.181977015558523E-019
  4.000000000000001E-003    8.727502514235872E-019
  4.100000000000001E-003    7.417812586902665E-019
  4.200000000000001E-003    5.199929803028263E-019
  4.300000000000001E-003    2.090455656798158E-019
  4.400000000000001E-003   -1.813019906455872E-019
  4.500000000000001E-003   -6.325666735207828E-019
  4.600000000000002E-003   -1.117576601120725E-018
  4.700000000000001E-003   -1.601274652255772E-018
  4.800000000000001E-003   -2.042347771363574E-018
  4.900000000000002E-003   -2.395674499863469E-018
  5.000000000000001E-003   -2.615511173956136E-018
  5.100000000000001E-003   -2.659259149568966E-018
  5.200000000000001E-003   -2.491584578222340E-018
  5.300000000000002E-003   -2.088595358845095E-018
  5.400000000000001E-003   -1.441735812221996E-018
  5.500000000000001E-003   -5.610289019750945E-019
  5.600000000000002E-003    5.226959576845363E-019
  5.700000000000001E-003    1.756927403057669E-018
  5.800000000000001E-003    3.068218895373741E-018
  5.900000000000002E-003    4.364739551326401E-018
  6.000000000000001E-003    5.540690384150846E-018
  6.100000000000001E-003    6.482512929151757E-018
  6.200000000000002E-003    7.076662204511202E-018
  6.300000000000002E-003    7.218567984347055E-018
  6.400000000000001E-003    6.822262753142602E-018
  6.500000000000001E-003    5.830030011134607E-018
  6.600000000000002E-003    4.221331482846826E-018
  6.700000000000001E-003    2.020226090185251E-018
  6.800000000000001E-003   -6.995159881707759E-019
  6.900000000000002E-003   -3.812333328907000E-018
  7.000000000000001E-003   -7.142448357517590E-018
  7.100000000000001E-003   -1.046952657088316E-017
  7.200000000000002E-003   -1.353861608196983E-017
  7.300000000000002E-003   -1.607426203865839E-017
  7.400000000000001E-003   -1.779837431108769E-017
  7.500000000000001E-003   -1.845106520802520E-017
  7.600000000000002E-003   -1.781334132082813E-017
  7.700000000000001E-003   -1.573019428825412E-017
  7.800000000000001E-003   -1.213241552297527E-017
  7.900000000000001E-003   -7.055247943362964E-018
  8.000000000000002E-003   -6.519635210482080E-019
  8.100000000000001E-003    6.799475499923483E-018
  8.200000000000001E-003    1.489825699212603E-017
  8.300000000000002E-003    2.313226618027820E-017
  8.400000000000001E-003    3.089995305047230E-017
  8.500000000000002E-003    3.754244848629272E-017
  8.600000000000002E-003    4.238505520220007E-017
  8.700000000000001E-003    4.478634600162636E-017
  8.800000000000002E-003    4.419224679384565E-017
  8.900000000000002E-003    4.019170480928563E-017
  9.000000000000001E-003    3.256986589615698E-017
  9.100000000000002E-003    2.135425833587055E-017
  9.200000000000002E-003    6.849351437289520E-018
  9.300000000000001E-003   -1.034492661749626E-017
  9.400000000000002E-003   -2.933458459656591E-017
  9.500000000000001E-003   -4.895572999485314E-017
  9.600000000000001E-003   -6.782303007805894E-017
  9.700000000000002E-003   -8.440233112775329E-017
  9.800000000000001E-003   -9.710541871977120E-017
  9.900000000000001E-003   -1.044028683782031E-016
  1.000000000000000E-002   -1.049489388107210E-016
  1.010000000000000E-002   -9.771071197376686E-017
  1.020000000000000E-002   -8.209216937846819E-017
  1.030000000000000E-002   -5.804297654807200E-017
  1.040000000000000E-002   -2.614143429945053E-017
  1.050000000000000E-002    1.235840046883591E-017
  1.060000000000000E-002    5.552418667322896E-017
  1.070000000000000E-002    1.007938225137789E-016
  1.080000000000000E-002    1.450787114122885E-016
  1.090000000000000E-002    1.849214709882545E-016
  1.100000000000000E-002    2.167039772778793E-016
  1.110000000000000E-002    2.368968297130825E-016
  1.120000000000000E-002    2.423372940974667E-016
  1.130000000000000E-002    2.305185580585729E-016
  1.140000000000000E-002    1.998699929455965E-016
  1.150000000000000E-002    1.500060423178524E-016
  1.160000000000000E-002    8.192052648135266E-017
  1.170000000000000E-002   -1.895726368958129E-018
  1.180000000000000E-002   -9.743339240576068E-017
  1.190000000000000E-002   -1.992539068573806E-016
  1.200000000000000E-002   -3.006980300621940E-016
  1.210000000000000E-002   -3.942139614245148E-016
  1.220000000000000E-002   -4.717966758114492E-016
  1.230000000000000E-002   -5.255204450761868E-016
  1.240000000000000E-002   -5.481370984163666E-016
  1.250000000000000E-002   -5.337040091698529E-016
  1.260000000000000E-002   -4.781990505000249E-016
  1.270000000000000E-002   -3.800748626132685E-016
  1.280000000000000E-002   -2.407031091646175E-016
  1.290000000000000E-002   -6.466192891041603E-017
  1.300000000000000E-002    1.401757102137241E-016
  1.310000000000000E-002    3.627844321860020E-016
  1.320000000000000E-002    5.893790515253458E-016
  1.330000000000000E-002    8.040601973655672E-016
  1.340000000000000E-002    9.896978017744139E-016
  1.350000000000000E-002    1.129017694699876E-015
  1.360000000000000E-002    1.205837338050581E-015
  1.370000000000000E-002    1.206379204515138E-015
  1.380000000000000E-002    1.120575831140314E-015
  1.390000000000000E-002    9.432708191259162E-016
  1.400000000000000E-002    6.752155719283117E-016
  1.410000000000000E-002    3.237647198358431E-016
  1.420000000000000E-002   -9.681709102211684E-017
  1.430000000000000E-002   -5.655070480321399E-016
  1.440000000000000E-002   -1.055179128287349E-015
  1.450000000000000E-002   -1.533777172376025E-015
  1.460000000000000E-002   -1.965984600799863E-015
  1.470000000000000E-002   -2.315331385361981E-015
  1.480000000000000E-002   -2.546642577158203E-015
  1.490000000000000E-002   -2.628692161251176E-015
  1.500000000000000E-002   -2.536901744633477E-015
  1.510000000000000E-002   -2.255895320742724E-015
  1.520000000000000E-002   -1.781713150636139E-015
  1.530000000000000E-002   -1.123486696121980E-015
  1.540000000000000E-002   -3.043915400203912E-016
  1.550000000000000E-002    6.382743028669489E-016
  1.560000000000000E-002    1.653997543004065E-015
  1.570000000000000E-002    2.680994783201109E-015
  1.580000000000000E-002    3.649181921155378E-015
  1.590000000000000E-002    4.484081470612935E-015
  1.600000000000000E-002    5.111501978348528E-015
  1.610000000000000E-002    5.462753935217640E-015
  1.620000000000000E-002    5.480098578499790E-015
  1.630000000000000E-002    5.122074499433296E-015
  1.640000000000000E-002    4.368315431418377E-015
  1.650000000000000E-002    3.223461347427198E-015
  1.660000000000000E-002    1.719783224834111E-015
  1.670000000000000E-002   -8.180822207022279E-017
  1.680000000000000E-002   -2.092634560163169E-015
  1.690000000000000E-002   -4.199150784812139E-015
  1.700000000000000E-002   -6.267914152453626E-015
  1.710000000000000E-002   -8.152505819744015E-015
  1.720000000000000E-002   -9.702152870042451E-015
  1.730000000000000E-002   -1.077163592459351E-014
  1.740000000000000E-002   -1.123195123925301E-014
  1.750000000000000E-002   -1.098106021648026E-014
  1.760000000000000E-002   -9.953996058266097E-015
  1.770000000000000E-002   -8.131555375609423E-015
  1.780000000000000E-002   -5.546807516983647E-015
  1.790000000000000E-002   -2.288733460815042E-015
  1.800000000000000E-002    1.497580973860198E-015
  1.810000000000000E-002    5.614590400238810E-015
  1.820000000000000E-002    9.819947859331534E-015
  1.830000000000000E-002    1.383808872865529E-014
  1.840000000000000E-002    1.737537366824440E-014
  1.850000000000000E-002    2.013813632694648E-014
  1.860000000000000E-002    2.185271197800738E-014
  1.870000000000000E-002    2.228628577386631E-014