 -4.000000000000000E-002    0.000000000000000E+000
 -3.990000000000000E-002    0.000000000000000E+000
 -3.980000000000000E-002    0.000000000000000E+000
 -3.970000000000000E-002    0.000000000000000E+000
 -3.960000000000000E-002    0.000000000000000E+000
 -3.950000000000000E-002    0.000000000000000E+000
 -3.940000000000000E-002    0.000000000000000E+000
 -3.930000000000000E-002    0.000000000000000E+000
 -3.920000000000000E-002    0.000000000000000E+000
 -3.910000000000000E-002    0.000000000000000E+000
 -3.900000000000000E-002    0.000000000000000E+000
 -3.890000000000000E-002    0.000000000000000E+000
 -3.880000000000000E-002    0.000000000000000E+000
 -3.870000000000000E-002    0.000000000000000E+000
 -3.860000000000000E-002    0.000000000000000E+000
 -3.850000000000000E-002    0.000000000000000E+000
 -3.840000000000000E-002    0.000000000000000E+000
 -3.830000000000000E-002    0.000000000000000E+000
 -3.820000000000000E-002    0.000000000000000E+000
 -3.810000000000000E-002    0.000000000000000E+000
 -3.800000000000000E-002    0.000000000000000E+000
 -3.790000000000000E-002    0.000000000000000E+000
 -3.780000000000000E-002    0.000000000000000E+000
 -3.770000000000000E-002    0.000000000000000E+000
 -3.760000000000000E-002    0.000000000000000E+000
 -3.750000000000000E-002    0.000000000000000E+000
 -3.740000000000000E-002    0.000000000000000E+000
 -3.730000000000000E-002    0.000000000000000E+000
 -3.720000000000000E-002    0.000000000000000E+000
 -3.710000000000000E-002    0.000000000000000E+000
 -3.700000000000000E-002    0.000000000000000E+000
 -3.690000000000000E-002    0.000000000000000E+000
 -3.680000000000000E-002    0.000000000000000E+000
 -3.670000000000000E-002    0.000000000000000E+000
 -3.660000000000000E-002    0.000000000000000E+000
 -3.650000000000000E-002    0.000000000000000E+000
 -3.640000000000000E-002    0.000000000000000E+000
 -3.630000000000000E-002    0.000000000000000E+000
 -3.620000000000000E-002    0.000000000000000E+000
 -3.610000000000000E-002    0.000000000000000E+000
 -3.600000000000000E-002    0.000000000000000E+000
 -3.590000000000000E-002    0.000000000000000E+000
 -3.580000000000000E-002    0.000000000000000E+000
 -3.570000000000000E-002    0.000000000000000E+000
 -3.560000000000000E-002    0.000000000000000E+000
 -3.550000000000000E-002    0.000000000000000E+000
 -3.540000000000000E-002    0.000000000000000E+000
 -3.530000000000000E-002    0.000000000000000E+000
 -3.520000000000000E-002    0.000000000000000E+000
 -3.510000000000000E-002    0.000000000000000E+000
 -3.500000000000000E-002    0.000000000000000E+000
 -3.490000000000000E-002    0.000000000000000E+000
 -3.480000000000000E-002    0.000000000000000E+000
 -3.470000000000000E-002    0.000000000000000E+000
 -3.460000000000000E-002    0.000000000000000E+000
 -3.450000000000000E-002    0.000000000000000E+000
 -3.440000000000000E-002    0.000000000000000E+000
 -3.430000000000000E-002    0.000000000000000E+000
 -3.420000000000000E-002    0.000000000000000E+000
 -3.410000000000000E-002    0.000000000000000E+000
 -3.400000000000000E-002    0.000000000000000E+000
 -3.390000000000000E-002    0.000000000000000E+000
 -3.380000000000000E-002    0.000000000000000E+000
 -3.370000000000000E-002    0.000000000000000E+000
 -3.360000000000000E-002    0.000000000000000E+000
 -3.350000000000000E-002    0.000000000000000E+000
 -3.340000000000000E-002    0.000000000000000E+000
 -3.330000000000000E-002    0.000000000000000E+000
 -3.320000000000000E-002    0.000000000000000E+000
 -3.310000000000000E-002    0.000000000000000E+000
 -3.300000000000000E-002    0.000000000000000E+000
 -3.290000000000000E-002    0.000000000000000E+000
 -3.280000000000000E-002    0.000000000000000E+000
 -3.270000000000000E-002    0.000000000000000E+000
 -3.260000000000000E-002    0.000000000000000E+000
 -3.250000000000000E-002    0.000000000000000E+000
 -3.240000000000000E-002    0.000000000000000E+000
 -3.230000000000000E-002    0.000000000000000E+000
 -3.220000000000000E-002    0.000000000000000E+000
 -3.210000000000000E-002    0.000000000000000E+000
 -3.200000000000000E-002    0.000000000000000E+000
 -3.190000000000000E-002    0.000000000000000E+000
 -3.180000000000000E-002    0.000000000000000E+000
 -3.170000000000000E-002    0.000000000000000E+000
 -3.160000000000000E-002    0.000000000000000E+000
 -3.150000000000000E-002    0.000000000000000E+000
 -3.140000000000000E-002    0.000000000000000E+000
 -3.130000000000000E-002    0.000000000000000E+000
 -3.120000000000000E-002    0.000000000000000E+000
 -3.110000000000000E-002    0.000000000000000E+000
 -3.100000000000000E-002    0.000000000000000E+000
 -3.090000000000000E-002    0.000000000000000E+000
 -3.080000000000000E-002    0.000000000000000E+000
 -3.070000000000000E-002    0.000000000000000E+000
 -3.060000000000000E-002    0.000000000000000E+000
 -3.050000000000000E-002    0.000000000000000E+000
 -3.040000000000000E-002    0.000000000000000E+000
 -3.030000000000000E-002    0.000000000000000E+000
 -3.020000000000000E-002    0.000000000000000E+000
 -3.010000000000000E-002    0.000000000000000E+000
 -3.000000000000000E-002    0.000000000000000E+000
 -2.990000000000000E-002    0.000000000000000E+000
 -2.980000000000000E-002    0.000000000000000E+000
 -2.970000000000000E-002    0.000000000000000E+000
 -2.960000000000000E-002    0.000000000000000E+000
 -2.950000000000000E-002    0.000000000000000E+000
 -2.940000000000000E-002    0.000000000000000E+000
 -2.930000000000000E-002    0.000000000000000E+000
 -2.920000000000000E-002    0.000000000000000E+000
 -2.910000000000000E-002    0.000000000000000E+000
 -2.900000000000000E-002    0.000000000000000E+000
 -2.890000000000000E-002    0.000000000000000E+000
 -2.880000000000000E-002    0.000000000000000E+000
 -2.870000000000000E-002    0.000000000000000E+000
 -2.860000000000000E-002    0.000000000000000E+000
 -2.850000000000000E-002    0.000000000000000E+000
 -2.840000000000000E-002    0.000000000000000E+000
 -2.830000000000000E-002    0.000000000000000E+000
 -2.820000000000000E-002    0.000000000000000E+000
 -2.810000000000000E-002    0.000000000000000E+000
 -2.800000000000000E-002    0.000000000000000E+000
 -2.790000000000000E-002    0.000000000000000E+000
 -2.780000000000000E-002    0.000000000000000E+000
 -2.770000000000000E-002    0.000000000000000E+000
 -2.760000000000000E-002    0.000000000000000E+000
 -2.750000000000000E-002    0.000000000000000E+000
 -2.740000000000000E-002    0.000000000000000E+000
 -2.730000000000000E-002    0.000000000000000E+000
 -2.720000000000000E-002    0.000000000000000E+000
 -2.710000000000000E-002    0.000000000000000E+000
 -2.700000000000000E-002    0.000000000000000E+000
 -2.690000000000000E-002    0.000000000000000E+000
 -2.680000000000000E-002    0.000000000000000E+000
 -2.670000000000000E-002    0.000000000000000E+000
 -2.660000000000000E-002   -1.879937540190326E-048
 -2.650000000000000E-002   -3.759875080380653E-048
 -2.640000000000000E-002   -9.274358622953251E-048
 -2.630000000000000E-002   -1.478884216552585E-047
 -2.620000000000000E-002   -1.842338816790812E-047
 -2.610000000000000E-002   -1.829805908990974E-047
 -2.600000000000000E-002    3.120876965811305E-047
 -2.590000000000000E-002    9.569814644212886E-047
 -2.580000000000000E-002    1.485413244679935E-046
 -2.570000000000000E-002    2.105335320388129E-046
 -2.560000000000000E-002    2.722067046611668E-046
 -2.550000000000000E-002    3.244792010659109E-046
 -2.540000000000000E-002    3.090757050831035E-046
 -2.530000000000000E-002    1.688328822413087E-046
 -2.520000000000000E-002   -1.174540958552832E-046
 -2.510000000000000E-002   -6.697211879365037E-046
 -2.500000000000000E-002   -1.377141780462287E-045
 -2.490000000000000E-002   -2.223671412021709E-045
 -2.480000000000000E-002   -3.127491056792767E-045
 -2.470000000000000E-002   -3.825002194482793E-045
 -2.460000000000000E-002   -4.033639485355987E-045
 -2.450000000000000E-002   -3.223342670947012E-045
 -2.440000000000000E-002   -1.108095452630576E-045
 -2.430000000000000E-002    2.901462709775991E-045
 -2.420000000000000E-002    8.755694260571318E-045
 -2.410000000000000E-002    1.635087940756724E-044
 -2.400000000000000E-002    2.460512297489578E-044
 -2.390000000000000E-002    3.222297633976498E-044
 -2.380000000000000E-002    3.634557695992915E-044
 -2.370000000000000E-002    3.494507690940549E-044
 -2.360000000000000E-002    2.449842859813653E-044
 -2.350000000000000E-002    3.875070328222709E-045
 -2.340000000000000E-002   -2.838657302362361E-044
 -2.330000000000000E-002   -6.777579124009495E-044
 -2.320000000000000E-002   -1.085078751630177E-043
 -2.310000000000000E-002   -1.384530148137601E-043
 -2.300000000000000E-002   -1.447418492040585E-043
 -2.290000000000000E-002   -1.126973911888811E-043
 -2.280000000000000E-002   -3.077571100340951E-044
 -2.270000000000000E-002    1.001150006521780E-043
 -2.260000000000000E-002    2.612267986395905E-043
 -2.250000000000000E-002    4.066498613586301E-043
 -2.240000000000000E-002    4.617238732072030E-043
 -2.230000000000000E-002    3.239365661182915E-043
 -2.220000000000000E-002   -1.216969445702439E-043
 -2.210000000000000E-002   -9.709751986560295E-043
 -2.200000000000000E-002   -2.255815950911249E-042
 -2.190000000000000E-002   -3.883074240828670E-042
 -2.180000000000000E-002   -5.568561172299766E-042
 -2.170000000000000E-002   -6.780561819371599E-042
 -2.160000000000000E-002   -6.715332601425789E-042
 -2.150000000000000E-002   -4.345341142027789E-042
 -2.140000000000000E-002    1.447483031481490E-042
 -2.130000000000000E-002    1.161035878140388E-041
 -2.120000000000000E-002    2.652778335654049E-041
 -2.110000000000000E-002    4.552843999636105E-041
 -2.100000000000000E-002    6.634595243010196E-041
 -2.090000000000000E-002    8.466012471588909E-041
 -2.080000000000000E-002    9.388872752152776E-041
 -2.070000000000000E-002    8.543546095830694E-041
 -2.060000000000000E-002    4.961242192908016E-041
 -2.050000000000000E-002   -2.259637297589763E-041
 -2.040000000000000E-002   -1.368794043497618E-040
 -2.030000000000000E-002   -2.922016774164671E-040
 -2.020000000000000E-002   -4.770906497567892E-040
 -2.010000000000000E-002   -6.663314736438793E-040
 -2.000000000000000E-002   -8.191199172623691E-040
 -1.990000000000000E-002   -8.799070986242068E-040
 -1.980000000000000E-002   -7.831867184512272E-040
 -1.970000000000000E-002   -4.631580192722532E-040
 -1.960000000000000E-002    1.314859945987408E-040
 -1.950000000000000E-002    1.018508249644026E-039
 -1.940000000000000E-002    2.161153698807429E-039
 -1.930000000000000E-002    3.449178632996787E-039
 -1.920000000000000E-002    4.687295337552351E-039
 -1.910000000000000E-002    5.597253286908056E-039
 -1.900000000000000E-002    5.839522489171957E-039
 -1.890000000000000E-002    5.058678468538030E-039
 -1.880000000000000E-002    2.952847674106565E-039
 -1.870000000000000E-002   -6.379786656836743E-040
 -1.860000000000000E-002   -5.636811322934019E-039
 -1.850000000000000E-002   -1.164677468719346E-038
 -1.840000000000000E-002   -1.790503909604321E-038
 -1.830000000000000E-002   -2.330002975702270E-038
 -1.820000000000000E-002   -2.647452956930582E-038
 -1.810000000000000E-002   -2.602603974869293E-038
 -1.800000000000000E-002   -2.079668883432683E-038
 -1.790000000000000E-002   -1.021935122545859E-038
 -1.780000000000000E-002    5.341776977960426E-039
 -1.770000000000000E-002    2.434302640056786E-038
 -1.760000000000000E-002    4.400604344457943E-038
 -1.750000000000000E-002    6.054929309827509E-038
 -1.740000000000000E-002    6.976553871473910E-038
 -1.730000000000000E-002    6.793811256464063E-038
 -1.720000000000000E-002    5.299412047695832E-038
 -1.710000000000000E-002    2.568160679750522E-038
 -1.700000000000000E-002   -9.546969273593370E-039
 -1.690000000000000E-002   -4.432934891361474E-038
 -1.680000000000000E-002   -6.724264079664668E-038
 -1.670000000000000E-002   -6.596687792411339E-038
 -1.660000000000000E-002   -3.077648140153059E-038
 -1.650000000000000E-002    4.099875229536765E-038
 -1.640000000000000E-002    1.403590886834323E-037
 -1.630000000000000E-002    2.431423243806170E-037
 -1.620000000000000E-002    3.092657507614648E-037
 -1.610000000000000E-002    2.863759062844668E-037
 -1.600000000000000E-002    1.192075137395437E-037
 -1.590000000000000E-002   -2.349667568110839E-037
 -1.580000000000000E-002   -7.859128311240096E-037
 -1.570000000000000E-002   -1.488118793539731E-036
 -1.560000000000000E-002   -2.221811120845768E-036
 -1.550000000000000E-002   -2.784371447973762E-036
 -1.540000000000000E-002   -2.900130142923602E-036
 -1.530000000000000E-002   -2.255778469183265E-036
 -1.520000000000000E-002   -5.656318278934994E-037
 -1.510000000000000E-002    2.334664663416176E-036
 -1.500000000000000E-002    6.375522086983238E-036
 -1.490000000000000E-002    1.114122948908880E-035
 -1.480000000000000E-002    1.578734208514340E-035
 -1.470000000000000E-002    1.902415526222025E-035
 -1.460000000000000E-002    1.920470314436099E-035
 -1.450000000000000E-002    1.454908081584732E-035
 -1.440000000000000E-002    3.519242398049316E-036
 -1.430000000000000E-002   -1.467129219866963E-035
 -1.420000000000000E-002   -3.946863512930340E-035
 -1.410000000000000E-002   -6.841269926766632E-035
 -1.400000000000000E-002   -9.674044581420771E-035
 -1.390000000000000E-002   -1.173346872573251E-034
 -1.380000000000000E-002   -1.211985245049203E-034
 -1.370000000000000E-002   -9.859899571443197E-035
 -1.360000000000000E-002   -4.093732040308771E-035
 -1.350000000000000E-002    5.673555299194355E-035
 -1.340000000000000E-002    1.928220519510108E-034
 -1.330000000000000E-002    3.563696322680274E-034
 -1.320000000000000E-002    5.250131173525252E-034
 -1.310000000000000E-002    6.644609560982387E-034
 -1.300000000000000E-002    7.303328220013499E-034
 -1.290000000000000E-002    6.730008187878788E-034
 -1.280000000000000E-002    4.457240734294734E-034
 -1.270000000000000E-002    1.578846171586105E-035
 -1.260000000000000E-002   -6.223956204749513E-034
 -1.250000000000000E-002   -1.434137204952531E-033
 -1.240000000000000E-002   -2.333953684707506E-033
 -1.230000000000000E-002   -3.180975099861295E-033
 -1.220000000000000E-002   -3.783650555383682E-033
 -1.210000000000000E-002   -3.916610357973994E-033
 -1.200000000000000E-002   -3.351209248293936E-033
 -1.190000000000000E-002   -1.899117352813069E-033
 -1.180000000000000E-002    5.345297613218790E-034
 -1.170000000000000E-002    3.895170591626411E-033
 -1.160000000000000E-002    7.929922205638109E-033
 -1.150000000000000E-002    1.215796550317364E-032
 -1.140000000000000E-002    1.587323448953568E-032
 -1.130000000000000E-002    1.819094985242607E-032
 -1.120000000000000E-002    1.814529011400172E-032
 -1.110000000000000E-002    1.483830869057926E-032
 -1.100000000000000E-002    7.630457970063425E-033
 -1.090000000000000E-002   -3.648211294519887E-033
 -1.080000000000000E-002   -1.849829480173610E-032
 -1.070000000000000E-002   -3.560373088303451E-032
 -1.060000000000000E-002   -5.278207143157422E-032
 -1.050000000000000E-002   -6.707449029506354E-032
 -1.040000000000000E-002   -7.500576406772288E-032
 -1.030000000000000E-002   -7.302315423000797E-032
 -1.020000000000000E-002   -5.809324955230107E-032
 -1.010000000000000E-002   -2.840045494627656E-032
 -1.000000000000000E-002    1.594525727829198E-032
 -9.899999999999999E-003    7.231391841673182E-032
 -9.800000000000000E-003    1.352141417841757E-031
 -9.699999999999999E-003    1.963411352625722E-031
 -9.599999999999999E-003    2.451218454268960E-031
 -9.500000000000000E-003    2.698084901620712E-031
 -9.399999999999999E-003    2.590900440801860E-031
 -9.299999999999999E-003    2.040919835510595E-031
 -9.200000000000000E-003    1.005313325280460E-031
 -9.099999999999999E-003   -4.929634176083903E-032
 -8.999999999999999E-003   -2.350783444276947E-031
 -8.900000000000000E-003   -4.379804016805948E-031
 -8.799999999999999E-003   -6.314008913779905E-031
 -8.699999999999999E-003   -7.831753948953967E-031
 -8.600000000000000E-003   -8.592243596787386E-031
 -8.499999999999999E-003   -8.283907994443850E-031
 -8.399999999999999E-003   -6.679566393547624E-031
 -8.300000000000000E-003   -3.690964292240733E-031
 -8.199999999999999E-003    5.862520814081910E-032
 -8.100000000000000E-003    5.846358523877548E-031
 -8.000000000000000E-003    1.157418712813260E-030
 -7.899999999999999E-003    1.707771244552441E-030
 -7.800000000000000E-003    2.155340960700073E-030
 -7.699999999999999E-003    2.417991553343648E-030
 -7.599999999999999E-003    2.423005446431575E-030
 -7.499999999999999E-003    2.118661374972141E-030
 -7.399999999999999E-003    1.484439591663188E-030
 -7.299999999999999E-003    5.380914332297995E-031
 -7.199999999999999E-003   -6.618852845574802E-031
 -7.100000000000000E-003   -2.019199884094167E-030
 -6.999999999999999E-003   -3.408113306141844E-030
 -6.899999999999999E-003   -4.686144686118379E-030
 -6.800000000000000E-003   -5.709196946698450E-030
 -6.699999999999999E-003   -6.346526942614446E-030
 -6.599999999999999E-003   -6.492837322433737E-030
 -6.499999999999999E-003   -6.075239439977607E-030
 -6.399999999999999E-003   -5.053944265350790E-030
 -6.299999999999999E-003   -3.417178443575625E-030
 -6.199999999999999E-003   -1.172704974784324E-030
 -6.100000000000000E-003    1.659940712195103E-030
 -5.999999999999999E-003    5.051314881388563E-030
 -5.899999999999999E-003    8.952897383218224E-030
 -5.800000000000000E-003    1.327331547616689E-029
 -5.699999999999999E-003    1.783957614063462E-029
 -5.599999999999999E-003    2.234750667891613E-029
 -5.499999999999999E-003    2.631103791838976E-029
 -5.399999999999999E-003    2.902515426203578E-029
 -5.299999999999999E-003    2.956109226485499E-029
 -5.199999999999999E-003    2.681319531286689E-029
 -5.099999999999999E-003    1.961355777191726E-029
 -4.999999999999999E-003    6.922365853531241E-030
 -4.899999999999999E-003   -1.191126630329339E-029
 -4.799999999999999E-003   -3.684027539819415E-029
 -4.699999999999999E-003   -6.680357491430761E-029
 -4.599999999999999E-003   -9.946161477100435E-029
 -4.499999999999999E-003   -1.310544436278080E-028
 -4.399999999999999E-003   -1.564561435290636E-028
 -4.299999999999999E-003   -1.694894047629095E-028
 -4.199999999999999E-003   -1.635390152746925E-028
 -4.099999999999999E-003   -1.324627458750748E-028
 -3.999999999999999E-003   -7.174551877978222E-029
 -3.899999999999999E-003    2.021661047212081E-029
 -3.799999999999999E-003    1.408737822449854E-028
 -3.699999999999999E-003    2.825370635975467E-028
 -3.599999999999999E-003    4.318889018578407E-028
 -3.499999999999999E-003    5.702155908551626E-028
 -3.399999999999999E-003    6.745363861273620E-028
 -3.299999999999999E-003    7.197098691732328E-028
 -3.199999999999999E-003    6.814669298576222E-028
 -3.099999999999999E-003    5.401634334101690E-028
 -2.999999999999999E-003    2.848833634566564E-028
 -2.899999999999999E-003   -8.262179021858408E-029
 -2.799999999999999E-003   -5.447708953094881E-028
 -2.699999999999999E-003   -1.066412938863532E-027
 -2.599999999999999E-003   -1.595094008496624E-027
 -2.499999999999999E-003   -2.063760335385394E-027
 -2.399999999999999E-003   -2.396076259920296E-027
 -2.299999999999999E-003   -2.514208846099050E-027
 -2.199999999999999E-003   -2.348565173383666E-027
 -2.099999999999999E-003   -1.848604502791441E-027
 -1.999999999999999E-003   -9.935402375039823E-028
 -1.899999999999999E-003    1.984532271946048E-028
 -1.799999999999999E-003    1.663963309963679E-027
 -1.699999999999999E-003    3.292299096614694E-027
 -1.599999999999999E-003    4.928686394135339E-027
 -1.499999999999999E-003    6.383221829060523E-027
 -1.399999999999999E-003    7.445516551386737E-027
 -1.299999999999999E-003    7.904310994349047E-027
 -1.199999999999999E-003    7.570705337991965E-027
 -1.099999999999999E-003    6.303110130409438E-027
 -9.999999999999989E-004    4.031626126371682E-027
 -8.999999999999990E-004    7.793735416780557E-028
 -7.999999999999990E-004   -3.321692363904314E-027
 -6.999999999999989E-004   -8.022717769221399E-027
 -5.999999999999990E-004   -1.295948143704515E-026
 -4.999999999999989E-004   -1.766485231739158E-026
 -3.999999999999989E-004   -2.159289094841332E-026
 -2.999999999999989E-004   -2.415467163190441E-026
 -1.999999999999989E-004   -2.476518625639554E-026
 -9.999999999999892E-005   -2.289992801020213E-026
  1.084202172485504E-018   -1.815883854743998E-026
  1.000000000000011E-004   -1.033424159391141E-026
  2.000000000000011E-004    5.218755287801135E-028
  3.000000000000011E-004    1.403733658402265E-026
  4.000000000000011E-004    2.947357478320596E-026
  5.000000000000011E-004    4.570269468305374E-026
  6.000000000000011E-004    6.121753765527282E-026
  7.000000000000011E-004    7.418444458661157E-026
  8.000000000000011E-004    8.254693752401656E-026
  9.000000000000012E-004    8.418527634026059E-026
  1.000000000000001E-003    7.713163178692869E-026
  1.100000000000001E-003    5.983323496263768E-026
  1.200000000000001E-003    3.144693456988709E-026
  1.300000000000001E-003   -7.861281606051629E-027
  1.400000000000001E-003   -5.664772919680166E-026
  1.500000000000001E-003   -1.119968458618180E-025
  1.600000000000001E-003   -1.694486938755493E-025
  1.700000000000001E-003   -2.230935412665545E-025
  1.800000000000001E-003   -2.658703660554692E-025
  1.900000000000001E-003   -2.900895261061329E-025
  2.000000000000001E-003   -2.881759646916980E-025
  2.100000000000001E-003   -2.535988948430026E-025
  2.200000000000001E-003   -1.819203111223940E-025
  2.300000000000001E-003   -7.186111891456191E-026
  2.400000000000001E-003    7.374455954795371E-026
  2.500000000000001E-003    2.472543484793206E-025
  2.600000000000001E-003    4.359321775044522E-025
  2.700000000000001E-003    6.222062824212085E-025
  2.800000000000001E-003    7.845666760040889E-025
  2.900000000000001E-003    8.991403089836338E-025
  3.000000000000001E-003    9.419053042938575E-025
  3.100000000000001E-003    8.914192455422515E-025
  3.200000000000001E-003    7.318471793612724E-025
  3.300000000000001E-003    4.559946955543508E-025
  3.400000000000001E-003    6.799180623350344E-026
  3.500000000000001E-003   -4.147537588606456E-025
  3.600000000000001E-003   -9.607023636718274E-025
  3.700000000000001E-003   -1.524736711703422E-024
  3.800000000000001E-003   -2.050328252456194E-024
  3.900000000000001E-003   -2.473372801541825E-024
  4.000000000000001E-003   -2.727576935441676E-024
  4.100000000000001E-003   -2.751085715973628E-024
  4.200000000000001E-003   -2.493858900731307E-024
  4.300000000000001E-003   -1.925143911023272E-024
  4.400000000000001E-003   -1.040285287798099E-024
  4.500000000000001E-003    1.339377446229076E-025
  4.600000000000002E-003    1.536221901053537E-024
  4.700000000000001E-003    3.070565597501345E-024
  4.800000000000001E-003    4.609486336425323E-024
  4.900000000000002E-003    6.000851362807314E-024
  5.000000000000001E-003    7.078237450107000E-024
  5.100000000000001E-003    7.674400373083951E-024
  5.200000000000001E-003    7.637105751979979E-024
  5.300000000000002E-003    6.846257183027314E-024
  5.400000000000001E-003    5.231005443483110E-024
  5.500000000000001E-003    2.785327025839780E-024
  5.600000000000002E-003   -4.195256556060668E-025
  5.700000000000001E-003   -4.227304247716542E-024
  5.800000000000001E-003   -8.395238066561672E-024
  5.900000000000002E-003   -1.259992840704998E-023
  6.000000000000001E-003   -1.645150287604350E-023
  6.100000000000001E-003   -1.951636816764250E-023
  6.200000000000002E-003   -2.134826686754616E-023
  6.300000000000002E-003   -2.152659682713509E-023
  6.400000000000001E-003   -1.970013588041157E-023
  6.500000000000001E-003   -1.563343284815338E-023
  6.600000000000002E-003   -9.252291687672791E-024
  6.700000000000001E-003   -6.840245327743798E-025
  6.800000000000001E-003    9.712383913989441E-024
  6.900000000000002E-003    2.133126228295622E-023
  7.000000000000001E-003    3.332522890207921E-023
  7.100000000000001E-003    4.463421704872835E-023
  7.200000000000002E-003    5.404121939110758E-023
  7.300000000000002E-003    6.025538198659243E-023
  7.400000000000001E-003    6.202046505275187E-023
  7.500000000000001E-003    5.824362736086827E-023
  7.600000000000002E-003    4.813620594475784E-023
  7.700000000000001E-003    3.135499716943094E-023
  7.800000000000001E-003    8.129856795819413E-024
  7.900000000000001E-003   -2.063833361058764E-023
  8.000000000000002E-003   -5.332570836729472E-023
  8.100000000000001E-003   -8.759461809289633E-023
  8.200000000000001E-003   -1.204759573617741E-022
  8.300000000000002E-003   -1.485314648335240E-022
  8.400000000000001E-003   -1.680959004169380E-022
  8.500000000000002E-003   -1.755906973869730E-022
  8.600000000000002E-003   -1.678914979394320E-022
  8.700000000000001E-003   -1.427230958583164E-022
  8.800000000000002E-003   -9.904729238556614E-023
  8.900000000000002E-003   -3.740343270341534E-023
  9.000000000000001E-003    3.984126760170176E-023
  9.100000000000002E-003    1.283731024914149E-022
  9.200000000000002E-003    2.219808035507385E-022
  9.300000000000001E-003    3.127973519527400E-022
  9.400000000000002E-003    3.917453842450022E-022
  9.500000000000001E-003    4.491786689068265E-022
  9.600000000000001E-003    4.756920184758841E-022
  9.700000000000002E-003    4.630510250345533E-022
  9.800000000000001E-003    4.051738715485031E-022
  9.900000000000001E-003    2.990814481113193E-022
  1.000000000000000E-002    1.457219285484267E-022
  1.010000000000000E-002   -4.942738707154619E-023
  1.020000000000000E-002   -2.760727665823035E-022
  1.030000000000000E-002   -5.192087268057659E-022
  1.040000000000000E-002   -7.596687374864183E-022
  1.050000000000000E-002   -9.751448065362168E-022
  1.060000000000000E-002   -1.141660398573627E-021
  1.070000000000000E-002   -1.235439291062560E-021
  1.080000000000000E-002   -1.235069464105917E-021
  1.090000000000000E-002   -1.123819933521626E-021
  1.100000000000000E-002   -8.919327934109876E-022
  1.110000000000000E-002   -5.386868957935843E-022
  1.120000000000000E-002   -7.401635111827742E-023
  1.130000000000000E-002    4.805304403027376E-022
  1.140000000000000E-002    1.091684432441623E-021
  1.150000000000000E-002    1.715355037162511E-021
  1.160000000000000E-002    2.298628539474852E-021
  1.170000000000000E-002    2.782880549695084E-021
  1.180000000000000E-002    3.107926452072147E-021
  1.190000000000000E-002    3.217029419519767E-021
  1.200000000000000E-002    3.062481571832584E-021
  1.210000000000000E-002    2.611372217188128E-021
  1.220000000000000E-002    1.851072269591800E-021
  1.230000000000000E-002    7.939027014156302E-022
  1.240000000000000E-002   -5.195685019350638E-022
  1.250000000000000E-002   -2.019136696961200E-021
  1.260000000000000E-002   -3.605944356913706E-021
  1.270000000000000E-002   -5.156171769849383E-021
  1.280000000000000E-002   -6.527590246623694E-021
  1.290000000000000E-002   -7.568902316608501E-021
  1.300000000000000E-002   -8.131524909633063E-021
  1.310000000000000E-002   -8.083190110349918E-021
  1.320000000000000E-002   -7.322459412152340E-021
  1.330000000000000E-002   -5.793004253402943E-021
  1.340000000000000E-002   -3.496326782091174E-021
  1.350000000000000E-002   -5.015031197282606E-022
  1.360000000000000E-002    3.049434858166299E-021
  1.370000000000000E-002    6.941706016297892E-021
  1.380000000000000E-002    1.089449075704629E-020
  1.390000000000000E-002    1.457462569741109E-020
  1.400000000000000E-002    1.761720622252302E-020
  1.410000000000000E-002    1.965237324382468E-020
  1.420000000000000E-002    2.033689439496639E-020
  1.430000000000000E-002    1.938849367220062E-020
  1.440000000000000E-002    1.662031268012130E-020
  1.450000000000000E-002    1.197247963625384E-020
  1.460000000000000E-002    5.537556827943872E-021
  1.470000000000000E-002   -2.423311532783780E-021
  1.480000000000000E-002   -1.147636788782302E-020
  1.490000000000000E-002   -2.102551937665638E-020
  1.500000000000000E-002   -3.033816017615905E-020
  1.510000000000000E-002   -3.858662694124414E-020
  1.520000000000000E-002   -4.490403954200583E-020
  1.530000000000000E-002   -4.845186087970327E-020
  1.540000000000000E-002   -4.849515417075520E-020
  1.550000000000000E-002   -4.448028593691407E-020
  1.560000000000000E-002   -3.610890859447835E-020
  1.570000000000000E-002   -2.340147472060602E-020
  1.580000000000000E-002   -6.743521933598113E-021
  1.590000000000000E-002    1.309161184535893E-020
  1.600000000000000E-002    3.494885594061579E-020
  1.610000000000000E-002    5.732991086550417E-020
  1.620000000000000E-002    7.846565157890476E-020
  1.630000000000000E-002    9.642140068769113E-020
  1.640000000000000E-002    1.092311825769009E-019
  1.650000000000000E-002    1.150542662284571E-019
  1.660000000000000E-002    1.123444879976820E-019
  1.670000000000000E-002    1.000204942328098E-019
  1.680000000000000E-002    7.762327405055193E-020
  1.690000000000000E-002    4.544640530354876E-020
  1.700000000000000E-002    4.624464774249775E-021
  1.710000000000000E-002   -4.283367034538397E-020
  1.720000000000000E-002   -9.407743885369880E-020
  1.730000000000000E-002   -1.455202606786920E-019
  1.740000000000000E-002   -1.930205607185344E-019
  1.750000000000000E-002   -2.321345973658803E-019
  1.760000000000000E-002   -2.584314458347006E-019
  1.770000000000000E-002   -2.678537261909030E-019
  1.780000000000000E-002   -2.571017011741689E-019
  1.790000000000000E-002   -2.240130151199337E-019
  1.800000000000000E-002   -1.679065327094998E-019
  1.810000000000000E-002   -8.985704648241183E-020
  1.820000000000000E-002    7.131805546861294E-021
  1.830000000000000E-002    1.180854465960663E-019
  1.840000000000000E-002    2.361698649388735E-019
  1.850000000000000E-002    3.529700384656151E-019
  1.860000000000000E-002    4.589370246497284E-019
  1.870000000000000E-002    5.439919303434727E-019