 -4.000000000000000E-002    0.000000000000000E+000
 -3.990000000000000E-002    0.000000000000000E+000
 -3.980000000000000E-002    0.000000000000000E+000
 -3.970000000000000E-002    0.000000000000000E+000
 -3.960000000000000E-002    1.692853534363599E-018
 -3.950000000000000E-002    1.611574351063280E-017
 -3.940000000000000E-002    8.506059623587238E-017
 -3.930000000000000E-002    3.273704024079452E-016
 -3.920000000000000E-002    1.021767579998490E-015
 -3.910000000000000E-002    2.731915575986395E-015
 -3.900000000000000E-002    6.463206758646738E-015
 -3.890000000000000E-002    1.381187859714616E-014
 -3.880000000000000E-002    2.702607907533426E-014
 -3.870000000000000E-002    4.885076036503945E-014
 -3.860000000000000E-002    8.198476980560469E-014
 -3.850000000000000E-002    1.279555639126062E-013
 -3.840000000000000E-002    1.852350012944227E-013
 -3.830000000000000E-002    2.464988417315007E-013
 -3.820000000000000E-002    2.950886890436135E-013
 -3.810000000000000E-002    3.009716445278206E-013
 -3.800000000000000E-002    2.167985159691075E-013
 -3.790000000000000E-002   -2.499976364025757E-014
 -3.780000000000000E-002   -5.128223473940802E-013
 -3.770000000000000E-002   -1.352744974808726E-012
 -3.760000000000000E-002   -2.660104201518335E-012
 -3.750000000000000E-002   -4.544567617732353E-012
 -3.740000000000000E-002   -7.088022633995784E-012
 -3.730000000000000E-002   -1.031555745198236E-011
 -3.720000000000000E-002   -1.416108610594968E-011
 -3.710000000000000E-002   -1.843065016284532E-011
 -3.700000000000000E-002   -2.276798632015298E-011
 -3.690000000000000E-002   -2.662828167994261E-011
 -3.680000000000000E-002   -2.926690643640031E-011
 -3.670000000000000E-002   -2.975006877475882E-011
 -3.660000000000000E-002   -2.699345397946601E-011
 -3.650000000000000E-002   -1.983298949224263E-011
 -3.640000000000000E-002   -7.128774602858497E-012
 -3.630000000000000E-002    1.210069956717665E-011
 -3.620000000000000E-002    3.852155429913553E-011
 -3.610000000000000E-002    7.231672097399786E-011
 -3.600000000000000E-002    1.130234743837720E-010
 -3.590000000000000E-002    1.593950842807020E-010
 -3.580000000000000E-002    2.093063659746944E-010
 -3.570000000000000E-002    2.597216156084600E-010
 -3.560000000000000E-002    3.067397247879825E-010
 -3.550000000000000E-002    3.457251876087941E-010
 -3.540000000000000E-002    3.715259594532724E-010
 -3.530000000000000E-002    3.787706629669910E-010
 -3.520000000000000E-002    3.622286949299239E-010
 -3.510000000000000E-002    3.172095520887909E-010
 -3.500000000000000E-002    2.399727581180049E-010
 -3.490000000000000E-002    1.281173988482144E-010
 -3.480000000000000E-002   -1.907768769332866E-011
 -3.470000000000000E-002   -2.003878876190578E-010
 -3.460000000000000E-002   -4.124673092565210E-010
 -3.450000000000000E-002   -6.497718289565058E-010
 -3.440000000000000E-002   -9.045790722060907E-010
 -3.430000000000000E-002   -1.167096405211232E-009
 -3.420000000000000E-002   -1.425643361596580E-009
 -3.410000000000000E-002   -1.666895071603831E-009
 -3.400000000000000E-002   -1.876176893982792E-009
 -3.390000000000000E-002   -2.037808468296781E-009
 -3.380000000000000E-002   -2.135506290451165E-009
 -3.370000000000000E-002   -2.152864369082955E-009
 -3.360000000000000E-002   -2.073940523460587E-009
 -3.350000000000000E-002   -1.883978206348444E-009
 -3.340000000000000E-002   -1.570288909147224E-009
 -3.330000000000000E-002   -1.123306157198529E-009
 -3.320000000000000E-002   -5.377962275896682E-010
 -3.310000000000000E-002    1.858204808299561E-010
 -3.300000000000000E-002    1.040120824175009E-009
 -3.290000000000000E-002    2.009424143416634E-009
 -3.280000000000000E-002    3.068783727375333E-009
 -3.270000000000000E-002    4.183396124850027E-009
 -3.260000000000000E-002    5.308602296887168E-009
 -3.250000000000000E-002    6.390632518387725E-009
 -3.240000000000000E-002    7.368204410465410E-009
 -3.230000000000000E-002    8.175015964019384E-009
 -3.220000000000000E-002    8.743088802861513E-009
 -3.210000000000000E-002    9.006821831330432E-009
 -3.200000000000000E-002    8.907521120142280E-009
 -3.190000000000000E-002    8.398084567517288E-009
 -3.180000000000000E-002    7.447460225935867E-009
 -3.170000000000000E-002    6.044472815709793E-009
 -3.160000000000000E-002    4.200625039919555E-009
 -3.150000000000000E-002    1.951543791597708E-009
 -3.140000000000000E-002   -6.431592882047299E-010
 -3.130000000000000E-002   -3.501702372049259E-009
 -3.120000000000000E-002   -6.523557593318633E-009
 -3.110000000000000E-002   -9.594255487079550E-009
 -3.100000000000000E-002   -1.259119197945847E-008
 -3.090000000000000E-002   -1.538995005112348E-008
 -3.080000000000000E-002   -1.787058246495860E-008
 -3.070000000000000E-002   -1.992330559965170E-008
 -3.060000000000000E-002   -2.145312401231107E-008
 -3.050000000000000E-002   -2.238301435193564E-008
 -3.040000000000000E-002   -2.265551055238779E-008
 -3.030000000000000E-002   -2.223270202620610E-008
 -3.020000000000000E-002   -2.109490048286789E-008
 -3.010000000000000E-002   -1.923839540408675E-008
 -3.000000000000000E-002   -1.667286993043790E-008
 -2.990000000000000E-002   -1.341910988747870E-008
 -2.980000000000000E-002   -9.507607352174621E-009
 -2.970000000000000E-002   -4.978544054529893E-009
 -2.960000000000000E-002    1.165519200605182E-010
 -2.950000000000000E-002    5.711478120925641E-009
 -2.940000000000000E-002    1.172063695668202E-008
 -2.930000000000000E-002    1.803352970171351E-008
 -2.920000000000000E-002    2.450931685981787E-008
 -2.910000000000000E-002    3.097249436896394E-008
 -2.900000000000000E-002    3.721078782052675E-008
 -2.890000000000000E-002    4.297630933501565E-008
 -2.880000000000000E-002    4.799079907113039E-008
 -2.870000000000000E-002    5.195545793146773E-008
 -2.860000000000000E-002    5.456538471422378E-008
 -2.850000000000000E-002    5.552814919530052E-008
 -2.840000000000000E-002    5.458549877583801E-008
 -2.830000000000000E-002    5.153669130768634E-008
 -2.820000000000000E-002    4.626158585735006E-008
 -2.810000000000000E-002    3.874137466819638E-008
 -2.800000000000000E-002    2.907481592041682E-008
 -2.790000000000000E-002    1.748797359404212E-008
 -2.780000000000000E-002    4.335864421675603E-009
 -2.770000000000000E-002   -9.905032476006333E-009
 -2.760000000000000E-002   -2.465374998711103E-008
 -2.750000000000000E-002   -3.925083585808791E-008
 -2.740000000000000E-002   -5.299215382059529E-008
 -2.730000000000000E-002   -6.516849432183857E-008
 -2.720000000000000E-002   -7.510844640377303E-008
 -2.710000000000000E-002   -8.222154867963315E-008
 -2.700000000000000E-002   -8.603859579826978E-008
 -2.690000000000000E-002   -8.624612203595587E-008
 -2.680000000000000E-002   -8.271241214582262E-008
 -2.670000000000000E-002   -7.550302440647035E-008
 -2.660000000000000E-002   -6.488464214899550E-008
 -2.650000000000000E-002   -5.131692840640883E-008
 -2.640000000000000E-002   -3.543311792615335E-008
 -2.630000000000000E-002   -1.801092505109830E-008
 -2.620000000000000E-002    6.379913077906589E-011
 -2.610000000000000E-002    1.783768003636287E-008
 -2.600000000000000E-002    3.433125582419743E-008
 -2.590000000000000E-002    4.857789717175424E-008
 -2.580000000000000E-002    5.965695121201294E-008
 -2.570000000000000E-002    6.671839580880356E-008
 -2.560000000000000E-002    6.899720633187763E-008
 -2.550000000000000E-002    6.581623887285022E-008
 -2.540000000000000E-002    5.657791838955807E-008
 -2.530000000000000E-002    4.074571293969785E-008
 -2.520000000000000E-002    1.781751281376404E-008
 -2.510000000000000E-002   -1.270602360420459E-008
 -2.500000000000000E-002   -5.135474537990136E-008
 -2.490000000000000E-002   -9.871990994670137E-008
 -2.480000000000000E-002   -1.554790922025418E-007
 -2.470000000000000E-002   -2.224113907422471E-007
 -2.460000000000000E-002   -3.004005969047124E-007
 -2.450000000000000E-002   -3.904242050954729E-007
 -2.440000000000000E-002   -4.935281036116432E-007
 -2.430000000000000E-002   -6.107874136043286E-007
 -2.420000000000000E-002   -7.432562203526128E-007
 -2.410000000000000E-002   -8.919091522677324E-007
 -2.400000000000000E-002   -1.057579546697294E-006
 -2.390000000000000E-002   -1.240899528746560E-006
 -2.380000000000000E-002   -1.442247214320396E-006
 -2.370000000000000E-002   -1.661707228029135E-006
 -2.360000000000000E-002   -1.899048408567183E-006
 -2.350000000000000E-002   -2.153723482667160E-006
 -2.340000000000000E-002   -2.424892022722933E-006
 -2.330000000000000E-002   -2.711468090125697E-006
 -2.320000000000000E-002   -3.012189938944967E-006
 -2.310000000000000E-002   -3.325709707548739E-006
 -2.300000000000000E-002   -3.650696938595166E-006
 -2.290000000000000E-002   -3.985948583501717E-006
 -2.280000000000000E-002   -4.330498899504373E-006
 -2.270000000000000E-002   -4.683720181694134E-006
 -2.260000000000000E-002   -5.045405714669587E-006
 -2.250000000000000E-002   -5.415828424610141E-006
 -2.240000000000000E-002   -5.795769529594056E-006
 -2.230000000000000E-002   -6.186512331391471E-006
 -2.220000000000000E-002   -6.589803278422361E-006
 -2.210000000000000E-002   -7.007777462291615E-006
 -2.200000000000000E-002   -7.442856060345135E-006
 -2.190000000000000E-002   -7.897624472741927E-006
 -2.180000000000000E-002   -8.374694913931691E-006
 -2.170000000000000E-002   -8.876567994630502E-006
 -2.160000000000000E-002   -9.405505349090936E-006
 -2.150000000000000E-002   -9.963418094936447E-006
 -2.140000000000000E-002   -1.055179110520710E-005
 -2.130000000000000E-002   -1.117163782579674E-005
 -2.120000000000000E-002   -1.182350096350557E-005
 -2.110000000000000E-002   -1.250749500586349E-005
 -2.100000000000000E-002   -1.322339344188836E-005
 -2.090000000000000E-002   -1.397074916372692E-005
 -2.080000000000000E-002   -1.474904215418757E-005
 -2.070000000000000E-002   -1.555784607504818E-005
 -2.060000000000000E-002   -1.639700099278263E-005
 -2.050000000000000E-002   -1.726677285079729E-005
 -2.040000000000000E-002   -1.816798794615207E-005
 -2.030000000000000E-002   -1.910214018052562E-005
 -2.020000000000000E-002   -2.007145023580724E-005
 -2.010000000000000E-002   -2.107887398323144E-005
 -2.000000000000000E-002   -2.212806101431985E-005
 -1.990000000000000E-002   -2.322326101372065E-005
 -1.980000000000000E-002   -2.436918339497184E-005
 -1.970000000000000E-002   -2.557082058315382E-005
 -1.960000000000000E-002   -2.683325863168231E-005
 -1.950000000000000E-002   -2.816146485057179E-005
 -1.940000000000000E-002   -2.956009356548574E-005
 -1.930000000000000E-002   -3.103330736440835E-005
 -1.920000000000000E-002   -3.258464538517762E-005
 -1.910000000000000E-002   -3.421693108676971E-005
 -1.900000000000000E-002   -3.593224630477869E-005
 -1.890000000000000E-002   -3.773196249888259E-005
 -1.880000000000000E-002   -3.961684462569582E-005
 -1.870000000000000E-002   -4.158718899822951E-005
 -1.860000000000000E-002   -4.364304266057292E-005
 -1.850000000000000E-002   -4.578442301320848E-005
 -1.840000000000000E-002   -4.801158073736356E-005
 -1.830000000000000E-002   -5.032524497073730E-005
 -1.820000000000000E-002   -5.272685974932700E-005
 -1.810000000000000E-002   -5.521879143913285E-005
 -1.800000000000000E-002   -5.780445952764299E-005
 -1.790000000000000E-002   -6.048842115277044E-005
 -1.780000000000000E-002   -6.327638737868984E-005
 -1.770000000000000E-002   -6.617513510983145E-005
 -1.760000000000000E-002   -6.919240669637457E-005
 -1.750000000000000E-002   -7.233667041195441E-005
 -1.740000000000000E-002   -7.561690308224293E-005
 -1.730000000000000E-002   -7.904229717775896E-005
 -1.720000000000000E-002   -8.262196439648415E-005
 -1.710000000000000E-002   -8.636465816926284E-005
 -1.700000000000000E-002   -9.027852719780746E-005
 -1.690000000000000E-002   -9.437089254605537E-005
 -1.680000000000000E-002   -9.864812916546722E-005
 -1.670000000000000E-002   -1.031156010564124E-004
 -1.660000000000000E-002   -1.077776767283751E-004
 -1.650000000000000E-002   -1.126378294378223E-004
 -1.640000000000000E-002   -1.176988174130740E-004
 -1.630000000000000E-002   -1.229629121066842E-004
 -1.620000000000000E-002   -1.284321555205245E-004
 -1.610000000000000E-002   -1.341086736500090E-004
 -1.600000000000000E-002   -1.399949817783645E-004
 -1.590000000000000E-002   -1.460942287560236E-004
 -1.580000000000000E-002   -1.524104046680048E-004
 -1.570000000000000E-002   -1.589485395523584E-004
 -1.560000000000000E-002   -1.657147089200100E-004
 -1.550000000000000E-002   -1.727160784956296E-004
 -1.540000000000000E-002   -1.799607733192059E-004
 -1.530000000000000E-002   -1.874577215169125E-004
 -1.520000000000000E-002   -1.952163674838538E-004
 -1.510000000000000E-002   -2.032463986930536E-004
 -1.500000000000000E-002   -2.115573836612429E-004
 -1.490000000000000E-002   -2.201585103585763E-004
 -1.480000000000000E-002   -2.290581775842905E-004
 -1.470000000000000E-002   -2.382637662991374E-004
 -1.460000000000000E-002   -2.477814095477844E-004
 -1.450000000000000E-002   -2.576158763637123E-004
 -1.440000000000000E-002   -2.677704342357865E-004
 -1.430000000000000E-002   -2.782469844174039E-004
 -1.420000000000000E-002   -2.890460634090131E-004
 -1.410000000000000E-002   -3.001670193289950E-004
 -1.400000000000000E-002   -3.116082753520158E-004
 -1.390000000000000E-002   -3.233675130387839E-004
 -1.380000000000000E-002   -3.354419689723868E-004
 -1.370000000000000E-002   -3.478286344173182E-004
 -1.360000000000000E-002   -3.605244445737780E-004
 -1.350000000000000E-002   -3.735264836560008E-004
 -1.340000000000000E-002   -3.868319563968348E-004
 -1.330000000000000E-002   -4.004382843334895E-004
 -1.320000000000000E-002   -4.143429612589494E-004
 -1.310000000000000E-002   -4.285434416502171E-004
 -1.300000000000000E-002   -4.430368707078524E-004
 -1.290000000000000E-002   -4.578198187561643E-004
 -1.280000000000000E-002   -4.728879802021944E-004
 -1.270000000000000E-002   -4.882358572243886E-004
 -1.260000000000000E-002   -5.038563751662904E-004
 -1.250000000000000E-002   -5.197405953397489E-004
 -1.240000000000000E-002   -5.358774580491538E-004
 -1.230000000000000E-002   -5.522534397665002E-004
 -1.220000000000000E-002   -5.688525522880555E-004
 -1.210000000000000E-002   -5.856559668233032E-004
 -1.200000000000000E-002   -6.026421332392869E-004
 -1.190000000000000E-002   -6.197865928566176E-004
 -1.180000000000000E-002   -6.370620929876901E-004
 -1.170000000000000E-002   -6.544385557944667E-004
 -1.160000000000000E-002   -6.718830237311473E-004
 -1.150000000000000E-002   -6.893599637408679E-004
 -1.140000000000000E-002   -7.068308640571460E-004
 -1.130000000000000E-002   -7.242546670495993E-004
 -1.120000000000000E-002   -7.415874343141857E-004
 -1.110000000000000E-002   -7.587822291190610E-004
 -1.100000000000000E-002   -7.757892248205551E-004
 -1.090000000000000E-002   -7.925552911502474E-004
 -1.080000000000000E-002   -8.090240128876559E-004
 -1.070000000000000E-002   -8.251352013854931E-004
 -1.060000000000000E-002   -8.408248294677336E-004
 -1.050000000000000E-002   -8.560246738157060E-004
 -1.040000000000000E-002   -8.706620169324315E-004
 -1.030000000000000E-002   -8.846594551429118E-004
 -1.020000000000000E-002   -8.979345436304333E-004
 -1.010000000000000E-002   -9.103995230279540E-004
 -1.000000000000000E-002   -9.219612057082264E-004
 -9.899999999999999E-003   -9.325207291231632E-004
 -9.800000000000000E-003   -9.419730610328272E-004
 -9.699999999999999E-003   -9.502072154759407E-004
 -9.599999999999999E-003   -9.571057675985863E-004
 -9.500000000000000E-003   -9.625446969884927E-004
 -9.399999999999999E-003   -9.663930011837071E-004
 -9.299999999999999E-003   -9.685127001311623E-004
 -9.200000000000000E-003   -9.687582170750629E-004
 -9.099999999999999E-003   -9.669761903280825E-004
 -8.999999999999999E-003   -9.630049885139215E-004
 -8.900000000000000E-003   -9.566745798368943E-004
 -8.799999999999999E-003   -9.478058778193811E-004
 -8.699999999999999E-003   -9.362105374603447E-004
 -8.600000000000000E-003   -9.216903702919415E-004
 -8.499999999999999E-003   -9.040371045045523E-004
 -8.399999999999999E-003   -8.830321906601456E-004
 -8.300000000000000E-003   -8.584460992023905E-004
 -8.199999999999999E-003   -8.300384775845086E-004
 -8.100000000000000E-003   -7.975576518440829E-004
 -8.000000000000000E-003   -7.607405186366867E-004
 -7.899999999999999E-003   -7.193124435688566E-004
 -7.800000000000000E-003   -6.729868023721466E-004
 -7.699999999999999E-003   -6.214652652941565E-004
 -7.599999999999999E-003   -5.644370092581800E-004
 -7.499999999999999E-003   -5.015790830133018E-004
 -7.399999999999999E-003   -4.325555118137509E-004
 -7.299999999999999E-003   -3.570173438185975E-004
 -7.199999999999999E-003   -2.746022316506136E-004
 -7.100000000000000E-003   -1.849336682215776E-004
 -6.999999999999999E-003   -8.762097223899294E-005
 -6.899999999999999E-003    1.774180181256708E-005
 -6.800000000000000E-003    1.315760577448996E-004
 -6.699999999999999E-003    2.543192714613941E-004
 -6.599999999999999E-003    3.864256012754680E-004
 -6.499999999999999E-003    5.283663985723309E-004
 -6.399999999999999E-003    6.806304925595664E-004
 -6.299999999999999E-003    8.437247974537973E-004
 -6.199999999999999E-003    1.018174340127179E-003
 -6.100000000000000E-003    1.204522878008857E-003
 -5.999999999999999E-003    1.403332876696229E-003
 -5.899999999999999E-003    1.615186060714227E-003
 -5.800000000000000E-003    1.840683029079285E-003
 -5.699999999999999E-003    2.080443789771205E-003
 -5.599999999999999E-003    2.335108156090887E-003
 -5.499999999999999E-003    2.605335231367857E-003
 -5.399999999999999E-003    2.891804002783959E-003
 -5.299999999999999E-003    3.195213789580742E-003
 -5.199999999999999E-003    3.516283935839382E-003
 -5.099999999999999E-003    3.855754724679317E-003
 -4.999999999999999E-003    4.214386852706695E-003
 -4.899999999999999E-003    4.592962542431812E-003
 -4.799999999999999E-003    4.992285051843283E-003
 -4.699999999999999E-003    5.413179458249563E-003
 -4.599999999999999E-003    5.856492341594143E-003
 -4.499999999999999E-003    6.323092278113735E-003
 -4.399999999999999E-003    6.813870595263055E-003
 -4.299999999999999E-003    7.329740318883002E-003
 -4.199999999999999E-003    7.871636905109832E-003
 -4.099999999999999E-003    8.440517880955902E-003
 -3.999999999999999E-003    9.037364068903002E-003
 -3.899999999999999E-003    9.663177225989795E-003
 -3.799999999999999E-003    1.031898279552084E-002
 -3.699999999999999E-003    1.100582824972541E-002
 -3.599999999999999E-003    1.172478303405726E-002
 -3.499999999999999E-003    1.247693875523667E-002
 -3.399999999999999E-003    1.326340937128674E-002
 -3.299999999999999E-003    1.408533055931828E-002
 -3.199999999999999E-003    1.494385898125057E-002
 -3.099999999999999E-003    1.584017269208100E-002
 -2.999999999999999E-003    1.677547092743163E-002
 -2.899999999999999E-003    1.775097314174435E-002
 -2.799999999999999E-003    1.876791783129244E-002
 -2.699999999999999E-003    1.982756384667699E-002
 -2.599999999999999E-003    2.093118965953877E-002
 -2.499999999999999E-003    2.208008988583454E-002
 -2.399999999999999E-003    2.327557702919031E-002
 -2.299999999999999E-003    2.451898063721885E-002
 -2.199999999999999E-003    2.581164566783377E-002
 -2.099999999999999E-003    2.715493162616051E-002
 -1.999999999999999E-003    2.855021351175951E-002
 -1.899999999999999E-003    2.999888098776745E-002
 -1.799999999999999E-003    3.150233459586035E-002
 -1.699999999999999E-003    3.306198654410265E-002
 -1.599999999999999E-003    3.467926305714963E-002
 -1.499999999999999E-003    3.635559729005258E-002
 -1.399999999999999E-003    3.809243225721461E-002
 -1.299999999999999E-003    3.989121735129712E-002
 -1.199999999999999E-003    4.175341048530070E-002
 -1.099999999999999E-003    4.368047361559423E-002
 -9.999999999999989E-004    4.567387649544414E-002
 -8.999999999999990E-004    4.773508403085618E-002
 -7.999999999999990E-004    4.986556683544533E-002
 -6.999999999999989E-004    5.206679764620017E-002
 -5.999999999999990E-004    5.434023928553701E-002
 -4.999999999999989E-004    5.668735320526423E-002
 -3.999999999999989E-004    5.910959738116939E-002
 -2.999999999999989E-004    6.160841726807512E-002
 -1.999999999999989E-004    6.418525331826611E-002
 -9.999999999999892E-005    6.684152938875886E-002
  1.084202172485504E-018    6.957866606104207E-002
  1.000000000000011E-004    7.239805508445868E-002
  2.000000000000011E-004    7.530107687546250E-002
  3.000000000000011E-004    7.828909532882497E-002
  4.000000000000011E-004    8.136344678997262E-002
  5.000000000000011E-004    8.452544270746208E-002
  6.000000000000011E-004    8.777636935869620E-002
  7.000000000000011E-004    9.111748749359114E-002
  8.000000000000011E-004    9.455002596232293E-002
  9.000000000000012E-004    9.807516562811013E-002
  1.000000000000001E-003    0.101694064505075     
  1.100000000000001E-003    0.105407835068711     
  1.200000000000001E-003    0.109217548193790     
  1.300000000000001E-003    0.113124229159675     
  1.400000000000001E-003    0.117128858185721     
  1.500000000000001E-003    0.121232355889578     
  1.600000000000001E-003    0.125435593054433     
  1.700000000000001E-003    0.129739392736658     
  1.800000000000001E-003    0.134144507155170     
  1.900000000000001E-003    0.138651631468632     
  2.000000000000001E-003    0.143261397064983     
  2.100000000000001E-003    0.147974360875409     
  2.200000000000001E-003    0.152791008825251     
  2.300000000000001E-003    0.157711757131022     
  2.400000000000001E-003    0.162736947951964     
  2.500000000000001E-003    0.167866837815345     
  2.600000000000001E-003    0.173101592888490     
  2.700000000000001E-003    0.178441301937963     
  2.800000000000001E-003    0.183885968640244     
  2.900000000000001E-003    0.189435480948253     
  3.000000000000001E-003    0.195089665168936     
  3.100000000000001E-003    0.200848211736311     
  3.200000000000001E-003    0.206710734449753     
  3.300000000000001E-003    0.212676740040749     
  3.400000000000001E-003    0.218745609698038     
  3.500000000000001E-003    0.224916632696336     
  3.600000000000001E-003    0.231188956419417     
  3.700000000000001E-003    0.237561637295892     
  3.800000000000001E-003    0.244033585568386     
  3.900000000000001E-003    0.250603609619927     
  4.000000000000001E-003    0.257270400054371     
  4.100000000000001E-003    0.264032483545555     
  4.200000000000001E-003    0.270888258843387     
  4.300000000000001E-003    0.277836008794205     
  4.400000000000001E-003    0.284873881501748     
  4.500000000000001E-003    0.291999886481770     
  4.600000000000002E-003    0.299211862982541     
  4.700000000000001E-003    0.306507526876847     
  4.800000000000001E-003    0.313884423501886     
  4.900000000000002E-003    0.321339988860712     
  5.000000000000001E-003    0.328871503499958     
  5.100000000000001E-003    0.336476084233832     
  5.200000000000001E-003    0.344150684276878     
  5.300000000000002E-003    0.351892111981834     
  5.400000000000001E-003    0.359697032274485     
  5.500000000000001E-003    0.367561947174517     
  5.600000000000002E-003    0.375483186110720     
  5.700000000000001E-003    0.383456910264473     
  5.800000000000001E-003    0.391479135104931     
  5.900000000000002E-003    0.399545725512292     
  6.000000000000001E-003    0.407652379979697     
  6.100000000000001E-003    0.415794602365782     
  6.200000000000002E-003    0.423967786875866     
  6.300000000000002E-003    0.432167102031636     
  6.400000000000001E-003    0.440387616506722     
  6.500000000000001E-003    0.448624197679434     
  6.600000000000002E-003    0.456871535671716     
  6.700000000000001E-003    0.465124207361504     
  6.800000000000001E-003    0.473376589176857     
  6.900000000000002E-003    0.481622951262549     
  7.000000000000001E-003    0.489857346427441     
  7.100000000000001E-003    0.498073726542711     
  7.200000000000002E-003    0.506265868573388     
  7.300000000000002E-003    0.514427361932006     
  7.400000000000001E-003    0.522551708912273     
  7.500000000000001E-003    0.530632229511999     
  7.600000000000002E-003    0.538662124519422     
  7.700000000000001E-003    0.546634423872617     
  7.800000000000001E-003    0.554542013479868     
  7.900000000000001E-003    0.562377694621381     
  8.000000000000002E-003    0.570134129952959     
  8.100000000000001E-003    0.577803861005367     
  8.200000000000001E-003    0.585379213773889     
  8.300000000000002E-003    0.592852500796745     
  8.400000000000001E-003    0.600215902749361     
  8.500000000000002E-003    0.607461507621341     
  8.600000000000002E-003    0.614581226615395     
  8.700000000000001E-003    0.621567005014124     
  8.800000000000002E-003    0.628410544202279     
  8.900000000000002E-003    0.635103570994413     
  9.000000000000001E-003    0.641637741286054     
  9.100000000000002E-003    0.648004599581023     
  9.200000000000002E-003    0.654195582838838     
  9.300000000000001E-003    0.660202166650622     
  9.400000000000002E-003    0.666015675963651     
  9.500000000000001E-003    0.671627478815390     
  9.600000000000001E-003    0.677028901395092     
  9.700000000000002E-003    0.682211186141544     
  9.800000000000001E-003    0.687165609624651     
  9.900000000000001E-003    0.691883427497265     
  1.000000000000000E-002    0.696355884060559     
  1.010000000000000E-002    0.700574199059605     
  1.020000000000000E-002    0.704529674965179     
  1.030000000000000E-002    0.708213543122374     
  1.040000000000000E-002    0.711617162239851     
  1.050000000000000E-002    0.714731886796742     
  1.060000000000000E-002    0.717549137485362     
  1.070000000000000E-002    0.720060380711838     
  1.080000000000000E-002    0.722257146009167     
  1.090000000000000E-002    0.724131010413309     
  1.100000000000000E-002    0.725673751051484     
  1.110000000000000E-002    0.726877190064036     
  1.120000000000000E-002    0.727733185138281     
  1.130000000000000E-002    0.728233830118801     
  1.140000000000000E-002    0.728371293450589     
  1.150000000000000E-002    0.728137878348412     
  1.160000000000000E-002    0.727526063548306     
  1.170000000000000E-002    0.726528463582311     
  1.180000000000000E-002    0.725137901196800     
  1.190000000000000E-002    0.723347283122635     
  1.200000000000000E-002    0.721149863621021     
  1.210000000000000E-002    0.718538976356666     
  1.220000000000000E-002    0.715508262429802     
  1.230000000000000E-002    0.712051455482330     
  1.240000000000000E-002    0.708162625564518     
  1.250000000000000E-002    0.703836113474984     
  1.260000000000000E-002    0.699066381156547     
  1.270000000000000E-002    0.693848250898950     
  1.280000000000000E-002    0.688176776031279     
  1.290000000000000E-002    0.682047325418881     
  1.300000000000000E-002    0.675455575464133     
  1.310000000000000E-002    0.668397398505163     
  1.320000000000000E-002    0.660869096086873     
  1.330000000000000E-002    0.652867239128447     
  1.340000000000000E-002    0.644388684217818     
  1.350000000000000E-002    0.635430724041141     
  1.360000000000000E-002    0.625990919001883     
  1.370000000000000E-002    0.616067213058414     
  1.380000000000000E-002    0.605657887444632     
  1.390000000000000E-002    0.594761579910555     
  1.400000000000000E-002    0.583377351895992     
  1.410000000000000E-002    0.571504553093515     
  1.420000000000000E-002    0.559142996533112     
  1.430000000000000E-002    0.546292869667756     
  1.440000000000000E-002    0.532954794921216     
  1.450000000000000E-002    0.519129710522802     
  1.460000000000000E-002    0.504819004428588     
  1.470000000000000E-002    0.490024525180625     
  1.480000000000000E-002    0.474748486683479     
  1.490000000000000E-002    0.458993497455330     
  1.500000000000000E-002    0.442762678053705     
  1.510000000000000E-002    0.426059491410387     
  1.520000000000000E-002    0.408887897567802     
  1.530000000000000E-002    0.391252267106171     
  1.540000000000000E-002    0.373157387507248     
  1.550000000000000E-002    0.354608505026158     
  1.560000000000000E-002    0.335611272803347     
  1.570000000000000E-002    0.316171814950644     
  1.580000000000000E-002    0.296296657363209     
  1.590000000000000E-002    0.275992791152671     
  1.600000000000000E-002    0.255267600840545     
  1.610000000000000E-002    0.234128979859304     
  1.620000000000000E-002    0.212585176334349     
  1.630000000000000E-002    0.190644884800420     
  1.640000000000000E-002    0.168317266720256     
  1.650000000000000E-002    0.145611874320034     
  1.660000000000000E-002    0.122538689206434     
  1.670000000000000E-002    9.910810378491601E-002
  1.680000000000000E-002    7.533091130680278E-002
  1.690000000000000E-002    5.121832877180194E-002
  1.700000000000000E-002    2.678195882358633E-002
  1.710000000000000E-002    2.033799797838629E-003
  1.720000000000000E-002   -2.301378205366904E-002
  1.730000000000000E-002   -4.834802677111927E-002
  1.740000000000000E-002   -7.395581215000034E-002
  1.750000000000000E-002   -9.982366712976973E-002
  1.760000000000000E-002   -0.125937764392417     
  1.770000000000000E-002   -0.152283939250178     
  1.780000000000000E-002   -0.178847692666888     
  1.790000000000000E-002   -0.205614201691834     
  1.800000000000000E-002   -0.232568346730534     
  1.810000000000000E-002   -0.259694697268578     
  1.820000000000000E-002   -0.286977553190234     
  1.830000000000000E-002   -0.314400909382912     
  1.840000000000000E-002   -0.341948535396211     
  1.850000000000000E-002   -0.369603919165651     
  1.860000000000000E-002   -0.397350307820570     
  1.870000000000000E-002   -0.425170741062814     