 -4.000000000000000E-002    0.000000000000000E+000
 -3.990000000000000E-002    0.000000000000000E+000
 -3.980000000000000E-002    0.000000000000000E+000
 -3.970000000000000E-002    0.000000000000000E+000
 -3.960000000000000E-002    0.000000000000000E+000
 -3.950000000000000E-002    0.000000000000000E+000
 -3.940000000000000E-002    0.000000000000000E+000
 -3.930000000000000E-002    0.000000000000000E+000
 -3.920000000000000E-002    0.000000000000000E+000
 -3.910000000000000E-002    0.000000000000000E+000
 -3.900000000000000E-002    0.000000000000000E+000
 -3.890000000000000E-002    0.000000000000000E+000
 -3.880000000000000E-002    0.000000000000000E+000
 -3.870000000000000E-002    0.000000000000000E+000
 -3.860000000000000E-002    0.000000000000000E+000
 -3.850000000000000E-002    0.000000000000000E+000
 -3.840000000000000E-002    0.000000000000000E+000
 -3.830000000000000E-002    0.000000000000000E+000
 -3.820000000000000E-002    0.000000000000000E+000
 -3.810000000000000E-002    0.000000000000000E+000
 -3.800000000000000E-002    0.000000000000000E+000
 -3.790000000000000E-002    0.000000000000000E+000
 -3.780000000000000E-002    0.000000000000000E+000
 -3.770000000000000E-002    0.000000000000000E+000
 -3.760000000000000E-002    0.000000000000000E+000
 -3.750000000000000E-002    0.000000000000000E+000
 -3.740000000000000E-002    0.000000000000000E+000
 -3.730000000000000E-002    0.000000000000000E+000
 -3.720000000000000E-002    0.000000000000000E+000
 -3.710000000000000E-002    0.000000000000000E+000
 -3.700000000000000E-002    0.000000000000000E+000
 -3.690000000000000E-002    1.720960213099565E-047
 -3.680000000000000E-002    3.295069637667054E-047
 -3.670000000000000E-002    4.924976048980724E-047
 -3.660000000000000E-002    9.470655875547817E-047
 -3.650000000000000E-002    2.418169467377569E-046
 -3.640000000000000E-002    6.144714247959051E-046
 -3.630000000000000E-002    1.776708571085997E-045
 -3.620000000000000E-002    6.242431295307076E-045
 -3.610000000000000E-002    1.929597476271293E-044
 -3.600000000000000E-002    5.602744153909885E-044
 -3.590000000000000E-002    1.550006152910069E-043
 -3.580000000000000E-002    4.090439780061093E-043
 -3.570000000000000E-002    1.023616198846043E-042
 -3.560000000000000E-002    2.437942054962960E-042
 -3.550000000000000E-002    5.527202960481456E-042
 -3.540000000000000E-002    1.194672489176910E-041
 -3.530000000000000E-002    2.462667787558565E-041
 -3.520000000000000E-002    4.840438223305148E-041
 -3.510000000000000E-002    9.058286052813451E-041
 -3.500000000000000E-002    1.608908221978709E-040
 -3.490000000000000E-002    2.696456300247226E-040
 -3.480000000000000E-002    4.218516676769164E-040
 -3.470000000000000E-002    6.033273097704790E-040
 -3.460000000000000E-002    7.527958550926916E-040
 -3.450000000000000E-002    7.115220055330358E-040
 -3.440000000000000E-002    1.404787460810657E-040
 -3.430000000000000E-002   -1.603894936235738E-039
 -3.420000000000000E-002   -5.637045896962345E-039
 -3.410000000000000E-002   -1.373983259028786E-038
 -3.400000000000000E-002   -2.852392664149068E-038
 -3.390000000000000E-002   -5.345011161056423E-038
 -3.380000000000000E-002   -9.248078669267739E-038
 -3.370000000000000E-002   -1.490101886953952E-037
 -3.360000000000000E-002   -2.235495037770138E-037
 -3.350000000000000E-002   -3.094812285213397E-037
 -3.340000000000000E-002   -3.861061205995485E-037
 -3.330000000000000E-002   -4.083090725327619E-037
 -3.320000000000000E-002   -2.926509720892129E-037
 -3.310000000000000E-002    9.919311879941908E-038
 -3.300000000000000E-002    9.766796055659487E-037
 -3.290000000000000E-002    2.630076288620955E-036
 -3.280000000000000E-002    5.422624046780140E-036
 -3.270000000000000E-002    9.748211811019319E-036
 -3.260000000000000E-002    1.593090783388261E-035
 -3.250000000000000E-002    2.403683213846568E-035
 -3.240000000000000E-002    3.356655587540431E-035
 -3.230000000000000E-002    4.300168248059283E-035
 -3.220000000000000E-002    4.919830590921601E-035
 -3.210000000000000E-002    4.665983386634369E-035
 -3.200000000000000E-002    2.678956298373832E-035
 -3.190000000000000E-002   -2.267463169711506E-035
 -3.180000000000000E-002   -1.177037735369291E-034
 -3.170000000000000E-002   -2.769948694451202E-034
 -3.160000000000000E-002   -5.192862129912548E-034
 -3.150000000000000E-002   -8.581624421095965E-034
 -3.140000000000000E-002   -1.293511472486512E-033
 -3.130000000000000E-002   -1.798967676329046E-033
 -3.120000000000000E-002   -2.305167494148537E-033
 -3.110000000000000E-002   -2.679591927991803E-033
 -3.100000000000000E-002   -2.705290061022516E-033
 -3.090000000000000E-002   -2.062943512031086E-033
 -3.080000000000000E-002   -3.234983261541478E-034
 -3.070000000000000E-002    3.038261840404782E-033
 -3.060000000000000E-002    8.595776265028913E-033
 -3.050000000000000E-002    1.687283998352847E-032
 -3.040000000000000E-002    2.818019666327143E-032
 -3.030000000000000E-002    4.237454448509911E-032
 -3.020000000000000E-002    5.853688775039266E-032
 -3.010000000000000E-002    7.458327120421822E-032
 -3.000000000000000E-002    8.684555650043008E-032
 -2.990000000000000E-002    8.969335724826037E-032
 -2.980000000000000E-002    7.530910477871367E-032
 -2.970000000000000E-002    3.377257402145608E-032
 -2.960000000000000E-002   -4.634832878571790E-032
 -2.950000000000000E-002   -1.766781017826388E-031
 -2.940000000000000E-002   -3.667677621421518E-031
 -2.930000000000000E-002   -6.207171834442265E-031
 -2.920000000000000E-002   -9.326406687391903E-031
 -2.910000000000000E-002   -1.281134465856571E-030
 -2.900000000000000E-002   -1.623205006857800E-030
 -2.890000000000000E-002   -1.888506382488437E-030
 -2.880000000000000E-002   -1.975195924879497E-030
 -2.870000000000000E-002   -1.749194549535565E-030
 -2.860000000000000E-002   -1.049057599785031E-030
 -2.850000000000000E-002    3.011013137151022E-031
 -2.840000000000000E-002    2.468265837762801E-030
 -2.830000000000000E-002    5.574956491533716E-030
 -2.820000000000000E-002    9.650857764251440E-030
 -2.810000000000000E-002    1.457301442151453E-029
 -2.800000000000000E-002    1.999877575076293E-029
 -2.790000000000000E-002    2.529918387998118E-029
 -2.780000000000000E-002    2.950456659682449E-029
 -2.770000000000000E-002    3.127817282882593E-029
 -2.760000000000000E-002    2.893714987709717E-029
 -2.750000000000000E-002    2.054210848909669E-029
 -2.740000000000000E-002    4.075830386575118E-030
 -2.730000000000000E-002   -2.227271422117307E-029
 -2.720000000000000E-002   -5.971205122129869E-029
 -2.710000000000000E-002   -1.083473031366455E-028
 -2.700000000000000E-002   -1.666027435963048E-028
 -2.690000000000000E-002   -2.306209342658809E-028
 -2.680000000000000E-002   -2.937202587742353E-028
 -2.670000000000000E-002   -3.460208109765258E-028
 -2.660000000000000E-002   -3.743729379048209E-028
 -2.650000000000000E-002   -3.627370798920203E-028
 -2.640000000000000E-002   -2.931617162594922E-028
 -2.630000000000000E-002   -1.474821249633858E-028
 -2.620000000000000E-002    9.018979831037838E-029
 -2.610000000000000E-002    4.301979991027682E-028
 -2.600000000000000E-002    8.734267630290190E-028
 -2.590000000000000E-002    1.407010420970572E-027
 -2.580000000000000E-002    2.000104062698604E-027
 -2.570000000000000E-002    2.600316159003301E-027
 -2.560000000000000E-002    3.131549340887232E-027
 -2.550000000000000E-002    3.494097599794794E-027
 -2.540000000000000E-002    3.567872244621513E-027
 -2.530000000000000E-002    3.219548583742866E-027
 -2.520000000000000E-002    2.314212346048423E-027
 -2.510000000000000E-002    7.317260755149739E-028
 -2.500000000000000E-002   -1.612486048367151E-027
 -2.490000000000000E-002   -4.743191399427030E-027
 -2.480000000000000E-002   -8.599355242172439E-027
 -2.470000000000000E-002   -1.300893661271240E-026
 -2.460000000000000E-002   -1.766777075644787E-026
 -2.450000000000000E-002   -2.212647836427305E-026
 -2.440000000000000E-002   -2.578970554627884E-026
 -2.430000000000000E-002   -2.793199798453183E-026
 -2.420000000000000E-002   -2.773410438385793E-026
 -2.410000000000000E-002   -2.434239917566889E-026
 -2.400000000000000E-002   -1.695237929535126E-026
 -2.390000000000000E-002   -4.914826743752466E-027
 -2.380000000000000E-002    1.213975040194430E-026
 -2.370000000000000E-002    3.416606556794649E-026
 -2.360000000000000E-002    6.056964028595656E-026
 -2.350000000000000E-002    9.008751481752336E-026
 -2.340000000000000E-002    1.207014218857317E-025
 -2.330000000000000E-002    1.496024281623904E-025
 -2.320000000000000E-002    1.732263392166392E-025
 -2.310000000000000E-002    1.873775349437656E-025
 -2.300000000000000E-002    1.874548670647474E-025
 -2.290000000000000E-002    1.687869996539470E-025
 -2.280000000000000E-002    1.270755778988283E-025
 -2.270000000000000E-002    5.893354384888000E-026
 -2.260000000000000E-002   -3.750705749704453E-026
 -2.250000000000000E-002   -1.619570763545145E-025
 -2.240000000000000E-002   -3.113550637806133E-025
 -2.230000000000000E-002   -4.793397264620608E-025
 -2.220000000000000E-002   -6.558839909207469E-025
 -2.210000000000000E-002   -8.271684941809570E-025
 -2.200000000000000E-002   -9.757703620681713E-025
 -2.190000000000000E-002   -1.081233742515319E-024
 -2.180000000000000E-002   -1.121070246753821E-024
 -2.170000000000000E-002   -1.072211246405484E-024
 -2.160000000000000E-002   -9.128989900456110E-025
 -2.150000000000000E-002   -6.249627693980072E-025
 -2.140000000000000E-002   -1.963785417646708E-025
 -2.130000000000000E-002    3.760348595418941E-025
 -2.120000000000000E-002    1.083979811689815E-024
 -2.110000000000000E-002    1.905337807694221E-024
 -2.100000000000000E-002    2.802387624939918E-024
 -2.090000000000000E-002    3.720865057764435E-024
 -2.080000000000000E-002    4.590143619310826E-024
 -2.070000000000000E-002    5.324791100159971E-024
 -2.060000000000000E-002    5.827708693100557E-024
 -2.050000000000000E-002    5.994984864789711E-024
 -2.040000000000000E-002    5.722495250536183E-024
 -2.030000000000000E-002    4.914154969860928E-024
 -2.020000000000000E-002    3.491578444546009E-024
 -2.010000000000000E-002    1.404741762305452E-024
 -2.000000000000000E-002   -1.356941306901304E-024
 -1.990000000000000E-002   -4.753886085100056E-024
 -1.980000000000000E-002   -8.686869900276827E-024
 -1.970000000000000E-002   -1.298988606122126E-023
 -1.960000000000000E-002   -1.742645002958061E-023
 -1.950000000000000E-002   -2.169050537410644E-023
 -1.940000000000000E-002   -2.541298233584878E-023
 -1.930000000000000E-002   -2.817487295089599E-023
 -1.920000000000000E-002   -2.952734416158046E-023
 -1.910000000000000E-002   -2.901896401686696E-023
 -1.900000000000000E-002   -2.622951903311366E-023
 -1.890000000000000E-002   -2.080921970535310E-023
 -1.880000000000000E-002   -1.252135360126449E-023
 -1.870000000000000E-002   -1.285714568240701E-024
 -1.860000000000000E-002    1.278051142633484E-023
 -1.850000000000000E-002    2.932816859210214E-023
 -1.840000000000000E-002    4.775188433017876E-023
 -1.830000000000000E-002    6.717997572156178E-023
 -1.820000000000000E-002    8.648190468104987E-023
 -1.810000000000000E-002    1.042957406422624E-022
 -1.800000000000000E-002    1.190768479176248E-022
 -1.790000000000000E-002    1.291675620785097E-022
 -1.780000000000000E-002    1.328859526833619E-022
 -1.770000000000000E-002    1.286302379350512E-022
 -1.760000000000000E-002    1.149940859831114E-022
 -1.750000000000000E-002    9.088696614058385E-023
 -1.740000000000000E-002    5.565336401147711E-023
 -1.730000000000000E-002    9.184518741798192E-024
 -1.720000000000000E-002   -4.798303259566553E-023
 -1.710000000000000E-002   -1.145872322436208E-022
 -1.700000000000000E-002   -1.885829421291190E-022
 -1.690000000000000E-002   -2.671107955704408E-022
 -1.680000000000000E-002   -3.464961380192753E-022
 -1.670000000000000E-002   -4.222823367138682E-022
 -1.660000000000000E-002   -4.893038556737166E-022
 -1.650000000000000E-002   -5.418058684360815E-022
 -1.640000000000000E-002   -5.736188051217971E-022
 -1.630000000000000E-002   -5.783965387248970E-022
 -1.620000000000000E-002   -5.499262220541143E-022
 -1.610000000000000E-002   -4.825141600080374E-022
 -1.600000000000000E-002   -3.714467650773467E-022
 -1.590000000000000E-002   -2.135153106075428E-022
 -1.580000000000000E-002   -7.582912335873208E-024
 -1.570000000000000E-002    2.448418321573382E-022
 -1.560000000000000E-002    5.390725969018974E-022
 -1.550000000000000E-002    8.668124097000853E-022
 -1.540000000000000E-002    1.215883931277796E-021
 -1.530000000000000E-002    1.570183107649536E-021
 -1.520000000000000E-002    1.909906908001978E-021
 -1.510000000000000E-002    2.212084424401536E-021
 -1.500000000000000E-002    2.451412807994711E-021
 -1.490000000000000E-002    2.601367373610469E-021
 -1.480000000000000E-002    2.635522165161697E-021
 -1.470000000000000E-002    2.528992290333627E-021
 -1.460000000000000E-002    2.259895295286099E-021
 -1.450000000000000E-002    1.810733731528209E-021
 -1.440000000000000E-002    1.169627058417090E-021
 -1.430000000000000E-002    3.313645381722538E-022
 -1.420000000000000E-002   -7.016879651918285E-022
 -1.410000000000000E-002   -1.918733852412807E-021
 -1.400000000000000E-002   -3.299597215480377E-021
 -1.390000000000000E-002   -4.813512924105423E-021
 -1.380000000000000E-002   -6.417507309814289E-021
 -1.370000000000000E-002   -8.054305496015794E-021
 -1.360000000000000E-002   -9.649845435329197E-021
 -1.350000000000000E-002   -1.111067901774204E-020
 -1.340000000000000E-002   -1.232178114491423E-020
 -1.330000000000000E-002   -1.314552925706685E-020
 -1.320000000000000E-002   -1.342281061897974E-020
 -1.310000000000000E-002   -1.297731728205191E-020
 -1.300000000000000E-002   -1.162403113222388E-020
 -1.290000000000000E-002   -9.182656493053416E-021
 -1.280000000000000E-002   -5.496286152322205E-021
 -1.270000000000000E-002   -4.549168361756092E-022
 -1.260000000000000E-002    5.977427962944692E-021
 -1.250000000000000E-002    1.373411891174287E-020
 -1.240000000000000E-002    2.261891815839860E-020
 -1.230000000000000E-002    3.228431320264759E-020
 -1.220000000000000E-002    4.221927502195663E-020
 -1.210000000000000E-002    5.175043746981231E-020
 -1.200000000000000E-002    6.006003834010345E-020
 -1.190000000000000E-002    6.622267821611291E-020
 -1.180000000000000E-002    6.926118556990755E-020
 -1.170000000000000E-002    6.821968801499697E-020
 -1.160000000000000E-002    6.224969181942453E-020
 -1.150000000000000E-002    5.070278067164007E-020
 -1.140000000000000E-002    3.322184640005690E-020
 -1.130000000000000E-002    9.821869211399797E-021
 -1.120000000000000E-002   -1.904870214760112E-020
 -1.110000000000000E-002   -5.247369668974742E-020
 -1.100000000000000E-002   -8.906759814594451E-020
 -1.090000000000000E-002   -1.270089680592319E-019
 -1.080000000000000E-002   -1.641079270586909E-019
 -1.070000000000000E-002   -1.979031813069340E-019
 -1.060000000000000E-002   -2.257813702290017E-019
 -1.050000000000000E-002   -2.451098977119492E-019
 -1.040000000000000E-002   -2.533742028811084E-019
 -1.030000000000000E-002   -2.483118286627274E-019
 -1.020000000000000E-002   -2.280385395045256E-019
 -1.010000000000000E-002   -1.911652285395760E-019
 -1.000000000000000E-002   -1.369082140010829E-019
 -9.899999999999999E-003   -6.519811105788129E-020
 -9.800000000000000E-003    2.320671489597822E-020
 -9.699999999999999E-003    1.265977077433141E-019
 -9.599999999999999E-003    2.421857798584135E-019
 -9.500000000000000E-003    3.659716358930052E-019
 -9.399999999999999E-003    4.926354137218341E-019
 -9.299999999999999E-003    6.154747572771570E-019
 -9.200000000000000E-003    7.264290095599931E-019
 -9.099999999999999E-003    8.162324503186115E-019
 -8.999999999999999E-003    8.747373273153561E-019
 -8.900000000000000E-003    8.914381580075055E-019
 -8.799999999999999E-003    8.562105624996724E-019
 -8.699999999999999E-003    7.602499539115707E-019
 -8.600000000000000E-003    5.971640283422806E-019
 -8.499999999999999E-003    3.641355564506512E-019
 -8.399999999999999E-003    6.304113448461371E-020
 -8.300000000000000E-003   -2.986150233290301E-019
 -8.199999999999999E-003   -7.071028446640134E-019
 -8.100000000000000E-003   -1.142346966620857E-018
 -8.000000000000000E-003   -1.578400627568614E-018
 -7.899999999999999E-003   -1.984577290631265E-018
 -7.800000000000000E-003   -2.327237347874613E-018
 -7.699999999999999E-003   -2.572148441365368E-018
 -7.599999999999999E-003   -2.687257433050953E-018
 -7.499999999999999E-003   -2.645642470141011E-018
 -7.399999999999999E-003   -2.428363141992272E-018
 -7.299999999999999E-003   -2.026908739545361E-018
 -7.199999999999999E-003   -1.444962225677238E-018
 -7.100000000000000E-003   -6.992555790189809E-019
 -6.999999999999999E-003    1.806170234248201E-019
 -6.899999999999999E-003    1.153446777710757E-018
 -6.800000000000000E-003    2.168612453612122E-018
 -6.699999999999999E-003    3.169019954294956E-018
 -6.599999999999999E-003    4.094474163455984E-018
 -6.499999999999999E-003    4.885145320302834E-018
 -6.399999999999999E-003    5.484802192989535E-018
 -6.299999999999999E-003    5.843564048389183E-018
 -6.199999999999999E-003    5.920041291734131E-018
 -6.100000000000000E-003    5.682885901688680E-018
 -5.999999999999999E-003    5.111919965247992E-018
 -5.899999999999999E-003    4.199133342476540E-018
 -5.800000000000000E-003    2.949885187439759E-018
 -5.699999999999999E-003    1.384616914523844E-018
 -5.599999999999999E-003   -4.587624387048903E-019
 -5.499999999999999E-003   -2.521885171663284E-018
 -5.399999999999999E-003   -4.722712152126142E-018
 -5.299999999999999E-003   -6.952797025545367E-018
 -5.199999999999999E-003   -9.076034799582810E-018
 -5.099999999999999E-003   -1.093008119456644E-017
 -4.999999999999999E-003   -1.233164004363443E-017
 -4.899999999999999E-003   -1.308660417684665E-017
 -4.799999999999999E-003   -1.300556004467934E-017
 -4.699999999999999E-003   -1.192446389752504E-017
 -4.599999999999999E-003   -9.729382857838730E-018
 -4.499999999999999E-003   -6.383212923263912E-018
 -4.399999999999999E-003   -1.951359391753440E-018
 -4.299999999999999E-003    3.377421843637630E-018
 -4.199999999999999E-003    9.279132543496951E-018
 -4.099999999999999E-003    1.529562575560086E-017
 -3.999999999999999E-003    2.085195221343148E-017
 -3.899999999999999E-003    2.529189122755529E-017
 -3.799999999999999E-003    2.793164342483407E-017
 -3.699999999999999E-003    2.812938480780148E-017
 -3.599999999999999E-003    2.536578109388022E-017
 -3.499999999999999E-003    1.932825803471215E-017
 -3.399999999999999E-003    9.989824520332289E-018
 -3.299999999999999E-003   -2.327863086831184E-018
 -3.199999999999999E-003   -1.691756595881285E-017
 -3.099999999999999E-003   -3.268485809810311E-017
 -2.999999999999999E-003   -4.818855397802345E-017
 -2.899999999999999E-003   -6.172623008240598E-017
 -2.799999999999999E-003   -7.146322189253742E-017
 -2.699999999999999E-003   -7.559846916412834E-017
 -2.599999999999999E-003   -7.255551632370613E-017
 -2.499999999999999E-003   -6.118244325879104E-017
 -2.399999999999999E-003   -4.094154583804018E-017
 -2.299999999999999E-003   -1.206768145996378E-017
 -2.199999999999999E-003    2.432485059456072E-017
 -2.099999999999999E-003    6.620467367150409E-017
 -1.999999999999999E-003    1.106675921028150E-016
 -1.899999999999999E-003    1.540690653407772E-016
 -1.799999999999999E-003    1.922432959198943E-016
 -1.699999999999999E-003    2.207990030287502E-016
 -1.599999999999999E-003    2.354740988464128E-016
 -1.499999999999999E-003    2.325243860466119E-016
 -1.399999999999999E-003    2.091164222343948E-016
 -1.299999999999999E-003    1.636917317017120E-016
 -1.199999999999999E-003    9.626960216704832E-017
 -1.099999999999999E-003    8.657991625511626E-018
 -9.999999999999989E-004   -9.545258923028364E-017
 -8.999999999999990E-004   -2.105302037407017E-016
 -7.999999999999990E-004   -3.293872360152936E-016
 -6.999999999999989E-004   -4.435099387319733E-016
 -5.999999999999990E-004   -5.435219338685407E-016
 -4.999999999999989E-004   -6.197617196715481E-016
 -3.999999999999989E-004   -6.629457581696457E-016
 -2.999999999999989E-004   -6.648815198576928E-016
 -1.999999999999989E-004   -6.191888818722503E-016
 -9.999999999999892E-005   -5.219843048360283E-016
  1.084202172485504E-018   -3.724801395891693E-016
  1.000000000000011E-004   -1.734511061791404E-016
  2.000000000000011E-004    6.847721710189973E-017
  3.000000000000011E-004    3.427595048361679E-016
  4.000000000000011E-004    6.351139745397207E-016
  5.000000000000011E-004    9.279808295102381E-016
  6.000000000000011E-004    1.201265330303367E-015
  7.000000000000011E-004    1.433356877920131E-015
  8.000000000000011E-004    1.602396809142848E-015
  9.000000000000012E-004    1.687745931441480E-015
  1.000000000000001E-003    1.671580865747279E-015
  1.100000000000001E-003    1.540526546115067E-015
  1.200000000000001E-003    1.287215483603749E-015
  1.300000000000001E-003    9.116513192802627E-016
  1.400000000000001E-003    4.222495325882473E-016
  1.500000000000001E-003   -1.635678158558557E-016
  1.600000000000001E-003   -8.193304197175219E-016
  1.700000000000001E-003   -1.510113912442163E-015
  1.800000000000001E-003   -2.193814852356279E-015
  1.900000000000001E-003   -2.823107070917230E-015
  2.000000000000001E-003   -3.348029351746830E-015
  2.100000000000001E-003   -3.719101137335430E-015
  2.200000000000001E-003   -3.890811090494909E-015
  2.300000000000001E-003   -3.825276951866433E-015
  2.400000000000001E-003   -3.495841776769259E-015
  2.500000000000001E-003   -2.890348216891395E-015
  2.600000000000001E-003   -2.013827130128847E-015
  2.700000000000001E-003   -8.903468056520041E-016
  2.800000000000001E-003    4.361969247598632E-016
  2.900000000000001E-003    1.902526840748089E-015
  3.000000000000001E-003    3.427781658237415E-015
  3.100000000000001E-003    4.916704288751975E-015
  3.200000000000001E-003    6.264181566748489E-015
  3.300000000000001E-003    7.361006012487635E-015
  3.400000000000001E-003    8.100642029370500E-015
  3.500000000000001E-003    8.386694297756609E-015
  3.600000000000001E-003    8.140693392536696E-015
  3.700000000000001E-003    7.309747893315619E-015
  3.800000000000001E-003    5.873553550166459E-015
  3.900000000000001E-003    3.850218319156346E-015
  4.000000000000001E-003    1.300350501974524E-015
  4.100000000000001E-003   -1.671111597372661E-015
  4.200000000000001E-003   -4.915806176252627E-015
  4.300000000000001E-003   -8.245947396977369E-015
  4.400000000000001E-003   -1.144163773998056E-014
  4.500000000000001E-003   -1.426152268663858E-014
  4.600000000000002E-003   -1.645657454620944E-014
  4.700000000000001E-003   -1.778653461105962E-014
  4.800000000000001E-003   -1.803825710021228E-014
  4.900000000000002E-003   -1.704492138185354E-014
  5.000000000000001E-003   -1.470483302069127E-014
  5.100000000000001E-003   -1.099832639562090E-014
  5.200000000000001E-003   -6.001200535219392E-015
  5.300000000000002E-003    1.069006067981573E-016
  5.400000000000001E-003    7.040598064944010E-015
  5.500000000000001E-003    1.441452256051335E-014
  5.600000000000002E-003    2.175742959961021E-014
  5.700000000000001E-003    2.853482900703042E-014
  5.800000000000001E-003    3.417962801072648E-014
  5.900000000000002E-003    3.812955650597352E-014
  6.000000000000001E-003    3.986942652252136E-014
  6.100000000000001E-003    3.897558793331209E-014
  6.200000000000002E-003    3.515946132616926E-014
  6.300000000000002E-003    2.830662201118000E-014
  6.400000000000001E-003    1.850788455240623E-014
  6.500000000000001E-003    6.078971768639982E-015
  6.600000000000002E-003   -8.434114707476015E-015
  6.700000000000001E-003   -2.426614138034260E-014
  6.800000000000001E-003   -4.046118467387944E-014
  6.900000000000002E-003   -5.591851596091452E-014
  7.000000000000001E-003   -6.945434633169802E-014
  7.100000000000001E-003   -7.987657584792482E-014
  7.200000000000002E-003   -8.606848542256091E-014
  7.300000000000002E-003   -8.707620251293740E-014
  7.400000000000001E-003   -8.219409632781280E-014
  7.500000000000001E-003   -7.104177967890814E-014
  7.600000000000002E-003   -5.362657539596046E-014
  7.700000000000001E-003   -3.038564139875532E-014
  7.800000000000001E-003   -2.203013439304194E-015
  7.900000000000001E-003    2.960194290766647E-014
  8.000000000000002E-003    6.331653121609666E-014
  8.100000000000001E-003    9.690717177772652E-014
  8.200000000000001E-003    1.281202929247364E-013
  8.300000000000002E-003    1.546077394832148E-013
  8.400000000000001E-003    1.740708953734820E-013
  8.500000000000002E-003    1.844160241070456E-013
  8.600000000000002E-003    1.839121243795738E-013
  8.700000000000001E-003    1.713416493495081E-013
  8.800000000000002E-003    1.461340220848891E-013
  8.900000000000002E-003    1.084720048263824E-013
  9.000000000000001E-003    5.936165838082700E-014
  9.100000000000002E-003    6.579692135578636E-016
  9.200000000000002E-003   -6.496018363991264E-014
  9.300000000000001E-003   -1.340694446444382E-013
  9.400000000000002E-003   -2.026369165336385E-013
  9.500000000000001E-003   -2.662082621660064E-013
  9.600000000000001E-003   -3.201436071840412E-013
  9.700000000000002E-003   -3.598917563805488E-013
  9.800000000000001E-003   -3.812903062863859E-013
  9.900000000000001E-003   -3.808756255683315E-013
  1.000000000000000E-002   -3.561843982852064E-013
  1.010000000000000E-002   -3.060263788731346E-013
  1.020000000000000E-002   -2.307073236425132E-013
  1.030000000000000E-002   -1.321819292641430E-013
  1.040000000000000E-002   -1.411791613980350E-014
  1.050000000000000E-002    1.181435667913148E-013
  1.060000000000000E-002    2.577410897269181E-013
  1.070000000000000E-002    3.965636826928662E-013
  1.080000000000000E-002    5.256350043229102E-013
  1.090000000000000E-002    6.355990523632184E-013
  1.100000000000000E-002    7.172871204341411E-013
  1.110000000000000E-002    7.623375739666725E-013
  1.120000000000000E-002    7.638327895760902E-013
  1.130000000000000E-002    7.169128393462306E-013
  1.140000000000000E-002    6.193214453353155E-013
  1.150000000000000E-002    4.718400318148458E-013
  1.160000000000000E-002    2.785685660884643E-013
  1.170000000000000E-002    4.701636103047403E-014
  1.180000000000000E-002   -2.120227511760598E-013
  1.190000000000000E-002   -4.848262623564463E-013
  1.200000000000000E-002   -7.553309635110262E-013
  1.210000000000000E-002   -1.005936626014473E-012
  1.220000000000000E-002   -1.218495802429293E-012
  1.230000000000000E-002   -1.375441246683815E-012
  1.240000000000000E-002   -1.460990902320980E-012
  1.250000000000000E-002   -1.462357711638486E-012
  1.260000000000000E-002   -1.370884773231185E-012
  1.270000000000000E-002   -1.183023935155352E-012
  1.280000000000000E-002   -9.010768453058217E-013
  1.290000000000000E-002   -5.336277382060432E-013
  1.300000000000000E-002   -9.560987236653301E-014
  1.310000000000000E-002    3.920341444217000E-013
  1.320000000000000E-002    9.031156667526561E-013
  1.330000000000000E-002    1.407375013150625E-012
  1.340000000000000E-002    1.872032688684822E-012
  1.350000000000000E-002    2.263651524693352E-012
  1.360000000000000E-002    2.550217083174981E-012
  1.370000000000000E-002    2.703324264711656E-012
  1.380000000000000E-002    2.700337038672747E-012
  1.390000000000000E-002    2.526381432453498E-012
  1.400000000000000E-002    2.176027989474398E-012
  1.410000000000000E-002    1.654526975812509E-012
  1.420000000000000E-002    9.784764574237112E-013
  1.430000000000000E-002    1.758286907487100E-013
  1.440000000000000E-002   -7.148261952040196E-013
  1.450000000000000E-002   -1.645717524923155E-012
  1.460000000000000E-002   -2.562067682061974E-012
  1.470000000000000E-002   -3.404907968499015E-012
  1.480000000000000E-002   -4.114413240677738E-012
  1.490000000000000E-002   -4.633591571625933E-012
  1.500000000000000E-002   -4.912124943340324E-012
  1.510000000000000E-002   -4.910131227776971E-012
  1.520000000000000E-002   -4.601603661506842E-012
  1.530000000000000E-002   -3.977281496173819E-012
  1.540000000000000E-002   -3.046722572356619E-012
  1.550000000000000E-002   -1.839381337819183E-012
  1.560000000000000E-002   -4.045372243659314E-013
  1.570000000000000E-002    1.190016062821432E-012
  1.580000000000000E-002    2.860542063071281E-012
  1.590000000000000E-002    4.511137242904406E-012
  1.600000000000000E-002    6.038577899105770E-012
  1.610000000000000E-002    7.338021785704756E-012
  1.620000000000000E-002    8.309283650884873E-012
  1.630000000000000E-002    8.863347911635172E-012
  1.640000000000000E-002    8.928731718903473E-012
  1.650000000000000E-002    8.457307538929539E-012
  1.660000000000000E-002    7.429182705128994E-012
  1.670000000000000E-002    5.856269986029482E-012
  1.680000000000000E-002    3.784236402110113E-012
  1.690000000000000E-002    1.292583422415080E-012
  1.700000000000000E-002   -1.507284579903397E-012
  1.710000000000000E-002   -4.476040755883611E-012
  1.720000000000000E-002   -7.452386243016134E-012
  1.730000000000000E-002   -1.026076739168562E-011
  1.740000000000000E-002   -1.272053413595894E-011
  1.750000000000000E-002   -1.465611664194918E-011
  1.760000000000000E-002   -1.590769799521717E-011
  1.770000000000000E-002   -1.634179835181375E-011
  1.780000000000000E-002   -1.586115155371609E-011
  1.790000000000000E-002   -1.441325683171797E-011
  1.800000000000000E-002   -1.199699546896763E-011
  1.810000000000000E-002   -8.666820082117777E-012
  1.820000000000000E-002   -4.534064394254747E-012
  1.830000000000000E-002    2.348887990321121E-013
  1.840000000000000E-002    5.423718579432810E-012
  1.850000000000000E-002    1.077450441919617E-011
  1.860000000000000E-002    1.599904625632573E-011
  1.870000000000000E-002    2.079274651674886E-011