 -4.000000000000000E-002    0.000000000000000E+000
 -3.990000000000000E-002    0.000000000000000E+000
 -3.980000000000000E-002    0.000000000000000E+000
 -3.970000000000000E-002    0.000000000000000E+000
 -3.960000000000000E-002    0.000000000000000E+000
 -3.950000000000000E-002    0.000000000000000E+000
 -3.940000000000000E-002    0.000000000000000E+000
 -3.930000000000000E-002    0.000000000000000E+000
 -3.920000000000000E-002    0.000000000000000E+000
 -3.910000000000000E-002    0.000000000000000E+000
 -3.900000000000000E-002   -9.476171417396843E-036
 -3.890000000000000E-002   -1.916595265400662E-034
 -3.880000000000000E-002   -2.024170990822054E-033
 -3.870000000000000E-002   -1.484395350296554E-032
 -3.860000000000000E-002   -8.479220947780955E-032
 -3.850000000000000E-002   -4.012248108971592E-031
 -3.840000000000000E-002   -1.632926049058611E-030
 -3.830000000000000E-002   -5.858612561060510E-030
 -3.820000000000000E-002   -1.884186777026561E-029
 -3.810000000000000E-002   -5.493455094905059E-029
 -3.800000000000000E-002   -1.462271030133283E-028
 -3.790000000000000E-002   -3.565212792758299E-028
 -3.780000000000000E-002   -7.953748077468564E-028
 -3.770000000000000E-002   -1.611930619361676E-027
 -3.760000000000000E-002   -2.912123160872856E-027
 -3.750000000000000E-002   -4.470692076051484E-027
 -3.740000000000000E-002   -4.982486596732533E-027
 -3.730000000000000E-002   -4.010159234547352E-028
 -3.720000000000000E-002    1.934900665151216E-026
 -3.710000000000000E-002    7.627118319813657E-026
 -3.700000000000000E-002    2.139376803989343E-025
 -3.690000000000000E-002    5.117309851689249E-025
 -3.680000000000000E-002    1.103407866709292E-024
 -3.670000000000000E-002    2.197042104837625E-024
 -3.660000000000000E-002    4.088438014982342E-024
 -3.650000000000000E-002    7.152142930841243E-024
 -3.640000000000000E-002    1.178296054064813E-023
 -3.630000000000000E-002    1.824718311200138E-023
 -3.620000000000000E-002    2.638918094025235E-023
 -3.610000000000000E-002    3.513078521820407E-023
 -3.600000000000000E-002    4.170659437763310E-023
 -3.590000000000000E-002    4.060998914344067E-023
 -3.580000000000000E-002    2.229667392774074E-023
 -3.570000000000000E-002   -2.818036793618815E-023
 -3.560000000000000E-002   -1.322386474134716E-022
 -3.550000000000000E-002   -3.179150333022838E-022
 -3.540000000000000E-002   -6.181754710318986E-022
 -3.530000000000000E-002   -1.066173963373110E-021
 -3.520000000000000E-002   -1.686050146815872E-021
 -3.510000000000000E-002   -2.477875856786308E-021
 -3.500000000000000E-002   -3.395756570211978E-021
 -3.490000000000000E-002   -4.319047495818062E-021
 -3.480000000000000E-002   -5.018301574747655E-021
 -3.470000000000000E-002   -5.120037591149882E-021
 -3.460000000000000E-002   -4.077641194814708E-021
 -3.450000000000000E-002   -1.159484031016411E-021
 -3.440000000000000E-002    4.530862576542192E-021
 -3.430000000000000E-002    1.398441299771535E-020
 -3.420000000000000E-002    2.814748837552561E-020
 -3.410000000000000E-002    4.769635290850676E-020
 -3.400000000000000E-002    7.271543251644955E-020
 -3.390000000000000E-002    1.022813494525977E-019
 -3.380000000000000E-002    1.339742232929134E-019
 -3.370000000000000E-002    1.633635444470688E-019
 -3.360000000000000E-002    1.835469820156892E-019
 -3.350000000000000E-002    1.848538811014725E-019
 -3.340000000000000E-002    1.548562592933978E-019
 -3.330000000000000E-002    7.885219850002200E-020
 -3.320000000000000E-002   -5.900769571962276E-020
 -3.310000000000000E-002   -2.737999597756546E-019
 -3.300000000000000E-002   -5.770155244317766E-019
 -3.290000000000000E-002   -9.728482580656271E-019
 -3.280000000000000E-002   -1.453711532673183E-018
 -3.270000000000000E-002   -1.995283407859256E-018
 -3.260000000000000E-002   -2.551582021818922E-018
 -3.250000000000000E-002   -3.050790832722757E-018
 -3.240000000000000E-002   -3.392753107497454E-018
 -3.230000000000000E-002   -3.449219693407151E-018
 -3.220000000000000E-002   -3.068006442203273E-018
 -3.210000000000000E-002   -2.082178490156921E-018
 -3.200000000000000E-002   -3.251750311005149E-019
 -3.190000000000000E-002    2.347606349902065E-018
 -3.180000000000000E-002    6.030849823202591E-018
 -3.170000000000000E-002    1.073588065920204E-017
 -3.160000000000000E-002    1.635364874384153E-017
 -3.150000000000000E-002    2.261717798149855E-017
 -3.140000000000000E-002    2.906772750304616E-017
 -3.130000000000000E-002    3.503005636866146E-017
 -3.120000000000000E-002    3.960313028833810E-017
 -3.110000000000000E-002    4.167316098064002E-017
 -3.100000000000000E-002    3.995591028296029E-017
 -3.090000000000000E-002    3.307437314243416E-017
 -3.080000000000000E-002    1.967627406157890E-017
 -3.070000000000000E-002   -1.407056047683276E-018
 -3.060000000000000E-002   -3.096286336583777E-017
 -3.050000000000000E-002   -6.916788442483534E-017
 -3.040000000000000E-002   -1.153418899501325E-016
 -3.030000000000000E-002   -1.677046341625752E-016
 -3.020000000000000E-002   -2.231641490084824E-016
 -3.010000000000000E-002   -2.771705001933285E-016
 -3.000000000000000E-002   -3.236741674313022E-016
 -2.990000000000000E-002   -3.552299398332717E-016
 -2.980000000000000E-002   -3.632852781567431E-016
 -2.970000000000000E-002   -3.386847561417318E-016
 -2.960000000000000E-002   -2.724087671084969E-016
 -2.950000000000000E-002   -1.565444510560530E-016
 -2.940000000000000E-002    1.453988557337943E-017
 -2.930000000000000E-002    2.428776745133929E-016
 -2.920000000000000E-002    5.255407001470583E-016
 -2.910000000000000E-002    8.533614204138893E-016
 -2.900000000000000E-002    1.209904058266683E-015
 -2.890000000000000E-002    1.570869797891007E-015
 -2.880000000000000E-002    1.904128068179133E-015
 -2.870000000000000E-002    2.170553118428042E-015
 -2.860000000000000E-002    2.325807314546605E-015
 -2.850000000000000E-002    2.323147538815993E-015
 -2.840000000000000E-002    2.117241448019070E-015
 -2.830000000000000E-002    1.668865244546118E-015
 -2.820000000000000E-002    9.502270871252165E-016
 -2.810000000000000E-002   -4.947093408430604E-017
 -2.800000000000000E-002   -1.318741333851017E-015
 -2.790000000000000E-002   -2.819388466454229E-015
 -2.780000000000000E-002   -4.483601022179042E-015
 -2.770000000000000E-002   -6.213185275961596E-015
 -2.760000000000000E-002   -7.881481552916761E-015
 -2.750000000000000E-002   -9.338326686560959E-015
 -2.740000000000000E-002   -1.041819579942121E-014
 -2.730000000000000E-002   -1.095134060237606E-014
 -2.720000000000000E-002   -1.077740819168919E-014
 -2.710000000000000E-002   -9.760680027235431E-015
 -2.700000000000000E-002   -7.805760275326398E-015
 -2.690000000000000E-002   -4.872318218260738E-015
 -2.680000000000000E-002   -9.873796653863945E-016
 -2.670000000000000E-002    3.746300532078086E-015
 -2.660000000000000E-002    9.147045986599452E-015
 -2.650000000000000E-002    1.495713346646430E-014
 -2.640000000000000E-002    2.085212167891689E-014
 -2.630000000000000E-002    2.645638853988533E-014
 -2.620000000000000E-002    3.136402977009614E-014
 -2.610000000000000E-002    3.516362460285910E-014
 -2.600000000000000E-002    3.746495240840049E-014
 -2.590000000000000E-002    3.792541706501530E-014
 -2.580000000000000E-002    3.627396054164672E-014
 -2.570000000000000E-002    3.233046697223150E-014
 -2.560000000000000E-002    2.601920720845999E-014
 -2.550000000000000E-002    1.737559988689318E-014
 -2.540000000000000E-002    6.546441001182008E-015
 -2.530000000000000E-002   -6.215374088617841E-015
 -2.520000000000000E-002   -2.055990170454203E-014
 -2.510000000000000E-002   -3.605072084034149E-014
 -2.500000000000000E-002   -5.217477429044989E-014
 -2.490000000000000E-002   -6.834954625124901E-014
 -2.480000000000000E-002   -8.392650917253435E-014
 -2.470000000000000E-002   -9.819100571544716E-014
 -2.460000000000000E-002   -1.103602097713382E-013
 -2.450000000000000E-002   -1.195822698223754E-013
 -2.440000000000000E-002   -1.249410456060486E-013
 -2.430000000000000E-002   -1.254715838455010E-013
 -2.420000000000000E-002   -1.201914743602923E-013
 -2.410000000000000E-002   -1.081522454489509E-013
 -2.400000000000000E-002   -8.851311655539877E-014
 -2.390000000000000E-002   -6.063646673510590E-014
 -2.380000000000000E-002   -2.420078328749464E-014
 -2.370000000000000E-002    2.067691836325617E-014
 -2.360000000000000E-002    7.332104490780432E-014
 -2.350000000000000E-002    1.323945271424976E-013
 -2.340000000000000E-002    1.958294799189108E-013
 -2.330000000000000E-002    2.608077270374056E-013
 -2.320000000000000E-002    3.238053237230017E-013
 -2.310000000000000E-002    3.807104410175564E-013
 -2.300000000000000E-002    4.270179771589420E-013
 -2.290000000000000E-002    4.580957492434660E-013
 -2.280000000000000E-002    4.695089452895304E-013
 -2.270000000000000E-002    4.573803216846672E-013
 -2.260000000000000E-002    4.187574605815937E-013
 -2.250000000000000E-002    3.519527890808384E-013
 -2.240000000000000E-002    2.568213511684152E-013
 -2.230000000000000E-002    1.349436868705721E-013
 -2.220000000000000E-002   -1.031212447343473E-014
 -2.210000000000000E-002   -1.738648172013681E-013
 -2.200000000000000E-002   -3.491328284388529E-013
 -2.190000000000000E-002   -5.283734508133127E-013
 -2.180000000000000E-002   -7.031214148153342E-013
 -2.170000000000000E-002   -8.646874080092525E-013
 -2.160000000000000E-002   -1.004669162452621E-012
 -2.150000000000000E-002   -1.115424011161922E-012
 -2.140000000000000E-002   -1.190455812211078E-012
 -2.130000000000000E-002   -1.224678179020027E-012
 -2.120000000000000E-002   -1.214531507670090E-012
 -2.110000000000000E-002   -1.157951460629473E-012
 -2.100000000000000E-002   -1.054207569858871E-012
 -2.090000000000000E-002   -9.036515991077617E-013
 -2.080000000000000E-002   -7.074318854212477E-013
 -2.070000000000000E-002   -4.672406165259617E-013
 -2.060000000000000E-002   -1.851607649830704E-013
 -2.050000000000000E-002    1.363278609443079E-013
 -2.040000000000000E-002    4.941450169084415E-013
 -2.030000000000000E-002    8.841977734491493E-013
 -2.020000000000000E-002    1.300782673124199E-012
 -2.010000000000000E-002    1.735863524778834E-012
 -2.000000000000000E-002    2.178318445050873E-012
 -1.990000000000000E-002    2.613278515154084E-012
 -1.980000000000000E-002    3.021694340525294E-012
 -1.970000000000000E-002    3.380267656438340E-012
 -1.960000000000000E-002    3.661864910228664E-012
 -1.950000000000000E-002    3.836496099865947E-012
 -1.940000000000000E-002    3.872888164886266E-012
 -1.930000000000000E-002    3.740619940969615E-012
 -1.920000000000000E-002    3.412714867072566E-012
 -1.910000000000000E-002    2.868520150864387E-012
 -1.900000000000000E-002    2.096644284339384E-012
 -1.890000000000000E-002    1.097680608712720E-012
 -1.880000000000000E-002   -1.135706557749207E-013
 -1.870000000000000E-002   -1.506660193972364E-012
 -1.860000000000000E-002   -3.035065642142585E-012
 -1.850000000000000E-002   -4.636956269201969E-012
 -1.840000000000000E-002   -6.237225259154059E-012
 -1.830000000000000E-002   -7.750760966554945E-012
 -1.820000000000000E-002   -9.086817007429708E-012
 -1.810000000000000E-002   -1.015423130866136E-011
 -1.800000000000000E-002   -1.086714764113570E-011
 -1.790000000000000E-002   -1.115084087905371E-011
 -1.780000000000000E-002   -1.094719597229186E-011
 -1.770000000000000E-002   -1.021941704252861E-011
 -1.760000000000000E-002   -8.955577403680883E-012
 -1.750000000000000E-002   -7.170712637032267E-012
 -1.740000000000000E-002   -4.907269508085815E-012
 -1.730000000000000E-002   -2.233858436501666E-012
 -1.720000000000000E-002    7.576046807968576E-013
 -1.710000000000000E-002    3.956148445951004E-012
 -1.700000000000000E-002    7.237060675180224E-012
 -1.690000000000000E-002    1.046785475884072E-011
 -1.680000000000000E-002    1.351444828279050E-011
 -1.670000000000000E-002    1.624711289312200E-011
 -1.660000000000000E-002    1.854580540831264E-011
 -1.650000000000000E-002    2.030458693255742E-011
 -1.640000000000000E-002    2.143494942447297E-011
 -1.630000000000000E-002    2.186800508846034E-011
 -1.620000000000000E-002    2.155562767978404E-011
 -1.610000000000000E-002    2.047074351219071E-011
 -1.600000000000000E-002    1.860706802308262E-011
 -1.590000000000000E-002    1.597861605646678E-011
 -1.580000000000000E-002    1.261929682346120E-011
 -1.570000000000000E-002    8.582863293692828E-012
 -1.560000000000000E-002    3.943353200916180E-012
 -1.550000000000000E-002   -1.203966102944299E-012
 -1.540000000000000E-002   -6.741318292635671E-012
 -1.530000000000000E-002   -1.252712309971797E-011
 -1.520000000000000E-002   -1.839515584457337E-011
 -1.510000000000000E-002   -2.415472038776934E-011
 -1.500000000000000E-002   -2.959243208918230E-011
 -1.490000000000000E-002   -3.447614725158238E-011
 -1.480000000000000E-002   -3.856145408850732E-011
 -1.470000000000000E-002   -4.160094121790624E-011
 -1.460000000000000E-002   -4.335614505616487E-011
 -1.450000000000000E-002   -4.361180782013202E-011
 -1.440000000000000E-002   -4.219167898416008E-011
 -1.430000000000000E-002   -3.897485752592269E-011
 -1.420000000000000E-002   -3.391135175837555E-011
 -1.410000000000000E-002   -2.703542688211630E-011
 -1.400000000000000E-002   -1.847526448619150E-011
 -1.390000000000000E-002   -8.457598621985595E-012
 -1.380000000000000E-002    2.693764298504777E-012
 -1.370000000000000E-002    1.456618946259868E-011
 -1.360000000000000E-002    2.667335965385351E-011
 -1.350000000000000E-002    3.847687838995621E-011
 -1.340000000000000E-002    4.941324960799678E-011
 -1.330000000000000E-002    5.892460428230162E-011
 -1.320000000000000E-002    6.649112698285762E-011
 -1.310000000000000E-002    7.166279287090257E-011
 -1.300000000000000E-002    7.408798274574451E-011
 -1.290000000000000E-002    7.353674415629583E-011
 -1.280000000000000E-002    6.991676251957037E-011
 -1.270000000000000E-002    6.328078670868925E-011
 -1.260000000000000E-002    5.382494191677380E-011
 -1.250000000000000E-002    4.187821576443037E-011
 -1.240000000000000E-002    2.788414059399864E-011
 -1.230000000000000E-002    1.237651338214803E-011
 -1.220000000000000E-002   -4.048626350299305E-012
 -1.210000000000000E-002   -2.076219703947079E-011
 -1.200000000000000E-002   -3.712993990833285E-011
 -1.190000000000000E-002   -5.253686499603084E-011
 -1.180000000000000E-002   -6.640665336870639E-011
 -1.170000000000000E-002   -7.821536117613787E-011
 -1.160000000000000E-002   -8.749954475417923E-011
 -1.150000000000000E-002   -9.385988345776055E-011
 -1.140000000000000E-002   -9.696210799572271E-011
 -1.130000000000000E-002   -9.653746821104180E-011
 -1.120000000000000E-002   -9.238509344733325E-011
 -1.110000000000000E-002   -8.437838860012072E-011
 -1.100000000000000E-002   -7.247683146792527E-011
 -1.090000000000000E-002   -5.674357463650193E-011
 -1.080000000000000E-002   -3.736805416591497E-011
 -1.070000000000000E-002   -1.469146068167767E-011
 -1.060000000000000E-002    1.076818316357066E-011
 -1.050000000000000E-002    3.829552976856150E-011
 -1.040000000000000E-002    6.696657025123248E-011
 -1.030000000000000E-002    9.565078038147519E-011
 -1.020000000000000E-002    1.230304894237786E-010
 -1.010000000000000E-002    1.476395414663070E-010
 -1.000000000000000E-002    1.679216612822500E-010
 -9.899999999999999E-003    1.823066941980232E-010
 -9.800000000000000E-003    1.893005989177245E-010
 -9.699999999999999E-003    1.875830427313991E-010
 -9.599999999999999E-003    1.761053550701771E-010
 -9.500000000000000E-003    1.541800807490913E-010
 -9.399999999999999E-003    1.215543405763943E-010
 -9.299999999999999E-003    7.845977626189013E-011
 -9.200000000000000E-003    2.563403422001358E-011
 -9.099999999999999E-003   -3.568836302223958E-011
 -8.999999999999999E-003   -1.038150389278458E-010
 -8.900000000000000E-003   -1.766603919907983E-010
 -8.799999999999999E-003   -2.518290322372051E-010
 -8.699999999999999E-003   -3.267087782244863E-010
 -8.600000000000000E-003   -3.985631483726917E-010
 -8.499999999999999E-003   -4.646135836569352E-010
 -8.399999999999999E-003   -5.221031014874883E-010
 -8.300000000000000E-003   -5.683364197670595E-010
 -8.199999999999999E-003   -6.006950295022788E-010
 -8.100000000000000E-003   -6.166308815675822E-010
 -8.000000000000000E-003   -6.136459793701535E-010
 -7.899999999999999E-003   -5.892699609797413E-010
 -7.800000000000000E-003   -5.410497716686425E-010
 -7.699999999999999E-003   -4.665666707934967E-010
 -7.599999999999999E-003   -3.634951523546414E-010
 -7.499999999999999E-003   -2.297147279462157E-010
 -7.399999999999999E-003   -6.348070665239217E-011
 -7.299999999999999E-003    1.363465396786667E-010
 -7.199999999999999E-003    3.700225716181771E-010
 -7.100000000000000E-003    6.366051399789263E-010
 -6.999999999999999E-003    9.336299619719300E-010
 -6.899999999999999E-003    1.256803399726592E-009
 -6.800000000000000E-003    1.599744788942101E-009
 -6.699999999999999E-003    1.953809527348682E-009
 -6.599999999999999E-003    2.308022926155853E-009
 -6.499999999999999E-003    2.649147130033229E-009
 -6.399999999999999E-003    2.961899250113445E-009
 -6.299999999999999E-003    3.229322698170098E-009
 -6.199999999999999E-003    3.433309097923386E-009
 -6.100000000000000E-003    3.555251958420767E-009
 -5.999999999999999E-003    3.576809036914476E-009
 -5.899999999999999E-003    3.480738305174366E-009
 -5.800000000000000E-003    3.251771901591540E-009
 -5.699999999999999E-003    2.877487957126547E-009
 -5.599999999999999E-003    2.349145865715556E-009
 -5.499999999999999E-003    1.662451353211990E-009
 -5.399999999999999E-003    8.182265989703072E-010
 -5.299999999999999E-003   -1.770312827345798E-010
 -5.199999999999999E-003   -1.310714574778125E-009
 -5.099999999999999E-003   -2.563795320138452E-009
 -4.999999999999999E-003   -3.910643168805792E-009
 -4.899999999999999E-003   -5.318970024865690E-009
 -4.799999999999999E-003   -6.749901092974756E-009
 -4.699999999999999E-003   -8.158183015977860E-009
 -4.599999999999999E-003   -9.492542063120641E-009
 -4.499999999999999E-003   -1.069621168367475E-008
 -4.399999999999999E-003   -1.170766857724283E-008
 -4.299999999999999E-003   -1.246160648984841E-008
 -4.199999999999999E-003   -1.289019941326798E-008
 -4.099999999999999E-003   -1.292468973356954E-008
 -3.999999999999999E-003   -1.249733463813370E-008
 -3.899999999999999E-003   -1.154374783319220E-008
 -3.799999999999999E-003   -1.000564191208125E-008
 -3.699999999999999E-003   -7.833957770177268E-009
 -3.599999999999999E-003   -4.992360764376930E-009
 -3.499999999999999E-003   -1.461051286913586E-009
 -3.399999999999999E-003    2.759189731683636E-009
 -3.299999999999999E-003    7.642803212224187E-009
 -3.199999999999999E-003    1.313521015811202E-008
 -3.099999999999999E-003    1.914863965962104E-008
 -2.999999999999999E-003    2.555813146068555E-008
 -2.899999999999999E-003    3.219783380999605E-008
 -2.799999999999999E-003    3.885767511647899E-008
 -2.699999999999999E-003    4.528051106163816E-008
 -2.599999999999999E-003    5.115979081643880E-008
 -2.499999999999999E-003    5.613780036292542E-008
 -2.399999999999999E-003    5.980449651705904E-008
 -2.299999999999999E-003    6.169690436315235E-008
 -2.199999999999999E-003    6.129915144497518E-008
 -2.099999999999999E-003    5.804299975834642E-008
 -1.999999999999999E-003    5.130894947649817E-008
 -1.899999999999999E-003    4.042778666580454E-008
 -1.799999999999999E-003    2.468262252353422E-008
 -1.699999999999999E-003    3.311322426692721E-009
 -1.599999999999999E-003   -2.449069712130047E-008
 -1.499999999999999E-003   -5.956734646199855E-008
 -1.399999999999999E-003   -1.027984092166278E-007
 -1.299999999999999E-003   -1.550959402378299E-007
 -1.199999999999999E-003   -2.174003344187137E-007
 -1.099999999999999E-003   -2.906764744746162E-007
 -9.999999999999989E-004   -3.759097490473032E-007
 -8.999999999999990E-004   -4.741019727947029E-007
 -7.999999999999990E-004   -5.862677856914853E-007
 -6.999999999999989E-004   -7.134310792143321E-007
 -5.999999999999990E-004   -8.566216769740736E-007
 -4.999999999999989E-004   -1.016872831242172E-006
 -3.999999999999989E-004   -1.195218749056654E-006
 -2.999999999999989E-004   -1.392693094979118E-006
 -1.999999999999989E-004   -1.610328252197379E-006
 -9.999999999999892E-005   -1.849154574453128E-006
  1.084202172485504E-018   -2.110201525937971E-006
  1.000000000000011E-004   -2.394498095808188E-006
  2.000000000000011E-004   -2.703075007058900E-006
  3.000000000000011E-004   -3.036967081252417E-006
  4.000000000000011E-004   -3.397216658275845E-006
  5.000000000000011E-004   -3.784876895916649E-006
  6.000000000000011E-004   -4.201016666263121E-006
  7.000000000000011E-004   -4.646725394693832E-006
  8.000000000000011E-004   -5.123118649524221E-006
  9.000000000000012E-004   -5.631344924741945E-006
  1.000000000000001E-003   -6.172592062662297E-006
  1.100000000000001E-003   -6.748096624610422E-006
  1.200000000000001E-003   -7.359152337099204E-006
  1.300000000000001E-003   -8.007119476395106E-006
  1.400000000000001E-003   -8.693437106694892E-006
  1.500000000000001E-003   -9.419634070366097E-006
  1.600000000000001E-003   -1.018734213253216E-005
  1.700000000000001E-003   -1.099831039563933E-005
  1.800000000000001E-003   -1.185441751402488E-005
  1.900000000000001E-003   -1.275768888817833E-005
  2.000000000000001E-003   -1.371030924117304E-005
  2.100000000000001E-003   -1.471464084455734E-005
  2.200000000000001E-003   -1.577323502205959E-005
  2.300000000000001E-003   -1.688884633844811E-005
  2.400000000000001E-003   -1.806444947634081E-005
  2.500000000000001E-003   -1.930324727656207E-005
  2.600000000000001E-003   -2.060868381786170E-005
  2.700000000000001E-003   -2.198445570151419E-005
  2.800000000000001E-003   -2.343451868141742E-005
  2.900000000000001E-003   -2.496309790764196E-005
  3.000000000000001E-003   -2.657469434842503E-005
  3.100000000000001E-003   -2.827409290224696E-005
  3.200000000000001E-003   -3.006636802154121E-005
  3.300000000000001E-003   -3.195689000981794E-005
  3.400000000000001E-003   -3.395132902481948E-005
  3.500000000000001E-003   -3.605567044440655E-005
  3.600000000000001E-003   -3.827621945768088E-005
  3.700000000000001E-003   -4.061960492518180E-005
  3.800000000000001E-003   -4.309279907379566E-005
  3.900000000000001E-003   -4.570311899938321E-005
  4.000000000000001E-003   -4.845824581122025E-005
  4.100000000000001E-003   -5.136623029232809E-005
  4.200000000000001E-003   -5.443551631590658E-005
  4.300000000000001E-003   -5.767494139002150E-005
  4.400000000000001E-003   -6.109375348272748E-005
  4.500000000000001E-003   -6.470163349456879E-005
  4.600000000000002E-003   -6.850868564416846E-005
  4.700000000000001E-003   -7.252546383807868E-005
  4.800000000000001E-003   -7.676298981636148E-005
  4.900000000000002E-003   -8.123274354861352E-005
  5.000000000000001E-003   -8.594670746563953E-005
  5.100000000000001E-003   -9.091734451816544E-005
  5.200000000000001E-003   -9.615764627053399E-005
  5.300000000000002E-003   -1.016811249336527E-004
  5.400000000000001E-003   -1.075018620363212E-004
  5.500000000000001E-003   -1.136345069663804E-004
  5.600000000000002E-003   -1.200943307013305E-004
  5.700000000000001E-003   -1.268972288591576E-004
  5.800000000000001E-003   -1.340597873554862E-004
  5.900000000000002E-003   -1.415993194774538E-004
  6.000000000000001E-003   -1.495338922972336E-004
  6.100000000000001E-003   -1.578824015136093E-004
  6.200000000000002E-003   -1.666645519022392E-004
  6.300000000000002E-003   -1.759009889108304E-004
  6.400000000000001E-003   -1.856132874895053E-004
  6.500000000000001E-003   -1.958239907730862E-004
  6.600000000000002E-003   -2.065566887811496E-004
  6.700000000000001E-003   -2.178359991281879E-004
  6.800000000000001E-003   -2.296876290200787E-004
  6.900000000000002E-003   -2.421384100159006E-004
  7.000000000000001E-003   -2.552162591679186E-004
  7.100000000000001E-003   -2.689502423519166E-004
  7.200000000000002E-003   -2.833706257355756E-004
  7.300000000000002E-003   -2.985088089736409E-004
  7.400000000000001E-003   -3.143973610735422E-004
  7.500000000000001E-003   -3.310700848431615E-004
  7.600000000000002E-003   -3.485619873328715E-004
  7.700000000000001E-003   -3.669093555537551E-004
  7.800000000000001E-003   -3.861497699594922E-004
  7.900000000000001E-003   -4.063221340770604E-004
  8.000000000000002E-003   -4.274667521122449E-004
  8.100000000000001E-003   -4.496253427667655E-004
  8.200000000000001E-003   -4.728411319290859E-004
  8.300000000000002E-003   -4.971589638213816E-004
  8.400000000000001E-003   -5.226252309770091E-004
  8.500000000000002E-003   -5.492881201269152E-004
  8.600000000000002E-003   -5.771975279298566E-004
  8.700000000000001E-003   -6.064052156378710E-004
  8.800000000000002E-003   -6.369646878184226E-004
  8.900000000000002E-003   -6.689315665199789E-004
  9.000000000000001E-003   -7.023632983437334E-004
  9.100000000000002E-003   -7.373193054276013E-004
  9.200000000000002E-003   -7.738611773022255E-004
  9.300000000000001E-003   -8.120524045394281E-004
  9.400000000000002E-003   -8.519587101007938E-004
  9.500000000000001E-003   -8.936477603130824E-004
  9.600000000000001E-003   -9.371894945395284E-004
  9.700000000000002E-003   -9.826559507516790E-004
  9.800000000000001E-003   -1.030121308517346E-003
  9.900000000000001E-003   -1.079662235254174E-003
  1.000000000000000E-002   -1.131357451391309E-003
  1.010000000000000E-002   -1.185288132772657E-003
  1.020000000000000E-002   -1.241538020872689E-003
  1.030000000000000E-002   -1.300193220301869E-003
  1.040000000000000E-002   -1.361342633261241E-003
  1.050000000000000E-002   -1.425077665251540E-003
  1.060000000000000E-002   -1.491492645334301E-003
  1.070000000000000E-002   -1.560684666401580E-003
  1.080000000000000E-002   -1.632753719803505E-003
  1.090000000000000E-002   -1.707802661404397E-003
  1.100000000000000E-002   -1.785937569541856E-003
  1.110000000000000E-002   -1.867267343502159E-003
  1.120000000000000E-002   -1.951903874897726E-003
  1.130000000000000E-002   -2.039962224457193E-003
  1.140000000000000E-002   -2.131560044441461E-003
  1.150000000000000E-002   -2.226818293753203E-003
  1.160000000000000E-002   -2.325860875911721E-003
  1.170000000000000E-002   -2.428814294309817E-003
  1.180000000000000E-002   -2.535808388175426E-003
  1.190000000000000E-002   -2.646975441327465E-003
  1.200000000000000E-002   -2.762450629210969E-003
  1.210000000000000E-002   -2.882372221641872E-003
  1.220000000000000E-002   -3.006881060402779E-003
  1.230000000000000E-002   -3.136121275181766E-003
  1.240000000000000E-002   -3.270239486028901E-003
  1.250000000000000E-002   -3.409385727176149E-003
  1.260000000000000E-002   -3.553713072647878E-003
  1.270000000000000E-002   -3.703377314405093E-003
  1.280000000000000E-002   -3.858537850150316E-003
  1.290000000000000E-002   -4.019357123755334E-003
  1.300000000000000E-002   -4.186000455964386E-003
  1.310000000000000E-002   -4.358636678138691E-003
  1.320000000000000E-002   -4.537437620700433E-003
  1.330000000000000E-002   -4.722578517927977E-003
  1.340000000000000E-002   -4.914237163836629E-003
  1.350000000000000E-002   -5.112594754020014E-003
  1.360000000000000E-002   -5.317835429653745E-003
  1.370000000000000E-002   -5.530145494569621E-003
  1.380000000000000E-002   -5.749713860443862E-003
  1.390000000000000E-002   -5.976732344774744E-003
  1.400000000000000E-002   -6.211394396375764E-003
  1.410000000000000E-002   -6.453896447290108E-003
  1.420000000000000E-002   -6.704435986974698E-003
  1.430000000000000E-002   -6.963213156306521E-003
  1.440000000000000E-002   -7.230429547245120E-003
  1.450000000000000E-002   -7.506288264004502E-003
  1.460000000000000E-002   -7.790993881601755E-003
  1.470000000000000E-002   -8.084752904933953E-003
  1.480000000000000E-002   -8.387773745676808E-003
  1.490000000000000E-002   -8.700264919169734E-003
  1.500000000000000E-002   -9.022436769382724E-003
  1.510000000000000E-002   -9.354500585017928E-003
  1.520000000000000E-002   -9.696668551502625E-003
  1.530000000000000E-002   -1.004915405712020E-002
  1.540000000000000E-002   -1.041216985647351E-002
  1.550000000000000E-002   -1.078593059309280E-002
  1.560000000000000E-002   -1.117065002329599E-002
  1.570000000000000E-002   -1.156654227962218E-002
  1.580000000000000E-002   -1.197381939028882E-002
  1.590000000000000E-002   -1.239269337934105E-002
  1.600000000000000E-002   -1.282337563177409E-002
  1.610000000000000E-002   -1.326607491611209E-002
  1.620000000000000E-002   -1.372099780641523E-002
  1.630000000000000E-002   -1.418834872813970E-002
  1.640000000000000E-002   -1.466833001867867E-002
  1.650000000000000E-002   -1.516113901555137E-002
  1.660000000000000E-002   -1.566697250734587E-002
  1.670000000000000E-002   -1.618602210420195E-002
  1.680000000000000E-002   -1.671847373113257E-002
  1.690000000000000E-002   -1.726451233378271E-002
  1.700000000000000E-002   -1.782431678962958E-002
  1.710000000000000E-002   -1.839805835295876E-002
  1.720000000000000E-002   -1.898590730898493E-002
  1.730000000000000E-002   -1.958802656083485E-002
  1.740000000000000E-002   -2.020457164816982E-002
  1.750000000000000E-002   -2.083569447219732E-002
  1.760000000000000E-002   -2.148153867099235E-002
  1.770000000000000E-002   -2.214224143291939E-002
  1.780000000000000E-002   -2.281792992471547E-002
  1.790000000000000E-002   -2.350872538502542E-002
  1.800000000000000E-002   -2.421473896139708E-002
  1.810000000000000E-002   -2.493607069201038E-002
  1.820000000000000E-002   -2.567281394665905E-002
  1.830000000000000E-002   -2.642504801020236E-002
  1.840000000000000E-002   -2.719284295918356E-002
  1.850000000000000E-002   -2.797625415799420E-002
  1.860000000000000E-002   -2.877532720585149E-002
  1.870000000000000E-002   -2.959009289575899E-002