 -4.000000000000000E-002    0.000000000000000E+000
 -3.990000000000000E-002    0.000000000000000E+000
 -3.980000000000000E-002    0.000000000000000E+000
 -3.970000000000000E-002    0.000000000000000E+000
 -3.960000000000000E-002    0.000000000000000E+000
 -3.950000000000000E-002    0.000000000000000E+000
 -3.940000000000000E-002    0.000000000000000E+000
 -3.930000000000000E-002    0.000000000000000E+000
 -3.920000000000000E-002    0.000000000000000E+000
 -3.910000000000000E-002    0.000000000000000E+000
 -3.900000000000000E-002    0.000000000000000E+000
 -3.890000000000000E-002    0.000000000000000E+000
 -3.880000000000000E-002    0.000000000000000E+000
 -3.870000000000000E-002    0.000000000000000E+000
 -3.860000000000000E-002    0.000000000000000E+000
 -3.850000000000000E-002    0.000000000000000E+000
 -3.840000000000000E-002    0.000000000000000E+000
 -3.830000000000000E-002    0.000000000000000E+000
 -3.820000000000000E-002    0.000000000000000E+000
 -3.810000000000000E-002    0.000000000000000E+000
 -3.800000000000000E-002    0.000000000000000E+000
 -3.790000000000000E-002    0.000000000000000E+000
 -3.780000000000000E-002    0.000000000000000E+000
 -3.770000000000000E-002    0.000000000000000E+000
 -3.760000000000000E-002    0.000000000000000E+000
 -3.750000000000000E-002    0.000000000000000E+000
 -3.740000000000000E-002    0.000000000000000E+000
 -3.730000000000000E-002    0.000000000000000E+000
 -3.720000000000000E-002    0.000000000000000E+000
 -3.710000000000000E-002    0.000000000000000E+000
 -3.700000000000000E-002    0.000000000000000E+000
 -3.690000000000000E-002    0.000000000000000E+000
 -3.680000000000000E-002    0.000000000000000E+000
 -3.670000000000000E-002    0.000000000000000E+000
 -3.660000000000000E-002    0.000000000000000E+000
 -3.650000000000000E-002    0.000000000000000E+000
 -3.640000000000000E-002    0.000000000000000E+000
 -3.630000000000000E-002    0.000000000000000E+000
 -3.620000000000000E-002    0.000000000000000E+000
 -3.610000000000000E-002    0.000000000000000E+000
 -3.600000000000000E-002    0.000000000000000E+000
 -3.590000000000000E-002    0.000000000000000E+000
 -3.580000000000000E-002    0.000000000000000E+000
 -3.570000000000000E-002    0.000000000000000E+000
 -3.560000000000000E-002    0.000000000000000E+000
 -3.550000000000000E-002    3.422000203061510E-048
 -3.540000000000000E-002    1.464764431819792E-047
 -3.530000000000000E-002    5.995176984390440E-047
 -3.520000000000000E-002    1.611792141507011E-046
 -3.510000000000000E-002    3.666289390377506E-046
 -3.500000000000000E-002    7.366904669738270E-046
 -3.490000000000000E-002    1.407718245843066E-045
 -3.480000000000000E-002    2.620257676427058E-045
 -3.470000000000000E-002    4.659506025351403E-045
 -3.460000000000000E-002    7.800513370319809E-045
 -3.450000000000000E-002    1.257012918497871E-044
 -3.440000000000000E-002    1.795442722996407E-044
 -3.430000000000000E-002    2.338015383119217E-044
 -3.420000000000000E-002    2.840122526318392E-044
 -3.410000000000000E-002    2.624712451904323E-044
 -3.400000000000000E-002    9.968180512390081E-045
 -3.390000000000000E-002   -3.368805645664562E-044
 -3.380000000000000E-002   -1.240737919964564E-043
 -3.370000000000000E-002   -2.887036636289465E-043
 -3.360000000000000E-002   -5.556400565094193E-043
 -3.350000000000000E-002   -9.560334201806623E-043
 -3.340000000000000E-002   -1.506899303363738E-042
 -3.330000000000000E-002   -2.201491672140348E-042
 -3.320000000000000E-002   -2.985465896653708E-042
 -3.310000000000000E-002   -3.746586568677243E-042
 -3.300000000000000E-002   -4.304541182936937E-042
 -3.290000000000000E-002   -4.441540014656404E-042
 -3.280000000000000E-002   -3.974105716280113E-042
 -3.270000000000000E-002   -2.903785302459277E-042
 -3.260000000000000E-002   -1.644697932082950E-042
 -3.250000000000000E-002   -1.312079732648373E-042
 -3.240000000000000E-002   -3.983197239850381E-042
 -3.230000000000000E-002   -1.274220199304215E-041
 -3.220000000000000E-002   -3.117896021922235E-041
 -3.210000000000000E-002   -6.183325381786369E-041
 -3.200000000000000E-002   -1.028912762752892E-040
 -3.190000000000000E-002   -1.423442279235314E-040
 -3.180000000000000E-002   -1.488868596488297E-040
 -3.170000000000000E-002   -5.924122739823392E-041
 -3.160000000000000E-002    2.374692719114788E-040
 -3.150000000000000E-002    9.159128624050811E-040
 -3.140000000000000E-002    2.226256400141996E-039
 -3.130000000000000E-002    4.492530766715935E-039
 -3.120000000000000E-002    8.083957863336064E-039
 -3.110000000000000E-002    1.334024210645233E-038
 -3.100000000000000E-002    2.042665732816918E-038
 -3.090000000000000E-002    2.909165641471850E-038
 -3.080000000000000E-002    3.830080779820658E-038
 -3.070000000000000E-002    4.572933240776831E-038
 -3.060000000000000E-002    4.711637929313317E-038
 -3.050000000000000E-002    3.552049607378812E-038
 -3.040000000000000E-002    5.763189526992759E-040
 -3.030000000000000E-002   -7.206043406311018E-038
 -3.020000000000000E-002   -2.007737040358125E-037
 -3.010000000000000E-002   -4.070934899395613E-037
 -3.000000000000000E-002   -7.132094279065037E-037
 -2.990000000000000E-002   -1.137057690523560E-036
 -2.980000000000000E-002   -1.683979447700919E-036
 -2.970000000000000E-002   -2.333857591085706E-036
 -2.960000000000000E-002   -3.022728577929197E-036
 -2.950000000000000E-002   -3.618277157164884E-036
 -2.940000000000000E-002   -3.889545253075329E-036
 -2.930000000000000E-002   -3.472905218326992E-036
 -2.920000000000000E-002   -1.839090630871355E-036
 -2.910000000000000E-002    1.729857043345301E-036
 -2.900000000000000E-002    8.139306387740953E-036
 -2.890000000000000E-002    1.843513769297811E-035
 -2.880000000000000E-002    3.368223652845580E-035
 -2.870000000000000E-002    5.473240443310174E-035
 -2.860000000000000E-002    8.184121616109755E-035
 -2.850000000000000E-002    1.140961472821667E-034
 -2.840000000000000E-002    1.486313501703402E-034
 -2.830000000000000E-002    1.796367263242476E-034
 -2.820000000000000E-002    1.972238356927581E-034
 -2.810000000000000E-002    1.862976449360000E-034
 -2.800000000000000E-002    1.257017828808839E-034
 -2.790000000000000E-002   -1.194544925166401E-035
 -2.780000000000000E-002   -2.591409896276870E-034
 -2.770000000000000E-002   -6.503722505798999E-034
 -2.760000000000000E-002   -1.216133466415771E-033
 -2.750000000000000E-002   -1.973251062648129E-033
 -2.740000000000000E-002   -2.910899745452257E-033
 -2.730000000000000E-002   -3.972190871529535E-033
 -2.720000000000000E-002   -5.032106269890984E-033
 -2.710000000000000E-002   -5.873884664598379E-033
 -2.700000000000000E-002   -6.167755529911240E-033
 -2.690000000000000E-002   -5.458100863988959E-033
 -2.680000000000000E-002   -3.167453741871254E-033
 -2.670000000000000E-002    1.372195694861986E-033
 -2.660000000000000E-002    8.849004722274482E-033
 -2.650000000000000E-002    1.985037097274024E-032
 -2.640000000000000E-002    3.468298479665172E-032
 -2.630000000000000E-002    5.313154888586450E-032
 -2.620000000000000E-002    7.416458290080165E-032
 -2.610000000000000E-002    9.561087148650506E-032
 -2.600000000000000E-002    1.138497293086301E-031
 -2.590000000000000E-002    1.235810692464592E-031
 -2.580000000000000E-002    1.177641870848668E-031
 -2.570000000000000E-002    8.783373884534391E-032
 -2.560000000000000E-002    2.431150703671700E-032
 -2.550000000000000E-002   -8.207302000942166E-032
 -2.540000000000000E-002   -2.386697561872805E-031
 -2.530000000000000E-002   -4.485777551406589E-031
 -2.520000000000000E-002   -7.077664412793000E-031
 -2.510000000000000E-002   -1.001845525616344E-030
 -2.500000000000000E-002   -1.302839941269479E-030
 -2.490000000000000E-002   -1.566503022787000E-030
 -2.480000000000000E-002   -1.730873790550171E-030
 -2.470000000000000E-002   -1.716919631906894E-030
 -2.460000000000000E-002   -1.432182651148025E-030
 -2.450000000000000E-002   -7.782867104927138E-031
 -2.440000000000000E-002    3.370239177132959E-031
 -2.430000000000000E-002    1.983048701962068E-030
 -2.420000000000000E-002    4.184825917068588E-030
 -2.410000000000000E-002    6.898496621608834E-030
 -2.400000000000000E-002    9.985444677146023E-030
 -2.390000000000000E-002    1.318839431885412E-029
 -2.380000000000000E-002    1.611368554914046E-029
 -2.370000000000000E-002    1.822479952455917E-029
 -2.360000000000000E-002    1.885275230632485E-029
 -2.350000000000000E-002    1.722887065154875E-029
 -2.340000000000000E-002    1.254471855375397E-029
 -2.330000000000000E-002    4.042176315837649E-030
 -2.320000000000000E-002   -8.866008314846231E-030
 -2.310000000000000E-002   -2.644864252878324E-029
 -2.300000000000000E-002   -4.848965043344031E-029
 -2.290000000000000E-002   -7.411622467447196E-029
 -2.280000000000000E-002   -1.016408743141310E-028
 -2.270000000000000E-002   -1.284419264958677E-028
 -2.260000000000000E-002   -1.509117328426733E-028
 -2.250000000000000E-002   -1.645047009049054E-028
 -2.240000000000000E-002   -1.639169969192181E-028
 -2.230000000000000E-002   -1.434267638947255E-028
 -2.220000000000000E-002   -9.741518970550325E-029
 -2.210000000000000E-002   -2.107485751020630E-029
 -2.200000000000000E-002    8.870709718409909E-029
 -2.190000000000000E-002    2.323302392772697E-028
 -2.180000000000000E-002    4.063958939143088E-028
 -2.170000000000000E-002    6.026613644376895E-028
 -2.160000000000000E-002    8.071730004317129E-028
 -2.150000000000000E-002    9.997517586919481E-028
 -2.140000000000000E-002    1.154025875853203E-027
 -2.130000000000000E-002    1.238213222414433E-027
 -2.120000000000000E-002    1.216836059626804E-027
 -2.110000000000000E-002    1.053503510580361E-027
 -2.100000000000000E-002    7.148079320326755E-028
 -2.090000000000000E-002    1.752520791815813E-028
 -2.080000000000000E-002   -5.770377665035032E-028
 -2.070000000000000E-002   -1.534254385886966E-027
 -2.060000000000000E-002   -2.663149161154758E-027
 -2.050000000000000E-002   -3.900396556791823E-027
 -2.040000000000000E-002   -5.150037735148798E-027
 -2.030000000000000E-002   -6.284002714887366E-027
 -2.020000000000000E-002   -7.146608960894738E-027
 -2.010000000000000E-002   -7.563682771215266E-027
 -2.000000000000000E-002   -7.356519865836229E-027
 -1.990000000000000E-002   -6.360297497284339E-027
 -1.980000000000000E-002   -4.445832768097748E-027
 -1.970000000000000E-002   -1.542801457033701E-027
 -1.960000000000000E-002    2.338139323275441E-027
 -1.950000000000000E-002    7.087410832059076E-027
 -1.940000000000000E-002    1.248597455246479E-026
 -1.930000000000000E-002    1.820507424381594E-026
 -1.920000000000000E-002    2.381829209225130E-026
 -1.910000000000000E-002    2.882646057970409E-026
 -1.900000000000000E-002    3.269418048883010E-026
 -1.890000000000000E-002    3.489445125261173E-026
 -1.880000000000000E-002    3.495604932338964E-026
 -1.870000000000000E-002    3.250680106497394E-026
 -1.860000000000000E-002    2.730531400480274E-026
 -1.850000000000000E-002    1.925482180891019E-026
 -1.840000000000000E-002    8.395185647536081E-027
 -1.830000000000000E-002   -5.126692499044997E-027
 -1.820000000000000E-002   -2.110241122123118E-026
 -1.810000000000000E-002   -3.931204202798733E-026
 -1.800000000000000E-002   -5.956165072693455E-026
 -1.790000000000000E-002   -8.168829224539085E-026
 -1.780000000000000E-002   -1.055122305897439E-025
 -1.770000000000000E-002   -1.307211521659093E-025
 -1.760000000000000E-002   -1.566812599250623E-025
 -1.750000000000000E-002   -1.821852516020027E-025
 -1.740000000000000E-002   -2.051673650243032E-025
 -1.730000000000000E-002   -2.224357917147658E-025
 -1.720000000000000E-002   -2.294929805644577E-025
 -1.710000000000000E-002   -2.205256408596730E-025
 -1.700000000000000E-002   -1.886482899178728E-025
 -1.690000000000000E-002   -1.264690180128596E-025
 -1.680000000000000E-002   -2.701436519564447E-026
 -1.670000000000000E-002    1.150015797808397E-025
 -1.660000000000000E-002    3.016441304205766E-025
 -1.650000000000000E-002    5.301148016275748E-025
 -1.640000000000000E-002    7.912232537107965E-025
 -1.630000000000000E-002    1.068254231851627E-024
 -1.620000000000000E-002    1.336532960631584E-024
 -1.610000000000000E-002    1.563974510483033E-024
 -1.600000000000000E-002    1.712827943958276E-024
 -1.590000000000000E-002    1.742702092353640E-024
 -1.580000000000000E-002    1.614781931418119E-024
 -1.570000000000000E-002    1.296942000159526E-024
 -1.560000000000000E-002    7.692528222521179E-025
 -1.550000000000000E-002    2.920171798575998E-026
 -1.540000000000000E-002   -9.041629362526330E-025
 -1.530000000000000E-002   -1.987954426157645E-024
 -1.520000000000000E-002   -3.155707541822038E-024
 -1.510000000000000E-002   -4.320587141149241E-024
 -1.500000000000000E-002   -5.381572625386093E-024
 -1.490000000000000E-002   -6.232198359699658E-024
 -1.480000000000000E-002   -6.770937124963856E-024
 -1.470000000000000E-002   -6.911926060095632E-024
 -1.460000000000000E-002   -6.594465350507000E-024
 -1.450000000000000E-002   -5.789702538833999E-024
 -1.440000000000000E-002   -4.503181099018463E-024
 -1.430000000000000E-002   -2.772492318521199E-024
 -1.420000000000000E-002   -6.600809299307020E-025
 -1.410000000000000E-002    1.757765009372760E-024
 -1.400000000000000E-002    4.403753793901843E-024
 -1.390000000000000E-002    7.211478502168827E-024
 -1.380000000000000E-002    1.013319234332142E-023
 -1.370000000000000E-002    1.314046879356543E-023
 -1.360000000000000E-002    1.621553600769670E-023
 -1.350000000000000E-002    1.933259831929161E-023
 -1.340000000000000E-002    2.243041048651332E-023
 -1.330000000000000E-002    2.537966266502108E-023
 -1.320000000000000E-002    2.795090399961353E-023
 -1.310000000000000E-002    2.979036735479623E-023
 -1.300000000000000E-002    3.041168830658121E-023
 -1.290000000000000E-002    2.921086007750444E-023
 -1.280000000000000E-002    2.550955062195907E-023
 -1.270000000000000E-002    1.862824450995254E-023
 -1.260000000000000E-002    7.985879916421402E-024
 -1.250000000000000E-002   -6.782661104863264E-024
 -1.240000000000000E-002   -2.570484085645647E-023
 -1.230000000000000E-002   -4.836184639398734E-023
 -1.220000000000000E-002   -7.381197097266025E-023
 -1.210000000000000E-002   -1.005634915166423E-022
 -1.200000000000000E-002   -1.266101557248482E-022
 -1.190000000000000E-002   -1.495349323404005E-022
 -1.180000000000000E-002   -1.666783295226612E-022
 -1.170000000000000E-002   -1.753574105413425E-022
 -1.160000000000000E-002   -1.731126436780523E-022
 -1.150000000000000E-002   -1.579533012802813E-022
 -1.140000000000000E-002   -1.285709096600924E-022
 -1.130000000000000E-002   -8.449360356390665E-023
 -1.120000000000000E-002   -2.616383390037173E-023
 -1.110000000000000E-002    4.506443469488882E-023
 -1.100000000000000E-002    1.269967784066374E-022
 -1.090000000000000E-002    2.167106643168049E-022
 -1.080000000000000E-002    3.106714476649362E-022
 -1.070000000000000E-002    4.048123574908380E-022
 -1.060000000000000E-002    4.945465564255142E-022
 -1.050000000000000E-002    5.746990216135520E-022
 -1.040000000000000E-002    6.393744098709954E-022
 -1.030000000000000E-002    6.818113352312504E-022
 -1.020000000000000E-002    6.943058279791303E-022
 -1.010000000000000E-002    6.683106068076161E-022
 -1.000000000000000E-002    5.948220401547968E-022
 -9.899999999999999E-003    4.651474114601625E-022
 -9.800000000000000E-003    2.720985689461335E-022
 -9.699999999999999E-003    1.158139078768239E-023
 -9.599999999999999E-003   -3.155432207073472E-022
 -9.500000000000000E-003   -7.015547065077785E-022
 -9.399999999999999E-003   -1.130246210668644E-021
 -9.299999999999999E-003   -1.575956731324956E-021
 -9.200000000000000E-003   -2.003653714407466E-021
 -9.099999999999999E-003   -2.370398064352578E-021
 -8.999999999999999E-003   -2.628388495230018E-021
 -8.900000000000000E-003   -2.729574179584497E-021
 -8.799999999999999E-003   -2.631561586178233E-021
 -8.699999999999999E-003   -2.304262840164003E-021
 -8.600000000000000E-003   -1.736463067468365E-021
 -8.499999999999999E-003   -9.412990616102134E-022
 -8.399999999999999E-003    4.042949885048269E-023
 -8.300000000000000E-003    1.140105536506356E-021
 -8.199999999999999E-003    2.265012689904864E-021
 -8.100000000000000E-003    3.306199101101894E-021
 -8.000000000000000E-003    4.150169623127925E-021
 -7.899999999999999E-003    4.693435745673103E-021
 -7.800000000000000E-003    4.858312878581054E-021
 -7.699999999999999E-003    4.607846504164179E-021
 -7.599999999999999E-003    3.957468594603302E-021
 -7.499999999999999E-003    2.981032950440385E-021
 -7.399999999999999E-003    1.809294367132446E-021
 -7.299999999999999E-003    6.196800056289688E-022
 -7.199999999999999E-003   -3.826911777567498E-022
 -7.100000000000000E-003   -9.914981108628794E-022
 -6.999999999999999E-003   -1.030663034940489E-021
 -6.899999999999999E-003   -3.870464308638165E-022
 -6.800000000000000E-003    9.600406182727023E-022
 -6.699999999999999E-003    2.917181734760506E-021
 -6.599999999999999E-003    5.267253456113494E-021
 -6.499999999999999E-003    7.674993926936817E-021
 -6.399999999999999E-003    9.709149660165032E-021
 -6.299999999999999E-003    1.088053182547387E-020
 -6.199999999999999E-003    1.069316798934485E-020
 -6.100000000000000E-003    8.703696833617616E-021
 -5.999999999999999E-003    4.582834566452980E-021
 -5.899999999999999E-003   -1.828041136210740E-021
 -5.800000000000000E-003   -1.047171561178857E-020
 -5.699999999999999E-003   -2.104678834164005E-020
 -5.599999999999999E-003   -3.299950842580521E-020
 -5.499999999999999E-003   -4.553677317731277E-020
 -5.399999999999999E-003   -5.765884454000497E-020
 -5.299999999999999E-003   -6.820834371043387E-020
 -5.199999999999999E-003   -7.593100444178476E-020
 -5.099999999999999E-003   -7.954360160639771E-020
 -4.999999999999999E-003   -7.780576623321969E-020
 -4.899999999999999E-003   -6.959422484811533E-020
 -4.799999999999999E-003   -5.398069372975710E-020
 -4.699999999999999E-003   -3.031652769267338E-020
 -4.599999999999999E-003    1.671649931073875E-021
 -4.499999999999999E-003    4.177217697264570E-020
 -4.399999999999999E-003    8.916449864400587E-020
 -4.299999999999999E-003    1.422871784259692E-019
 -4.199999999999999E-003    1.987113907560947E-019
 -4.099999999999999E-003    2.550423396279388E-019
 -3.999999999999999E-003    3.068789232416660E-019
 -3.899999999999999E-003    3.488672866790300E-019
 -3.799999999999999E-003    3.748843773683038E-019
 -3.699999999999999E-003    3.783818438827154E-019
 -3.599999999999999E-003    3.529067613155877E-019
 -3.499999999999999E-003    2.927943881529732E-019
 -3.399999999999999E-003    1.940009078383179E-019
 -3.299999999999999E-003    5.501250725012716E-020
 -3.199999999999999E-003   -1.222633711766513E-019
 -3.099999999999999E-003   -3.317443449610869E-019
 -2.999999999999999E-003   -5.626912460732552E-019
 -2.899999999999999E-003   -7.996316776770657E-019
 -2.799999999999999E-003   -1.022802409384153E-018
 -2.699999999999999E-003   -1.209184290805396E-018
 -2.599999999999999E-003   -1.334142812993895E-018
 -2.499999999999999E-003   -1.373614366717379E-018
 -2.399999999999999E-003   -1.306696660147008E-018
 -2.299999999999999E-003   -1.118422607192126E-018
 -2.199999999999999E-003   -8.024329100820682E-019
 -2.099999999999999E-003   -3.632227936467904E-019
 -1.999999999999999E-003    1.823668011727583E-019
 -1.899999999999999E-003    8.047078758428332E-019
 -1.799999999999999E-003    1.462209535103008E-018
 -1.699999999999999E-003    2.103507769632238E-018
 -1.599999999999999E-003    2.670976582553508E-018
 -1.499999999999999E-003    3.105358317736076E-018
 -1.399999999999999E-003    3.351160361888031E-018
 -1.299999999999999E-003    3.362335964082262E-018
 -1.199999999999999E-003    3.107687548116339E-018
 -1.099999999999999E-003    2.575406028835286E-018
 -9.999999999999989E-004    1.776203288936623E-018
 -8.999999999999990E-004    7.446077704920757E-019
 -7.999999999999990E-004   -4.618384942794108E-019
 -6.999999999999989E-004   -1.765534016699879E-018
 -5.999999999999990E-004   -3.073749735132005E-018
 -4.999999999999989E-004   -4.285154201920764E-018
 -3.999999999999989E-004   -5.297373943891343E-018
 -2.999999999999989E-004   -6.014928351279790E-018
 -1.999999999999989E-004   -6.356842794972530E-018
 -9.999999999999892E-005   -6.263309907864220E-018
  1.084202172485504E-018   -5.700892157884937E-018
  1.000000000000011E-004   -4.665948990917171E-018
  2.000000000000011E-004   -3.186178879802294E-018
  3.000000000000011E-004   -1.320367750418731E-018
  4.000000000000011E-004    8.434111347867791E-019
  5.000000000000011E-004    3.190827743474954E-018
  6.000000000000011E-004    5.585240346109313E-018
  7.000000000000011E-004    7.872345422150731E-018
  8.000000000000011E-004    9.885480658609521E-018
  9.000000000000012E-004    1.145173912561952E-017
  1.000000000000001E-003    1.239921302206199E-017
  1.100000000000001E-003    1.256581664102110E-017
  1.200000000000001E-003    1.181007534293377E-017
  1.300000000000001E-003    1.002413470515832E-017
  1.400000000000001E-003    7.148838878868127E-018
  1.500000000000001E-003    3.190231206133629E-018
  1.600000000000001E-003   -1.763799039882588E-018
  1.700000000000001E-003   -7.528642026937227E-018
  1.800000000000001E-003   -1.381234212951494E-017
  1.900000000000001E-003   -2.021205015109129E-017
  2.000000000000001E-003   -2.622039303251440E-017
  2.100000000000001E-003   -3.124424794086029E-017
  2.200000000000001E-003   -3.463748905521139E-017
  2.300000000000001E-003   -3.574804649278125E-017
  2.400000000000001E-003   -3.397786405558678E-017
  2.500000000000001E-003   -2.885245665503201E-017
  2.600000000000001E-003   -2.009485048685979E-017
  2.700000000000001E-003   -7.696881504773779E-018
  2.800000000000001E-003    8.020364178228466E-018
  2.900000000000001E-003    2.636569752472755E-017
  3.000000000000001E-003    4.626499458401647E-017
  3.100000000000001E-003    6.628329551305403E-017
  3.200000000000001E-003    8.468642036412210E-017
  3.300000000000001E-003    9.954325255408409E-017
  3.400000000000001E-003    1.088658696834708E-016
  3.500000000000001E-003    1.107803438864499E-016
  3.600000000000001E-003    1.037168631628239E-016
  3.700000000000001E-003    8.660404745769567E-017
  3.800000000000001E-003    5.904986198504280E-017
  3.900000000000001E-003    2.149019867331566E-017
  4.000000000000001E-003   -2.471329723304011E-017
  4.100000000000001E-003   -7.724222710734815E-017
  4.200000000000001E-003   -1.328693137990524E-016
  4.300000000000001E-003   -1.875915189517233E-016
  4.400000000000001E-003   -2.368480156836386E-016
  4.500000000000001E-003   -2.758151439004758E-016
  4.600000000000002E-003   -2.997630580543409E-016
  4.700000000000001E-003   -3.044519904393607E-016
  4.800000000000001E-003   -2.865402616677387E-016
  4.900000000000002E-003   -2.439727690894490E-016
  5.000000000000001E-003   -1.763166598062875E-016
  5.100000000000001E-003   -8.501204196536425E-017
  5.200000000000001E-003    2.649110604968323E-017
  5.300000000000002E-003    1.527329908994182E-016
  5.400000000000001E-003    2.863961804112691E-016
  5.500000000000001E-003    4.186154916289618E-016
  5.600000000000002E-003    5.394403050908817E-016
  5.700000000000001E-003    6.384328573420067E-016
  5.800000000000001E-003    7.053746206918706E-016
  5.900000000000002E-003    7.310425603692464E-016
  6.000000000000001E-003    7.080079223218578E-016
  6.100000000000001E-003    6.314035342020245E-016
  6.200000000000002E-003    4.996011832553630E-016
  6.300000000000002E-003    3.147406314553485E-016
  6.400000000000001E-003    8.305398464387640E-017
  6.500000000000001E-003   -1.850627743514836E-016
  6.600000000000002E-003   -4.752682538947414E-016
  6.700000000000001E-003   -7.698052392488962E-016
  6.800000000000001E-003   -1.048343253874205E-015
  6.900000000000002E-003   -1.289113524706996E-015
  7.000000000000001E-003   -1.470291900654502E-015
  7.100000000000001E-003   -1.571560655785153E-015
  7.200000000000002E-003   -1.575758361023076E-015
  7.300000000000002E-003   -1.470507130098893E-015
  7.400000000000001E-003   -1.249695578535521E-015
  7.500000000000001E-003   -9.146883499132176E-016
  7.600000000000002E-003   -4.751401498829430E-016
  7.700000000000001E-003    5.069515061860993E-017
  7.800000000000001E-003    6.362438065933797E-016
  7.900000000000001E-003    1.247528421784982E-015
  8.000000000000002E-003    1.844727017103878E-015
  8.100000000000001E-003    2.384332576489580E-015
  8.200000000000001E-003    2.821822320669164E-015
  8.300000000000002E-003    3.114694113641612E-015
  8.400000000000001E-003    3.225691481241103E-015
  8.500000000000002E-003    3.126002157085351E-015
  8.600000000000002E-003    2.798200655569731E-015
  8.700000000000001E-003    2.238699691643569E-015
  8.800000000000002E-003    1.459494712960098E-015
  8.900000000000002E-003    4.890122839052462E-016
  9.000000000000001E-003   -6.280752771025743E-016
  9.100000000000002E-003   -1.832149853825583E-015
  9.200000000000002E-003   -3.051073990638846E-015
  9.300000000000001E-003   -4.203683382817035E-015
  9.400000000000002E-003   -5.204210805493254E-015
  9.500000000000001E-003   -5.967444331588598E-015
  9.600000000000001E-003   -6.414357408354664E-015
  9.700000000000002E-003   -6.477909001466355E-015
  9.800000000000001E-003   -6.108675971601420E-015
  9.900000000000001E-003   -5.279966400310228E-015
  1.000000000000000E-002   -3.992058091562036E-015
  1.010000000000000E-002   -2.275234298085919E-015
  1.020000000000000E-002   -1.913112486316632E-016
  1.030000000000000E-002    2.166588379407694E-015
  1.040000000000000E-002    4.676201237595111E-015
  1.050000000000000E-002    7.190328221937964E-015
  1.060000000000000E-002    9.543080919046654E-015
  1.070000000000000E-002    1.155806572262225E-014
  1.080000000000000E-002    1.305826797690902E-014
  1.090000000000000E-002    1.387728329579600E-014
  1.100000000000000E-002    1.387139288170467E-014
  1.110000000000000E-002    1.293185817805756E-014
  1.120000000000000E-002    1.099670134547448E-014
  1.130000000000000E-002    8.061132115710134E-015
  1.140000000000000E-002    4.185752388494384E-015
  1.150000000000000E-002   -4.983459155370059E-016
  1.160000000000000E-002   -5.788401980983966E-015
  1.170000000000000E-002   -1.141340751389078E-014
  1.180000000000000E-002   -1.704260277545728E-014
  1.190000000000000E-002   -2.229924189446089E-014
  1.200000000000000E-002   -2.677947090860567E-014
  1.210000000000000E-002   -3.007579688584595E-014
  1.220000000000000E-002   -3.180417094875088E-014
  1.230000000000000E-002   -3.163335368702028E-014
  1.240000000000000E-002   -2.931480638669079E-014
  1.250000000000000E-002   -2.471110484070547E-014
  1.260000000000000E-002   -1.782065741399708E-014
  1.270000000000000E-002   -8.796462468842912E-015
  1.280000000000000E-002    2.043235834745212E-015
  1.290000000000000E-002    1.421425666883815E-014
  1.300000000000000E-002    2.707716262569417E-014
  1.310000000000000E-002    3.986008521020939E-014
  1.320000000000000E-002    5.169372788374315E-014
  1.330000000000000E-002    6.165769543495764E-014
  1.340000000000000E-002    6.883642986520957E-014
  1.350000000000000E-002    7.238212006590096E-014
  1.360000000000000E-002    7.158114292201171E-014
  1.370000000000000E-002    6.591991131774061E-014
  1.380000000000000E-002    5.514555201503478E-014
  1.390000000000000E-002    3.931660387326145E-014
  1.400000000000000E-002    1.883900180207000E-014
  1.410000000000000E-002   -5.516928015059164E-015
  1.420000000000000E-002   -3.262203343345554E-014
  1.430000000000000E-002   -6.101892553206358E-014
  1.440000000000000E-002   -8.897864869507512E-014
  1.450000000000000E-002   -1.145829061963175E-013
  1.460000000000000E-002   -1.358294702561004E-013
  1.470000000000000E-002   -1.507566270698458E-013
  1.480000000000000E-002   -1.575805158228081E-013
  1.490000000000000E-002   -1.548378469595200E-013
  1.500000000000000E-002   -1.415248339147898E-013
  1.510000000000000E-002   -1.172224743911634E-013
  1.520000000000000E-002   -8.219795925634182E-014
  1.530000000000000E-002   -3.747214076373967E-014
  1.540000000000000E-002    1.515578927239730E-014
  1.550000000000000E-002    7.313360758038407E-014
  1.560000000000000E-002    1.332359517370163E-013
  1.570000000000000E-002    1.917002262878102E-013
  1.580000000000000E-002    2.444162920013644E-013
  1.590000000000000E-002    2.871635433086058E-013
  1.600000000000000E-002    3.158849895852251E-013
  1.610000000000000E-002    3.269840207291517E-013
  1.620000000000000E-002    3.176258275109719E-013
  1.630000000000000E-002    2.860233973148377E-013
  1.640000000000000E-002    2.316859214923371E-013
  1.650000000000000E-002    1.556077651731952E-013
  1.660000000000000E-002    6.037755648610960E-014
  1.670000000000000E-002   -4.981012326455023E-014
  1.680000000000000E-002   -1.692529375838819E-013
  1.690000000000000E-002   -2.909552560102607E-013
  1.700000000000000E-002   -4.069576873884462E-013
  1.710000000000000E-002   -5.087723047542078E-013
  1.720000000000000E-002   -5.879053207825872E-013
  1.730000000000000E-002   -6.364409085560169E-013
  1.740000000000000E-002   -6.476521860350436E-013
  1.750000000000000E-002   -6.165996169943252E-013
  1.760000000000000E-002   -5.406733595721512E-013
  1.770000000000000E-002   -4.200353318588529E-013
  1.780000000000000E-002   -2.579181746739624E-013
  1.790000000000000E-002   -6.074465453458796E-014
  1.800000000000000E-002    1.619614377554947E-013
  1.810000000000000E-002    3.978894989609435E-013
  1.820000000000000E-002    6.324842179114508E-013
  1.830000000000000E-002    8.497028087989561E-013
  1.840000000000000E-002    1.032957365574379E-012
  1.850000000000000E-002    1.166196933808333E-012
  1.860000000000000E-002    1.235068250159457E-012
  1.870000000000000E-002    1.228082703346470E-012