 -4.000000000000000E-002    0.000000000000000E+000
 -3.990000000000000E-002    0.000000000000000E+000
 -3.980000000000000E-002    0.000000000000000E+000
 -3.970000000000000E-002    0.000000000000000E+000
 -3.960000000000000E-002    0.000000000000000E+000
 -3.950000000000000E-002    0.000000000000000E+000
 -3.940000000000000E-002    0.000000000000000E+000
 -3.930000000000000E-002    0.000000000000000E+000
 -3.920000000000000E-002    0.000000000000000E+000
 -3.910000000000000E-002    0.000000000000000E+000
 -3.900000000000000E-002    0.000000000000000E+000
 -3.890000000000000E-002    0.000000000000000E+000
 -3.880000000000000E-002    0.000000000000000E+000
 -3.870000000000000E-002    0.000000000000000E+000
 -3.860000000000000E-002    0.000000000000000E+000
 -3.850000000000000E-002    0.000000000000000E+000
 -3.840000000000000E-002    0.000000000000000E+000
 -3.830000000000000E-002    0.000000000000000E+000
 -3.820000000000000E-002    0.000000000000000E+000
 -3.810000000000000E-002    0.000000000000000E+000
 -3.800000000000000E-002    0.000000000000000E+000
 -3.790000000000000E-002    0.000000000000000E+000
 -3.780000000000000E-002    0.000000000000000E+000
 -3.770000000000000E-002    0.000000000000000E+000
 -3.760000000000000E-002    0.000000000000000E+000
 -3.750000000000000E-002    0.000000000000000E+000
 -3.740000000000000E-002    0.000000000000000E+000
 -3.730000000000000E-002    0.000000000000000E+000
 -3.720000000000000E-002    0.000000000000000E+000
 -3.710000000000000E-002    0.000000000000000E+000
 -3.700000000000000E-002    0.000000000000000E+000
 -3.690000000000000E-002    1.953438890518967E-047
 -3.680000000000000E-002    3.740189417624073E-047
 -3.670000000000000E-002    5.590274357142731E-047
 -3.660000000000000E-002    1.075001465181852E-046
 -3.650000000000000E-002    2.744831777913735E-046
 -3.640000000000000E-002    5.594993162602161E-046
 -3.630000000000000E-002    1.387351857371788E-045
 -3.620000000000000E-002    5.241326605692562E-045
 -3.610000000000000E-002    1.862868591950133E-044
 -3.600000000000000E-002    5.681484503070654E-044
 -3.590000000000000E-002    1.600100376612745E-043
 -3.580000000000000E-002    4.248865290892110E-043
 -3.570000000000000E-002    1.074043837304804E-042
 -3.560000000000000E-002    2.584835903363661E-042
 -3.550000000000000E-002    5.934262535824500E-042
 -3.540000000000000E-002    1.301089926119947E-041
 -3.530000000000000E-002    2.726727534496108E-041
 -3.520000000000000E-002    5.464264525526618E-041
 -3.510000000000000E-002    1.046596789469620E-040
 -3.500000000000000E-002    1.913011990229693E-040
 -3.490000000000000E-002    3.326584398958672E-040
 -3.480000000000000E-002    5.472436493332073E-040
 -3.470000000000000E-002    8.430977938374503E-040
 -3.460000000000000E-002    1.193278249589421E-039
 -3.450000000000000E-002    1.488073752081579E-039
 -3.440000000000000E-002    1.451012419371864E-039
 -3.430000000000000E-002    5.038873332547224E-040
 -3.420000000000000E-002   -2.431397363429696E-039
 -3.410000000000000E-002   -9.194441908379074E-039
 -3.400000000000000E-002   -2.268302387703535E-038
 -3.390000000000000E-002   -4.710131289504182E-038
 -3.380000000000000E-002   -8.798369628470898E-038
 -3.370000000000000E-002   -1.516794423837177E-037
 -3.360000000000000E-002   -2.437966940250957E-037
 -3.350000000000000E-002   -3.658848487264610E-037
 -3.340000000000000E-002   -5.094265105185106E-037
 -3.330000000000000E-002   -6.461062057226147E-037
 -3.320000000000000E-002   -7.134747246872628E-037
 -3.310000000000000E-002   -5.957662363257130E-037
 -3.300000000000000E-002   -1.010546458504605E-037
 -3.290000000000000E-002    1.061492957730867E-036
 -3.280000000000000E-002    3.296457066757911E-036
 -3.270000000000000E-002    7.115574717414280E-036
 -3.260000000000000E-002    1.308896346817072E-035
 -3.250000000000000E-002    2.172544045475191E-035
 -3.240000000000000E-002    3.324625336868206E-035
 -3.230000000000000E-002    4.721363390778532E-035
 -3.220000000000000E-002    6.198132834737341E-035
 -3.210000000000000E-002    7.395505148792676E-035
 -3.200000000000000E-002    7.669404231245794E-035
 -3.190000000000000E-002    5.995859741048154E-035
 -3.180000000000000E-002    8.918494938138482E-036
 -3.170000000000000E-002   -9.611490220115881E-035
 -3.160000000000000E-002   -2.788917461720893E-034
 -3.150000000000000E-002   -5.646352175500239E-034
 -3.140000000000000E-002   -9.747813036506758E-034
 -3.130000000000000E-002   -1.518113659693307E-033
 -3.120000000000000E-002   -2.177498026122723E-033
 -3.110000000000000E-002   -2.891869066223516E-033
 -3.100000000000000E-002   -3.534000974149559E-033
 -3.090000000000000E-002   -3.886030442318216E-033
 -3.080000000000000E-002   -3.616757391139618E-033
 -3.070000000000000E-002   -2.267410577892457E-033
 -3.060000000000000E-002    7.443547819016570E-034
 -3.050000000000000E-002    6.089362336112110E-033
 -3.040000000000000E-002    1.444543363968932E-032
 -3.030000000000000E-002    2.635348235667483E-032
 -3.020000000000000E-002    4.199740123608981E-032
 -3.010000000000000E-002    6.090072593307969E-032
 -3.000000000000000E-002    8.154594767974018E-032
 -2.990000000000000E-002    1.009425877250130E-031
 -2.980000000000000E-002    1.141982559191093E-031
 -2.970000000000000E-002    1.141821654883254E-031
 -2.960000000000000E-002    9.141013957264562E-032
 -2.950000000000000E-002    3.431889478502541E-032
 -2.940000000000000E-002   -6.987326054109359E-032
 -2.930000000000000E-002   -2.335133521463698E-031
 -2.920000000000000E-002   -4.658879276228456E-031
 -2.910000000000000E-002   -7.695195968696003E-031
 -2.900000000000000E-002   -1.135421135659952E-030
 -2.890000000000000E-002   -1.537556366495288E-030
 -2.880000000000000E-002   -1.927047238048912E-030
 -2.870000000000000E-002   -2.227021590877237E-030
 -2.860000000000000E-002   -2.329388299119208E-030
 -2.850000000000000E-002   -2.095197798035800E-030
 -2.840000000000000E-002   -1.360536403515671E-030
 -2.830000000000000E-002    5.000997528682163E-032
 -2.820000000000000E-002    2.300482664202237E-030
 -2.810000000000000E-002    5.510063425971789E-030
 -2.800000000000000E-002    9.708909008737845E-030
 -2.790000000000000E-002    1.478496418637887E-029
 -2.780000000000000E-002    2.042573585969540E-029
 -2.770000000000000E-002    2.606177320351593E-029
 -2.760000000000000E-002    3.082163183347090E-029
 -2.750000000000000E-002    3.351098680957307E-029
 -2.740000000000000E-002    3.263078725390300E-029
 -2.730000000000000E-002    2.645033130900473E-029
 -2.720000000000000E-002    1.315000961715888E-029
 -2.710000000000000E-002   -8.955213238709992E-030
 -2.700000000000000E-002   -4.110776682507186E-029
 -2.690000000000000E-002   -8.372142555764764E-029
 -2.680000000000000E-002   -1.359383209152666E-028
 -2.670000000000000E-002   -1.951668735743521E-028
 -2.660000000000000E-002   -2.566570055785045E-028
 -2.650000000000000E-002   -3.131870874665368E-028
 -2.640000000000000E-002   -3.549514715215530E-028
 -2.630000000000000E-002   -3.697457128596382E-028
 -2.620000000000000E-002   -3.435441826959016E-028
 -2.610000000000000E-002   -2.615494987326937E-028
 -2.600000000000000E-002   -1.097608440422236E-028
 -2.590000000000000E-002    1.229400088586586E-028
 -2.580000000000000E-002    4.422541016491435E-028
 -2.570000000000000E-002    8.456307539548096E-028
 -2.560000000000000E-002    1.319369853467514E-027
 -2.550000000000000E-002    1.835989466322724E-027
 -2.540000000000000E-002    2.352263937692630E-027
 -2.530000000000000E-002    2.808391735851537E-027
 -2.520000000000000E-002    3.128770817389750E-027
 -2.510000000000000E-002    3.224826858582780E-027
 -2.500000000000000E-002    3.000248459782738E-027
 -2.490000000000000E-002    2.358820643203917E-027
 -2.480000000000000E-002    1.214835922484149E-027
 -2.470000000000000E-002   -4.942422918263076E-028
 -2.460000000000000E-002   -2.793483477282216E-027
 -2.450000000000000E-002   -5.655553727333490E-027
 -2.440000000000000E-002   -8.986442789425409E-027
 -2.430000000000000E-002   -1.261346151058856E-026
 -2.420000000000000E-002   -1.627730452923212E-026
 -2.410000000000000E-002   -1.963006839786185E-026
 -2.400000000000000E-002   -2.224102002034472E-026
 -2.390000000000000E-002   -2.361170490764826E-026
 -2.380000000000000E-002   -2.320151683481274E-026
 -2.370000000000000E-002   -2.046421681792434E-026
 -2.360000000000000E-002   -1.489516937129715E-026
 -2.350000000000000E-002   -6.088030603150141E-027
 -2.340000000000000E-002    6.201331867903909E-027
 -2.330000000000000E-002    2.198703356205923E-026
 -2.320000000000000E-002    4.098589679196065E-026
 -2.310000000000000E-002    6.255603200386354E-026
 -2.300000000000000E-002    8.564758910166748E-026
 -2.290000000000000E-002    1.087723892672187E-025
 -2.280000000000000E-002    1.299996527835098E-025
 -2.270000000000000E-002    1.469846945810944E-025
 -2.260000000000000E-002    1.570371463153491E-025
 -2.250000000000000E-002    1.572337533166592E-025
 -2.240000000000000E-002    1.445794957999763E-025
 -2.230000000000000E-002    1.162177521049181E-025
 -2.220000000000000E-002    6.968779483594011E-026
 -2.210000000000000E-002    3.222720156153256E-027
 -2.200000000000000E-002   -8.392141617629827E-026
 -2.190000000000000E-002   -1.911221750465257E-025
 -2.180000000000000E-002   -3.160524787780627E-025
 -2.170000000000000E-002   -4.543740336832844E-025
 -2.160000000000000E-002   -5.994922095012858E-025
 -2.150000000000000E-002   -7.424063187692160E-025
 -2.140000000000000E-002   -8.716913787741158E-025
 -2.130000000000000E-002   -9.736479109024566E-025
 -2.120000000000000E-002   -1.032653114734184E-024
 -2.110000000000000E-002   -1.031743207980993E-024
 -2.100000000000000E-002   -9.534490522906494E-025
 -2.090000000000000E-002   -7.808943328132238E-025
 -2.080000000000000E-002   -4.991563306682659E-025
 -2.070000000000000E-002   -9.686522195205428E-026
 -2.060000000000000E-002    4.319927383254673E-025
 -2.050000000000000E-002    1.086134903437777E-024
 -2.040000000000000E-002    1.854989414699488E-024
 -2.030000000000000E-002    2.716766432541121E-024
 -2.020000000000000E-002    3.636739472579182E-024
 -2.010000000000000E-002    4.565913225787182E-024
 -2.000000000000000E-002    5.440285462968635E-024
 -1.990000000000000E-002    6.180938996069175E-024
 -1.980000000000000E-002    6.695222679466741E-024
 -1.970000000000000E-002    6.879284265390302E-024
 -1.960000000000000E-002    6.622215030953991E-024
 -1.950000000000000E-002    5.812021175171786E-024
 -1.940000000000000E-002    4.343572772656539E-024
 -1.930000000000000E-002    2.128552157454434E-024
 -1.920000000000000E-002   -8.927205572113054E-025
 -1.910000000000000E-002   -4.737960634288951E-024
 -1.900000000000000E-002   -9.368691375160655E-024
 -1.890000000000000E-002   -1.467604909483015E-023
 -1.880000000000000E-002   -2.046786401859816E-023
 -1.870000000000000E-002   -2.645854277213654E-023
 -1.860000000000000E-002   -3.226356246524889E-023
 -1.850000000000000E-002   -3.740048432976969E-023
 -1.840000000000000E-002   -4.129841492699255E-023
 -1.830000000000000E-002   -4.331764453143506E-023
 -1.820000000000000E-002   -4.278066029425010E-023
 -1.810000000000000E-002   -3.901516755285690E-023
 -1.800000000000000E-002   -3.140857299261825E-023
 -1.790000000000000E-002   -1.947237718898927E-023
 -1.780000000000000E-002   -2.913416307647600E-024
 -1.770000000000000E-002    1.829242417377988E-023
 -1.760000000000000E-002    4.382982946202385E-023
 -1.750000000000000E-002    7.298379011064511E-023
 -1.740000000000000E-002    1.045969065682849E-022
 -1.730000000000000E-002    1.370518829429206E-022
 -1.720000000000000E-002    1.682859933211213E-022
 -1.710000000000000E-002    1.958428795536090E-022
 -1.700000000000000E-002    2.169649765320829E-022
 -1.690000000000000E-002    2.287264165737803E-022
 -1.680000000000000E-002    2.282031148868521E-022
 -1.670000000000000E-002    2.126730483974664E-022
 -1.660000000000000E-002    1.798358205635718E-022
 -1.650000000000000E-002    1.280379363120380E-022
 -1.640000000000000E-002    5.648837389295559E-023
 -1.630000000000000E-002   -3.455190291626896E-023
 -1.620000000000000E-002   -1.436211814896661E-022
 -1.610000000000000E-002   -2.679612016753548E-022
 -1.600000000000000E-002   -4.034821994773044E-022
 -1.590000000000000E-002   -5.447909487782749E-022
 -1.580000000000000E-002   -6.852786345878788E-022
 -1.570000000000000E-002   -8.172601405135542E-022
 -1.560000000000000E-002   -9.321530721128744E-022
 -1.550000000000000E-002   -1.020683065606044E-021
 -1.540000000000000E-002   -1.073106828792971E-021
 -1.530000000000000E-002   -1.079448142885726E-021
 -1.520000000000000E-002   -1.029753375455632E-021
 -1.510000000000000E-002   -9.143857167951935E-022
 -1.500000000000000E-002   -7.243885689508244E-022
 -1.490000000000000E-002   -4.519616526777141E-022
 -1.480000000000000E-002   -9.109671062048257E-023
 -1.470000000000000E-002    3.615815542909999E-022
 -1.460000000000000E-002    9.057388047673819E-022
 -1.450000000000000E-002    1.536016121179881E-021
 -1.440000000000000E-002    2.240516062171807E-021
 -1.430000000000000E-002    2.999183072926274E-021
 -1.420000000000000E-002    3.782233995206594E-021
 -1.410000000000000E-002    4.548858112060808E-021
 -1.400000000000000E-002    5.246458911304637E-021
 -1.390000000000000E-002    5.810747855640999E-021
 -1.380000000000000E-002    6.167004592634450E-021
 -1.370000000000000E-002    6.232782249192605E-021
 -1.360000000000000E-002    5.922251176007047E-021
 -1.350000000000000E-002    5.152251566709539E-021
 -1.340000000000000E-002    3.849935129269272E-021
 -1.330000000000000E-002    1.961682607646363E-021
 -1.320000000000000E-002   -5.372534699831050E-022
 -1.310000000000000E-002   -3.633128634129407E-021
 -1.300000000000000E-002   -7.265033308940027E-021
 -1.290000000000000E-002   -1.131818546463474E-020
 -1.280000000000000E-002   -1.562021124020188E-020
 -1.270000000000000E-002   -1.994132038308066E-020
 -1.260000000000000E-002   -2.399905968958554E-020
 -1.250000000000000E-002   -2.746799076502898E-020
 -1.240000000000000E-002   -2.999424339081182E-020
 -1.230000000000000E-002   -3.121440717897160E-020
 -1.220000000000000E-002   -3.077788579302762E-020
 -1.210000000000000E-002   -2.837138849800630E-020
 -1.200000000000000E-002   -2.374410408201605E-020
 -1.190000000000000E-002   -1.673200308405254E-020
 -1.180000000000000E-002   -7.279818207529643E-021
 -1.170000000000000E-002    4.540388750662874E-021
 -1.160000000000000E-002    1.851490164665207E-020
 -1.150000000000000E-002    3.427856412924793E-020
 -1.140000000000000E-002    5.130956605990277E-020
 -1.130000000000000E-002    6.892864220031334E-020
 -1.120000000000000E-002    8.630258912918800E-020
 -1.110000000000000E-002    1.024523344174031E-019
 -1.100000000000000E-002    1.162665705697968E-019
 -1.090000000000000E-002    1.265226394916266E-019
 -1.080000000000000E-002    1.319172858036053E-019
 -1.070000000000000E-002    1.311106828701006E-019
 -1.060000000000000E-002    1.227871779097353E-019
 -1.050000000000000E-002    1.057359515055621E-019
 -1.040000000000000E-002    7.895333309664204E-020
 -1.030000000000000E-002    4.176612657767644E-020
 -1.020000000000000E-002   -6.027796707817530E-021
 -1.010000000000000E-002   -6.400966331938704E-020
 -1.000000000000000E-002   -1.309929021763423E-019
 -9.899999999999999E-003   -2.048955983728731E-019
 -9.800000000000000E-003   -2.826517621182494E-019
 -9.699999999999999E-003   -3.601822759893616E-019
 -9.599999999999999E-003   -4.324461340092066E-019
 -9.500000000000000E-003   -4.935878689144207E-019
 -9.399999999999999E-003   -5.371919944996039E-019
 -9.299999999999999E-003   -5.566450358203395E-019
 -9.200000000000000E-003   -5.455953679120007E-019
 -9.099999999999999E-003   -4.984886201930530E-019
 -8.999999999999999E-003   -4.111445032052538E-019
 -8.900000000000000E-003   -2.813321928880029E-019
 -8.799999999999999E-003   -1.092935351730376E-019
 -8.699999999999999E-003    1.018371440021808E-019
 -8.600000000000000E-003    3.457657392014703E-019
 -8.499999999999999E-003    6.129630535728936E-019
 -8.399999999999999E-003    8.908086268068442E-019
 -8.300000000000000E-003    1.163964320771683E-018
 -8.199999999999999E-003    1.414970469398738E-018
 -8.100000000000000E-003    1.625040943525406E-018
 -8.000000000000000E-003    1.775020928002283E-018
 -7.899999999999999E-003    1.846459199725652E-018
 -7.800000000000000E-003    1.822747290914313E-018
 -7.699999999999999E-003    1.690275974689100E-018
 -7.599999999999999E-003    1.439566170385110E-018
 -7.499999999999999E-003    1.066338178245339E-018
 -7.399999999999999E-003    5.724857462777688E-019
 -7.299999999999999E-003   -3.307549076801747E-020
 -7.199999999999999E-003   -7.337260959794255E-019
 -7.100000000000000E-003   -1.504681887433654E-018
 -6.999999999999999E-003   -2.312831424722065E-018
 -6.899999999999999E-003   -3.116974314700172E-018
 -6.800000000000000E-003   -3.868586218665321E-018
 -6.699999999999999E-003   -4.513247525403989E-018
 -6.599999999999999E-003   -4.992866348763143E-018
 -6.499999999999999E-003   -5.248791879622267E-018
 -6.399999999999999E-003   -5.225845177009668E-018
 -6.299999999999999E-003   -4.877189971439901E-018
 -6.199999999999999E-003   -4.169840452020296E-018
 -6.100000000000000E-003   -3.090433871394713E-018
 -5.999999999999999E-003   -1.650755149198154E-018
 -5.899999999999999E-003    1.076492037595193E-019
 -5.800000000000000E-003    2.110513109932921E-018
 -5.699999999999999E-003    4.250319933699252E-018
 -5.599999999999999E-003    6.388883978603028E-018
 -5.499999999999999E-003    8.363553165155843E-018
 -5.399999999999999E-003    9.997228228764345E-018
 -5.299999999999999E-003    1.111200832556642E-017
 -5.199999999999999E-003    1.154578909324044E-017
 -5.099999999999999E-003    1.117065207285627E-017
 -4.999999999999999E-003    9.911419476878727E-018
 -4.899999999999999E-003    7.762384156530614E-018
 -4.799999999999999E-003    4.800020725528412E-018
 -4.699999999999999E-003    1.189516504010101E-018
 -4.599999999999999E-003   -2.816764668601910E-018
 -4.499999999999999E-003   -6.890212424269613E-018
 -4.399999999999999E-003   -1.064681150578140E-017
 -4.299999999999999E-003   -1.367739349375408E-017
 -4.199999999999999E-003   -1.558568218283346E-017
 -4.099999999999999E-003   -1.603139985015651E-017
 -3.999999999999999E-003   -1.477465306677149E-017
 -3.899999999999999E-003   -1.171717283872011E-017
 -3.799999999999999E-003   -6.935546518223188E-018
 -3.699999999999999E-003   -7.017569507626493E-019
 -3.599999999999999E-003    6.513021434651616E-018
 -3.499999999999999E-003    1.405427170986595E-017
 -3.399999999999999E-003    2.112089344735686E-017
 -3.299999999999999E-003    2.682223629413536E-017
 -3.199999999999999E-003    3.025259426061780E-017
 -3.099999999999999E-003    3.057839849521276E-017
 -2.999999999999999E-003    2.713143375959189E-017
 -2.899999999999999E-003    1.950009059351036E-017
 -2.799999999999999E-003    7.609965174474774E-018
 -2.699999999999999E-003   -8.214872233690579E-018
 -2.599999999999999E-003   -2.721777400621455E-017
 -2.499999999999999E-003   -4.820890006232989E-017
 -2.399999999999999E-003   -6.960208594526590E-017
 -2.299999999999999E-003   -8.949043110897986E-017
 -2.199999999999999E-003   -1.057588463533104E-016
 -2.099999999999999E-003   -1.162287039157793E-016
 -1.999999999999999E-003   -1.188267314697682E-016
 -1.899999999999999E-003   -1.117680068031105E-016
 -1.799999999999999E-003   -9.374086704675772E-017
 -1.699999999999999E-003   -6.408033700516466E-017
 -1.599999999999999E-003   -2.291669334660920E-017
 -1.499999999999999E-003    2.871421143209856E-017
 -1.399999999999999E-003    8.881051763463887E-017
 -1.299999999999999E-003    1.544037936752141E-016
 -1.199999999999999E-003    2.216253788159175E-016
 -1.099999999999999E-003    2.858435768131118E-016
 -9.999999999999989E-004    3.418718852734325E-016
 -8.999999999999990E-004    3.842442488386962E-016
 -7.999999999999990E-004    4.075493114166616E-016
 -6.999999999999989E-004    4.068102218568718E-016
 -5.999999999999990E-004    3.778934726106286E-016
 -4.999999999999989E-004    3.179243553943217E-016
 -3.999999999999989E-004    2.256833565444322E-016
 -2.999999999999989E-004    1.019554891457706E-016
 -1.999999999999989E-004   -5.019885291249493E-017
 -9.999999999999892E-005   -2.252820281201520E-016
  1.084202172485504E-018   -4.153353738694655E-016
  1.000000000000011E-004   -6.100789225692017E-016
  2.000000000000011E-004   -7.972324814645430E-016
  3.000000000000011E-004   -9.630276035955724E-016
  4.000000000000011E-004   -1.092907124542599E-015
  5.000000000000011E-004   -1.172395290934935E-015
  6.000000000000011E-004   -1.188106633935556E-015
  7.000000000000011E-004   -1.128844435794147E-015
  8.000000000000011E-004   -9.867269121127428E-016
  9.000000000000012E-004   -7.582635848091712E-016
  1.000000000000001E-003   -4.452972025973394E-016
  1.100000000000001E-003   -5.572044111048532E-017
  1.200000000000001E-003    3.961206172162286E-016
  1.300000000000001E-003    8.894169742351133E-016
  1.400000000000001E-003    1.397344654937331E-015
  1.500000000000001E-003    1.888011243830989E-015
  1.600000000000001E-003    2.325910951889900E-015
  1.700000000000001E-003    2.673863472292135E-015
  1.800000000000001E-003    2.895371067428529E-015
  1.900000000000001E-003    2.957288645743420E-015
  2.000000000000001E-003    2.832659328739150E-015
  2.100000000000001E-003    2.503537441752898E-015
  2.200000000000001E-003    1.963591343612652E-015
  2.300000000000001E-003    1.220258505029095E-015
  2.400000000000001E-003    2.962330428223995E-016
  2.500000000000001E-003   -7.699276871795166E-016
  2.600000000000001E-003   -1.924254057738561E-015
  2.700000000000001E-003   -3.099000394119879E-015
  2.800000000000001E-003   -4.215520060969908E-015
  2.900000000000001E-003   -5.188359992475134E-015
  3.000000000000001E-003   -5.930444713097845E-015
  3.100000000000001E-003   -6.359131800680509E-015
  3.200000000000001E-003   -6.402820654385410E-015
  3.300000000000001E-003   -6.007694193207580E-015
  3.400000000000001E-003   -5.144118104153025E-015
  3.500000000000001E-003   -3.812164718885152E-015
  3.600000000000001E-003   -2.045718843888369E-015
  3.700000000000001E-003    8.534167730150669E-017
  3.800000000000001E-003    2.475333158448734E-015
  3.900000000000001E-003    4.985637037732260E-015
  4.000000000000001E-003    7.450417820188165E-015
  4.100000000000001E-003    9.685146851892312E-015
  4.200000000000001E-003    1.149768021767995E-014
  4.300000000000001E-003    1.270139468679248E-014
  4.400000000000001E-003    1.312967648178210E-014
  4.500000000000001E-003    1.265084876549303E-014
  4.600000000000002E-003    1.118247576321372E-014
  4.700000000000001E-003    8.703887830772490E-015
  4.800000000000001E-003    5.265766835679588E-015
  4.900000000000002E-003    9.956912417981404E-016
  5.000000000000001E-003   -3.901268813717488E-015
  5.100000000000001E-003   -9.147575540880421E-015
  5.200000000000001E-003   -1.440419109453182E-014
  5.300000000000002E-003   -1.928740723722652E-014
  5.400000000000001E-003   -2.339102190426352E-014
  5.500000000000001E-003   -2.631288744813206E-014
  5.600000000000002E-003   -2.768444759431649E-014
  5.700000000000001E-003   -2.720146373783972E-014
  5.800000000000001E-003   -2.465390356001789E-014
  5.900000000000002E-003   -1.995275230999864E-014
  6.000000000000001E-003   -1.315150706158011E-014
  6.100000000000001E-003   -4.460190015713486E-015
  6.200000000000002E-003    5.749897214606495E-015
  6.300000000000002E-003    1.695213988687197E-014
  6.400000000000001E-003    2.848209594999649E-014
  6.500000000000001E-003    3.956663103431092E-014
  6.600000000000002E-003    4.936407531314386E-014
  6.700000000000001E-003    5.701392623446398E-014
  6.800000000000001E-003    6.169389186357685E-014
  6.900000000000002E-003    6.268123218444542E-014
  7.000000000000001E-003    5.941482482955369E-014
  7.100000000000001E-003    5.155385422669809E-014
  7.200000000000002E-003    3.902879681540738E-014
  7.300000000000002E-003    2.208037498271695E-014
  7.400000000000001E-003    1.282405630738267E-015
  7.500000000000001E-003   -2.245493499206676E-014
  7.600000000000002E-003   -4.790410516507497E-014
  7.700000000000001E-003   -7.356289563795328E-014
  7.800000000000001E-003   -9.772097456097353E-014
  7.900000000000001E-003   -1.185487975289509E-013
  8.000000000000002E-003   -1.342058191019172E-013
  8.100000000000001E-003   -1.429631023562363E-013
  8.200000000000001E-003   -1.433339163091981E-013
  8.300000000000002E-003   -1.342046555237387E-013
  8.400000000000001E-003   -1.149571148624749E-013
  8.500000000000002E-003   -8.557281048419488E-014
  8.600000000000002E-003   -4.670996773781513E-014
  8.700000000000001E-003    2.555547994865653E-016
  8.800000000000002E-003    5.323283462612926E-014
  8.900000000000002E-003    1.094672297714286E-013
  9.000000000000001E-003    1.656431962286242E-013
  9.100000000000002E-003    2.180379576757604E-013
  9.200000000000002E-003    2.627219228132876E-013
  9.300000000000001E-003    2.957978335862218E-013
  9.400000000000002E-003    3.136669691433227E-013
  9.500000000000001E-003    3.133074591851953E-013
  9.600000000000001E-003    2.925470542365824E-013
  9.700000000000002E-003    2.503107285930031E-013
  9.800000000000001E-003    1.868234165153152E-013
  9.900000000000001E-003    1.037481806696781E-013
  1.000000000000000E-002    4.243147487052099E-015
  1.010000000000000E-002   -1.070764797365940E-013
  1.020000000000000E-002   -2.242795380497851E-013
  1.030000000000000E-002   -3.403652476455130E-013
  1.040000000000000E-002   -4.476100299406007E-013
  1.050000000000000E-002   -5.380022668912962E-013
  1.060000000000000E-002   -6.037450564553714E-013
  1.070000000000000E-002   -6.378007050902527E-013
  1.080000000000000E-002   -6.344438793544875E-013
  1.090000000000000E-002   -5.897871538554558E-013
  1.100000000000000E-002   -5.022409071801605E-013
  1.110000000000000E-002   -3.728680775484410E-013
  1.120000000000000E-002   -2.056002812386899E-013
  1.130000000000000E-002   -7.284884029588514E-015
  1.140000000000000E-002    2.124575347155547E-013
  1.150000000000000E-002    4.415753932916910E-013
  1.160000000000000E-002    6.661262608558870E-013
  1.170000000000000E-002    8.709990636437670E-013
  1.180000000000000E-002    1.040789141950154E-012
  1.190000000000000E-002    1.160783050660853E-012
  1.200000000000000E-002    1.217999927880251E-012
  1.210000000000000E-002    1.202224646865680E-012
  1.220000000000000E-002    1.106964650889364E-012
  1.230000000000000E-002    9.302584720551296E-013
  1.240000000000000E-002    6.752682711528652E-013
  1.250000000000000E-002    3.505947194147636E-013
  1.260000000000000E-002   -2.973314230334318E-014
  1.270000000000000E-002   -4.466263243804044E-013
  1.280000000000000E-002   -8.766726229208621E-013
  1.290000000000000E-002   -1.293230531386015E-012
  1.300000000000000E-002   -1.667843668867507E-012
  1.310000000000000E-002   -1.971914654001414E-012
  1.320000000000000E-002   -2.178553540166238E-012
  1.330000000000000E-002   -2.264498068961336E-012
  1.340000000000000E-002   -2.211986280081790E-012
  1.350000000000000E-002   -2.010455790182213E-012
  1.360000000000000E-002   -1.657939923534319E-012
  1.370000000000000E-002   -1.162044318511306E-012
  1.380000000000000E-002   -5.403967061817415E-013
  1.390000000000000E-002    1.795069223772579E-013
  1.400000000000000E-002    9.611081519357467E-013
  1.410000000000000E-002    1.760253436826775E-012
  1.420000000000000E-002    2.527289934138824E-012
  1.430000000000000E-002    3.209713897379965E-012
  1.440000000000000E-002    3.755251810665449E-012
  1.450000000000000E-002    4.115219222572018E-012
  1.460000000000000E-002    4.247963800242713E-012
  1.470000000000000E-002    4.122186792474606E-012
  1.480000000000000E-002    3.719912391102571E-012
  1.490000000000000E-002    3.038892812881319E-012
  1.500000000000000E-002    2.094241029622994E-012
  1.510000000000000E-002    9.191214165316796E-013
  1.520000000000000E-002   -4.356292706798957E-013
  1.530000000000000E-002   -1.903021067468041E-012
  1.540000000000000E-002   -3.402574852609970E-012
  1.550000000000000E-002   -4.844064404227044E-012
  1.560000000000000E-002   -6.132197610388603E-012
  1.570000000000000E-002   -7.172027312330187E-012
  1.580000000000000E-002   -7.874818741042706E-012
  1.590000000000000E-002   -8.164053183925748E-012
  1.600000000000000E-002   -7.981207715696607E-012
  1.610000000000000E-002   -7.290943652437611E-012
  1.620000000000000E-002   -6.085327439845675E-012
  1.630000000000000E-002   -4.386763134966355E-012
  1.640000000000000E-002   -2.249335466581730E-012
  1.650000000000000E-002    2.416296357613914E-013
  1.660000000000000E-002    2.971920248136047E-012
  1.670000000000000E-002    5.802708425468708E-012
  1.680000000000000E-002    8.576639057853834E-012
  1.690000000000000E-002    1.112551157809197E-011
  1.700000000000000E-002    1.327922476585781E-011
  1.710000000000000E-002    1.487555038739407E-011
  1.720000000000000E-002    1.577021379767888E-011
  1.730000000000000E-002    1.584672115143315E-011
  1.740000000000000E-002    1.502532785494985E-011
  1.750000000000000E-002    1.327056132536785E-011
  1.760000000000000E-002    1.059675907847798E-011
  1.770000000000000E-002    7.071154772650987E-012
  1.780000000000000E-002    2.814160119078261E-012
  1.790000000000000E-002   -2.003351331945325E-012
  1.800000000000000E-002   -7.165815888836245E-012
  1.810000000000000E-002   -1.242166605415545E-011
  1.820000000000000E-002   -1.749461981186573E-011
  1.830000000000000E-002   -2.209709128093917E-011
  1.840000000000000E-002   -2.594507781933416E-011
  1.850000000000000E-002   -2.877377967586448E-011
  1.860000000000000E-002   -3.035309472675596E-011
  1.870000000000000E-002   -3.050211339920190E-011