 -4.000000000000000E-002    0.000000000000000E+000
 -3.990000000000000E-002    0.000000000000000E+000
 -3.980000000000000E-002   -1.340941503763213E-011
 -3.970000000000000E-002   -5.388364710541827E-011
 -3.960000000000000E-002   -1.104482163009405E-010
 -3.950000000000000E-002   -1.160813455586679E-010
 -3.940000000000000E-002    8.305083130505450E-011
 -3.930000000000000E-002    7.497060963316689E-010
 -3.920000000000000E-002    2.261618435719101E-009
 -3.910000000000000E-002    5.096082620701474E-009
 -3.900000000000000E-002    9.790843607240480E-009
 -3.890000000000000E-002    1.688288740242506E-008
 -3.880000000000000E-002    2.683084833895430E-008
 -3.870000000000000E-002    3.993024669641956E-008
 -3.860000000000000E-002    5.623329155404605E-008
 -3.850000000000000E-002    7.548601434560591E-008
 -3.840000000000000E-002    9.709435705025959E-008
 -3.830000000000000E-002    1.201284316613049E-007
 -3.820000000000000E-002    1.433693495680821E-007
 -3.810000000000000E-002    1.653976910558072E-007
 -3.800000000000000E-002    1.847165245102230E-007
 -3.790000000000000E-002    1.998961934742917E-007
 -3.780000000000000E-002    2.097236100749167E-007
 -3.770000000000000E-002    2.133361909394787E-007
 -3.760000000000000E-002    2.103205945736746E-007
 -3.750000000000000E-002    2.007587464247944E-007
 -3.740000000000000E-002    1.852092068497762E-007
 -3.730000000000000E-002    1.646188512436510E-007
 -3.720000000000000E-002    1.401688037508990E-007
 -3.710000000000000E-002    1.130671014108855E-007
 -3.700000000000000E-002    8.430913329726659E-008
 -3.690000000000000E-002    5.443230995425559E-008
 -3.680000000000000E-002    2.329495582007164E-008
 -3.670000000000000E-002   -1.009051065769456E-008
 -3.660000000000000E-002   -4.764562777013299E-008
 -3.650000000000000E-002   -9.221637265949514E-008
 -3.640000000000000E-002   -1.474588855006317E-007
 -3.630000000000000E-002   -2.176254743984487E-007
 -3.620000000000000E-002   -3.072660832915301E-007
 -3.610000000000000E-002   -4.208739360034950E-007
 -3.600000000000000E-002   -5.625110763930772E-007
 -3.590000000000000E-002   -7.354524739255684E-007
 -3.580000000000000E-002   -9.418906671539620E-007
 -3.570000000000000E-002   -1.182734545969476E-006
 -3.560000000000000E-002   -1.457529826420574E-006
 -3.550000000000000E-002   -1.764514101375617E-006
 -3.540000000000000E-002   -2.100805373703533E-006
 -3.530000000000000E-002   -2.462711464005652E-006
 -3.520000000000000E-002   -2.846128847352209E-006
 -3.510000000000000E-002   -3.246994632175793E-006
 -3.500000000000000E-002   -3.661747114272821E-006
 -3.490000000000000E-002   -4.087748714842064E-006
 -3.480000000000000E-002   -4.523635180610342E-006
 -3.470000000000000E-002   -4.969551374614709E-006
 -3.460000000000000E-002   -5.427262526986600E-006
 -3.450000000000000E-002   -5.900132606019520E-006
 -3.440000000000000E-002   -6.392976549733534E-006
 -3.430000000000000E-002   -6.911815675620994E-006
 -3.420000000000000E-002   -7.463557534335383E-006
 -3.410000000000000E-002   -8.055651682939906E-006
 -3.400000000000000E-002   -8.695747174708720E-006
 -3.390000000000000E-002   -9.391393377041662E-006
 -3.380000000000000E-002   -1.014980751948371E-005
 -3.370000000000000E-002   -1.097772814800892E-005
 -3.360000000000000E-002   -1.188135366940234E-005
 -3.350000000000000E-002   -1.286636623673841E-005
 -3.340000000000000E-002   -1.393801415942497E-005
 -3.330000000000000E-002   -1.510124503879712E-005
 -3.320000000000000E-002   -1.636084752613964E-005
 -3.310000000000000E-002   -1.772158586254274E-005
 -3.300000000000000E-002   -1.918832244010033E-005
 -3.290000000000000E-002   -2.076608224426435E-005
 -3.280000000000000E-002   -2.246009827939852E-005
 -3.270000000000000E-002   -2.427581165938339E-005
 -3.260000000000000E-002   -2.621884924609494E-005
 -3.250000000000000E-002   -2.829501006499216E-005
 -3.240000000000000E-002   -3.051025608937462E-005
 -3.230000000000000E-002   -3.287072810163408E-005
 -3.220000000000000E-002   -3.538280443036978E-005
 -3.210000000000000E-002   -3.805320210045241E-005
 -3.200000000000000E-002   -4.088910913220947E-005
 -3.190000000000000E-002   -4.389832129764229E-005
 -3.180000000000000E-002   -4.708941331524712E-005
 -3.170000000000000E-002   -5.047186748859445E-005
 -3.160000000000000E-002   -5.405615430194318E-005
 -3.150000000000000E-002   -5.785379395527420E-005
 -3.140000000000000E-002   -6.187732106356823E-005
 -3.130000000000000E-002   -6.614019586376253E-005
 -3.120000000000000E-002   -7.065669711134216E-005
 -3.110000000000000E-002   -7.544173030080540E-005
 -3.100000000000000E-002   -8.051067321674852E-005
 -3.090000000000000E-002   -8.587923978497627E-005
 -3.080000000000000E-002   -9.156334582189103E-005
 -3.070000000000000E-002   -9.757910832044256E-005
 -3.060000000000000E-002   -1.039428792386308E-004
 -3.050000000000000E-002   -1.106713765745857E-004
 -3.040000000000000E-002   -1.177818674705690E-004
 -3.030000000000000E-002   -1.252924202082473E-004
 -3.020000000000000E-002   -1.332221689518968E-004
 -3.010000000000000E-002   -1.415915366831622E-004
 -3.000000000000000E-002   -1.504225149460998E-004
 -2.990000000000000E-002   -1.597387518308599E-004
 -2.980000000000000E-002   -1.695656949796321E-004
 -2.970000000000000E-002   -1.799305521882646E-004
 -2.960000000000000E-002   -1.908622496373733E-004
 -2.950000000000000E-002   -2.023912952009646E-004
 -2.940000000000000E-002   -2.145496233245980E-004
 -2.930000000000000E-002   -2.273704342771782E-004
 -2.920000000000000E-002   -2.408881510907579E-004
 -2.910000000000000E-002   -2.551383102585830E-004
 -2.900000000000000E-002   -2.701576182751794E-004
 -2.890000000000000E-002   -2.859841048555239E-004
 -2.880000000000000E-002   -3.026572245508996E-004
 -2.870000000000000E-002   -3.202180694203082E-004
 -2.860000000000000E-002   -3.387097768607239E-004
 -2.850000000000000E-002   -3.581777036805965E-004
 -2.840000000000000E-002   -3.786696585388585E-004
 -2.830000000000000E-002   -4.002359999364163E-004
 -2.820000000000000E-002   -4.229298421274241E-004
 -2.810000000000000E-002   -4.468070078705020E-004
 -2.800000000000000E-002   -4.719260626777606E-004
 -2.790000000000000E-002   -4.983480048906531E-004
 -2.780000000000000E-002   -5.261363793269222E-004
 -2.770000000000000E-002   -5.553569913074214E-004
 -2.760000000000000E-002   -5.860779594324986E-004
 -2.750000000000000E-002   -6.183697456789192E-004
 -2.740000000000000E-002   -6.523050316477285E-004
 -2.730000000000000E-002   -6.879593173584885E-004
 -2.720000000000000E-002   -7.254108183689055E-004
 -2.710000000000000E-002   -7.647410666466574E-004
 -2.700000000000000E-002   -8.060352212949698E-004
 -2.690000000000000E-002   -8.493824491549905E-004
 -2.680000000000000E-002   -8.948761319912423E-004
 -2.670000000000000E-002   -9.426143986132363E-004
 -2.660000000000000E-002   -9.927002336432124E-004
 -2.650000000000000E-002   -1.045241249278614E-003
 -2.640000000000000E-002   -1.100350097949685E-003
 -2.630000000000000E-002   -1.158144080291899E-003
 -2.620000000000000E-002   -1.218744978156930E-003
 -2.610000000000000E-002   -1.282279193629012E-003
 -2.600000000000000E-002   -1.348877218862995E-003
 -2.590000000000000E-002   -1.418674045602561E-003
 -2.580000000000000E-002   -1.491808661162142E-003
 -2.570000000000000E-002   -1.568424599565571E-003
 -2.560000000000000E-002   -1.648669978062102E-003
 -2.550000000000000E-002   -1.732697535130475E-003
 -2.540000000000000E-002   -1.820665444566329E-003
 -2.530000000000000E-002   -1.912737280836509E-003
 -2.520000000000000E-002   -2.009082465349831E-003
 -2.510000000000000E-002   -2.109876803855048E-003
 -2.500000000000000E-002   -2.215302361309690E-003
 -2.490000000000000E-002   -2.325548219476013E-003
 -2.480000000000000E-002   -2.440809672662036E-003
 -2.470000000000000E-002   -2.561289461562234E-003
 -2.460000000000000E-002   -2.687196908149938E-003
 -2.450000000000000E-002   -2.818748881759901E-003
 -2.440000000000000E-002   -2.956169044385587E-003
 -2.430000000000000E-002   -3.099688507344918E-003
 -2.420000000000000E-002   -3.249546543046778E-003
 -2.410000000000000E-002   -3.405989879987934E-003
 -2.400000000000000E-002   -3.569274045999343E-003
 -2.390000000000000E-002   -3.739662732580787E-003
 -2.380000000000000E-002   -3.917429497712991E-003
 -2.370000000000000E-002   -4.102856502961058E-003
 -2.360000000000000E-002   -4.296236687181417E-003
 -2.350000000000000E-002   -4.497872270227523E-003
 -2.340000000000000E-002   -4.708074763473453E-003
 -2.330000000000000E-002   -4.927166784443771E-003
 -2.320000000000000E-002   -5.155479434264336E-003
 -2.310000000000000E-002   -5.393353616896271E-003
 -2.300000000000000E-002   -5.641139381187407E-003
 -2.290000000000000E-002   -5.899196823805362E-003
 -2.280000000000000E-002   -6.167893368368426E-003
 -2.270000000000000E-002   -6.447607326132430E-003
 -2.260000000000000E-002   -6.738725691801047E-003
 -2.250000000000000E-002   -7.041645309158323E-003
 -2.240000000000000E-002   -7.356772471517751E-003
 -2.230000000000000E-002   -7.684526491726488E-003
 -2.220000000000000E-002   -8.025336809787740E-003
 -2.210000000000000E-002   -8.379644107680558E-003
 -2.200000000000000E-002   -8.747902543054180E-003
 -2.190000000000000E-002   -9.130578818966138E-003
 -2.180000000000000E-002   -9.528151591845150E-003
 -2.170000000000000E-002   -9.941113636091599E-003
 -2.160000000000000E-002   -1.036996918846184E-002
 -2.150000000000000E-002   -1.081523489613399E-002
 -2.140000000000000E-002   -1.127744026863067E-002
 -2.130000000000000E-002   -1.175712468403298E-002
 -2.120000000000000E-002   -1.225484166167098E-002
 -2.110000000000000E-002   -1.277115559756419E-002
 -2.100000000000000E-002   -1.330663944288149E-002
 -2.090000000000000E-002   -1.386188246765896E-002
 -2.080000000000000E-002   -1.443748314028721E-002
 -2.070000000000000E-002   -1.503405395351768E-002
 -2.060000000000000E-002   -1.565221908935709E-002
 -2.050000000000000E-002   -1.629261776464876E-002
 -2.040000000000000E-002   -1.695590218523051E-002
 -2.030000000000000E-002   -1.764273982191835E-002
 -2.020000000000000E-002   -1.835380880362724E-002
 -2.010000000000000E-002   -1.908980246368719E-002
 -2.000000000000000E-002   -1.985142773975681E-002
 -1.990000000000000E-002   -2.063940116579254E-002
 -1.980000000000000E-002   -2.145445340613177E-002
 -1.970000000000000E-002   -2.229732381740598E-002
 -1.960000000000000E-002   -2.316876467979451E-002
 -1.950000000000000E-002   -2.406953696143888E-002
 -1.940000000000000E-002   -2.500040870116777E-002
 -1.930000000000000E-002   -2.596216188642461E-002
 -1.920000000000000E-002   -2.695558389211351E-002
 -1.910000000000000E-002   -2.798147625970869E-002
 -1.900000000000000E-002   -2.904065067407158E-002
 -1.890000000000000E-002   -3.013392704899579E-002
 -1.880000000000000E-002   -3.126213870713833E-002
 -1.870000000000000E-002   -3.242613253252152E-002
 -1.860000000000000E-002   -3.362675989717807E-002
 -1.850000000000000E-002   -3.486488374563134E-002
 -1.840000000000000E-002   -3.614138154067231E-002
 -1.830000000000000E-002   -3.745713618777530E-002
 -1.820000000000000E-002   -3.881303457269573E-002
 -1.810000000000000E-002   -4.020997029239521E-002
 -1.800000000000000E-002   -4.164884759345183E-002
 -1.790000000000000E-002   -4.313056422654808E-002
 -1.780000000000000E-002   -4.465602488510949E-002
 -1.770000000000000E-002   -4.622613425080279E-002
 -1.760000000000000E-002   -4.784179848018724E-002
 -1.750000000000000E-002   -4.950392246990852E-002
 -1.740000000000000E-002   -5.121341815251255E-002
 -1.730000000000000E-002   -5.297118944796194E-002
 -1.720000000000000E-002   -5.477814418282232E-002
 -1.710000000000000E-002   -5.663519724265915E-002
 -1.700000000000000E-002   -5.854325186831712E-002
 -1.690000000000000E-002   -6.050322016545326E-002
 -1.680000000000000E-002   -6.251601060227201E-002
 -1.670000000000000E-002   -6.458251947873081E-002
 -1.660000000000000E-002   -6.670365205428198E-002
 -1.650000000000000E-002   -6.888030341731917E-002
 -1.640000000000000E-002   -7.111335775829676E-002
 -1.630000000000000E-002   -7.340368157997318E-002
 -1.620000000000000E-002   -7.575213530984237E-002
 -1.610000000000000E-002   -7.815955255191624E-002
 -1.600000000000000E-002   -8.062676732175297E-002
 -1.590000000000000E-002   -8.315458759584464E-002
 -1.580000000000000E-002   -8.574380610089814E-002
 -1.570000000000000E-002   -8.839519750273232E-002
 -1.560000000000000E-002   -9.110950237891090E-002
 -1.550000000000000E-002   -9.388745771035455E-002
 -1.540000000000000E-002   -9.672977841562876E-002
 -1.530000000000000E-002   -9.963714025357906E-002
 -1.520000000000000E-002   -0.102610209538682     
 -1.510000000000000E-002   -0.105649616562477     
 -1.500000000000000E-002   -0.108755981750435     
 -1.490000000000000E-002   -0.111929878892931     
 -1.480000000000000E-002   -0.115171855155861     
 -1.470000000000000E-002   -0.118482428681197     
 -1.460000000000000E-002   -0.121862066772486     
 -1.450000000000000E-002   -0.125311211557125     
 -1.440000000000000E-002   -0.128830256134688     
 -1.430000000000000E-002   -0.132419559039563     
 -1.420000000000000E-002   -0.136079425434524     
 -1.410000000000000E-002   -0.139810119303439     
 -1.400000000000000E-002   -0.143611836240493     
 -1.390000000000000E-002   -0.147484739773286     
 -1.380000000000000E-002   -0.151428955809687     
 -1.370000000000000E-002   -0.155444529465942     
 -1.360000000000000E-002   -0.159531468312258     
 -1.350000000000000E-002   -0.163689715654296     
 -1.340000000000000E-002   -0.167919160257782     
 -1.330000000000000E-002   -0.172219613155791     
 -1.320000000000000E-002   -0.176590835888211     
 -1.310000000000000E-002   -0.181032539203739     
 -1.300000000000000E-002   -0.185544337282334     
 -1.290000000000000E-002   -0.190125775330996     
 -1.280000000000000E-002   -0.194776347928476     
 -1.270000000000000E-002   -0.199495461077152     
 -1.260000000000000E-002   -0.204282452259190     
 -1.250000000000000E-002   -0.209136544269681     
 -1.240000000000000E-002   -0.214056925384407     
 -1.230000000000000E-002   -0.219042702723266     
 -1.220000000000000E-002   -0.224092848590134     
 -1.210000000000000E-002   -0.229206302540152     
 -1.200000000000000E-002   -0.234381873234223     
 -1.190000000000000E-002   -0.239618342589018     
 -1.180000000000000E-002   -0.244914324428697     
 -1.170000000000000E-002   -0.250268409226099     
 -1.160000000000000E-002   -0.255679029137421     
 -1.150000000000000E-002   -0.261144566541154     
 -1.140000000000000E-002   -0.266663283239665     
 -1.130000000000000E-002   -0.272233328079648     
 -1.120000000000000E-002   -0.277852803796982     
 -1.110000000000000E-002   -0.283519653697541     
 -1.100000000000000E-002   -0.289231722222580     
 -1.090000000000000E-002   -0.294986777769948     
 -1.080000000000000E-002   -0.300782429509395     
 -1.070000000000000E-002   -0.306616242375491     
 -1.060000000000000E-002   -0.312485652164448     
 -1.050000000000000E-002   -0.318387965312376     
 -1.040000000000000E-002   -0.324320389193671     
 -1.030000000000000E-002   -0.330280027623453     
 -1.020000000000000E-002   -0.336263852684510     
 -1.010000000000000E-002   -0.342268776914977     
 -1.000000000000000E-002   -0.348291539641390     
 -9.899999999999999E-003   -0.354328775494544     
 -9.800000000000000E-003   -0.360377022498401     
 -9.699999999999999E-003   -0.366432712308059     
 -9.599999999999999E-003   -0.372492153167700     
 -9.500000000000000E-003   -0.378551541162809     
 -9.399999999999999E-003   -0.384606949435067     
 -9.299999999999999E-003   -0.390654359668208     
 -9.200000000000000E-003   -0.396689626515671     
 -9.099999999999999E-003   -0.402708461267378     
 -8.999999999999999E-003   -0.408706548787920     
 -8.900000000000000E-003   -0.414679357369274     
 -8.799999999999999E-003   -0.420622329059206     
 -8.699999999999999E-003   -0.426530823316358     
 -8.600000000000000E-003   -0.432399985379629     
 -8.499999999999999E-003   -0.438224943050212     
 -8.399999999999999E-003   -0.444000732908567     
 -8.300000000000000E-003   -0.449722248647381     
 -8.199999999999999E-003   -0.455384300363694     
 -8.100000000000000E-003   -0.460981588485910     
 -8.000000000000000E-003   -0.466508768540381     
 -7.899999999999999E-003   -0.471960321222773     
 -7.800000000000000E-003   -0.477330729088035     
 -7.699999999999999E-003   -0.482614337972369     
 -7.599999999999999E-003   -0.487805441526449     
 -7.499999999999999E-003   -0.492898185015953     
 -7.399999999999999E-003   -0.497886763089993     
 -7.299999999999999E-003   -0.502765190147046     
 -7.199999999999999E-003   -0.507527520648311     
 -7.100000000000000E-003   -0.512167623742134     
 -6.999999999999999E-003   -0.516679408773239     
 -6.899999999999999E-003   -0.521056731438100     
 -6.800000000000000E-003   -0.525293321820633     
 -6.699999999999999E-003   -0.529382977027270     
 -6.599999999999999E-003   -0.533319363678299     
 -6.499999999999999E-003   -0.537096101233311     
 -6.399999999999999E-003   -0.540706933250654     
 -6.299999999999999E-003   -0.544145396833638     
 -6.199999999999999E-003   -0.547405081669383     
 -6.100000000000000E-003   -0.550479572772923     
 -5.999999999999999E-003   -0.553362474974252     
 -5.899999999999999E-003   -0.556047357441474     
 -5.800000000000000E-003   -0.558527783517940     
 -5.699999999999999E-003   -0.560797370461796     
 -5.599999999999999E-003   -0.562849724252530     
 -5.499999999999999E-003   -0.564678491200222     
 -5.399999999999999E-003   -0.566277339735654     
 -5.299999999999999E-003   -0.567640029630447     
 -5.199999999999999E-003   -0.568760288764994     
 -5.099999999999999E-003   -0.569631915681444     
 -4.999999999999999E-003   -0.570248887011469     
 -4.899999999999999E-003   -0.570605084859249     
 -4.799999999999999E-003   -0.570694536496854     
 -4.699999999999999E-003   -0.570511375829243     
 -4.599999999999999E-003   -0.570049818741470     
 -4.499999999999999E-003   -0.569304147018235     
 -4.399999999999999E-003   -0.568268757266323     
 -4.299999999999999E-003   -0.566938218952741     
 -4.199999999999999E-003   -0.565307128454412     
 -4.099999999999999E-003   -0.563370267448628     
 -3.999999999999999E-003   -0.561122569334104     
 -3.899999999999999E-003   -0.558559064158456     
 -3.799999999999999E-003   -0.555674944302914     
 -3.699999999999999E-003   -0.552465585442901     
 -3.599999999999999E-003   -0.548926501576829     
 -3.499999999999999E-003   -0.545053430083685     
 -3.399999999999999E-003   -0.540842247020038     
 -3.299999999999999E-003   -0.536289014433421     
 -3.199999999999999E-003   -0.531390034982419     
 -3.099999999999999E-003   -0.526141781678561     
 -2.999999999999999E-003   -0.520540908361190     
 -2.899999999999999E-003   -0.514584387176352     
 -2.799999999999999E-003   -0.508269312231299     
 -2.699999999999999E-003   -0.501593039573793     
 -2.599999999999999E-003   -0.494553250364601     
 -2.499999999999999E-003   -0.487147767896957     
 -2.399999999999999E-003   -0.479374704883561     
 -2.299999999999999E-003   -0.471232448535601     
 -2.199999999999999E-003   -0.462719627976539     
 -2.099999999999999E-003   -0.453835206211184     
 -1.999999999999999E-003   -0.444578327953020     
 -1.899999999999999E-003   -0.434948490750653     
 -1.799999999999999E-003   -0.424945467328671     
 -1.699999999999999E-003   -0.414569317321253     
 -1.599999999999999E-003   -0.403820415482486     
 -1.499999999999999E-003   -0.392699390443590     
 -1.399999999999999E-003   -0.381207220152424     
 -1.299999999999999E-003   -0.369345191739123     
 -1.199999999999999E-003   -0.357114888584353     
 -1.099999999999999E-003   -0.344518212617481     
 -9.999999999999989E-004   -0.331557408790429     
 -8.999999999999990E-004   -0.318235055572923     
 -7.999999999999990E-004   -0.304554042039669     
 -6.999999999999989E-004   -0.290517572005195     
 -5.999999999999990E-004   -0.276129230895110     
 -4.999999999999989E-004   -0.261392901021462     
 -3.999999999999989E-004   -0.246312817620858     
 -2.999999999999989E-004   -0.230893544257060     
 -1.999999999999989E-004   -0.215139980066366     
 -9.999999999999892E-005   -0.199057382710974     
  1.084202172485504E-018   -0.182651311918684     
  1.000000000000011E-004   -0.165927657064177     
  2.000000000000011E-004   -0.148892681897397     
  3.000000000000011E-004   -0.131552950695354     
  4.000000000000011E-004   -0.113915382119912     
  5.000000000000011E-004   -9.598717099373182E-002
  6.000000000000011E-004   -7.777589058732895E-002
  7.000000000000011E-004   -5.928942307040634E-002
  8.000000000000011E-004   -4.053598289519722E-002
  9.000000000000012E-004   -2.152408497646837E-002
  1.000000000000001E-003   -2.262577855858660E-003
  1.100000000000001E-003    1.723937847072883E-002
  1.200000000000001E-003    3.697236009021772E-002
  1.300000000000001E-003    5.692659028336833E-002
  1.400000000000001E-003    7.709204243565845E-002
  1.500000000000001E-003    9.745838556690929E-002
  1.600000000000001E-003    0.118015006054066     
  1.700000000000001E-003    0.138751049718779     
  1.800000000000001E-003    0.159655353063225     
  1.900000000000001E-003    0.180716538173846     
  2.000000000000001E-003    0.201922939920173     
  2.100000000000001E-003    0.223262702700664     
  2.200000000000001E-003    0.244723706189735     
  2.300000000000001E-003    0.266293607255507     
  2.400000000000001E-003    0.287959839917596     
  2.500000000000001E-003    0.309709672569206     
  2.600000000000001E-003    0.331530135770033     
  2.700000000000001E-003    0.353408090018645     
  2.800000000000001E-003    0.375330254138956     
  2.900000000000001E-003    0.397283115357745     
  3.000000000000001E-003    0.419253042133140     
  3.100000000000001E-003    0.441226356996233     
  3.200000000000001E-003    0.463189139444508     
  3.300000000000001E-003    0.485127306379098     
  3.400000000000001E-003    0.507026838724131     
  3.500000000000001E-003    0.528873558643106     
  3.600000000000001E-003    0.550653205037913     
  3.700000000000001E-003    0.572351383403461     
  3.800000000000001E-003    0.593953798542047     
  3.900000000000001E-003    0.615446035354850     
  4.000000000000001E-003    0.636813609749370     
  4.100000000000001E-003    0.658042080375931     
  4.200000000000001E-003    0.679117037151517     
  4.300000000000001E-003    0.700024025454334     
  4.400000000000001E-003    0.720748681729814     
  4.500000000000001E-003    0.741276631756993     
  4.600000000000002E-003    0.761593536388754     
  4.700000000000001E-003    0.781685266279010     
  4.800000000000001E-003    0.801537612873241     
  4.900000000000002E-003    0.821136560099722     
  5.000000000000001E-003    0.840468205334077     
  5.100000000000001E-003    0.859518780774246     
  5.200000000000001E-003    0.878274618595778     
  5.300000000000002E-003    0.896722275637662     
  5.400000000000001E-003    0.914848450852570     
  5.500000000000001E-003    0.932639916842887     
  5.600000000000002E-003    0.950083804492909     
  5.700000000000001E-003    0.967167397148388     
  5.800000000000001E-003    0.983878220405172     
  5.900000000000002E-003     1.00020399610234     
  6.000000000000001E-003     1.01613263622415     
  6.100000000000001E-003     1.03165241963732     
  6.200000000000002E-003     1.04675180340762     
  6.300000000000002E-003     1.06141963751179     
  6.400000000000001E-003     1.07564501955027     
  6.500000000000001E-003     1.08941745688947     
  6.600000000000002E-003     1.10272659828355     
  6.700000000000001E-003     1.11556248457038     
  6.800000000000001E-003     1.12791552423747     
  6.900000000000002E-003     1.13977658195960     
  7.000000000000001E-003     1.15113668601452     
  7.100000000000001E-003     1.16198738882403     
  7.200000000000002E-003     1.17232053403488     
  7.300000000000002E-003     1.18212840857258     
  7.400000000000001E-003     1.19140355926032     
  7.500000000000001E-003     1.20013912289444     
  7.600000000000002E-003     1.20832852314946     
  7.700000000000001E-003     1.21596567891961     
  7.800000000000001E-003     1.22304490973687     
  7.900000000000001E-003     1.22956085965745     
  8.000000000000002E-003     1.23550870204970     
  8.100000000000001E-003     1.24088409171597     
  8.200000000000001E-003     1.24568311554116     
  8.300000000000002E-003     1.24990220590612     
  8.400000000000001E-003     1.25353827131349     
  8.500000000000002E-003     1.25658888955562     
  8.600000000000002E-003     1.25905184682186     
  8.700000000000001E-003     1.26092550186834     
  8.800000000000002E-003     1.26220871777662     
  8.900000000000002E-003     1.26290068681952     
  9.000000000000001E-003     1.26300115417651     
  9.100000000000002E-003     1.26251037839916     
  9.200000000000002E-003     1.26142892929612     
  9.300000000000001E-003     1.25975797042202     
  9.400000000000002E-003     1.25749906221504     
  9.500000000000001E-003     1.25465423913969     
  9.600000000000001E-003     1.25122594300632     
  9.700000000000002E-003     1.24721715216015     
  9.800000000000001E-003     1.24263115717555     
  9.900000000000001E-003     1.23747182347354     
  1.000000000000000E-002     1.23174346119860     
  1.010000000000000E-002     1.22545079766357     
  1.020000000000000E-002     1.21859895555350     
  1.030000000000000E-002     1.21119354563272     
  1.040000000000000E-002     1.20324046287524     
  1.050000000000000E-002     1.19474610293152     
  1.060000000000000E-002     1.18571736978290     
  1.070000000000000E-002     1.17616141847698     
  1.080000000000000E-002     1.16608574007831     
  1.090000000000000E-002     1.15549830591970     
  1.100000000000000E-002     1.14440757119199     
  1.110000000000000E-002     1.13282212766228     
  1.120000000000000E-002     1.12075104225688     
  1.130000000000000E-002     1.10820369270511     
  1.140000000000000E-002     1.09518974015465     
  1.150000000000000E-002     1.08171926923514     
  1.160000000000000E-002     1.06780261397693     
  1.170000000000000E-002     1.05345043048587     
  1.180000000000000E-002     1.03867363718137     
  1.190000000000000E-002     1.02348350522045     
  1.200000000000000E-002     1.00789137675031     
  1.210000000000000E-002    0.991909013119888     
  1.220000000000000E-002    0.975548417025826     
  1.230000000000000E-002    0.958821725881809     
  1.240000000000000E-002    0.941741310904434     
  1.250000000000000E-002    0.924319756374381     
  1.260000000000000E-002    0.906569892540792     
  1.270000000000000E-002    0.888504612550413     
  1.280000000000000E-002    0.870137042420001     
  1.290000000000000E-002    0.851480462741886     
  1.300000000000000E-002    0.832548211969054     
  1.310000000000000E-002    0.813353865864918     
  1.320000000000000E-002    0.793911000195448     
  1.330000000000000E-002    0.774233394377915     
  1.340000000000000E-002    0.754334804253109     
  1.350000000000000E-002    0.734229163515335     
  1.360000000000000E-002    0.713930330317187     
  1.370000000000000E-002    0.693452335223333     
  1.380000000000000E-002    0.672809128036686     
  1.390000000000000E-002    0.652014651883077     
  1.400000000000000E-002    0.631082993974488     
  1.410000000000000E-002    0.610028078988636     
  1.420000000000000E-002    0.588863878127378     
  1.430000000000000E-002    0.567604312653570     
  1.440000000000000E-002    0.546263266250339     
  1.450000000000000E-002    0.524854557140872     
  1.460000000000000E-002    0.503391887121362     
  1.470000000000000E-002    0.481888860721156     
  1.480000000000000E-002    0.460359067334390     
  1.490000000000000E-002    0.438815933155440     
  1.500000000000000E-002    0.417272708159955     
  1.510000000000000E-002    0.395742618588642     
  1.520000000000000E-002    0.374238673876282     
  1.530000000000000E-002    0.352773739923607     
  1.540000000000000E-002    0.331360512201544     
  1.550000000000000E-002    0.310011540049609     
  1.560000000000000E-002    0.288739146332824     
  1.570000000000000E-002    0.267555473547633     
  1.580000000000000E-002    0.246472462802597     
  1.590000000000000E-002    0.225501854917681     
  1.600000000000000E-002    0.204655150435215     
  1.610000000000000E-002    0.183943639403854     
  1.620000000000000E-002    0.163378394569167     
  1.630000000000000E-002    0.142970215100596     
  1.640000000000000E-002    0.122729668415565     
  1.650000000000000E-002    0.102667081572241     
  1.660000000000000E-002    8.279250132677234E-002
  1.670000000000000E-002    6.311570474067232E-002
  1.680000000000000E-002    4.364619333419076E-002
  1.690000000000000E-002    2.439320453243090E-002
  1.700000000000000E-002    5.365660661186523E-003
  1.710000000000000E-002   -1.342779209085086E-002
  1.720000000000000E-002   -3.197880348752346E-002
  1.730000000000000E-002   -5.027930046635523E-002
  1.740000000000000E-002   -6.832153233684418E-002
  1.750000000000000E-002   -8.609804828261208E-002
  1.760000000000000E-002   -0.103601690178974     
  1.770000000000000E-002   -0.120825655807016     
  1.780000000000000E-002   -0.137763368273841     
  1.790000000000000E-002   -0.154408582431780     
  1.800000000000000E-002   -0.170755404350961     
  1.810000000000000E-002   -0.186798202341909     
  1.820000000000000E-002   -0.202531671342086     
  1.830000000000000E-002   -0.217950820868991     
  1.840000000000000E-002   -0.233050955139257     
  1.850000000000000E-002   -0.247827728564637     
  1.860000000000000E-002   -0.262277028653038     
  1.870000000000000E-002   -0.276395133408065     