 -4.000000000000000E-002    0.000000000000000E+000
 -3.990000000000000E-002    0.000000000000000E+000
 -3.980000000000000E-002    0.000000000000000E+000
 -3.970000000000000E-002    0.000000000000000E+000
 -3.960000000000000E-002    0.000000000000000E+000
 -3.950000000000000E-002    0.000000000000000E+000
 -3.940000000000000E-002    0.000000000000000E+000
 -3.930000000000000E-002    0.000000000000000E+000
 -3.920000000000000E-002    0.000000000000000E+000
 -3.910000000000000E-002    0.000000000000000E+000
 -3.900000000000000E-002    0.000000000000000E+000
 -3.890000000000000E-002    0.000000000000000E+000
 -3.880000000000000E-002    0.000000000000000E+000
 -3.870000000000000E-002    0.000000000000000E+000
 -3.860000000000000E-002    0.000000000000000E+000
 -3.850000000000000E-002    0.000000000000000E+000
 -3.840000000000000E-002    0.000000000000000E+000
 -3.830000000000000E-002    0.000000000000000E+000
 -3.820000000000000E-002    0.000000000000000E+000
 -3.810000000000000E-002    0.000000000000000E+000
 -3.800000000000000E-002    0.000000000000000E+000
 -3.790000000000000E-002    0.000000000000000E+000
 -3.780000000000000E-002    0.000000000000000E+000
 -3.770000000000000E-002    0.000000000000000E+000
 -3.760000000000000E-002    0.000000000000000E+000
 -3.750000000000000E-002    0.000000000000000E+000
 -3.740000000000000E-002    0.000000000000000E+000
 -3.730000000000000E-002    0.000000000000000E+000
 -3.720000000000000E-002    0.000000000000000E+000
 -3.710000000000000E-002    0.000000000000000E+000
 -3.700000000000000E-002    0.000000000000000E+000
 -3.690000000000000E-002    0.000000000000000E+000
 -3.680000000000000E-002    0.000000000000000E+000
 -3.670000000000000E-002    0.000000000000000E+000
 -3.660000000000000E-002    0.000000000000000E+000
 -3.650000000000000E-002    0.000000000000000E+000
 -3.640000000000000E-002    0.000000000000000E+000
 -3.630000000000000E-002    0.000000000000000E+000
 -3.620000000000000E-002    0.000000000000000E+000
 -3.610000000000000E-002    0.000000000000000E+000
 -3.600000000000000E-002    0.000000000000000E+000
 -3.590000000000000E-002    0.000000000000000E+000
 -3.580000000000000E-002    0.000000000000000E+000
 -3.570000000000000E-002    0.000000000000000E+000
 -3.560000000000000E-002    0.000000000000000E+000
 -3.550000000000000E-002    0.000000000000000E+000
 -3.540000000000000E-002    0.000000000000000E+000
 -3.530000000000000E-002    0.000000000000000E+000
 -3.520000000000000E-002    0.000000000000000E+000
 -3.510000000000000E-002    0.000000000000000E+000
 -3.500000000000000E-002    0.000000000000000E+000
 -3.490000000000000E-002    0.000000000000000E+000
 -3.480000000000000E-002    0.000000000000000E+000
 -3.470000000000000E-002    0.000000000000000E+000
 -3.460000000000000E-002    0.000000000000000E+000
 -3.450000000000000E-002    0.000000000000000E+000
 -3.440000000000000E-002    0.000000000000000E+000
 -3.430000000000000E-002    0.000000000000000E+000
 -3.420000000000000E-002    0.000000000000000E+000
 -3.410000000000000E-002    0.000000000000000E+000
 -3.400000000000000E-002    0.000000000000000E+000
 -3.390000000000000E-002    0.000000000000000E+000
 -3.380000000000000E-002    0.000000000000000E+000
 -3.370000000000000E-002    0.000000000000000E+000
 -3.360000000000000E-002    0.000000000000000E+000
 -3.350000000000000E-002    0.000000000000000E+000
 -3.340000000000000E-002    0.000000000000000E+000
 -3.330000000000000E-002    0.000000000000000E+000
 -3.320000000000000E-002    0.000000000000000E+000
 -3.310000000000000E-002    0.000000000000000E+000
 -3.300000000000000E-002    0.000000000000000E+000
 -3.290000000000000E-002    0.000000000000000E+000
 -3.280000000000000E-002    0.000000000000000E+000
 -3.270000000000000E-002    0.000000000000000E+000
 -3.260000000000000E-002    0.000000000000000E+000
 -3.250000000000000E-002    0.000000000000000E+000
 -3.240000000000000E-002    0.000000000000000E+000
 -3.230000000000000E-002    0.000000000000000E+000
 -3.220000000000000E-002    0.000000000000000E+000
 -3.210000000000000E-002    0.000000000000000E+000
 -3.200000000000000E-002    0.000000000000000E+000
 -3.190000000000000E-002    0.000000000000000E+000
 -3.180000000000000E-002    0.000000000000000E+000
 -3.170000000000000E-002    0.000000000000000E+000
 -3.160000000000000E-002    0.000000000000000E+000
 -3.150000000000000E-002    0.000000000000000E+000
 -3.140000000000000E-002    0.000000000000000E+000
 -3.130000000000000E-002    0.000000000000000E+000
 -3.120000000000000E-002    0.000000000000000E+000
 -3.110000000000000E-002    0.000000000000000E+000
 -3.100000000000000E-002    0.000000000000000E+000
 -3.090000000000000E-002    0.000000000000000E+000
 -3.080000000000000E-002    0.000000000000000E+000
 -3.070000000000000E-002    0.000000000000000E+000
 -3.060000000000000E-002    0.000000000000000E+000
 -3.050000000000000E-002    0.000000000000000E+000
 -3.040000000000000E-002    0.000000000000000E+000
 -3.030000000000000E-002    0.000000000000000E+000
 -3.020000000000000E-002    0.000000000000000E+000
 -3.010000000000000E-002    0.000000000000000E+000
 -3.000000000000000E-002    0.000000000000000E+000
 -2.990000000000000E-002    0.000000000000000E+000
 -2.980000000000000E-002    0.000000000000000E+000
 -2.970000000000000E-002    0.000000000000000E+000
 -2.960000000000000E-002    0.000000000000000E+000
 -2.950000000000000E-002    0.000000000000000E+000
 -2.940000000000000E-002    0.000000000000000E+000
 -2.930000000000000E-002    0.000000000000000E+000
 -2.920000000000000E-002    0.000000000000000E+000
 -2.910000000000000E-002    0.000000000000000E+000
 -2.900000000000000E-002    0.000000000000000E+000
 -2.890000000000000E-002    0.000000000000000E+000
 -2.880000000000000E-002    0.000000000000000E+000
 -2.870000000000000E-002    0.000000000000000E+000
 -2.860000000000000E-002    0.000000000000000E+000
 -2.850000000000000E-002    0.000000000000000E+000
 -2.840000000000000E-002    0.000000000000000E+000
 -2.830000000000000E-002    0.000000000000000E+000
 -2.820000000000000E-002    0.000000000000000E+000
 -2.810000000000000E-002    0.000000000000000E+000
 -2.800000000000000E-002    0.000000000000000E+000
 -2.790000000000000E-002    0.000000000000000E+000
 -2.780000000000000E-002    0.000000000000000E+000
 -2.770000000000000E-002    0.000000000000000E+000
 -2.760000000000000E-002    0.000000000000000E+000
 -2.750000000000000E-002    0.000000000000000E+000
 -2.740000000000000E-002    0.000000000000000E+000
 -2.730000000000000E-002    0.000000000000000E+000
 -2.720000000000000E-002    0.000000000000000E+000
 -2.710000000000000E-002    0.000000000000000E+000
 -2.700000000000000E-002    0.000000000000000E+000
 -2.690000000000000E-002    0.000000000000000E+000
 -2.680000000000000E-002    0.000000000000000E+000
 -2.670000000000000E-002    0.000000000000000E+000
 -2.660000000000000E-002    0.000000000000000E+000
 -2.650000000000000E-002    0.000000000000000E+000
 -2.640000000000000E-002    0.000000000000000E+000
 -2.630000000000000E-002    0.000000000000000E+000
 -2.620000000000000E-002    0.000000000000000E+000
 -2.610000000000000E-002    0.000000000000000E+000
 -2.600000000000000E-002    0.000000000000000E+000
 -2.590000000000000E-002    0.000000000000000E+000
 -2.580000000000000E-002    0.000000000000000E+000
 -2.570000000000000E-002    0.000000000000000E+000
 -2.560000000000000E-002    0.000000000000000E+000
 -2.550000000000000E-002    0.000000000000000E+000
 -2.540000000000000E-002    0.000000000000000E+000
 -2.530000000000000E-002    0.000000000000000E+000
 -2.520000000000000E-002    0.000000000000000E+000
 -2.510000000000000E-002    0.000000000000000E+000
 -2.500000000000000E-002    0.000000000000000E+000
 -2.490000000000000E-002    0.000000000000000E+000
 -2.480000000000000E-002    0.000000000000000E+000
 -2.470000000000000E-002    0.000000000000000E+000
 -2.460000000000000E-002    0.000000000000000E+000
 -2.450000000000000E-002    0.000000000000000E+000
 -2.440000000000000E-002    0.000000000000000E+000
 -2.430000000000000E-002    0.000000000000000E+000
 -2.420000000000000E-002    0.000000000000000E+000
 -2.410000000000000E-002    0.000000000000000E+000
 -2.400000000000000E-002    0.000000000000000E+000
 -2.390000000000000E-002    0.000000000000000E+000
 -2.380000000000000E-002    0.000000000000000E+000
 -2.370000000000000E-002    0.000000000000000E+000
 -2.360000000000000E-002    0.000000000000000E+000
 -2.350000000000000E-002    0.000000000000000E+000
 -2.340000000000000E-002    0.000000000000000E+000
 -2.330000000000000E-002    0.000000000000000E+000
 -2.320000000000000E-002    0.000000000000000E+000
 -2.310000000000000E-002    0.000000000000000E+000
 -2.300000000000000E-002    0.000000000000000E+000
 -2.290000000000000E-002    0.000000000000000E+000
 -2.280000000000000E-002    0.000000000000000E+000
 -2.270000000000000E-002    0.000000000000000E+000
 -2.260000000000000E-002    0.000000000000000E+000
 -2.250000000000000E-002    0.000000000000000E+000
 -2.240000000000000E-002    0.000000000000000E+000
 -2.230000000000000E-002    0.000000000000000E+000
 -2.220000000000000E-002    0.000000000000000E+000
 -2.210000000000000E-002    0.000000000000000E+000
 -2.200000000000000E-002    0.000000000000000E+000
 -2.190000000000000E-002    0.000000000000000E+000
 -2.180000000000000E-002    0.000000000000000E+000
 -2.170000000000000E-002    0.000000000000000E+000
 -2.160000000000000E-002    0.000000000000000E+000
 -2.150000000000000E-002    0.000000000000000E+000
 -2.140000000000000E-002    0.000000000000000E+000
 -2.130000000000000E-002    0.000000000000000E+000
 -2.120000000000000E-002    0.000000000000000E+000
 -2.110000000000000E-002    0.000000000000000E+000
 -2.100000000000000E-002    0.000000000000000E+000
 -2.090000000000000E-002    0.000000000000000E+000
 -2.080000000000000E-002    0.000000000000000E+000
 -2.070000000000000E-002    0.000000000000000E+000
 -2.060000000000000E-002    0.000000000000000E+000
 -2.050000000000000E-002    0.000000000000000E+000
 -2.040000000000000E-002    0.000000000000000E+000
 -2.030000000000000E-002    0.000000000000000E+000
 -2.020000000000000E-002    0.000000000000000E+000
 -2.010000000000000E-002    0.000000000000000E+000
 -2.000000000000000E-002    0.000000000000000E+000
 -1.990000000000000E-002    0.000000000000000E+000
 -1.980000000000000E-002    0.000000000000000E+000
 -1.970000000000000E-002    0.000000000000000E+000
 -1.960000000000000E-002    0.000000000000000E+000
 -1.950000000000000E-002    0.000000000000000E+000
 -1.940000000000000E-002    0.000000000000000E+000
 -1.930000000000000E-002    0.000000000000000E+000
 -1.920000000000000E-002    0.000000000000000E+000
 -1.910000000000000E-002    0.000000000000000E+000
 -1.900000000000000E-002    0.000000000000000E+000
 -1.890000000000000E-002    0.000000000000000E+000
 -1.880000000000000E-002    0.000000000000000E+000
 -1.870000000000000E-002    0.000000000000000E+000
 -1.860000000000000E-002    0.000000000000000E+000
 -1.850000000000000E-002    0.000000000000000E+000
 -1.840000000000000E-002    0.000000000000000E+000
 -1.830000000000000E-002    0.000000000000000E+000
 -1.820000000000000E-002    0.000000000000000E+000
 -1.810000000000000E-002    0.000000000000000E+000
 -1.800000000000000E-002    0.000000000000000E+000
 -1.790000000000000E-002    0.000000000000000E+000
 -1.780000000000000E-002    0.000000000000000E+000
 -1.770000000000000E-002    0.000000000000000E+000
 -1.760000000000000E-002    0.000000000000000E+000
 -1.750000000000000E-002    0.000000000000000E+000
 -1.740000000000000E-002    0.000000000000000E+000
 -1.730000000000000E-002    0.000000000000000E+000
 -1.720000000000000E-002    0.000000000000000E+000
 -1.710000000000000E-002    0.000000000000000E+000
 -1.700000000000000E-002    0.000000000000000E+000
 -1.690000000000000E-002    0.000000000000000E+000
 -1.680000000000000E-002    0.000000000000000E+000
 -1.670000000000000E-002    0.000000000000000E+000
 -1.660000000000000E-002    0.000000000000000E+000
 -1.650000000000000E-002    0.000000000000000E+000
 -1.640000000000000E-002    0.000000000000000E+000
 -1.630000000000000E-002    0.000000000000000E+000
 -1.620000000000000E-002    0.000000000000000E+000
 -1.610000000000000E-002    0.000000000000000E+000
 -1.600000000000000E-002    0.000000000000000E+000
 -1.590000000000000E-002    0.000000000000000E+000
 -1.580000000000000E-002    0.000000000000000E+000
 -1.570000000000000E-002    0.000000000000000E+000
 -1.560000000000000E-002    0.000000000000000E+000
 -1.550000000000000E-002    0.000000000000000E+000
 -1.540000000000000E-002    0.000000000000000E+000
 -1.530000000000000E-002    0.000000000000000E+000
 -1.520000000000000E-002    0.000000000000000E+000
 -1.510000000000000E-002    0.000000000000000E+000
 -1.500000000000000E-002    0.000000000000000E+000
 -1.490000000000000E-002    0.000000000000000E+000
 -1.480000000000000E-002    0.000000000000000E+000
 -1.470000000000000E-002    0.000000000000000E+000
 -1.460000000000000E-002    0.000000000000000E+000
 -1.450000000000000E-002    0.000000000000000E+000
 -1.440000000000000E-002    0.000000000000000E+000
 -1.430000000000000E-002    0.000000000000000E+000
 -1.420000000000000E-002    0.000000000000000E+000
 -1.410000000000000E-002    0.000000000000000E+000
 -1.400000000000000E-002    0.000000000000000E+000
 -1.390000000000000E-002    0.000000000000000E+000
 -1.380000000000000E-002    0.000000000000000E+000
 -1.370000000000000E-002    0.000000000000000E+000
 -1.360000000000000E-002    0.000000000000000E+000
 -1.350000000000000E-002    0.000000000000000E+000
 -1.340000000000000E-002    0.000000000000000E+000
 -1.330000000000000E-002    0.000000000000000E+000
 -1.320000000000000E-002    0.000000000000000E+000
 -1.310000000000000E-002    0.000000000000000E+000
 -1.300000000000000E-002    0.000000000000000E+000
 -1.290000000000000E-002    0.000000000000000E+000
 -1.280000000000000E-002    0.000000000000000E+000
 -1.270000000000000E-002    0.000000000000000E+000
 -1.260000000000000E-002    0.000000000000000E+000
 -1.250000000000000E-002    0.000000000000000E+000
 -1.240000000000000E-002    0.000000000000000E+000
 -1.230000000000000E-002    0.000000000000000E+000
 -1.220000000000000E-002    0.000000000000000E+000
 -1.210000000000000E-002    0.000000000000000E+000
 -1.200000000000000E-002    0.000000000000000E+000
 -1.190000000000000E-002    0.000000000000000E+000
 -1.180000000000000E-002    0.000000000000000E+000
 -1.170000000000000E-002    0.000000000000000E+000
 -1.160000000000000E-002    0.000000000000000E+000
 -1.150000000000000E-002    0.000000000000000E+000
 -1.140000000000000E-002    0.000000000000000E+000
 -1.130000000000000E-002    0.000000000000000E+000
 -1.120000000000000E-002    0.000000000000000E+000
 -1.110000000000000E-002    0.000000000000000E+000
 -1.100000000000000E-002    0.000000000000000E+000
 -1.090000000000000E-002    0.000000000000000E+000
 -1.080000000000000E-002    0.000000000000000E+000
 -1.070000000000000E-002    0.000000000000000E+000
 -1.060000000000000E-002    0.000000000000000E+000
 -1.050000000000000E-002    0.000000000000000E+000
 -1.040000000000000E-002    0.000000000000000E+000
 -1.030000000000000E-002    0.000000000000000E+000
 -1.020000000000000E-002    0.000000000000000E+000
 -1.010000000000000E-002    0.000000000000000E+000
 -1.000000000000000E-002    0.000000000000000E+000
 -9.899999999999999E-003    0.000000000000000E+000
 -9.800000000000000E-003    0.000000000000000E+000
 -9.699999999999999E-003    0.000000000000000E+000
 -9.599999999999999E-003    0.000000000000000E+000
 -9.500000000000000E-003    0.000000000000000E+000
 -9.399999999999999E-003    0.000000000000000E+000
 -9.299999999999999E-003    0.000000000000000E+000
 -9.200000000000000E-003    0.000000000000000E+000
 -9.099999999999999E-003    0.000000000000000E+000
 -8.999999999999999E-003    0.000000000000000E+000
 -8.900000000000000E-003    0.000000000000000E+000
 -8.799999999999999E-003    0.000000000000000E+000
 -8.699999999999999E-003    0.000000000000000E+000
 -8.600000000000000E-003    0.000000000000000E+000
 -8.499999999999999E-003    0.000000000000000E+000
 -8.399999999999999E-003    0.000000000000000E+000
 -8.300000000000000E-003    0.000000000000000E+000
 -8.199999999999999E-003    0.000000000000000E+000
 -8.100000000000000E-003    0.000000000000000E+000
 -8.000000000000000E-003    0.000000000000000E+000
 -7.899999999999999E-003    0.000000000000000E+000
 -7.800000000000000E-003    0.000000000000000E+000
 -7.699999999999999E-003    0.000000000000000E+000
 -7.599999999999999E-003    0.000000000000000E+000
 -7.499999999999999E-003    0.000000000000000E+000
 -7.399999999999999E-003    0.000000000000000E+000
 -7.299999999999999E-003    0.000000000000000E+000
 -7.199999999999999E-003    0.000000000000000E+000
 -7.100000000000000E-003    0.000000000000000E+000
 -6.999999999999999E-003    0.000000000000000E+000
 -6.899999999999999E-003    0.000000000000000E+000
 -6.800000000000000E-003    0.000000000000000E+000
 -6.699999999999999E-003    0.000000000000000E+000
 -6.599999999999999E-003    0.000000000000000E+000
 -6.499999999999999E-003    0.000000000000000E+000
 -6.399999999999999E-003    0.000000000000000E+000
 -6.299999999999999E-003    0.000000000000000E+000
 -6.199999999999999E-003    0.000000000000000E+000
 -6.100000000000000E-003    0.000000000000000E+000
 -5.999999999999999E-003    0.000000000000000E+000
 -5.899999999999999E-003    0.000000000000000E+000
 -5.800000000000000E-003    0.000000000000000E+000
 -5.699999999999999E-003    0.000000000000000E+000
 -5.599999999999999E-003    0.000000000000000E+000
 -5.499999999999999E-003    0.000000000000000E+000
 -5.399999999999999E-003    0.000000000000000E+000
 -5.299999999999999E-003    0.000000000000000E+000
 -5.199999999999999E-003    0.000000000000000E+000
 -5.099999999999999E-003    0.000000000000000E+000
 -4.999999999999999E-003    0.000000000000000E+000
 -4.899999999999999E-003    0.000000000000000E+000
 -4.799999999999999E-003    0.000000000000000E+000
 -4.699999999999999E-003    0.000000000000000E+000
 -4.599999999999999E-003    0.000000000000000E+000
 -4.499999999999999E-003    0.000000000000000E+000
 -4.399999999999999E-003    0.000000000000000E+000
 -4.299999999999999E-003    5.774840414026545E-049
 -4.199999999999999E-003    1.154968082805309E-048
 -4.099999999999999E-003    1.732452124207963E-048
 -3.999999999999999E-003    2.309936165610618E-048
 -3.899999999999999E-003    5.564798826958553E-049
 -3.799999999999999E-003   -6.579912668493602E-049
 -3.699999999999999E-003   -6.353928484966601E-048
 -3.599999999999999E-003   -1.087389346157173E-047
 -3.499999999999999E-003   -1.433879770998766E-047
 -3.399999999999999E-003   -1.832168293306634E-047
 -3.299999999999999E-003   -1.641712274777793E-047
 -3.199999999999999E-003   -1.500385471724457E-047
 -3.099999999999999E-003   -4.338144384544307E-048
 -2.999999999999999E-003   -3.580775331264822E-048
 -2.899999999999999E-003    1.873055908623535E-048
 -2.799999999999999E-003    2.543976398376823E-047
 -2.699999999999999E-003   -3.294547776180431E-048
 -2.599999999999999E-003    4.983329209684511E-047
 -2.499999999999999E-003    1.137339811109271E-046
 -2.399999999999999E-003    1.618753169564078E-046
 -2.299999999999999E-003    3.902306436448220E-046
 -2.199999999999999E-003    4.648028336956623E-046
 -2.099999999999999E-003    5.084924077176622E-046
 -1.999999999999999E-003    5.043941971407638E-046
 -1.899999999999999E-003    3.578760571019971E-046
 -1.799999999999999E-003    5.066619743556286E-047
 -1.699999999999999E-003    2.377814390971636E-046
 -1.599999999999999E-003    1.488170585613922E-046
 -1.499999999999999E-003    5.918444814789484E-047
 -1.399999999999999E-003   -8.674509252675829E-046
 -1.299999999999999E-003   -1.643370143757782E-045
 -1.199999999999999E-003   -2.632176016985248E-045
 -1.099999999999999E-003   -3.862177528347276E-045
 -9.999999999999989E-004   -4.900414034189633E-045
 -8.999999999999990E-004   -5.643196240016812E-045
 -7.999999999999990E-004   -5.204388175732140E-045
 -6.999999999999989E-004   -4.320643370237674E-045
 -5.999999999999990E-004   -3.290942859035640E-045
 -4.999999999999989E-004   -9.145887155954862E-046
 -3.999999999999989E-004    2.537671046175483E-045
 -2.999999999999989E-004    7.357383800403434E-045
 -1.999999999999989E-004    1.254443431995557E-044
 -9.999999999999892E-005    1.789189256938368E-044
  1.084202172485504E-018    2.295361097737389E-044
  1.000000000000011E-004    2.673018944445925E-044
  2.000000000000011E-004    2.932878921737317E-044
  3.000000000000011E-004    2.903297340207424E-044
  4.000000000000011E-004    2.563594453924270E-044
  5.000000000000011E-004    1.693980282461429E-044
  6.000000000000011E-004    3.986378451490740E-045
  7.000000000000011E-004   -1.546392856876025E-044
  8.000000000000011E-004   -4.040783988059715E-044
  9.000000000000012E-004   -6.925946003395677E-044
  1.000000000000001E-003   -1.004844187243227E-043
  1.100000000000001E-003   -1.313754156498923E-043
  1.200000000000001E-003   -1.567647401766758E-043
  1.300000000000001E-003   -1.708338821066695E-043
  1.400000000000001E-003   -1.657756438623053E-043
  1.500000000000001E-003   -1.335731348852713E-043
  1.600000000000001E-003   -6.719864571656643E-044
  1.700000000000001E-003    3.801315317366431E-044
  1.800000000000001E-003    1.826350461605005E-043
  1.900000000000001E-003    3.621167785504379E-043
  2.000000000000001E-003    5.622747265951851E-043
  2.100000000000001E-003    7.600592924207321E-043
  2.200000000000001E-003    9.243606306979540E-043
  2.300000000000001E-003    1.012806647154175E-042
  2.400000000000001E-003    9.796266106732755E-043
  2.500000000000001E-003    7.798957281038371E-043
  2.600000000000001E-003    3.764938516735735E-043
  2.700000000000001E-003   -2.480827423791142E-043
  2.800000000000001E-003   -1.082524792383706E-042
  2.900000000000001E-003   -2.078478160310662E-042
  3.000000000000001E-003   -3.141884426277574E-042
  3.100000000000001E-003   -4.130643604934304E-042
  3.200000000000001E-003   -4.863395684833682E-042
  3.300000000000001E-003   -5.130317850427326E-042
  3.400000000000001E-003   -4.720269743364230E-042
  3.500000000000001E-003   -3.449396678814724E-042
  3.600000000000001E-003   -1.203610108604004E-042
  3.700000000000001E-003    2.021382195695757E-042
  3.800000000000001E-003    6.083512339607848E-042
  3.900000000000001E-003    1.066808061804311E-041
  4.000000000000001E-003    1.527698030288143E-041
  4.100000000000001E-003    1.925055579919030E-041
  4.200000000000001E-003    2.180978131743028E-041
  4.300000000000001E-003    2.213862480764396E-041
  4.400000000000001E-003    1.948629333960247E-041
  4.500000000000001E-003    1.329570835320624E-041
  4.600000000000002E-003    3.335886647331560E-042
  4.700000000000001E-003   -1.017835339395569E-041
  4.800000000000001E-003   -2.649380921544184E-041
  4.900000000000002E-003   -4.427932697373069E-041
  5.000000000000001E-003   -6.164894221831659E-041
  5.100000000000001E-003   -7.626676556600167E-041
  5.200000000000001E-003   -8.552797973123753E-041
  5.300000000000002E-003   -8.681110099258623E-041
  5.400000000000001E-003   -7.778661168549497E-041
  5.500000000000001E-003   -5.675144643362577E-041
  5.600000000000002E-003   -2.295153854980862E-041
  5.700000000000001E-003    2.312638009951301E-041
  5.800000000000001E-003    7.954893488006672E-041
  5.900000000000002E-003    1.428223579393492E-040
  6.000000000000001E-003    2.079031793304751E-040
  6.100000000000001E-003    2.683377756262369E-040
  6.200000000000002E-003    3.165245904333725E-040
  6.300000000000002E-003    3.441078535973117E-040
  6.400000000000001E-003    3.424882073167110E-040
  6.500000000000001E-003    3.034612911152028E-040
  6.600000000000002E-003    2.199915822468260E-040
  6.700000000000001E-003    8.713356230162976E-041
  6.800000000000001E-003   -9.688303556095267E-041
  6.900000000000002E-003   -3.294111261911754E-040
  7.000000000000001E-003   -6.020322174868122E-040
  7.100000000000001E-003   -8.991931233273205E-040
  7.200000000000002E-003   -1.197017192961995E-039
  7.300000000000002E-003   -1.462573562889615E-039
  7.400000000000001E-003   -1.653964649662220E-039
  7.500000000000001E-003   -1.721665535251912E-039
  7.600000000000002E-003   -1.611546944507749E-039
  7.700000000000001E-003   -1.269949427327165E-039
  7.800000000000001E-003   -6.509901662491293E-040
  7.900000000000001E-003    2.740030182804658E-040
  8.000000000000002E-003    1.505439913285191E-039
  8.100000000000001E-003    3.003813962751299E-039
  8.200000000000001E-003    4.678952940303633E-039
  8.300000000000002E-003    6.382205945316460E-039
  8.400000000000001E-003    7.903897293487795E-039
  8.500000000000002E-003    8.978526138675786E-039
  8.600000000000002E-003    9.299909942950373E-039
  8.700000000000001E-003    8.547853447586893E-039
  8.800000000000002E-003    6.426763973596016E-039
  8.900000000000002E-003    2.715093691397574E-039
  9.000000000000001E-003   -2.677480358804213E-039
  9.100000000000002E-003   -9.650367351849293E-039
  9.200000000000002E-003   -1.785723669775767E-038
  9.300000000000001E-003   -2.666525568934855E-038
  9.400000000000002E-003   -3.513874869166535E-038
  9.500000000000001E-003   -4.205781408098617E-038
  9.600000000000001E-003   -4.598124012936765E-038
  9.700000000000002E-003   -4.536030511901220E-038
  9.800000000000001E-003   -3.870548383557605E-038
  9.900000000000001E-003   -2.480189481331677E-038
  1.000000000000000E-002   -2.961580802684168E-039
  1.010000000000000E-002    2.670799459853629E-038
  1.020000000000000E-002    6.304881569910841E-038
  1.030000000000000E-002    1.036480758064456E-037
  1.040000000000000E-002    1.447285501824095E-037
  1.050000000000000E-002    1.811794751007752E-037
  1.060000000000000E-002    2.067711718956491E-037
  1.070000000000000E-002    2.145872648194632E-037
  1.080000000000000E-002    1.976914159552038E-037
  1.090000000000000E-002    1.500203322985586E-037
  1.100000000000000E-002    6.746222026585806E-038
  1.110000000000000E-002   -5.095865112080878E-038
  1.120000000000000E-002   -2.019120371702236E-037
  1.130000000000000E-002   -3.767664161354192E-037
  1.140000000000000E-002   -5.609593762282734E-037
  1.150000000000000E-002   -7.339402231382248E-037
  1.160000000000000E-002   -8.698840579862265E-037
  1.170000000000000E-002   -9.393390346850703E-037
  1.180000000000000E-002   -9.118946186958722E-037
  1.190000000000000E-002   -7.598499775068096E-037
  1.200000000000000E-002   -4.627170447965382E-037
  1.210000000000000E-002   -1.222367218970801E-038
  1.220000000000000E-002    5.826958349719049E-037
  1.230000000000000E-002    1.291596915303537E-036
  1.240000000000000E-002    2.059708650780809E-036
  1.250000000000000E-002    2.807452313647256E-036
  1.260000000000000E-002    3.433093593440092E-036
  1.270000000000000E-002    3.819143782033782E-036
  1.280000000000000E-002    3.842809307209632E-036
  1.290000000000000E-002    3.390328372369297E-036
  1.300000000000000E-002    2.374459168968072E-036
  1.310000000000000E-002    7.537388178387375E-037
  1.320000000000000E-002   -1.448505575367313E-036
  1.330000000000000E-002   -4.127985186311848E-036
  1.340000000000000E-002   -7.089051229466701E-036
  1.350000000000000E-002   -1.004310509358107E-035
  1.360000000000000E-002   -1.261852697738575E-035
  1.370000000000000E-002   -1.438408266121715E-035
  1.380000000000000E-002   -1.488655285259793E-035
  1.390000000000000E-002   -1.370169566408540E-035
  1.400000000000000E-002   -1.049568210074650E-035
  1.410000000000000E-002   -5.092018159932106E-036
  1.420000000000000E-002    2.462990928237705E-036
  1.430000000000000E-002    1.184487706615635E-035
  1.440000000000000E-002    2.241538381700839E-035
  1.450000000000000E-002    3.321614665638739E-035
  1.460000000000000E-002    4.300016165754967E-035
  1.470000000000000E-002    5.030694278444012E-035
  1.480000000000000E-002    5.358345150917652E-035
  1.490000000000000E-002    5.134782670910182E-035
  1.500000000000000E-002    4.238687916723478E-035
  1.510000000000000E-002    2.597224412840114E-035
  1.520000000000000E-002    2.073871663575084E-036
  1.530000000000000E-002   -2.845532812336896E-035
  1.540000000000000E-002   -6.375290499521807E-035
  1.550000000000000E-002   -1.009079339873616E-034
  1.560000000000000E-002   -1.360362385769746E-034
  1.570000000000000E-002   -1.644894516836641E-034
  1.580000000000000E-002   -1.812067289090101E-034
  1.590000000000000E-002   -1.812034629105274E-034
  1.600000000000000E-002   -1.601737923337023E-034
  1.610000000000000E-002   -1.151652328967532E-034
  1.620000000000000E-002   -4.526431441436528E-035
  1.630000000000000E-002    4.778403433791876E-035
  1.640000000000000E-002    1.591117851689528E-034
  1.650000000000000E-002    2.805105166799487E-034
  1.660000000000000E-002    4.005487921970829E-034
  1.670000000000000E-002    5.050932176911706E-034
  1.680000000000000E-002    5.782728729686718E-034
  1.690000000000000E-002    6.038844818663596E-034
  1.700000000000000E-002    5.671831234694871E-034
  1.710000000000000E-002    4.569446272680604E-034
  1.720000000000000E-002    2.676238614068658E-034
  1.730000000000000E-002    1.381275038140858E-036
  1.740000000000000E-002   -3.302932237048981E-034
  1.750000000000000E-002   -7.056466048567562E-034
  1.760000000000000E-002   -1.092696619214425E-033
  1.770000000000000E-002   -1.450461182240225E-033
  1.780000000000000E-002   -1.731524713206418E-033
  1.790000000000000E-002   -1.885956502254981E-033
  1.800000000000000E-002   -1.866440791563478E-033
  1.810000000000000E-002   -1.634299403528247E-033
  1.820000000000000E-002   -1.165908022915714E-033
  1.830000000000000E-002   -4.588470327218933E-034
  1.840000000000000E-002    4.629909267055771E-034
  1.850000000000000E-002    1.546166174922612E-033
  1.860000000000000E-002    2.707119440612662E-033
  1.870000000000000E-002    3.834914129086235E-033