 -4.000000000000000E-002    0.000000000000000E+000
 -3.990000000000000E-002    0.000000000000000E+000
 -3.980000000000000E-002    0.000000000000000E+000
 -3.970000000000000E-002    0.000000000000000E+000
 -3.960000000000000E-002    0.000000000000000E+000
 -3.950000000000000E-002    0.000000000000000E+000
 -3.940000000000000E-002    0.000000000000000E+000
 -3.930000000000000E-002    0.000000000000000E+000
 -3.920000000000000E-002    0.000000000000000E+000
 -3.910000000000000E-002    0.000000000000000E+000
 -3.900000000000000E-002    0.000000000000000E+000
 -3.890000000000000E-002    0.000000000000000E+000
 -3.880000000000000E-002    0.000000000000000E+000
 -3.870000000000000E-002    0.000000000000000E+000
 -3.860000000000000E-002    0.000000000000000E+000
 -3.850000000000000E-002    0.000000000000000E+000
 -3.840000000000000E-002    0.000000000000000E+000
 -3.830000000000000E-002    0.000000000000000E+000
 -3.820000000000000E-002    0.000000000000000E+000
 -3.810000000000000E-002    0.000000000000000E+000
 -3.800000000000000E-002    0.000000000000000E+000
 -3.790000000000000E-002    0.000000000000000E+000
 -3.780000000000000E-002    0.000000000000000E+000
 -3.770000000000000E-002    0.000000000000000E+000
 -3.760000000000000E-002    0.000000000000000E+000
 -3.750000000000000E-002    0.000000000000000E+000
 -3.740000000000000E-002    0.000000000000000E+000
 -3.730000000000000E-002    0.000000000000000E+000
 -3.720000000000000E-002    0.000000000000000E+000
 -3.710000000000000E-002    0.000000000000000E+000
 -3.700000000000000E-002    0.000000000000000E+000
 -3.690000000000000E-002    0.000000000000000E+000
 -3.680000000000000E-002    0.000000000000000E+000
 -3.670000000000000E-002    0.000000000000000E+000
 -3.660000000000000E-002    0.000000000000000E+000
 -3.650000000000000E-002    0.000000000000000E+000
 -3.640000000000000E-002    0.000000000000000E+000
 -3.630000000000000E-002    0.000000000000000E+000
 -3.620000000000000E-002    0.000000000000000E+000
 -3.610000000000000E-002    0.000000000000000E+000
 -3.600000000000000E-002    0.000000000000000E+000
 -3.590000000000000E-002    0.000000000000000E+000
 -3.580000000000000E-002    0.000000000000000E+000
 -3.570000000000000E-002    0.000000000000000E+000
 -3.560000000000000E-002    0.000000000000000E+000
 -3.550000000000000E-002    0.000000000000000E+000
 -3.540000000000000E-002    0.000000000000000E+000
 -3.530000000000000E-002    0.000000000000000E+000
 -3.520000000000000E-002    0.000000000000000E+000
 -3.510000000000000E-002    0.000000000000000E+000
 -3.500000000000000E-002    0.000000000000000E+000
 -3.490000000000000E-002    0.000000000000000E+000
 -3.480000000000000E-002    0.000000000000000E+000
 -3.470000000000000E-002    0.000000000000000E+000
 -3.460000000000000E-002    0.000000000000000E+000
 -3.450000000000000E-002    0.000000000000000E+000
 -3.440000000000000E-002    0.000000000000000E+000
 -3.430000000000000E-002    0.000000000000000E+000
 -3.420000000000000E-002    0.000000000000000E+000
 -3.410000000000000E-002    0.000000000000000E+000
 -3.400000000000000E-002    0.000000000000000E+000
 -3.390000000000000E-002    0.000000000000000E+000
 -3.380000000000000E-002    0.000000000000000E+000
 -3.370000000000000E-002    0.000000000000000E+000
 -3.360000000000000E-002    0.000000000000000E+000
 -3.350000000000000E-002    0.000000000000000E+000
 -3.340000000000000E-002    0.000000000000000E+000
 -3.330000000000000E-002    0.000000000000000E+000
 -3.320000000000000E-002    0.000000000000000E+000
 -3.310000000000000E-002    0.000000000000000E+000
 -3.300000000000000E-002    0.000000000000000E+000
 -3.290000000000000E-002    0.000000000000000E+000
 -3.280000000000000E-002    0.000000000000000E+000
 -3.270000000000000E-002    0.000000000000000E+000
 -3.260000000000000E-002    0.000000000000000E+000
 -3.250000000000000E-002    0.000000000000000E+000
 -3.240000000000000E-002    0.000000000000000E+000
 -3.230000000000000E-002    0.000000000000000E+000
 -3.220000000000000E-002    0.000000000000000E+000
 -3.210000000000000E-002    0.000000000000000E+000
 -3.200000000000000E-002    0.000000000000000E+000
 -3.190000000000000E-002    0.000000000000000E+000
 -3.180000000000000E-002    0.000000000000000E+000
 -3.170000000000000E-002    0.000000000000000E+000
 -3.160000000000000E-002    0.000000000000000E+000
 -3.150000000000000E-002    0.000000000000000E+000
 -3.140000000000000E-002    0.000000000000000E+000
 -3.130000000000000E-002    0.000000000000000E+000
 -3.120000000000000E-002    0.000000000000000E+000
 -3.110000000000000E-002    0.000000000000000E+000
 -3.100000000000000E-002    0.000000000000000E+000
 -3.090000000000000E-002    0.000000000000000E+000
 -3.080000000000000E-002    0.000000000000000E+000
 -3.070000000000000E-002    0.000000000000000E+000
 -3.060000000000000E-002    0.000000000000000E+000
 -3.050000000000000E-002    0.000000000000000E+000
 -3.040000000000000E-002    0.000000000000000E+000
 -3.030000000000000E-002    0.000000000000000E+000
 -3.020000000000000E-002    0.000000000000000E+000
 -3.010000000000000E-002    0.000000000000000E+000
 -3.000000000000000E-002    0.000000000000000E+000
 -2.990000000000000E-002    0.000000000000000E+000
 -2.980000000000000E-002    0.000000000000000E+000
 -2.970000000000000E-002    0.000000000000000E+000
 -2.960000000000000E-002    0.000000000000000E+000
 -2.950000000000000E-002    0.000000000000000E+000
 -2.940000000000000E-002    0.000000000000000E+000
 -2.930000000000000E-002    0.000000000000000E+000
 -2.920000000000000E-002    0.000000000000000E+000
 -2.910000000000000E-002    0.000000000000000E+000
 -2.900000000000000E-002    0.000000000000000E+000
 -2.890000000000000E-002    0.000000000000000E+000
 -2.880000000000000E-002    0.000000000000000E+000
 -2.870000000000000E-002    0.000000000000000E+000
 -2.860000000000000E-002    0.000000000000000E+000
 -2.850000000000000E-002    0.000000000000000E+000
 -2.840000000000000E-002    0.000000000000000E+000
 -2.830000000000000E-002    0.000000000000000E+000
 -2.820000000000000E-002    0.000000000000000E+000
 -2.810000000000000E-002    0.000000000000000E+000
 -2.800000000000000E-002    0.000000000000000E+000
 -2.790000000000000E-002    0.000000000000000E+000
 -2.780000000000000E-002    0.000000000000000E+000
 -2.770000000000000E-002    0.000000000000000E+000
 -2.760000000000000E-002    0.000000000000000E+000
 -2.750000000000000E-002    0.000000000000000E+000
 -2.740000000000000E-002    0.000000000000000E+000
 -2.730000000000000E-002    0.000000000000000E+000
 -2.720000000000000E-002    0.000000000000000E+000
 -2.710000000000000E-002    0.000000000000000E+000
 -2.700000000000000E-002    0.000000000000000E+000
 -2.690000000000000E-002    0.000000000000000E+000
 -2.680000000000000E-002    0.000000000000000E+000
 -2.670000000000000E-002    0.000000000000000E+000
 -2.660000000000000E-002    0.000000000000000E+000
 -2.650000000000000E-002    0.000000000000000E+000
 -2.640000000000000E-002    0.000000000000000E+000
 -2.630000000000000E-002    0.000000000000000E+000
 -2.620000000000000E-002    0.000000000000000E+000
 -2.610000000000000E-002    0.000000000000000E+000
 -2.600000000000000E-002    0.000000000000000E+000
 -2.590000000000000E-002    0.000000000000000E+000
 -2.580000000000000E-002    0.000000000000000E+000
 -2.570000000000000E-002    0.000000000000000E+000
 -2.560000000000000E-002    0.000000000000000E+000
 -2.550000000000000E-002    0.000000000000000E+000
 -2.540000000000000E-002    0.000000000000000E+000
 -2.530000000000000E-002    0.000000000000000E+000
 -2.520000000000000E-002    0.000000000000000E+000
 -2.510000000000000E-002    0.000000000000000E+000
 -2.500000000000000E-002    0.000000000000000E+000
 -2.490000000000000E-002    0.000000000000000E+000
 -2.480000000000000E-002    0.000000000000000E+000
 -2.470000000000000E-002    0.000000000000000E+000
 -2.460000000000000E-002    0.000000000000000E+000
 -2.450000000000000E-002    0.000000000000000E+000
 -2.440000000000000E-002    0.000000000000000E+000
 -2.430000000000000E-002    0.000000000000000E+000
 -2.420000000000000E-002    0.000000000000000E+000
 -2.410000000000000E-002    0.000000000000000E+000
 -2.400000000000000E-002    0.000000000000000E+000
 -2.390000000000000E-002    0.000000000000000E+000
 -2.380000000000000E-002    0.000000000000000E+000
 -2.370000000000000E-002    0.000000000000000E+000
 -2.360000000000000E-002    0.000000000000000E+000
 -2.350000000000000E-002    0.000000000000000E+000
 -2.340000000000000E-002    0.000000000000000E+000
 -2.330000000000000E-002    0.000000000000000E+000
 -2.320000000000000E-002    0.000000000000000E+000
 -2.310000000000000E-002    0.000000000000000E+000
 -2.300000000000000E-002    0.000000000000000E+000
 -2.290000000000000E-002    0.000000000000000E+000
 -2.280000000000000E-002    0.000000000000000E+000
 -2.270000000000000E-002    0.000000000000000E+000
 -2.260000000000000E-002    0.000000000000000E+000
 -2.250000000000000E-002    0.000000000000000E+000
 -2.240000000000000E-002    0.000000000000000E+000
 -2.230000000000000E-002    0.000000000000000E+000
 -2.220000000000000E-002    0.000000000000000E+000
 -2.210000000000000E-002    0.000000000000000E+000
 -2.200000000000000E-002    0.000000000000000E+000
 -2.190000000000000E-002    0.000000000000000E+000
 -2.180000000000000E-002    0.000000000000000E+000
 -2.170000000000000E-002    0.000000000000000E+000
 -2.160000000000000E-002    0.000000000000000E+000
 -2.150000000000000E-002    0.000000000000000E+000
 -2.140000000000000E-002    0.000000000000000E+000
 -2.130000000000000E-002    0.000000000000000E+000
 -2.120000000000000E-002    0.000000000000000E+000
 -2.110000000000000E-002    0.000000000000000E+000
 -2.100000000000000E-002    0.000000000000000E+000
 -2.090000000000000E-002    0.000000000000000E+000
 -2.080000000000000E-002    0.000000000000000E+000
 -2.070000000000000E-002    0.000000000000000E+000
 -2.060000000000000E-002    0.000000000000000E+000
 -2.050000000000000E-002    0.000000000000000E+000
 -2.040000000000000E-002    0.000000000000000E+000
 -2.030000000000000E-002    0.000000000000000E+000
 -2.020000000000000E-002    0.000000000000000E+000
 -2.010000000000000E-002    0.000000000000000E+000
 -2.000000000000000E-002    0.000000000000000E+000
 -1.990000000000000E-002    0.000000000000000E+000
 -1.980000000000000E-002    0.000000000000000E+000
 -1.970000000000000E-002    0.000000000000000E+000
 -1.960000000000000E-002    0.000000000000000E+000
 -1.950000000000000E-002    0.000000000000000E+000
 -1.940000000000000E-002    0.000000000000000E+000
 -1.930000000000000E-002    0.000000000000000E+000
 -1.920000000000000E-002    0.000000000000000E+000
 -1.910000000000000E-002    0.000000000000000E+000
 -1.900000000000000E-002    0.000000000000000E+000
 -1.890000000000000E-002    0.000000000000000E+000
 -1.880000000000000E-002    0.000000000000000E+000
 -1.870000000000000E-002    0.000000000000000E+000
 -1.860000000000000E-002    0.000000000000000E+000
 -1.850000000000000E-002    0.000000000000000E+000
 -1.840000000000000E-002    0.000000000000000E+000
 -1.830000000000000E-002    0.000000000000000E+000
 -1.820000000000000E-002    0.000000000000000E+000
 -1.810000000000000E-002    0.000000000000000E+000
 -1.800000000000000E-002    0.000000000000000E+000
 -1.790000000000000E-002    0.000000000000000E+000
 -1.780000000000000E-002    0.000000000000000E+000
 -1.770000000000000E-002    0.000000000000000E+000
 -1.760000000000000E-002    0.000000000000000E+000
 -1.750000000000000E-002    0.000000000000000E+000
 -1.740000000000000E-002    0.000000000000000E+000
 -1.730000000000000E-002    0.000000000000000E+000
 -1.720000000000000E-002    0.000000000000000E+000
 -1.710000000000000E-002    0.000000000000000E+000
 -1.700000000000000E-002    0.000000000000000E+000
 -1.690000000000000E-002    0.000000000000000E+000
 -1.680000000000000E-002    0.000000000000000E+000
 -1.670000000000000E-002    0.000000000000000E+000
 -1.660000000000000E-002    0.000000000000000E+000
 -1.650000000000000E-002    0.000000000000000E+000
 -1.640000000000000E-002    0.000000000000000E+000
 -1.630000000000000E-002    0.000000000000000E+000
 -1.620000000000000E-002    0.000000000000000E+000
 -1.610000000000000E-002    0.000000000000000E+000
 -1.600000000000000E-002    0.000000000000000E+000
 -1.590000000000000E-002    0.000000000000000E+000
 -1.580000000000000E-002    0.000000000000000E+000
 -1.570000000000000E-002    0.000000000000000E+000
 -1.560000000000000E-002    0.000000000000000E+000
 -1.550000000000000E-002    0.000000000000000E+000
 -1.540000000000000E-002    0.000000000000000E+000
 -1.530000000000000E-002    0.000000000000000E+000
 -1.520000000000000E-002    0.000000000000000E+000
 -1.510000000000000E-002    0.000000000000000E+000
 -1.500000000000000E-002    0.000000000000000E+000
 -1.490000000000000E-002    0.000000000000000E+000
 -1.480000000000000E-002    0.000000000000000E+000
 -1.470000000000000E-002    0.000000000000000E+000
 -1.460000000000000E-002    0.000000000000000E+000
 -1.450000000000000E-002    0.000000000000000E+000
 -1.440000000000000E-002    0.000000000000000E+000
 -1.430000000000000E-002    0.000000000000000E+000
 -1.420000000000000E-002    0.000000000000000E+000
 -1.410000000000000E-002    0.000000000000000E+000
 -1.400000000000000E-002    0.000000000000000E+000
 -1.390000000000000E-002    0.000000000000000E+000
 -1.380000000000000E-002    0.000000000000000E+000
 -1.370000000000000E-002    0.000000000000000E+000
 -1.360000000000000E-002    0.000000000000000E+000
 -1.350000000000000E-002    0.000000000000000E+000
 -1.340000000000000E-002    0.000000000000000E+000
 -1.330000000000000E-002    0.000000000000000E+000
 -1.320000000000000E-002    0.000000000000000E+000
 -1.310000000000000E-002    0.000000000000000E+000
 -1.300000000000000E-002    0.000000000000000E+000
 -1.290000000000000E-002    0.000000000000000E+000
 -1.280000000000000E-002    0.000000000000000E+000
 -1.270000000000000E-002    0.000000000000000E+000
 -1.260000000000000E-002    0.000000000000000E+000
 -1.250000000000000E-002    0.000000000000000E+000
 -1.240000000000000E-002    0.000000000000000E+000
 -1.230000000000000E-002    0.000000000000000E+000
 -1.220000000000000E-002    0.000000000000000E+000
 -1.210000000000000E-002    0.000000000000000E+000
 -1.200000000000000E-002    0.000000000000000E+000
 -1.190000000000000E-002    0.000000000000000E+000
 -1.180000000000000E-002    0.000000000000000E+000
 -1.170000000000000E-002    0.000000000000000E+000
 -1.160000000000000E-002    0.000000000000000E+000
 -1.150000000000000E-002    0.000000000000000E+000
 -1.140000000000000E-002    0.000000000000000E+000
 -1.130000000000000E-002    0.000000000000000E+000
 -1.120000000000000E-002    0.000000000000000E+000
 -1.110000000000000E-002    0.000000000000000E+000
 -1.100000000000000E-002    0.000000000000000E+000
 -1.090000000000000E-002    0.000000000000000E+000
 -1.080000000000000E-002    0.000000000000000E+000
 -1.070000000000000E-002    0.000000000000000E+000
 -1.060000000000000E-002    0.000000000000000E+000
 -1.050000000000000E-002    0.000000000000000E+000
 -1.040000000000000E-002    0.000000000000000E+000
 -1.030000000000000E-002    0.000000000000000E+000
 -1.020000000000000E-002    0.000000000000000E+000
 -1.010000000000000E-002    0.000000000000000E+000
 -1.000000000000000E-002    0.000000000000000E+000
 -9.899999999999999E-003    0.000000000000000E+000
 -9.800000000000000E-003    0.000000000000000E+000
 -9.699999999999999E-003    0.000000000000000E+000
 -9.599999999999999E-003    0.000000000000000E+000
 -9.500000000000000E-003    0.000000000000000E+000
 -9.399999999999999E-003    0.000000000000000E+000
 -9.299999999999999E-003    0.000000000000000E+000
 -9.200000000000000E-003    0.000000000000000E+000
 -9.099999999999999E-003    0.000000000000000E+000
 -8.999999999999999E-003    0.000000000000000E+000
 -8.900000000000000E-003    0.000000000000000E+000
 -8.799999999999999E-003    0.000000000000000E+000
 -8.699999999999999E-003    0.000000000000000E+000
 -8.600000000000000E-003    0.000000000000000E+000
 -8.499999999999999E-003    0.000000000000000E+000
 -8.399999999999999E-003    0.000000000000000E+000
 -8.300000000000000E-003    0.000000000000000E+000
 -8.199999999999999E-003    0.000000000000000E+000
 -8.100000000000000E-003   -1.036108896286169E-048
 -8.000000000000000E-003   -2.072217792572338E-048
 -7.899999999999999E-003   -3.108326688858507E-048
 -7.800000000000000E-003   -3.108326688858507E-048
 -7.699999999999999E-003   -3.108326688858507E-048
 -7.599999999999999E-003   -5.111470605357112E-048
 -7.499999999999999E-003   -6.078505625569548E-048
 -7.399999999999999E-003    1.758329419273637E-049
 -7.299999999999999E-003    6.430171509424276E-048
 -7.199999999999999E-003    1.257775101106756E-047
 -7.100000000000000E-003    1.768922161642467E-047
 -6.999999999999999E-003    2.376772724199422E-047
 -6.899999999999999E-003    2.462800319635302E-047
 -6.800000000000000E-003    2.749142306721043E-047
 -6.699999999999999E-003    2.828262514549551E-047
 -6.599999999999999E-003    4.813922669602199E-047
 -6.499999999999999E-003    6.702879322633604E-047
 -6.399999999999999E-003    8.191207192365288E-047
 -6.299999999999999E-003    7.265355001945590E-047
 -6.199999999999999E-003    4.666291459968860E-047
 -6.100000000000000E-003    9.654455101131121E-048
 -5.999999999999999E-003   -6.275853589573144E-047
 -5.899999999999999E-003   -1.490151360263805E-046
 -5.800000000000000E-003   -2.613603792854176E-046
 -5.699999999999999E-003   -3.944100520406794E-046
 -5.599999999999999E-003   -5.160077330339605E-046
 -5.499999999999999E-003   -6.257726557109941E-046
 -5.399999999999999E-003   -6.817422015545195E-046
 -5.299999999999999E-003   -7.819193220443068E-046
 -5.199999999999999E-003   -7.259051631322515E-046
 -5.099999999999999E-003   -5.827842762701740E-046
 -4.999999999999999E-003   -1.176284635002736E-046
 -4.899999999999999E-003    5.293192247287008E-046
 -4.799999999999999E-003    1.680373496894205E-045
 -4.699999999999999E-003    3.240131566080578E-045
 -4.599999999999999E-003    4.911704895402559E-045
 -4.499999999999999E-003    7.186707698730657E-045
 -4.399999999999999E-003    9.099545916426263E-045
 -4.299999999999999E-003    1.070349211769176E-044
 -4.199999999999999E-003    1.102892775631981E-044
 -4.099999999999999E-003    9.860636518739566E-045
 -3.999999999999999E-003    5.949530626930631E-045
 -3.899999999999999E-003   -1.226870802410431E-045
 -3.799999999999999E-003   -1.254571891550960E-044
 -3.699999999999999E-003   -2.710526437020808E-044
 -3.599999999999999E-003   -4.366535052725627E-044
 -3.499999999999999E-003   -5.990337530750295E-044
 -3.399999999999999E-003   -7.325161800711011E-044
 -3.299999999999999E-003   -7.933323466446422E-044
 -3.199999999999999E-003   -7.320458598575211E-044
 -3.099999999999999E-003   -5.098091374888808E-044
 -2.999999999999999E-003   -7.489002172598035E-045
 -2.899999999999999E-003    5.738810269830862E-044
 -2.799999999999999E-003    1.420368625099682E-043
 -2.699999999999999E-003    2.392649964740928E-043
 -2.599999999999999E-003    3.369222161801287E-043
 -2.499999999999999E-003    4.176916660965646E-043
 -2.399999999999999E-003    4.601134116830979E-043
 -2.299999999999999E-003    4.404317404609128E-043
 -2.199999999999999E-003    3.351070716403044E-043
 -2.099999999999999E-003    1.259074840805903E-043
 -1.999999999999999E-003   -1.925204716153752E-043
 -1.899999999999999E-003   -6.095396530874543E-043
 -1.799999999999999E-003   -1.093129865303055E-042
 -1.699999999999999E-003   -1.588157373486542E-042
 -1.599999999999999E-003   -2.015281179063584E-042
 -1.499999999999999E-003   -2.276215850672920E-042
 -1.399999999999999E-003   -2.264997475553342E-042
 -1.299999999999999E-003   -1.879057401877816E-042
 -1.199999999999999E-003   -1.040572161905445E-042
 -1.099999999999999E-003    2.827787533229542E-043
 -9.999999999999989E-004    2.056498343963694E-042
 -8.999999999999990E-004    4.160368712163213E-042
 -7.999999999999990E-004    6.384148454287196E-042
 -6.999999999999989E-004    8.421173887815359E-042
 -5.999999999999990E-004    9.892469687032792E-042
 -4.999999999999989E-004    1.037808559024546E-041
 -3.999999999999989E-004    9.466409448909736E-042
 -2.999999999999989E-004    6.821670990698963E-042
 -1.999999999999989E-004    2.253793561185865E-042
 -9.999999999999892E-005   -4.203081966874515E-042
  1.084202172485504E-018   -1.223116436590628E-041
  1.000000000000011E-004   -2.118905373399056E-041
  2.000000000000011E-004   -3.010143474326068E-041
  3.000000000000011E-004   -3.770300443246426E-041
  4.000000000000011E-004   -4.251959176570137E-041
  5.000000000000011E-004   -4.301091241828759E-041
  6.000000000000011E-004   -3.775628073734098E-041
  7.000000000000011E-004   -2.567233245590965E-041
  8.000000000000011E-004   -6.246800511942567E-042
  9.000000000000012E-004    2.023202056128637E-041
  1.000000000000001E-003    5.248824373741696E-041
  1.100000000000001E-003    8.813863360037305E-041
  1.200000000000001E-003    1.236623930928715E-040
  1.300000000000001E-003    1.545042750419760E-040
  1.400000000000001E-003    1.753109042498046E-040
  1.500000000000001E-003    1.803311715464471E-040
  1.600000000000001E-003    1.639675163321992E-040
  1.700000000000001E-003    1.214778023734149E-040
  1.800000000000001E-003    4.979188504623169E-041
  1.900000000000001E-003   -5.160079527564961E-041
  2.000000000000001E-003   -1.797662974241691E-040
  2.100000000000001E-003   -3.275382516888945E-040
  2.200000000000001E-003   -4.829577672021755E-040
  2.300000000000001E-003   -6.290896296173284E-040
  2.400000000000001E-003   -7.443825513917689E-040
  2.500000000000001E-003   -8.037415330639839E-040
  2.600000000000001E-003   -7.804610696631208E-040
  2.700000000000001E-003   -6.490920582708721E-040
  2.800000000000001E-003   -3.892355823101725E-040
  2.900000000000001E-003    9.911348756561776E-042
  3.000000000000001E-003    5.446065215874472E-040
  3.100000000000001E-003    1.191762515953893E-039
  3.200000000000001E-003    1.905076539093290E-039
  3.300000000000001E-003    2.613003840686145E-039
  3.400000000000001E-003    3.219590595964281E-039
  3.500000000000001E-003    3.609114792850375E-039
  3.600000000000001E-003    3.655245151840787E-039
  3.700000000000001E-003    3.234987754774987E-039
  3.800000000000001E-003    2.247044220460829E-039
  3.900000000000001E-003    6.333868532176883E-040
  4.000000000000001E-003   -1.598046124451462E-039
  4.100000000000001E-003   -4.352526362401581E-039
  4.200000000000001E-003   -7.433257586720701E-039
  4.300000000000001E-003   -1.053568206075627E-038
  4.400000000000001E-003   -1.325522183314673E-038
  4.500000000000001E-003   -1.511150598137148E-038
  4.600000000000002E-003   -1.559058979255068E-038
  4.700000000000001E-003   -1.420449045175105E-038
  4.800000000000001E-003   -1.056464810353795E-038
  4.900000000000002E-003   -4.462971261022604E-039
  5.000000000000001E-003    4.048657911476757E-039
  5.100000000000001E-003    1.459173519281407E-038
  5.200000000000001E-003    2.641974412335289E-038
  5.300000000000002E-003    3.841403017170362E-038
  5.400000000000001E-003    4.912678522752883E-038
  5.500000000000001E-003    5.687690885051785E-038
  5.600000000000002E-003    5.989893690088203E-038
  5.700000000000001E-003    5.653827908112594E-038
  5.800000000000001E-003    4.547882215566899E-038
  5.900000000000002E-003    2.598207673031998E-038
  6.000000000000001E-003   -1.888261310803873E-039
  6.100000000000001E-003   -3.708546625471411E-038
  6.200000000000002E-003   -7.747167402201198E-038
  6.300000000000002E-003   -1.198080450455201E-037
  6.400000000000001E-003   -1.598617951135660E-037
  6.500000000000001E-003   -1.926392158935478E-037
  6.600000000000002E-003   -2.127422348042983E-037
  6.700000000000001E-003   -2.148340380639135E-037
  6.800000000000001E-003   -1.941878078385819E-037
  6.900000000000002E-003   -1.472829365461706E-037
  7.000000000000001E-003   -7.240595669805422E-038
  7.100000000000001E-003    2.979134494878258E-038
  7.200000000000002E-003    1.558256403384021E-037
  7.300000000000002E-003    2.990572141120926E-037
  7.400000000000001E-003    4.495549854767742E-037
  7.500000000000001E-003    5.941984160559360E-037
  7.600000000000002E-003    7.170619002428130E-037
  7.700000000000001E-003    8.001234313782167E-037
  7.800000000000001E-003    8.243334706574843E-037
  7.900000000000001E-003    7.710676443823912E-037
  8.000000000000002E-003    6.239646091216546E-037
  8.100000000000001E-003    3.711159891239169E-037
  8.200000000000001E-003    7.526987240773515E-039
  8.300000000000002E-003   -4.622982436683565E-037
  8.400000000000001E-003   -1.021865487890225E-036
  8.500000000000002E-003   -1.640593394304534E-036
  8.600000000000002E-003   -2.272479232043447E-036
  8.700000000000001E-003   -2.855949920679716E-036
  8.800000000000002E-003   -3.315333492298268E-036
  8.900000000000002E-003   -3.564350785743751E-036
  9.000000000000001E-003   -3.511923088394970E-036
  9.100000000000002E-003   -3.070419353083631E-036
  9.200000000000002E-003   -2.166220357333040E-036
  9.300000000000001E-003   -7.521706852160405E-037
  9.400000000000002E-003    1.178867456239827E-036
  9.500000000000001E-003    3.580502715502356E-036
  9.600000000000001E-003    6.340849013126506E-036
  9.700000000000002E-003    9.273885733594505E-036
  9.800000000000001E-003    1.211612223556975E-035
  9.900000000000001E-003    1.453057791032540E-035
  1.000000000000000E-002    1.611994990092889E-035
  1.010000000000000E-002    1.645047468276197E-035
  1.020000000000000E-002    1.508737363725363E-035
  1.030000000000000E-002    1.164186764015926E-035
  1.040000000000000E-002    5.828558289224191E-036
  1.050000000000000E-002   -2.469522006906339E-036
  1.060000000000000E-002   -1.313262094584700E-035
  1.070000000000000E-002   -2.573912245576784E-035
  1.080000000000000E-002   -3.951188595021289E-035
  1.090000000000000E-002   -5.328623351641688E-035
  1.100000000000000E-002   -6.551108754117285E-035
  1.110000000000000E-002   -7.429518883080211E-035
  1.120000000000000E-002   -7.750950481704718E-035
  1.130000000000000E-002   -7.295420989078236E-035
  1.140000000000000E-002   -5.859369569122552E-035
  1.150000000000000E-002   -3.285562802121443E-035
  1.160000000000000E-002    5.019955540030575E-036
  1.170000000000000E-002    5.460743104058224E-035
  1.180000000000000E-002    1.139375900881661E-034
  1.190000000000000E-002    1.792069058811901E-034
  1.200000000000000E-002    2.446166043021465E-034
  1.210000000000000E-002    3.024095603565846E-034
  1.220000000000000E-002    3.431708685942657E-034
  1.230000000000000E-002    3.564455097361933E-034
  1.240000000000000E-002    3.317018645981658E-034
  1.250000000000000E-002    2.596325452170808E-034
  1.260000000000000E-002    1.337344390105743E-034
  1.270000000000000E-002   -4.794807569632774E-035
  1.280000000000000E-002   -2.810943845090678E-034
  1.290000000000000E-002   -5.536277424530666E-034
  1.300000000000000E-002   -8.447615286080327E-034
  1.310000000000000E-002   -1.124866452144432E-033
  1.320000000000000E-002   -1.356435957475254E-033
  1.330000000000000E-002   -1.496366498028040E-033
  1.340000000000000E-002   -1.499659786586952E-033
  1.350000000000000E-002   -1.324496390659827E-033
  1.360000000000000E-002   -9.384345268268174E-034
  1.370000000000000E-002   -3.252666820788888E-034
  1.380000000000000E-002    5.081560920217117E-034
  1.390000000000000E-002    1.526016688805736E-033
  1.400000000000000E-002    2.659555046611813E-033
  1.410000000000000E-002    3.806075206576574E-033
  1.420000000000000E-002    4.831895700553061E-033
  1.430000000000000E-002    5.579965939805647E-033
  1.440000000000000E-002    5.882478783843431E-033
  1.450000000000000E-002    5.578266502432482E-033
  1.460000000000000E-002    4.534124297590817E-033
  1.470000000000000E-002    2.668485698646653E-033
  1.480000000000000E-002   -2.481256893400019E-035
  1.490000000000000E-002   -3.455539603258270E-033
  1.500000000000000E-002   -7.422101862653357E-033
  1.510000000000000E-002   -1.160594269679499E-032
  1.520000000000000E-002   -1.557837764214681E-032
  1.530000000000000E-002   -1.882220312589743E-032
  1.540000000000000E-002   -2.076926445389267E-032
  1.550000000000000E-002   -2.085357057349171E-032
  1.560000000000000E-002   -1.857762097249206E-032
  1.570000000000000E-002   -1.358751090167828E-032
  1.580000000000000E-002   -5.750266558233010E-033
  1.590000000000000E-002    4.774958211282035E-033
  1.600000000000000E-002    1.748154460926597E-032
  1.610000000000000E-002    3.148617353393382E-032
  1.620000000000000E-002    4.553539480731185E-032
  1.630000000000000E-002    5.805601041841033E-032
  1.640000000000000E-002    6.725419567705333E-032
  1.650000000000000E-002    7.126394131578639E-032
  1.660000000000000E-002    6.833994041720230E-032
  1.670000000000000E-002    5.708385239287578E-032
  1.680000000000000E-002    3.668642210482560E-032
  1.690000000000000E-002    7.161914091230024E-033
  1.700000000000000E-002   -3.045342064534050E-032
  1.710000000000000E-002   -7.396987053036048E-032
  1.720000000000000E-002   -1.200107000880014E-031
  1.730000000000000E-002   -1.641036168263816E-031
  1.740000000000000E-002   -2.009168398362107E-031
  1.750000000000000E-002   -2.246474547032185E-031
  1.760000000000000E-002   -2.295544982313910E-031
  1.770000000000000E-002   -2.106108090427260E-031
  1.780000000000000E-002   -1.642283787898366E-031
  1.790000000000000E-002   -8.899269485344889E-032
  1.800000000000000E-002    1.367418992026765E-032
  1.810000000000000E-002    1.390128411851028E-031
  1.820000000000000E-002    2.786811467242117E-031
  1.830000000000000E-002    4.208505669401819E-031
  1.840000000000000E-002    5.507104422407397E-031
  1.850000000000000E-002    6.514158408310847E-031
  1.860000000000000E-002    7.054727490162548E-031
  1.870000000000000E-002    6.965029396290380E-031