 -4.000000000000000E-002    0.000000000000000E+000
 -3.990000000000000E-002    0.000000000000000E+000
 -3.980000000000000E-002   -1.511918601716333E-013
 -3.970000000000000E-002   -5.124311833361292E-013
 -3.960000000000000E-002   -6.232535538283351E-013
 -3.950000000000000E-002    9.639312672470155E-013
 -3.940000000000000E-002    7.006891271827923E-012
 -3.930000000000000E-002    2.156492067312927E-011
 -3.920000000000000E-002    4.951536951526850E-011
 -3.910000000000000E-002    9.553692831770364E-011
 -3.900000000000000E-002    1.626120788631364E-010
 -3.890000000000000E-002    2.502223091870742E-010
 -3.880000000000000E-002    3.525146905367625E-010
 -3.870000000000000E-002    4.567889440227053E-010
 -3.860000000000000E-002    5.426730630301521E-010
 -3.850000000000000E-002    5.823113521042409E-010
 -3.840000000000000E-002    5.417925123850507E-010
 -3.830000000000000E-002    3.838793354257339E-010
 -3.820000000000000E-002    7.193437922063377E-011
 -3.810000000000000E-002   -4.252613934725444E-010
 -3.800000000000000E-002   -1.128254718200303E-009
 -3.790000000000000E-002   -2.041804030988447E-009
 -3.780000000000000E-002   -3.150513084224146E-009
 -3.770000000000000E-002   -4.415784994686603E-009
 -3.760000000000000E-002   -5.774546605444598E-009
 -3.750000000000000E-002   -7.140010189119466E-009
 -3.740000000000000E-002   -8.404516488986442E-009
 -3.730000000000000E-002   -9.444265510643985E-009
 -3.720000000000000E-002   -1.012554409066215E-008
 -3.710000000000000E-002   -1.031190859494670E-008
 -3.700000000000000E-002   -9.871714854729602E-009
 -3.690000000000000E-002   -8.685421786911455E-009
 -3.680000000000000E-002   -6.652209554003108E-009
 -3.670000000000000E-002   -3.695639095141610E-009
 -3.660000000000000E-002    2.317135572088190E-010
 -3.650000000000000E-002    5.144478734631540E-009
 -3.640000000000000E-002    1.102126387596814E-008
 -3.630000000000000E-002    1.780159553155864E-008
 -3.620000000000000E-002    2.538268943640422E-008
 -3.610000000000000E-002    3.361591366827557E-008
 -3.600000000000000E-002    4.230304629561314E-008
 -3.590000000000000E-002    5.119284948896252E-008
 -3.580000000000000E-002    5.997878787680792E-008
 -3.570000000000000E-002    6.829908935291846E-008
 -3.560000000000000E-002    7.574050635564588E-008
 -3.550000000000000E-002    8.184710443315065E-008
 -3.540000000000000E-002    8.613520267121799E-008
 -3.530000000000000E-002    8.811504765324024E-008
 -3.520000000000000E-002    8.731903198557736E-008
 -3.510000000000000E-002    8.333544467871306E-008
 -3.500000000000000E-002    7.584566920206039E-008
 -3.490000000000000E-002    6.466185473559739E-008
 -3.480000000000000E-002    4.976138486202580E-008
 -3.470000000000000E-002    3.131402917395458E-008
 -3.460000000000000E-002    9.697737530125075E-009
 -3.450000000000000E-002   -1.450039759919510E-008
 -3.440000000000000E-002   -4.050046702048257E-008
 -3.430000000000000E-002   -6.736415970761974E-008
 -3.420000000000000E-002   -9.404641576992014E-008
 -3.410000000000000E-002   -1.194611905824253E-007
 -3.400000000000000E-002   -1.425565994560214E-007
 -3.390000000000000E-002   -1.623928879283880E-007
 -3.380000000000000E-002   -1.782157561490687E-007
 -3.370000000000000E-002   -1.895173162969626E-007
 -3.360000000000000E-002   -1.960775807584583E-007
 -3.350000000000000E-002   -1.979806704593244E-007
 -3.340000000000000E-002   -1.956025101411105E-007
 -3.330000000000000E-002   -1.895693029510039E-007
 -3.320000000000000E-002   -1.806893805556796E-007
 -3.310000000000000E-002   -1.698642071970809E-007
 -3.300000000000000E-002   -1.579867579148405E-007
 -3.290000000000000E-002   -1.458376681545359E-007
 -3.280000000000000E-002   -1.339902268044787E-007
 -3.270000000000000E-002   -1.227350110413835E-007
 -3.260000000000000E-002   -1.120332742510292E-007
 -3.250000000000000E-002   -1.015054930826180E-007
 -3.240000000000000E-002   -9.045768835257480E-008
 -3.230000000000000E-002   -7.794394639011826E-008
 -3.220000000000000E-002   -6.285951213865357E-008
 -3.210000000000000E-002   -4.405459595659681E-008
 -3.200000000000000E-002   -2.045680327263172E-008
 -3.190000000000000E-002    8.812145195889514E-009
 -3.180000000000000E-002    4.433904251447152E-008
 -3.170000000000000E-002    8.635384714860637E-008
 -3.160000000000000E-002    1.347050298744650E-007
 -3.150000000000000E-002    1.888811636428532E-007
 -3.140000000000000E-002    2.480776605403135E-007
 -3.130000000000000E-002    3.113038746851391E-007
 -3.120000000000000E-002    3.775196630989763E-007
 -3.110000000000000E-002    4.457879271694594E-007
 -3.100000000000000E-002    5.154262302805313E-007
 -3.090000000000000E-002    5.861410474195881E-007
 -3.080000000000000E-002    6.581293499866092E-007
 -3.070000000000000E-002    7.321349027124534E-007
 -3.060000000000000E-002    8.094520868030454E-007
 -3.050000000000000E-002    8.918753497893141E-007
 -3.040000000000000E-002    9.815970160067939E-007
 -3.030000000000000E-002    1.081064212374902E-006
 -3.020000000000000E-002    1.192806469268559E-006
 -3.010000000000000E-002    1.319252245116147E-006
 -3.000000000000000E-002    1.462549685583165E-006
 -2.990000000000000E-002    1.624409067552129E-006
 -2.980000000000000E-002    1.805981186802063E-006
 -2.970000000000000E-002    2.007778316631147E-006
 -2.960000000000000E-002    2.229646043746924E-006
 -2.950000000000000E-002    2.470780898793706E-006
 -2.940000000000000E-002    2.729790666117707E-006
 -2.930000000000000E-002    3.004786888356134E-006
 -2.920000000000000E-002    3.293496155407835E-006
 -2.910000000000000E-002    3.593378884752978E-006
 -2.900000000000000E-002    3.901741970077252E-006
 -2.890000000000000E-002    4.215836221467863E-006
 -2.880000000000000E-002    4.532933183164066E-006
 -2.870000000000000E-002    4.850375743508686E-006
 -2.860000000000000E-002    5.165609873003896E-006
 -2.850000000000000E-002    5.476194833260749E-006
 -2.840000000000000E-002    5.779808815725214E-006
 -2.830000000000000E-002    6.074246779464707E-006
 -2.820000000000000E-002    6.357426404781424E-006
 -2.810000000000000E-002    6.627404671597641E-006
 -2.800000000000000E-002    6.882402695833845E-006
 -2.790000000000000E-002    7.120846486802457E-006
 -2.780000000000000E-002    7.341409540395624E-006
 -2.770000000000000E-002    7.543056248029091E-006
 -2.760000000000000E-002    7.725073421225798E-006
 -2.750000000000000E-002    7.887085027148809E-006
 -2.740000000000000E-002    8.029033931979265E-006
 -2.730000000000000E-002    8.151142393590321E-006
 -2.720000000000000E-002    8.253830444427090E-006
 -2.710000000000000E-002    8.337611299993123E-006
 -2.700000000000000E-002    8.402968241505678E-006
 -2.690000000000000E-002    8.450218935633495E-006
 -2.680000000000000E-002    8.479387835903063E-006
 -2.670000000000000E-002    8.490100957309332E-006
 -2.660000000000000E-002    8.481504822754094E-006
 -2.650000000000000E-002    8.452235751197894E-006
 -2.640000000000000E-002    8.400431363805958E-006
 -2.630000000000000E-002    8.323783024366024E-006
 -2.620000000000000E-002    8.219634127045497E-006
 -2.610000000000000E-002    8.085102086786007E-006
 -2.600000000000000E-002    7.917207840184886E-006
 -2.590000000000000E-002    7.713009994326503E-006
 -2.580000000000000E-002    7.469709212346168E-006
 -2.570000000000000E-002    7.184730701215920E-006
 -2.560000000000000E-002    6.855746555742829E-006
 -2.550000000000000E-002    6.480665845710099E-006
 -2.540000000000000E-002    6.057574517083662E-006
 -2.530000000000000E-002    5.584636382697315E-006
 -2.520000000000000E-002    5.059986109433584E-006
 -2.510000000000000E-002    4.481598022944424E-006
 -2.500000000000000E-002    3.847165319495547E-006
 -2.490000000000000E-002    3.154002808692443E-006
 -2.480000000000000E-002    2.398985877622925E-006
 -2.470000000000000E-002    1.578519172734474E-006
 -2.460000000000000E-002    6.885404655230625E-007
 -2.450000000000000E-002   -2.754508656016047E-007
 -2.440000000000000E-002   -1.318352608595347E-006
 -2.430000000000000E-002   -2.445395835559050E-006
 -2.420000000000000E-002   -3.662148411829157E-006
 -2.410000000000000E-002   -4.974490104852992E-006
 -2.400000000000000E-002   -6.388653453059752E-006
 -2.390000000000000E-002   -7.911333311163676E-006
 -2.380000000000000E-002   -9.549769276726179E-006
 -2.370000000000000E-002   -1.131191601831776E-005
 -2.360000000000000E-002   -1.320657915799857E-005
 -2.350000000000000E-002   -1.524359824696519E-005
 -2.340000000000000E-002   -1.743392417260085E-005
 -2.330000000000000E-002   -1.978970121697117E-005
 -2.320000000000000E-002   -2.232431777048617E-005
 -2.310000000000000E-002   -2.505230218840052E-005
 -2.300000000000000E-002   -2.798929006769304E-005
 -2.290000000000000E-002   -3.115181953025458E-005
 -2.280000000000000E-002   -3.455718593915211E-005
 -2.270000000000000E-002   -3.822327631813353E-005
 -2.260000000000000E-002   -4.216841798638214E-005
 -2.250000000000000E-002   -4.641132163565092E-005
 -2.240000000000000E-002   -5.097111505653896E-005
 -2.230000000000000E-002   -5.586738460579343E-005
 -2.220000000000000E-002   -6.112039940706479E-005
 -2.210000000000000E-002   -6.675134164922235E-005
 -2.200000000000000E-002   -7.278270417835310E-005
 -2.190000000000000E-002   -7.923858953083473E-005
 -2.180000000000000E-002   -8.614504476037444E-005
 -2.170000000000000E-002   -9.353040634609216E-005
 -2.160000000000000E-002   -1.014254792858073E-004
 -2.150000000000000E-002   -1.098636216074318E-004
 -2.140000000000000E-002   -1.188808236724986E-004
 -2.130000000000000E-002   -1.285155199066174E-004
 -2.120000000000000E-002   -1.388084295609975E-004
 -2.110000000000000E-002   -1.498022192651869E-004
 -2.100000000000000E-002   -1.615413683343044E-004
 -2.090000000000000E-002   -1.740717566796538E-004
 -2.080000000000000E-002   -1.874406253872004E-004
 -2.070000000000000E-002   -2.016964295059536E-004
 -2.060000000000000E-002   -2.168889856588179E-004
 -2.050000000000000E-002   -2.330696607611101E-004
 -2.040000000000000E-002   -2.502919231861486E-004
 -2.030000000000000E-002   -2.686115663665582E-004
 -2.020000000000000E-002   -2.880875406503917E-004
 -2.010000000000000E-002   -3.087824885910404E-004
 -2.000000000000000E-002   -3.307632413039718E-004
 -1.990000000000000E-002   -3.541014298491297E-004
 -1.980000000000000E-002   -3.788737247620988E-004
 -1.970000000000000E-002   -4.051621410872606E-004
 -1.960000000000000E-002   -4.330540024278084E-004
 -1.950000000000000E-002   -4.626418199222349E-004
 -1.940000000000000E-002   -4.940229208783732E-004
 -1.930000000000000E-002   -5.272993714083199E-004
 -1.920000000000000E-002   -5.625773523180234E-004
 -1.910000000000000E-002   -5.999669749863534E-004
 -1.900000000000000E-002   -6.395821975891291E-004
 -1.890000000000000E-002   -6.815407305809342E-004
 -1.880000000000000E-002   -7.259640927540892E-004
 -1.870000000000000E-002   -7.729779481862129E-004
 -1.860000000000000E-002   -8.227129658638666E-004
 -1.850000000000000E-002   -8.753053668992817E-004
 -1.840000000000000E-002   -9.308973852520372E-004
 -1.830000000000000E-002   -9.896383557963892E-004
 -1.820000000000000E-002   -1.051685543775193E-003
 -1.810000000000000E-002   -1.117204752601785E-003
 -1.800000000000000E-002   -1.186370316594801E-003
 -1.790000000000000E-002   -1.259366216200356E-003
 -1.780000000000000E-002   -1.336385347255987E-003
 -1.770000000000000E-002   -1.417629760839700E-003
 -1.760000000000000E-002   -1.503310612312606E-003
 -1.750000000000000E-002   -1.593647871762863E-003
 -1.740000000000000E-002   -1.688869282743261E-003
 -1.730000000000000E-002   -1.789211085270920E-003
 -1.720000000000000E-002   -1.894917381329187E-003
 -1.710000000000000E-002   -2.006240381851247E-003
 -1.700000000000000E-002   -2.123440601946294E-003
 -1.690000000000000E-002   -2.246787843392894E-003
 -1.680000000000000E-002   -2.376561103120836E-003
 -1.670000000000000E-002   -2.513050455666113E-003
 -1.660000000000000E-002   -2.656556930384833E-003
 -1.650000000000000E-002   -2.807394333503388E-003
 -1.640000000000000E-002   -2.965889260165145E-003
 -1.630000000000000E-002   -3.132382558363828E-003
 -1.620000000000000E-002   -3.307229324286838E-003
 -1.610000000000000E-002   -3.490799513830255E-003
 -1.600000000000000E-002   -3.683478643292157E-003
 -1.590000000000000E-002   -3.885665428679174E-003
 -1.580000000000000E-002   -4.097775081150076E-003
 -1.570000000000000E-002   -4.320235141109750E-003
 -1.560000000000000E-002   -4.553489877129092E-003
 -1.550000000000000E-002   -4.797995521171686E-003
 -1.540000000000000E-002   -5.054222910635025E-003
 -1.530000000000000E-002   -5.322657849477555E-003
 -1.520000000000000E-002   -5.603800055738507E-003
 -1.510000000000000E-002   -5.898164931961508E-003
 -1.500000000000000E-002   -6.206284148279309E-003
 -1.490000000000000E-002   -6.528705541226751E-003
 -1.480000000000000E-002   -6.865995591851234E-003
 -1.470000000000000E-002   -7.218739033022405E-003
 -1.460000000000000E-002   -7.587540575333966E-003
 -1.450000000000000E-002   -7.973024676837926E-003
 -1.440000000000000E-002   -8.375836139539738E-003
 -1.430000000000000E-002   -8.796639417267242E-003
 -1.420000000000000E-002   -9.236122063676850E-003
 -1.410000000000000E-002   -9.694990862038884E-003
 -1.400000000000000E-002   -1.017397420419807E-002
 -1.390000000000000E-002   -1.067381895701792E-002
 -1.380000000000000E-002   -1.119529408669192E-002
 -1.370000000000000E-002   -1.173918943544557E-002
 -1.360000000000000E-002   -1.230631303815965E-002
 -1.350000000000000E-002   -1.289749677789648E-002
 -1.340000000000000E-002   -1.351359099961351E-002
 -1.330000000000000E-002   -1.415546785274062E-002
 -1.320000000000000E-002   -1.482402376626243E-002
 -1.310000000000000E-002   -1.552017428668405E-002
 -1.300000000000000E-002   -1.624486270392085E-002
 -1.290000000000000E-002   -1.699905674163906E-002
 -1.280000000000000E-002   -1.778374340144525E-002
 -1.270000000000000E-002   -1.859993641276347E-002
 -1.260000000000000E-002   -1.944867808896166E-002
 -1.250000000000000E-002   -2.033102793833707E-002
 -1.240000000000000E-002   -2.124807389618391E-002
 -1.230000000000000E-002   -2.220092776645816E-002
 -1.220000000000000E-002   -2.319072192892700E-002
 -1.210000000000000E-002   -2.421861450926498E-002
 -1.200000000000000E-002   -2.528578391612936E-002
 -1.190000000000000E-002   -2.639343010423680E-002
 -1.180000000000000E-002   -2.754277643829003E-002
 -1.170000000000000E-002   -2.873507013345023E-002
 -1.160000000000000E-002   -2.997157648310139E-002
 -1.150000000000000E-002   -3.125358780757941E-002
 -1.140000000000000E-002   -3.258241642702493E-002
 -1.130000000000000E-002   -3.395939705991347E-002
 -1.120000000000000E-002   -3.538588872005902E-002
 -1.110000000000000E-002   -3.686326711030729E-002
 -1.100000000000000E-002   -3.839293863580966E-002
 -1.090000000000000E-002   -3.997632293874331E-002
 -1.080000000000000E-002   -4.161486274016643E-002
 -1.070000000000000E-002   -4.331001908917443E-002
 -1.060000000000000E-002   -4.506327512460688E-002
 -1.050000000000000E-002   -4.687611985826758E-002
 -1.040000000000000E-002   -4.875007092535044E-002
 -1.030000000000000E-002   -5.068665612380432E-002
 -1.020000000000000E-002   -5.268741869831785E-002
 -1.010000000000000E-002   -5.475391295664972E-002
 -1.000000000000000E-002   -5.688771044516620E-002
 -9.899999999999999E-003   -5.909039010321879E-002
 -9.800000000000000E-003   -6.136354437805588E-002
 -9.699999999999999E-003   -6.370877279812956E-002
 -9.599999999999999E-003   -6.612768879435700E-002
 -9.500000000000000E-003   -6.862191651999215E-002
 -9.399999999999999E-003   -7.119307993210398E-002
 -9.299999999999999E-003   -7.384281445106089E-002
 -9.200000000000000E-003   -7.657275710646455E-002
 -9.099999999999999E-003   -7.938454250907699E-002
 -8.999999999999999E-003   -8.227980793810585E-002
 -8.900000000000000E-003   -8.526019669120900E-002
 -8.799999999999999E-003   -8.832734293041519E-002
 -8.699999999999999E-003   -9.148286738589911E-002
 -8.600000000000000E-003   -9.472839364474155E-002
 -8.499999999999999E-003   -9.806552778306911E-002
 -8.399999999999999E-003   -0.101495871746691     
 -8.300000000000000E-003   -0.105021008616779     
 -8.199999999999999E-003   -0.108642506957584     
 -8.100000000000000E-003   -0.112361902347801     
 -8.000000000000000E-003   -0.116180738791312     
 -7.899999999999999E-003   -0.120100525759225     
 -7.800000000000000E-003   -0.124122738055199     
 -7.699999999999999E-003   -0.128248834066334     
 -7.599999999999999E-003   -0.132480262857522     
 -7.499999999999999E-003   -0.136818403263610     
 -7.399999999999999E-003   -0.141264618787128     
 -7.299999999999999E-003   -0.145820236038265     
 -7.199999999999999E-003   -0.150486533393856     
 -7.100000000000000E-003   -0.155264746868419     
 -6.999999999999999E-003   -0.160156067475484     
 -6.899999999999999E-003   -0.165161630408594     
 -6.800000000000000E-003   -0.170282515306148     
 -6.699999999999999E-003   -0.175519768043402     
 -6.599999999999999E-003   -0.180874331909210     
 -6.499999999999999E-003   -0.186347141330905     
 -6.399999999999999E-003   -0.191939010724012     
 -6.299999999999999E-003   -0.197650734264498     
 -6.199999999999999E-003   -0.203482991675213     
 -6.100000000000000E-003   -0.209436424638834     
 -5.999999999999999E-003   -0.215511582400620     
 -5.899999999999999E-003   -0.221708927706390     
 -5.800000000000000E-003   -0.228028839672097     
 -5.699999999999999E-003   -0.234471612528096     
 -5.599999999999999E-003   -0.241037428819840     
 -5.499999999999999E-003   -0.247726399454143     
 -5.399999999999999E-003   -0.254538517365393     
 -5.299999999999999E-003   -0.261473665922492     
 -5.199999999999999E-003   -0.268531631499640     
 -5.099999999999999E-003   -0.275712090853682     
 -4.999999999999999E-003   -0.283014586842469     
 -4.899999999999999E-003   -0.290438554256912     
 -4.799999999999999E-003   -0.297983314045833     
 -4.699999999999999E-003   -0.305648065121310     
 -4.599999999999999E-003   -0.313431885589105     
 -4.499999999999999E-003   -0.321333683919546     
 -4.399999999999999E-003   -0.329352301323377     
 -4.299999999999999E-003   -0.337486373617537     
 -4.199999999999999E-003   -0.345734422430871     
 -4.099999999999999E-003   -0.354094832559700     
 -3.999999999999999E-003   -0.362565830234616     
 -3.899999999999999E-003   -0.371145480731158     
 -3.799999999999999E-003   -0.379831715984053     
 -3.699999999999999E-003   -0.388622324633682     
 -3.599999999999999E-003   -0.397514912348390     
 -3.499999999999999E-003   -0.406506901650109     
 -3.399999999999999E-003   -0.415595522098064     
 -3.299999999999999E-003   -0.424777942248643     
 -3.199999999999999E-003   -0.434051045398686     
 -3.099999999999999E-003   -0.443411651816588     
 -2.999999999999999E-003   -0.452856294551883     
 -2.899999999999999E-003   -0.462381460635430     
 -2.799999999999999E-003   -0.471983319055824     
 -2.699999999999999E-003   -0.481657982405005     
 -2.599999999999999E-003   -0.491401296735640     
 -2.499999999999999E-003   -0.501209015478540     
 -2.399999999999999E-003   -0.511076645337820     
 -2.299999999999999E-003   -0.520999489450283     
 -2.199999999999999E-003   -0.530972715380010     
 -2.099999999999999E-003   -0.540991315499752     
 -1.999999999999999E-003   -0.551050047907307     
 -1.899999999999999E-003   -0.561143504878682     
 -1.799999999999999E-003   -0.571266118583687     
 -1.699999999999999E-003   -0.581412080476784     
 -1.599999999999999E-003   -0.591575440278437     
 -1.499999999999999E-003   -0.601750109250514     
 -1.399999999999999E-003   -0.611929698420253     
 -1.299999999999999E-003   -0.622107761954974     
 -1.199999999999999E-003   -0.632277540927312     
 -1.099999999999999E-003   -0.642432249054072     
 -9.999999999999989E-004   -0.652564787769966     
 -8.999999999999990E-004   -0.662667965989384     
 -7.999999999999990E-004   -0.672734419945926     
 -6.999999999999989E-004   -0.682756582129164     
 -5.999999999999990E-004   -0.692726775134773     
 -4.999999999999989E-004   -0.702637127021563     
 -3.999999999999989E-004   -0.712479589308297     
 -2.999999999999989E-004   -0.722246011202187     
 -1.999999999999989E-004   -0.731928010188034     
 -9.999999999999892E-005   -0.741517165767734     
  1.084202172485504E-018   -0.751004821341437     
  1.000000000000011E-004   -0.760382260717124     
  2.000000000000011E-004   -0.769640605369964     
  3.000000000000011E-004   -0.778770856734506     
  4.000000000000011E-004   -0.787763923140031     
  5.000000000000011E-004   -0.796610528095881     
  6.000000000000011E-004   -0.805301364107687     
  7.000000000000011E-004   -0.813827001190805     
  8.000000000000011E-004   -0.822177931900348     
  9.000000000000012E-004   -0.830344583290937     
  1.000000000000001E-003   -0.838317306886523     
  1.100000000000001E-003   -0.846086350265687     
  1.200000000000001E-003   -0.853641873414596     
  1.300000000000001E-003   -0.860974064487635     
  1.400000000000001E-003   -0.868073116715558     
  1.500000000000001E-003   -0.874929051521853     
  1.600000000000001E-003   -0.881531874669990     
  1.700000000000001E-003   -0.887871728723133     
  1.800000000000001E-003   -0.893938682366878     
  1.900000000000001E-003   -0.899722710241559     
  2.000000000000001E-003   -0.905213916692474     
  2.100000000000001E-003   -0.910402443542355     
  2.200000000000001E-003   -0.915278423563619     
  2.300000000000001E-003   -0.919832023466372     
  2.400000000000001E-003   -0.924053533401364     
  2.500000000000001E-003   -0.927933227816262     
  2.600000000000001E-003   -0.931461540545598     
  2.700000000000001E-003   -0.934628915557061     
  2.800000000000001E-003   -0.937426014771978     
  2.900000000000001E-003   -0.939843507063846     
  3.000000000000001E-003   -0.941872296295105     
  3.100000000000001E-003   -0.943503322594719     
  3.200000000000001E-003   -0.944727742710375     
  3.300000000000001E-003   -0.945536840705333     
  3.400000000000001E-003   -0.945922162232122     
  3.500000000000001E-003   -0.945875351578716     
  3.600000000000001E-003   -0.945388321141773     
  3.700000000000001E-003   -0.944453154684325     
  3.800000000000001E-003   -0.943062137830017     
  3.900000000000001E-003   -0.941207867363075     
  4.000000000000001E-003   -0.938883118008293     
  4.100000000000001E-003   -0.936080933237302     
  4.200000000000001E-003   -0.932794650861603     
  4.300000000000001E-003   -0.929017870796246     
  4.400000000000001E-003   -0.924744515922992     
  4.500000000000001E-003   -0.919968787792017     
  4.600000000000002E-003   -0.914685199411856     
  4.700000000000001E-003   -0.908888677968359     
  4.800000000000001E-003   -0.902574292337089     
  4.900000000000002E-003   -0.895737671556777     
  5.000000000000001E-003   -0.888374753942039     
  5.100000000000001E-003   -0.880481763564777     
  5.200000000000001E-003   -0.872055382382665     
  5.300000000000002E-003   -0.863092664262495     
  5.400000000000001E-003   -0.853591051026555     
  5.500000000000001E-003   -0.843548389476752     
  5.600000000000002E-003   -0.832962992616412     
  5.700000000000001E-003   -0.821833514259492     
  5.800000000000001E-003   -0.810159122343431     
  5.900000000000002E-003   -0.797939379426817     
  6.000000000000001E-003   -0.785174314829650     
  6.100000000000001E-003   -0.771864350935291     
  6.200000000000002E-003   -0.758010458379006     
  6.300000000000002E-003   -0.743614015259850     
  6.400000000000001E-003   -0.728676917970485     
  6.500000000000001E-003   -0.713201450187021     
  6.600000000000002E-003   -0.697190455129499     
  6.700000000000001E-003   -0.680647253416489     
  6.800000000000001E-003   -0.663575589559581     
  6.900000000000002E-003   -0.645979783710441     
  7.000000000000001E-003   -0.627864572676731     
  7.100000000000001E-003   -0.609235202260621     
  7.200000000000002E-003   -0.590097467174489     
  7.300000000000002E-003   -0.570457604292293     
  7.400000000000001E-003   -0.550322368645054     
  7.500000000000001E-003   -0.529699006844305     
  7.600000000000002E-003   -0.508595239415378     
  7.700000000000001E-003   -0.487019324314387     
  7.800000000000001E-003   -0.464979969150203     
  7.900000000000001E-003   -0.442486376240570     
  8.000000000000002E-003   -0.419548245736328     
  8.100000000000001E-003   -0.396175700598497     
  8.200000000000001E-003   -0.372379414514676     
  8.300000000000002E-003   -0.348170426348746     
  8.400000000000001E-003   -0.323560346657859     
  8.500000000000002E-003   -0.298561170744717     
  8.600000000000002E-003   -0.273185344385740     
  8.700000000000001E-003   -0.247445763798763     
  8.800000000000002E-003   -0.221355764771707     
  8.900000000000002E-003   -0.194929083167661     
  9.000000000000001E-003   -0.168179892396269     
  9.100000000000002E-003   -0.141122722439125     
  9.200000000000002E-003   -0.113772558957025     
  9.300000000000001E-003   -8.614472781556565E-002
  9.400000000000002E-003   -5.825493356461397E-002
  9.500000000000001E-003   -3.011922945193125E-002
  9.600000000000001E-003   -1.754037077585837E-003
  9.700000000000002E-003    2.682392809359515E-002
  9.800000000000001E-003    5.559762904798961E-002
  9.900000000000001E-003    8.454972521972411E-002
  1.000000000000000E-002    0.113662566514648     
  1.010000000000000E-002    0.142918297775884     
  1.020000000000000E-002    0.172298727922031     
  1.030000000000000E-002    0.201785481032173     
  1.040000000000000E-002    0.231359931335647     
  1.050000000000000E-002    0.261003265432813     
  1.060000000000000E-002    0.290696526452802     
  1.070000000000000E-002    0.320420517635067     
  1.080000000000000E-002    0.350155920090763     
  1.090000000000000E-002    0.379883300262821     
  1.100000000000000E-002    0.409583101537791     
  1.110000000000000E-002    0.439235711726025     
  1.120000000000000E-002    0.468821362755698     
  1.130000000000000E-002    0.498320253695234     
  1.140000000000000E-002    0.527712595985585     
  1.150000000000000E-002    0.556978570700462     
  1.160000000000000E-002    0.586098354914436     
  1.170000000000000E-002    0.615052144177009     
  1.180000000000000E-002    0.643820067871519     
  1.190000000000000E-002    0.672382551009239     
  1.200000000000000E-002    0.700719918926656     
  1.210000000000000E-002    0.728812693201730     
  1.220000000000000E-002    0.756641543573056     
  1.230000000000000E-002    0.784187123020779     
  1.240000000000000E-002    0.811430516503425     
  1.250000000000000E-002    0.838352731999506     
  1.260000000000000E-002    0.864935068084531     
  1.270000000000000E-002    0.891159077876616     
  1.280000000000000E-002    0.917006575103942     
  1.290000000000000E-002    0.942459636496788     
  1.300000000000000E-002    0.967500517843866     
  1.310000000000000E-002    0.992111904476696     
  1.320000000000000E-002     1.01627664672731     
  1.330000000000000E-002     1.03997810871158     
  1.340000000000000E-002     1.06319996977905     
  1.350000000000000E-002     1.08592611161388     
  1.360000000000000E-002     1.10814101724437     
  1.370000000000000E-002     1.12982949803618     
  1.380000000000000E-002     1.15097671524444     
  1.390000000000000E-002     1.17156838612807     
  1.400000000000000E-002     1.19159056420213     
  1.410000000000000E-002     1.21102985336301     
  1.420000000000000E-002     1.22987324832947     
  1.430000000000000E-002     1.24810827235670     
  1.440000000000000E-002     1.26572306760141     
  1.450000000000000E-002     1.28270620244127     
  1.460000000000000E-002     1.29904674922095     
  1.470000000000000E-002     1.31473431189831     
  1.480000000000000E-002     1.32975912417781     
  1.490000000000000E-002     1.34411201954359     
  1.500000000000000E-002     1.35778427621834     
  1.510000000000000E-002     1.37076785804566     
  1.520000000000000E-002     1.38305515401955     
  1.530000000000000E-002     1.39463935647856     
  1.540000000000000E-002     1.40551419469488     
  1.550000000000000E-002     1.41567389844721     
  1.560000000000000E-002     1.42511338171126     
  1.570000000000000E-002     1.43382812585945     
  1.580000000000000E-002     1.44181432910071     
  1.590000000000000E-002     1.44906879653681     
  1.600000000000000E-002     1.45558884423906     
  1.610000000000000E-002     1.46137259717462     
  1.620000000000000E-002     1.46641866447627     
  1.630000000000000E-002     1.47072638728111     
  1.640000000000000E-002     1.47429561607287     
  1.650000000000000E-002     1.47712689284061     
  1.660000000000000E-002     1.47922135551774     
  1.670000000000000E-002     1.48058078225744     
  1.680000000000000E-002     1.48120758711405     
  1.690000000000000E-002     1.48110469844643     
  1.700000000000000E-002     1.48027578448431     
  1.710000000000000E-002     1.47872494567584     
  1.720000000000000E-002     1.47645706226136     
  1.730000000000000E-002     1.47347756225860     
  1.740000000000000E-002     1.46979225850332     
  1.750000000000000E-002     1.46540777027960     
  1.760000000000000E-002     1.46033116597754     
  1.770000000000000E-002     1.45457008351296     
  1.780000000000000E-002     1.44813276512623     
  1.790000000000000E-002     1.44102787314818     
  1.800000000000000E-002     1.43326459831184     
  1.810000000000000E-002     1.42485272570776     
  1.820000000000000E-002     1.41580243657756     
  1.830000000000000E-002     1.40612448282703     
  1.840000000000000E-002     1.39583003258863     
  1.850000000000000E-002     1.38493067426587     
  1.860000000000000E-002     1.37343855213877     
  1.870000000000000E-002     1.36136603169606     