 -4.000000000000000E-002    0.000000000000000E+000
 -3.990000000000000E-002    0.000000000000000E+000
 -3.980000000000000E-002    0.000000000000000E+000
 -3.970000000000000E-002    0.000000000000000E+000
 -3.960000000000000E-002    0.000000000000000E+000
 -3.950000000000000E-002    0.000000000000000E+000
 -3.940000000000000E-002    0.000000000000000E+000
 -3.930000000000000E-002    0.000000000000000E+000
 -3.920000000000000E-002    0.000000000000000E+000
 -3.910000000000000E-002    0.000000000000000E+000
 -3.900000000000000E-002    0.000000000000000E+000
 -3.890000000000000E-002    0.000000000000000E+000
 -3.880000000000000E-002    0.000000000000000E+000
 -3.870000000000000E-002    0.000000000000000E+000
 -3.860000000000000E-002    0.000000000000000E+000
 -3.850000000000000E-002    0.000000000000000E+000
 -3.840000000000000E-002    0.000000000000000E+000
 -3.830000000000000E-002    0.000000000000000E+000
 -3.820000000000000E-002    0.000000000000000E+000
 -3.810000000000000E-002    0.000000000000000E+000
 -3.800000000000000E-002    0.000000000000000E+000
 -3.790000000000000E-002    0.000000000000000E+000
 -3.780000000000000E-002    0.000000000000000E+000
 -3.770000000000000E-002    0.000000000000000E+000
 -3.760000000000000E-002    0.000000000000000E+000
 -3.750000000000000E-002    0.000000000000000E+000
 -3.740000000000000E-002    0.000000000000000E+000
 -3.730000000000000E-002    0.000000000000000E+000
 -3.720000000000000E-002    0.000000000000000E+000
 -3.710000000000000E-002    0.000000000000000E+000
 -3.700000000000000E-002    0.000000000000000E+000
 -3.690000000000000E-002    0.000000000000000E+000
 -3.680000000000000E-002    0.000000000000000E+000
 -3.670000000000000E-002    0.000000000000000E+000
 -3.660000000000000E-002    0.000000000000000E+000
 -3.650000000000000E-002    0.000000000000000E+000
 -3.640000000000000E-002    0.000000000000000E+000
 -3.630000000000000E-002    0.000000000000000E+000
 -3.620000000000000E-002    0.000000000000000E+000
 -3.610000000000000E-002    0.000000000000000E+000
 -3.600000000000000E-002    0.000000000000000E+000
 -3.590000000000000E-002    0.000000000000000E+000
 -3.580000000000000E-002    0.000000000000000E+000
 -3.570000000000000E-002    0.000000000000000E+000
 -3.560000000000000E-002    0.000000000000000E+000
 -3.550000000000000E-002    0.000000000000000E+000
 -3.540000000000000E-002    0.000000000000000E+000
 -3.530000000000000E-002    0.000000000000000E+000
 -3.520000000000000E-002    0.000000000000000E+000
 -3.510000000000000E-002    0.000000000000000E+000
 -3.500000000000000E-002    0.000000000000000E+000
 -3.490000000000000E-002    0.000000000000000E+000
 -3.480000000000000E-002    0.000000000000000E+000
 -3.470000000000000E-002    0.000000000000000E+000
 -3.460000000000000E-002    0.000000000000000E+000
 -3.450000000000000E-002    0.000000000000000E+000
 -3.440000000000000E-002    0.000000000000000E+000
 -3.430000000000000E-002    0.000000000000000E+000
 -3.420000000000000E-002    0.000000000000000E+000
 -3.410000000000000E-002    0.000000000000000E+000
 -3.400000000000000E-002    0.000000000000000E+000
 -3.390000000000000E-002    0.000000000000000E+000
 -3.380000000000000E-002    0.000000000000000E+000
 -3.370000000000000E-002    0.000000000000000E+000
 -3.360000000000000E-002    0.000000000000000E+000
 -3.350000000000000E-002    0.000000000000000E+000
 -3.340000000000000E-002    0.000000000000000E+000
 -3.330000000000000E-002    0.000000000000000E+000
 -3.320000000000000E-002    0.000000000000000E+000
 -3.310000000000000E-002    0.000000000000000E+000
 -3.300000000000000E-002    0.000000000000000E+000
 -3.290000000000000E-002    0.000000000000000E+000
 -3.280000000000000E-002    0.000000000000000E+000
 -3.270000000000000E-002    0.000000000000000E+000
 -3.260000000000000E-002    0.000000000000000E+000
 -3.250000000000000E-002    0.000000000000000E+000
 -3.240000000000000E-002    0.000000000000000E+000
 -3.230000000000000E-002    0.000000000000000E+000
 -3.220000000000000E-002    0.000000000000000E+000
 -3.210000000000000E-002    0.000000000000000E+000
 -3.200000000000000E-002    0.000000000000000E+000
 -3.190000000000000E-002    0.000000000000000E+000
 -3.180000000000000E-002    0.000000000000000E+000
 -3.170000000000000E-002    0.000000000000000E+000
 -3.160000000000000E-002    0.000000000000000E+000
 -3.150000000000000E-002    0.000000000000000E+000
 -3.140000000000000E-002    0.000000000000000E+000
 -3.130000000000000E-002    0.000000000000000E+000
 -3.120000000000000E-002    0.000000000000000E+000
 -3.110000000000000E-002    0.000000000000000E+000
 -3.100000000000000E-002    0.000000000000000E+000
 -3.090000000000000E-002    0.000000000000000E+000
 -3.080000000000000E-002    0.000000000000000E+000
 -3.070000000000000E-002    0.000000000000000E+000
 -3.060000000000000E-002    0.000000000000000E+000
 -3.050000000000000E-002    0.000000000000000E+000
 -3.040000000000000E-002    0.000000000000000E+000
 -3.030000000000000E-002    0.000000000000000E+000
 -3.020000000000000E-002    0.000000000000000E+000
 -3.010000000000000E-002    0.000000000000000E+000
 -3.000000000000000E-002    0.000000000000000E+000
 -2.990000000000000E-002    0.000000000000000E+000
 -2.980000000000000E-002    0.000000000000000E+000
 -2.970000000000000E-002    0.000000000000000E+000
 -2.960000000000000E-002    0.000000000000000E+000
 -2.950000000000000E-002    0.000000000000000E+000
 -2.940000000000000E-002    0.000000000000000E+000
 -2.930000000000000E-002    0.000000000000000E+000
 -2.920000000000000E-002    0.000000000000000E+000
 -2.910000000000000E-002    0.000000000000000E+000
 -2.900000000000000E-002    0.000000000000000E+000
 -2.890000000000000E-002    0.000000000000000E+000
 -2.880000000000000E-002    0.000000000000000E+000
 -2.870000000000000E-002    0.000000000000000E+000
 -2.860000000000000E-002    0.000000000000000E+000
 -2.850000000000000E-002    0.000000000000000E+000
 -2.840000000000000E-002    0.000000000000000E+000
 -2.830000000000000E-002    0.000000000000000E+000
 -2.820000000000000E-002    0.000000000000000E+000
 -2.810000000000000E-002    0.000000000000000E+000
 -2.800000000000000E-002    0.000000000000000E+000
 -2.790000000000000E-002    0.000000000000000E+000
 -2.780000000000000E-002    0.000000000000000E+000
 -2.770000000000000E-002    0.000000000000000E+000
 -2.760000000000000E-002    0.000000000000000E+000
 -2.750000000000000E-002    0.000000000000000E+000
 -2.740000000000000E-002    0.000000000000000E+000
 -2.730000000000000E-002    0.000000000000000E+000
 -2.720000000000000E-002    0.000000000000000E+000
 -2.710000000000000E-002    0.000000000000000E+000
 -2.700000000000000E-002    0.000000000000000E+000
 -2.690000000000000E-002    0.000000000000000E+000
 -2.680000000000000E-002    0.000000000000000E+000
 -2.670000000000000E-002    0.000000000000000E+000
 -2.660000000000000E-002    0.000000000000000E+000
 -2.650000000000000E-002    0.000000000000000E+000
 -2.640000000000000E-002    0.000000000000000E+000
 -2.630000000000000E-002    0.000000000000000E+000
 -2.620000000000000E-002    0.000000000000000E+000
 -2.610000000000000E-002    0.000000000000000E+000
 -2.600000000000000E-002    0.000000000000000E+000
 -2.590000000000000E-002    0.000000000000000E+000
 -2.580000000000000E-002    0.000000000000000E+000
 -2.570000000000000E-002    0.000000000000000E+000
 -2.560000000000000E-002    0.000000000000000E+000
 -2.550000000000000E-002    0.000000000000000E+000
 -2.540000000000000E-002    0.000000000000000E+000
 -2.530000000000000E-002    0.000000000000000E+000
 -2.520000000000000E-002    0.000000000000000E+000
 -2.510000000000000E-002    0.000000000000000E+000
 -2.500000000000000E-002    0.000000000000000E+000
 -2.490000000000000E-002    0.000000000000000E+000
 -2.480000000000000E-002    0.000000000000000E+000
 -2.470000000000000E-002    0.000000000000000E+000
 -2.460000000000000E-002    0.000000000000000E+000
 -2.450000000000000E-002    0.000000000000000E+000
 -2.440000000000000E-002    0.000000000000000E+000
 -2.430000000000000E-002    0.000000000000000E+000
 -2.420000000000000E-002    0.000000000000000E+000
 -2.410000000000000E-002    0.000000000000000E+000
 -2.400000000000000E-002    0.000000000000000E+000
 -2.390000000000000E-002    0.000000000000000E+000
 -2.380000000000000E-002    0.000000000000000E+000
 -2.370000000000000E-002    0.000000000000000E+000
 -2.360000000000000E-002    0.000000000000000E+000
 -2.350000000000000E-002    0.000000000000000E+000
 -2.340000000000000E-002    0.000000000000000E+000
 -2.330000000000000E-002    0.000000000000000E+000
 -2.320000000000000E-002    0.000000000000000E+000
 -2.310000000000000E-002    0.000000000000000E+000
 -2.300000000000000E-002    0.000000000000000E+000
 -2.290000000000000E-002    0.000000000000000E+000
 -2.280000000000000E-002    0.000000000000000E+000
 -2.270000000000000E-002    0.000000000000000E+000
 -2.260000000000000E-002    0.000000000000000E+000
 -2.250000000000000E-002    0.000000000000000E+000
 -2.240000000000000E-002    0.000000000000000E+000
 -2.230000000000000E-002    0.000000000000000E+000
 -2.220000000000000E-002    0.000000000000000E+000
 -2.210000000000000E-002    0.000000000000000E+000
 -2.200000000000000E-002    0.000000000000000E+000
 -2.190000000000000E-002    0.000000000000000E+000
 -2.180000000000000E-002    0.000000000000000E+000
 -2.170000000000000E-002    0.000000000000000E+000
 -2.160000000000000E-002    0.000000000000000E+000
 -2.150000000000000E-002    0.000000000000000E+000
 -2.140000000000000E-002    0.000000000000000E+000
 -2.130000000000000E-002    0.000000000000000E+000
 -2.120000000000000E-002    0.000000000000000E+000
 -2.110000000000000E-002    0.000000000000000E+000
 -2.100000000000000E-002    0.000000000000000E+000
 -2.090000000000000E-002    0.000000000000000E+000
 -2.080000000000000E-002    0.000000000000000E+000
 -2.070000000000000E-002    0.000000000000000E+000
 -2.060000000000000E-002    0.000000000000000E+000
 -2.050000000000000E-002    0.000000000000000E+000
 -2.040000000000000E-002    0.000000000000000E+000
 -2.030000000000000E-002    0.000000000000000E+000
 -2.020000000000000E-002    0.000000000000000E+000
 -2.010000000000000E-002    0.000000000000000E+000
 -2.000000000000000E-002    0.000000000000000E+000
 -1.990000000000000E-002    0.000000000000000E+000
 -1.980000000000000E-002    0.000000000000000E+000
 -1.970000000000000E-002    0.000000000000000E+000
 -1.960000000000000E-002    0.000000000000000E+000
 -1.950000000000000E-002    0.000000000000000E+000
 -1.940000000000000E-002    0.000000000000000E+000
 -1.930000000000000E-002    0.000000000000000E+000
 -1.920000000000000E-002    0.000000000000000E+000
 -1.910000000000000E-002    0.000000000000000E+000
 -1.900000000000000E-002    0.000000000000000E+000
 -1.890000000000000E-002    0.000000000000000E+000
 -1.880000000000000E-002    0.000000000000000E+000
 -1.870000000000000E-002    0.000000000000000E+000
 -1.860000000000000E-002    0.000000000000000E+000
 -1.850000000000000E-002    0.000000000000000E+000
 -1.840000000000000E-002    0.000000000000000E+000
 -1.830000000000000E-002    0.000000000000000E+000
 -1.820000000000000E-002    0.000000000000000E+000
 -1.810000000000000E-002    0.000000000000000E+000
 -1.800000000000000E-002    0.000000000000000E+000
 -1.790000000000000E-002    0.000000000000000E+000
 -1.780000000000000E-002    0.000000000000000E+000
 -1.770000000000000E-002    0.000000000000000E+000
 -1.760000000000000E-002    0.000000000000000E+000
 -1.750000000000000E-002    0.000000000000000E+000
 -1.740000000000000E-002    0.000000000000000E+000
 -1.730000000000000E-002    0.000000000000000E+000
 -1.720000000000000E-002    0.000000000000000E+000
 -1.710000000000000E-002    0.000000000000000E+000
 -1.700000000000000E-002    0.000000000000000E+000
 -1.690000000000000E-002    0.000000000000000E+000
 -1.680000000000000E-002    0.000000000000000E+000
 -1.670000000000000E-002    0.000000000000000E+000
 -1.660000000000000E-002    0.000000000000000E+000
 -1.650000000000000E-002    0.000000000000000E+000
 -1.640000000000000E-002    0.000000000000000E+000
 -1.630000000000000E-002    0.000000000000000E+000
 -1.620000000000000E-002    0.000000000000000E+000
 -1.610000000000000E-002    0.000000000000000E+000
 -1.600000000000000E-002    0.000000000000000E+000
 -1.590000000000000E-002    0.000000000000000E+000
 -1.580000000000000E-002    0.000000000000000E+000
 -1.570000000000000E-002    0.000000000000000E+000
 -1.560000000000000E-002    0.000000000000000E+000
 -1.550000000000000E-002    1.522147052291724E-048
 -1.540000000000000E-002    3.044294104583448E-048
 -1.530000000000000E-002    4.566441156875172E-048
 -1.520000000000000E-002    6.088588209166896E-048
 -1.510000000000000E-002    6.088588209166896E-048
 -1.500000000000000E-002   -5.536329312887401E-050
 -1.490000000000000E-002   -1.076575595229982E-047
 -1.480000000000000E-002   -2.452044271605421E-047
 -1.470000000000000E-002   -4.717130239760271E-047
 -1.460000000000000E-002   -6.853672442281572E-047
 -1.450000000000000E-002   -8.974530675870940E-047
 -1.440000000000000E-002   -9.727907203748558E-047
 -1.430000000000000E-002   -7.273228822687861E-047
 -1.420000000000000E-002   -1.179433291830214E-047
 -1.410000000000000E-002    5.622253033903926E-047
 -1.400000000000000E-002    1.555066681717289E-046
 -1.390000000000000E-002    2.990120442182890E-046
 -1.380000000000000E-002    5.355313697130874E-046
 -1.370000000000000E-002    6.959409982144159E-046
 -1.360000000000000E-002    9.019630145011632E-046
 -1.350000000000000E-002    9.629594331019774E-046
 -1.340000000000000E-002    9.577468615382334E-046
 -1.330000000000000E-002    6.135615813852793E-046
 -1.320000000000000E-002   -2.836898186163468E-046
 -1.310000000000000E-002   -1.507815361300162E-045
 -1.300000000000000E-002   -3.186514902108377E-045
 -1.290000000000000E-002   -5.504534738968778E-045
 -1.280000000000000E-002   -7.667461241678063E-045
 -1.270000000000000E-002   -9.545332080794708E-045
 -1.260000000000000E-002   -1.037702495156744E-044
 -1.250000000000000E-002   -9.378697207921946E-045
 -1.240000000000000E-002   -6.642385430608097E-045
 -1.230000000000000E-002   -6.541057060441709E-046
 -1.220000000000000E-002    9.610390370656945E-045
 -1.210000000000000E-002    2.259575071874456E-044
 -1.200000000000000E-002    3.823279027154103E-044
 -1.190000000000000E-002    5.458570663547926E-044
 -1.180000000000000E-002    6.788134982307766E-044
 -1.170000000000000E-002    7.465400323969436E-044
 -1.160000000000000E-002    6.921146965829330E-044
 -1.150000000000000E-002    4.627879156199760E-044
 -1.140000000000000E-002    1.629817532910413E-045
 -1.130000000000000E-002   -6.663710753216332E-044
 -1.120000000000000E-002   -1.559090552154522E-043
 -1.110000000000000E-002   -2.599128987541331E-043
 -1.100000000000000E-002   -3.642881771951413E-043
 -1.090000000000000E-002   -4.482360353096376E-043
 -1.080000000000000E-002   -4.843242901465642E-043
 -1.070000000000000E-002   -4.425986455221253E-043
 -1.060000000000000E-002   -2.914554188842981E-043
 -1.050000000000000E-002   -8.621224874712217E-045
 -1.040000000000000E-002    4.131694160424149E-043
 -1.030000000000000E-002    9.582276933266202E-043
 -1.020000000000000E-002    1.578432306388360E-042
 -1.010000000000000E-002    2.189372274375505E-042
 -1.000000000000000E-002    2.668451836337112E-042
 -9.899999999999999E-003    2.863549877242218E-042
 -9.800000000000000E-003    2.607662086064570E-042
 -9.699999999999999E-003    1.744894068477754E-042
 -9.599999999999999E-003    1.647507415922675E-043
 -9.500000000000000E-003   -2.157837755492645E-042
 -9.399999999999999E-003   -5.120430529202974E-042
 -9.299999999999999E-003   -8.459201546177883E-042
 -9.200000000000000E-003   -1.172863268429071E-041
 -9.099999999999999E-003   -1.430877680396397E-041
 -8.999999999999999E-003   -1.544653805323122E-041
 -8.900000000000000E-003   -1.433470463843695E-041
 -8.799999999999999E-003   -1.023791116687535E-041
 -8.699999999999999E-003   -2.647769414544402E-042
 -8.600000000000000E-003    8.539439897161166E-042
 -8.499999999999999E-003    2.285040344331118E-041
 -8.399999999999999E-003    3.909740078514570E-041
 -8.300000000000000E-003    5.531295154539994E-041
 -8.199999999999999E-003    6.879316853772943E-041
 -8.100000000000000E-003    7.627461468599863E-041
 -8.000000000000000E-003    7.426730021059910E-041
 -7.899999999999999E-003    5.953287745522665E-041
 -7.800000000000000E-003    2.968075610224000E-041
 -7.699999999999999E-003   -1.617406589675346E-041
 -7.599999999999999E-003   -7.677607418203252E-041
 -7.499999999999999E-003   -1.482177357644648E-040
 -7.399999999999999E-003   -2.236562137884418E-040
 -7.299999999999999E-003   -2.933660846786919E-040
 -7.199999999999999E-003   -3.451973181312580E-040
 -7.100000000000000E-003   -3.654885041566162E-040
 -6.999999999999999E-003   -3.404195092981391E-040
 -6.899999999999999E-003   -2.577498611858800E-040
 -6.800000000000000E-003   -1.088258060855023E-040
 -6.699999999999999E-003    1.092914073681520E-040
 -6.599999999999999E-003    3.917505855627570E-040
 -6.499999999999999E-003    7.240837253111990E-040
 -6.399999999999999E-003    1.080818058542032E-039
 -6.299999999999999E-003    1.424727654691921E-039
 -6.199999999999999E-003    1.706949864569973E-039
 -6.100000000000000E-003    1.868237111906919E-039
 -5.999999999999999E-003    1.841688754402100E-039
 -5.899999999999999E-003    1.557386495123265E-039
 -5.800000000000000E-003    9.494363054667367E-040
 -5.699999999999999E-003   -3.411485880372083E-041
 -5.599999999999999E-003   -1.418180649623685E-039
 -5.499999999999999E-003   -3.184470219806089E-039
 -5.399999999999999E-003   -5.253090911734347E-039
 -5.299999999999999E-003   -7.463791816969113E-039
 -5.199999999999999E-003   -9.560078405773934E-039
 -5.099999999999999E-003   -1.118085514659905E-038
 -4.999999999999999E-003   -1.186556276263892E-038
 -4.899999999999999E-003   -1.107951436858452E-038
 -4.799999999999999E-003   -8.265796896240100E-039
 -4.699999999999999E-003   -2.928244256624334E-039
 -4.599999999999999E-003    5.253881505297629E-039
 -4.499999999999999E-003    1.628486896645881E-038
 -4.399999999999999E-003    2.969854686588049E-038
 -4.299999999999999E-003    4.441387040199308E-038
 -4.199999999999999E-003    5.863183801557369E-038
 -4.099999999999999E-003    6.981266866513523E-038
 -3.999999999999999E-003    7.477507370000230E-038
 -3.899999999999999E-003    6.995545786268446E-038
 -3.799999999999999E-003    5.185187680068349E-038
 -3.699999999999999E-003    1.765414969956653E-038
 -3.599999999999999E-003   -3.397237145599973E-038
 -3.499999999999999E-003   -1.020237530578628E-037
 -3.399999999999999E-003   -1.823353514914305E-037
 -3.299999999999999E-003   -2.669628567208223E-037
 -3.199999999999999E-003   -3.439585250076022E-037
 -3.099999999999999E-003   -3.977410740372218E-037
 -2.999999999999999E-003   -4.102317905805049E-037
 -2.899999999999999E-003   -3.628620485110398E-037
 -2.799999999999999E-003   -2.394471430276954E-037
 -2.699999999999999E-003   -2.977029844278911E-038
 -2.599999999999999E-003    2.664579773437322E-037
 -2.499999999999999E-003    6.357866134379306E-037
 -2.399999999999999E-003    1.048041490845606E-036
 -2.299999999999999E-003    1.454963514518534E-036
 -2.199999999999999E-003    1.791267757185415E-036
 -2.099999999999999E-003    1.978804834167975E-036
 -1.999999999999999E-003    1.934233840484466E-036
 -1.899999999999999E-003    1.580190672505725E-036
 -1.799999999999999E-003    8.593714624834486E-037
 -1.699999999999999E-003   -2.496996841351669E-037
 -1.599999999999999E-003   -1.717113193940393E-036
 -1.499999999999999E-003   -3.448691979899802E-036
 -1.399999999999999E-003   -5.278618069299455E-036
 -1.299999999999999E-003   -6.970438931744220E-036
 -1.199999999999999E-003   -8.228947113081451E-036
 -1.099999999999999E-003   -8.724547943699251E-036
 -9.999999999999989E-004   -8.130372114893092E-036
 -8.999999999999990E-004   -6.170587212104843E-036
 -7.999999999999990E-004   -2.676285779838889E-036
 -6.999999999999989E-004    2.356809031116099E-036
 -5.999999999999990E-004    8.716498958453678E-036
 -4.999999999999989E-004    1.593714331991758E-035
 -3.999999999999989E-004    2.328705383119671E-035
 -2.999999999999989E-004    2.978900385003653E-035
 -1.999999999999989E-004    3.428050705023016E-035
 -9.999999999999892E-005    3.551694916934748E-035
  1.084202172485504E-018    3.231580106312861E-035
  1.000000000000011E-004    2.373417373132703E-035
  2.000000000000011E-004    9.265577356089726E-036
  3.000000000000011E-004   -1.096456387789573E-035
  4.000000000000011E-004   -3.603039490140690E-035
  5.000000000000011E-004   -6.409328430990585E-035
  6.000000000000011E-004   -9.237552840048062E-035
  7.000000000000011E-004   -1.172472234510721E-034
  8.000000000000011E-004   -1.344464881184511E-034
  9.000000000000012E-004   -1.394423776912624E-034
  1.000000000000001E-003   -1.279345534681809E-034
  1.100000000000001E-003   -9.646564613036787E-035
  1.200000000000001E-003   -4.310173949625516E-035
  1.300000000000001E-003    3.188401810672341E-035
  1.400000000000001E-003    1.254080644416778E-034
  1.500000000000001E-003    2.311503411212045E-034
  1.600000000000001E-003    3.394078888258759E-034
  1.700000000000001E-003    4.373257386312512E-034
  1.800000000000001E-003    5.095840518029031E-034
  1.900000000000001E-003    5.395874656299249E-034
  2.000000000000001E-003    5.111540100389488E-034
  2.100000000000001E-003    4.106387049862288E-034
  2.200000000000001E-003    2.293544529045125E-034
  2.300000000000001E-003   -3.392339825529047E-035
  2.400000000000001E-003   -3.706549465321858E-034
  2.500000000000001E-003   -7.607794673469933E-034
  2.600000000000001E-003   -1.171878561671369E-033
  2.700000000000001E-003   -1.559625138175565E-033
  2.800000000000001E-003   -1.869827347957134E-033
  2.900000000000001E-003   -2.042265849050223E-033
  3.000000000000001E-003   -2.016352329355671E-033
  3.100000000000001E-003   -1.738419176537127E-033
  3.200000000000001E-003   -1.170192687691967E-033
  3.300000000000001E-003   -2.977337089972856E-034
  3.400000000000001E-003    8.601242096974116E-034
  3.500000000000001E-003    2.245002936678001E-033
  3.600000000000001E-003    3.755146450818951E-033
  3.700000000000001E-003    5.245765512805223E-033
  3.800000000000001E-003    6.534614830082682E-033
  3.900000000000001E-003    7.413495992810060E-033
  4.000000000000001E-003    7.665843296075839E-033
  4.100000000000001E-003    7.089868364667155E-033
  4.200000000000001E-003    5.525962199488578E-033
  4.300000000000001E-003    2.886243070298564E-033
  4.400000000000001E-003   -8.166024765312780E-034
  4.500000000000001E-003   -5.444632260987089E-033
  4.600000000000002E-003   -1.071789263821314E-032
  4.700000000000001E-003   -1.620936596898764E-032
  4.800000000000001E-003   -2.135497990277449E-032
  4.900000000000002E-003   -2.548118122216438E-032
  5.000000000000001E-003   -2.785129186344796E-032
  5.100000000000001E-003   -2.773019062150054E-032
  5.200000000000001E-003   -2.446487574212794E-032
  5.300000000000002E-003   -1.757633393947003E-032
  5.400000000000001E-003   -6.855938444993727E-033
  5.500000000000001E-003    7.542368199247762E-033
  5.600000000000002E-003    2.502452112875261E-032
  5.700000000000001E-003    4.450491007084889E-032
  5.800000000000001E-003    6.439281526490880E-032
  5.900000000000002E-003    8.262782431890779E-032
  6.000000000000001E-003    9.677340980011888E-032
  6.100000000000001E-003    1.041746302770938E-031
  6.200000000000002E-003    1.021812230913639E-031
  6.300000000000002E-003    8.843127869123752E-032
  6.400000000000001E-003    6.118296297549033E-032
  6.500000000000001E-003    1.967345402287894E-032
  6.600000000000002E-003   -3.552517802473263E-032
  6.700000000000001E-003   -1.021919252851666E-031
  6.800000000000001E-003   -1.762311081183204E-031
  6.900000000000002E-003   -2.515857967500752E-031
  7.000000000000001E-003   -3.203418373422549E-031
  7.100000000000001E-003   -3.730680772460612E-031
  7.200000000000002E-003   -3.994257752240897E-031
  7.300000000000002E-003   -3.890590147116510E-031
  7.400000000000001E-003   -3.327488797315789E-031
  7.500000000000001E-003   -2.237773307867403E-031
  7.600000000000002E-003   -5.940554778791898E-032
  7.700000000000001E-003    1.576718774099572E-031
  7.800000000000001E-003    4.180737886372938E-031
  7.900000000000001E-003    7.048869599714362E-031
  8.000000000000002E-003    9.934464351681367E-031
  8.100000000000001E-003    1.251948665894564E-030
  8.200000000000001E-003    1.443064563772286E-030
  8.300000000000002E-003    1.526647045145389E-030
  8.400000000000001E-003    1.463523470885585E-030
  8.500000000000002E-003    1.220230942107457E-030
  8.600000000000002E-003    7.744018062930431E-031
  8.700000000000001E-003    1.203491778022362E-031
  8.800000000000002E-003   -7.257422739251552E-031
  8.900000000000002E-003   -1.721725930025679E-030
  9.000000000000001E-003   -2.797267927829835E-030
  9.100000000000002E-003   -3.854233674871642E-030
  9.200000000000002E-003   -4.770323532740290E-030
  9.300000000000001E-003   -5.406387236785654E-030
  9.400000000000002E-003   -5.617536882747006E-030
  9.500000000000001E-003   -5.267777688412851E-030
  9.600000000000001E-003   -4.247415924575635E-030
  9.700000000000002E-003   -2.492005809473183E-030
  9.800000000000001E-003   -1.129717131970103E-033
  9.900000000000001E-003    3.145100774610436E-030
  1.000000000000000E-002    6.774190864365558E-030
  1.010000000000000E-002    1.061650670995568E-029
  1.020000000000000E-002    1.430988261786359E-029
  1.030000000000000E-002    1.741541716689972E-029
  1.040000000000000E-002    1.944551901102975E-029
  1.050000000000000E-002    1.990422422931932E-029
  1.060000000000000E-002    1.833850580498904E-029
  1.070000000000000E-002    1.439783162195307E-029
  1.080000000000000E-002    7.897670224563076E-030
  1.090000000000000E-002   -1.118819973852019E-030
  1.100000000000000E-002   -1.232792937068975E-029
  1.110000000000000E-002   -2.508918039979763E-029
  1.120000000000000E-002   -3.843377229187218E-029
  1.130000000000000E-002   -5.108511876438000E-029
  1.140000000000000E-002   -6.151738119401487E-029
  1.150000000000000E-002   -6.805536703081647E-029
  1.160000000000000E-002   -6.901561191244130E-029
  1.170000000000000E-002   -6.288403088161720E-029
  1.180000000000000E-002   -4.852040228610934E-029
  1.190000000000000E-002   -2.537458461082139E-029
  1.200000000000000E-002    6.305803628624489E-030
  1.210000000000000E-002    4.530079753431115E-029
  1.220000000000000E-002    8.930382939736162E-029
  1.230000000000000E-002    1.348955005716696E-028
  1.240000000000000E-002    1.776306022373971E-028
  1.250000000000000E-002    2.122575462921628E-028
  1.260000000000000E-002    2.330798231566220E-028
  1.270000000000000E-002    2.344558922699826E-028
  1.280000000000000E-002    2.114177808266893E-028
  1.290000000000000E-002    1.603706626024698E-028
  1.300000000000000E-002    7.981720765666740E-029
  1.310000000000000E-002   -2.896595175378744E-029
  1.320000000000000E-002   -1.613852814454844E-028
  1.330000000000000E-002   -3.092127895549230E-028
  1.340000000000000E-002   -4.605829325600962E-028
  1.350000000000000E-002   -6.003807836531272E-028
  1.360000000000000E-002   -7.110732466275802E-028
  1.370000000000000E-002   -7.739990129380256E-028
  1.380000000000000E-002   -7.710866902150567E-028
  1.390000000000000E-002   -6.869166563429124E-028
  1.400000000000000E-002   -5.109849567998979E-028
  1.410000000000000E-002   -2.399727614344762E-028
  1.420000000000000E-002    1.202204894424529E-028
  1.430000000000000E-002    5.529526388847671E-028
  1.440000000000000E-002    1.030101792064180E-027
  1.450000000000000E-002    1.512375033285701E-027
  1.460000000000000E-002    1.950866199136444E-027
  1.470000000000000E-002    2.289979285281977E-027
  1.480000000000000E-002    2.471715140100165E-027
  1.490000000000000E-002    2.441174077922688E-027
  1.500000000000000E-002    2.152965888654262E-027
  1.510000000000000E-002    1.578058316355466E-027
  1.520000000000000E-002    7.104447402732127E-028
  1.530000000000000E-002   -4.271021282423676E-028
  1.540000000000000E-002   -1.778986977206616E-027
  1.550000000000000E-002   -3.255248628912087E-027
  1.560000000000000E-002   -4.733219811065723E-027
  1.570000000000000E-002   -6.062907409782123E-027
  1.580000000000000E-002   -7.076343997022723E-027
  1.590000000000000E-002   -7.600801832500225E-027
  1.600000000000000E-002   -7.475344424810184E-027
  1.610000000000000E-002   -6.569737635496100E-027
  1.620000000000000E-002   -4.804295052241504E-027
  1.630000000000000E-002   -2.168834289217574E-027
  1.640000000000000E-002    1.261364593380366E-027
  1.650000000000000E-002    5.314858997323301E-027
  1.660000000000000E-002    9.720781427844312E-027
  1.670000000000000E-002    1.411492003868961E-026
  1.680000000000000E-002    1.805647461287372E-026
  1.690000000000000E-002    2.105603734055839E-026
  1.700000000000000E-002    2.261430840428707E-026
  1.710000000000000E-002    2.226989600993582E-026
  1.720000000000000E-002    1.965326538654656E-026
  1.730000000000000E-002    1.454270532481878E-026
  1.740000000000000E-002    6.917119391242174E-027
  1.750000000000000E-002   -3.000294599417755E-027
  1.760000000000000E-002   -1.471369334246910E-026
  1.770000000000000E-002   -2.744751236646203E-026
  1.780000000000000E-002   -4.016567544624591E-026
  1.790000000000000E-002   -5.162048222286608E-026
  1.800000000000000E-002   -6.043228278318269E-026
  1.810000000000000E-002   -6.519821164921972E-026
  1.820000000000000E-002   -6.462499356232700E-026
  1.830000000000000E-002   -5.767752166403150E-026
  1.840000000000000E-002   -4.373166187571670E-026
  1.850000000000000E-002   -2.271711240512360E-026
  1.860000000000000E-002    4.765621517734448E-027
  1.870000000000000E-002    3.737062269136425E-026