 -4.000000000000000E-002    0.000000000000000E+000
 -3.990000000000000E-002    0.000000000000000E+000
 -3.980000000000000E-002    0.000000000000000E+000
 -3.970000000000000E-002    0.000000000000000E+000
 -3.960000000000000E-002    0.000000000000000E+000
 -3.950000000000000E-002    0.000000000000000E+000
 -3.940000000000000E-002    0.000000000000000E+000
 -3.930000000000000E-002    0.000000000000000E+000
 -3.920000000000000E-002    5.540918564595951E-029
 -3.910000000000000E-002    8.675036589854625E-028
 -3.900000000000000E-002    7.112091311887886E-027
 -3.890000000000000E-002    4.056181892631314E-026
 -3.880000000000000E-002    1.804207944112771E-025
 -3.870000000000000E-002    6.654031863866371E-025
 -3.860000000000000E-002    2.112534062062616E-024
 -3.850000000000000E-002    5.918451912375868E-024
 -3.840000000000000E-002    1.488315706928118E-023
 -3.830000000000000E-002    3.399210766652759E-023
 -3.820000000000000E-002    7.106199743018591E-023
 -3.810000000000000E-002    1.365630302172989E-022
 -3.800000000000000E-002    2.413866753896944E-022
 -3.790000000000000E-002    3.907302228082986E-022
 -3.780000000000000E-002    5.718411908854391E-022
 -3.770000000000000E-002    7.334716806290123E-022
 -3.760000000000000E-002    7.560172030075527E-022
 -3.750000000000000E-002    4.139665789351020E-022
 -3.740000000000000E-002   -6.631584925032297E-022
 -3.730000000000000E-002   -3.018730699880914E-021
 -3.720000000000000E-002   -7.365399420062710E-021
 -3.710000000000000E-002   -1.452190038800652E-020
 -3.700000000000000E-002   -2.525719728526987E-020
 -3.690000000000000E-002   -4.000963818192166E-020
 -3.680000000000000E-002   -5.845907459361053E-020
 -3.670000000000000E-002   -7.895323611745512E-020
 -3.660000000000000E-002   -9.782817402876461E-020
 -3.650000000000000E-002   -1.087159874290344E-019
 -3.640000000000000E-002   -1.019973427826658E-019
 -3.630000000000000E-002   -6.462283043927660E-020
 -3.620000000000000E-002    1.941787441567199E-020
 -3.610000000000000E-002    1.676748871424253E-019
 -3.600000000000000E-002    3.965859714530431E-019
 -3.590000000000000E-002    7.174110790923975E-019
 -3.580000000000000E-002    1.130755111096598E-018
 -3.570000000000000E-002    1.619958219769282E-018
 -3.560000000000000E-002    2.143997270484668E-018
 -3.550000000000000E-002    2.630963671065775E-018
 -3.540000000000000E-002    2.973612144474807E-018
 -3.530000000000000E-002    3.028836257191659E-018
 -3.520000000000000E-002    2.623125606570552E-018
 -3.510000000000000E-002    1.565987407586131E-018
 -3.500000000000000E-002   -3.271358194121967E-019
 -3.490000000000000E-002   -3.201841121881983E-018
 -3.480000000000000E-002   -7.122461440613782E-018
 -3.470000000000000E-002   -1.202325308861497E-017
 -3.460000000000000E-002   -1.765817878326815E-017
 -3.450000000000000E-002   -2.355689224282432E-017
 -3.440000000000000E-002   -2.899687245545564E-017
 -3.430000000000000E-002   -3.300334298044836E-017
 -3.420000000000000E-002   -3.438912116531854E-017
 -3.410000000000000E-002   -3.184524830975248E-017
 -3.400000000000000E-002   -2.408965934071024E-017
 -3.390000000000000E-002   -1.007476284037265E-017
 -3.380000000000000E-002    1.075430265048007E-017
 -3.370000000000000E-002    3.817069371851356E-017
 -3.360000000000000E-002    7.087934516610145E-017
 -3.350000000000000E-002    1.062794897342133E-016
 -3.340000000000000E-002    1.403340574476427E-016
 -3.330000000000000E-002    1.676103933868721E-016
 -3.320000000000000E-002    1.815556618080506E-016
 -3.310000000000000E-002    1.750585394501627E-016
 -3.300000000000000E-002    1.413244791297368E-016
 -3.290000000000000E-002    7.505346855111323E-017
 -3.280000000000000E-002   -2.614210846897580E-017
 -3.270000000000000E-002   -1.602024130232394E-016
 -3.260000000000000E-002   -3.191564238450530E-016
 -3.250000000000000E-002   -4.879765612957900E-016
 -3.240000000000000E-002   -6.440438728372190E-016
 -3.230000000000000E-002   -7.575302180146671E-016
 -3.220000000000000E-002   -7.929797323710962E-016
 -3.210000000000000E-002   -7.122966842558168E-016
 -3.200000000000000E-002   -4.792141482170429E-016
 -3.190000000000000E-002   -6.513515633142562E-017
 -3.180000000000000E-002    5.439971105118138E-016
 -3.170000000000000E-002    1.340393564243819E-015
 -3.160000000000000E-002    2.287530462615954E-015
 -3.150000000000000E-002    3.314732409194757E-015
 -3.140000000000000E-002    4.314419146114536E-015
 -3.130000000000000E-002    5.143207502066372E-015
 -3.120000000000000E-002    5.627901318077212E-015
 -3.110000000000000E-002    5.577072052845343E-015
 -3.100000000000000E-002    4.798410378513865E-015
 -3.090000000000000E-002    3.121347104592854E-015
 -3.080000000000000E-002    4.236584290210367E-016
 -3.070000000000000E-002   -3.340052703152123E-015
 -3.060000000000000E-002   -8.110847361892821E-015
 -3.050000000000000E-002   -1.370235414060871E-014
 -3.040000000000000E-002   -1.978574569622392E-014
 -3.030000000000000E-002   -2.588639486502692E-014
 -3.020000000000000E-002   -3.139516046639512E-014
 -3.010000000000000E-002   -3.559628648498144E-014
 -3.000000000000000E-002   -3.771235432274292E-014
 -2.990000000000000E-002   -3.696496805195438E-014
 -2.980000000000000E-002   -3.264790683200381E-014
 -2.970000000000000E-002   -2.420761674872642E-014
 -2.960000000000000E-002   -1.132432068854932E-014
 -2.950000000000000E-002    6.013935348372025E-015
 -2.940000000000000E-002    2.745230651324179E-014
 -2.930000000000000E-002    5.223263669987257E-014
 -2.920000000000000E-002    7.918531525196610E-014
 -2.910000000000000E-002    1.067531720869158E-013
 -2.900000000000000E-002    1.330482755637022E-013
 -2.890000000000000E-002    1.559393237836239E-013
 -2.880000000000000E-002    1.731646227797068E-013
 -2.870000000000000E-002    1.824629759844766E-013
 -2.860000000000000E-002    1.817136737136310E-013
 -2.850000000000000E-002    1.690763169121879E-013
 -2.840000000000000E-002    1.431220776314569E-013
 -2.830000000000000E-002    1.029502510386590E-013
 -2.820000000000000E-002    4.828662115622622E-014
 -2.810000000000000E-002   -2.043680938791149E-014
 -2.800000000000000E-002   -1.020184830581206E-013
 -2.790000000000000E-002   -1.944366034575247E-013
 -2.780000000000000E-002   -2.948077297257575E-013
 -2.770000000000000E-002   -3.993534226665570E-013
 -2.760000000000000E-002   -5.033780001826429E-013
 -2.750000000000000E-002   -6.012667060005592E-013
 -2.740000000000000E-002   -6.865206816412815E-013
 -2.730000000000000E-002   -7.518507210317253E-013
 -2.720000000000000E-002   -7.893576745615301E-013
 -2.710000000000000E-002   -7.908267057661463E-013
 -2.700000000000000E-002   -7.481597992192892E-013
 -2.690000000000000E-002   -6.539591823210699E-013
 -2.680000000000000E-002   -5.022585273116341E-013
 -2.670000000000000E-002   -2.893758715079053E-013
 -2.660000000000000E-002   -1.483538757356661E-014
 -2.650000000000000E-002    3.177214936141064E-013
 -2.640000000000000E-002    6.997412128016355E-013
 -2.630000000000000E-002    1.117201326393764E-012
 -2.620000000000000E-002    1.550421559106935E-012
 -2.610000000000000E-002    1.974361903342750E-012
 -2.600000000000000E-002    2.359501187474867E-012
 -2.590000000000000E-002    2.673344026988001E-012
 -2.580000000000000E-002    2.882540347705178E-012
 -2.570000000000000E-002    2.955529343377683E-012
 -2.560000000000000E-002    2.865537940078364E-012
 -2.550000000000000E-002    2.593687712529479E-012
 -2.540000000000000E-002    2.131900459032767E-012
 -2.530000000000000E-002    1.485259523503801E-012
 -2.520000000000000E-002    6.734739608638842E-013
 -2.510000000000000E-002   -2.688610024881276E-013
 -2.500000000000000E-002   -1.293435745515076E-012
 -2.490000000000000E-002   -2.340931906325071E-012
 -2.480000000000000E-002   -3.345201583644412E-012
 -2.470000000000000E-002   -4.238680549110671E-012
 -2.460000000000000E-002   -4.958614050734802E-012
 -2.450000000000000E-002   -5.453506049333157E-012
 -2.440000000000000E-002   -5.689094030759350E-012
 -2.430000000000000E-002   -5.653087683328499E-012
 -2.420000000000000E-002   -5.357945686221923E-012
 -2.410000000000000E-002   -4.841092767908076E-012
 -2.400000000000000E-002   -4.162188476838175E-012
 -2.390000000000000E-002   -3.397360598020492E-012
 -2.380000000000000E-002   -2.630677924117834E-012
 -2.370000000000000E-002   -1.943508222600264E-012
 -2.360000000000000E-002   -1.402774527710430E-012
 -2.350000000000000E-002   -1.049411870735981E-012
 -2.340000000000000E-002   -8.885092619493182E-013
 -2.330000000000000E-002   -8.826463614879760E-013
 -2.320000000000000E-002   -9.497828963739812E-013
 -2.310000000000000E-002   -9.667209241429539E-013
 -2.300000000000000E-002   -7.786357661381147E-013
 -2.290000000000000E-002   -2.145197362317043E-013
 -2.280000000000000E-002    8.923561661493786E-013
 -2.270000000000000E-002    2.680603684170911E-012
 -2.260000000000000E-002    5.235803941887250E-012
 -2.250000000000000E-002    8.567307919335516E-012
 -2.240000000000000E-002    1.258975642972212E-011
 -2.230000000000000E-002    1.711225544419825E-011
 -2.220000000000000E-002    2.183767915141826E-011
 -2.210000000000000E-002    2.637375849785866E-011
 -2.200000000000000E-002    3.025655353808423E-011
 -2.190000000000000E-002    3.298551661594823E-011
 -2.180000000000000E-002    3.406800649240526E-011
 -2.170000000000000E-002    3.306970292883624E-011
 -2.160000000000000E-002    2.966628373446337E-011
 -2.150000000000000E-002    2.369094598680098E-011
 -2.140000000000000E-002    1.517217915067694E-011
 -2.130000000000000E-002    4.356561054659305E-012
 -2.120000000000000E-002   -8.287622822583702E-012
 -2.110000000000000E-002   -2.208847960255834E-011
 -2.100000000000000E-002   -3.621079610558558E-011
 -2.090000000000000E-002   -4.971655901558742E-011
 -2.080000000000000E-002   -6.164133391403825E-011
 -2.070000000000000E-002   -7.107991367851052E-011
 -2.060000000000000E-002   -7.727292424409950E-011
 -2.050000000000000E-002   -7.968526620661980E-011
 -2.040000000000000E-002   -7.806710932749060E-011
 -2.030000000000000E-002   -7.248945337281874E-011
 -2.020000000000000E-002   -6.334827587631555E-011
 -2.010000000000000E-002   -5.133432782186289E-011
 -2.000000000000000E-002   -3.736933169845189E-011
 -1.990000000000000E-002   -2.251325352379702E-011
 -1.980000000000000E-002   -7.851068314304507E-012
 -1.970000000000000E-002    5.629401664176016E-012
 -1.960000000000000E-002    1.715492813136959E-011
 -1.950000000000000E-002    2.626526906155556E-011
 -1.940000000000000E-002    3.287913244188018E-011
 -1.930000000000000E-002    3.731699176303617E-011
 -1.920000000000000E-002    4.027416254213303E-011
 -1.910000000000000E-002    4.274288789708966E-011
 -1.900000000000000E-002    4.588820200906458E-011
 -1.890000000000000E-002    5.088834576524612E-011
 -1.880000000000000E-002    5.875581590585412E-011
 -1.870000000000000E-002    7.015906453003561E-011
 -1.860000000000000E-002    8.526680128967852E-011
 -1.850000000000000E-002    1.036363378600171E-010
 -1.840000000000000E-002    1.241643466883059E-010
 -1.830000000000000E-002    1.451128592136393E-010
 -1.820000000000000E-002    1.642157972369921E-010
 -1.810000000000000E-002    1.788623483226626E-010
 -1.800000000000000E-002    1.863441513960442E-010
 -1.790000000000000E-002    1.841446687466374E-010
 -1.780000000000000E-002    1.702418832829531E-010
 -1.770000000000000E-002    1.433917036178470E-010
 -1.760000000000000E-002    1.033578517609991E-010
 -1.750000000000000E-002    5.105761536250800E-011
 -1.740000000000000E-002   -1.140068271415778E-011
 -1.730000000000000E-002   -8.080248029265524E-011
 -1.720000000000000E-002   -1.530354409310790E-010
 -1.710000000000000E-002   -2.234091863865132E-010
 -1.700000000000000E-002   -2.870603982190090E-010
 -1.690000000000000E-002   -3.394057214649965E-010
 -1.680000000000000E-002   -3.765966877999654E-010
 -1.670000000000000E-002   -3.959269974838801E-010
 -1.660000000000000E-002   -3.961441753927008E-010
 -1.650000000000000E-002   -3.776250303027788E-010
 -1.640000000000000E-002   -3.423861703908527E-010
 -1.630000000000000E-002   -2.939179232067853E-010
 -1.620000000000000E-002   -2.368484829974157E-010
 -1.610000000000000E-002   -1.764651872419194E-010
 -1.600000000000000E-002   -1.181376468744456E-010
 -1.590000000000000E-002   -6.670156741094212E-011
 -1.580000000000000E-002   -2.587086122703611E-011
 -1.570000000000000E-002    2.253156767011297E-012
 -1.560000000000000E-002    1.751238791282132E-011
 -1.550000000000000E-002    2.181370480014256E-011
 -1.540000000000000E-002    1.901271660327597E-011
 -1.530000000000000E-002    1.455569469217055E-011
 -1.520000000000000E-002    1.490273764506145E-011
 -1.510000000000000E-002    2.678165262333303E-011
 -1.500000000000000E-002    5.634428421270813E-011
 -1.490000000000000E-002    1.083135618484592E-010
 -1.480000000000000E-002    1.852166193930533E-010
 -1.470000000000000E-002    2.867966115734713E-010
 -1.460000000000000E-002    4.096826633358083E-010
 -1.450000000000000E-002    5.473746564846343E-010
 -1.440000000000000E-002    6.905688175237077E-010
 -1.430000000000000E-002    8.278147097337173E-010
 -1.420000000000000E-002    9.464576443024192E-010
 -1.410000000000000E-002    1.033786537641237E-009
 -1.400000000000000E-002    1.078279476574911E-009
 -1.390000000000000E-002    1.070821715144539E-009
 -1.380000000000000E-002    1.005766944744872E-009
 -1.370000000000000E-002    8.817200066621173E-010
 -1.360000000000000E-002    7.019408627774299E-010
 -1.350000000000000E-002    4.743065448284379E-010
 -1.340000000000000E-002    2.108081780729141E-010
 -1.330000000000000E-002   -7.339056913078770E-011
 -1.320000000000000E-002   -3.612589770458350E-010
 -1.310000000000000E-002   -6.354519909474774E-010
 -1.300000000000000E-002   -8.799597341272713E-010
 -1.290000000000000E-002   -1.081684862707817E-009
 -1.280000000000000E-002   -1.231776810898902E-009
 -1.270000000000000E-002   -1.326567117491449E-009
 -1.260000000000000E-002   -1.367984543499113E-009
 -1.250000000000000E-002   -1.363374578416590E-009
 -1.240000000000000E-002   -1.324709168150900E-009
 -1.230000000000000E-002   -1.267232764320293E-009
 -1.220000000000000E-002   -1.207656468796400E-009
 -1.210000000000000E-002   -1.162064502159646E-009
 -1.200000000000000E-002   -1.143738619214257E-009
 -1.190000000000000E-002   -1.161127838715939E-009
 -1.180000000000000E-002   -1.216193180939911E-009
 -1.170000000000000E-002   -1.303330161265797E-009
 -1.160000000000000E-002   -1.409029891454542E-009
 -1.150000000000000E-002   -1.512373867760404E-009
 -1.140000000000000E-002   -1.586380524261450E-009
 -1.130000000000000E-002   -1.600138587295089E-009
 -1.120000000000000E-002   -1.521578247747506E-009
 -1.110000000000000E-002   -1.320661891955736E-009
 -1.100000000000000E-002   -9.727171990217732E-010
 -1.090000000000000E-002   -4.616087468009462E-010
 -1.080000000000000E-002    2.175631712354833E-010
 -1.070000000000000E-002    1.056519604153245E-009
 -1.060000000000000E-002    2.032844118862288E-009
 -1.050000000000000E-002    3.110159644491261E-009
 -1.040000000000000E-002    4.239493675480208E-009
 -1.030000000000000E-002    5.361779735819583E-009
 -1.020000000000000E-002    6.411339802580001E-009
 -1.010000000000000E-002    7.320094051925645E-009
 -1.000000000000000E-002    8.022171082751319E-009
 -9.899999999999999E-003    8.458554282142249E-009
 -9.800000000000000E-003    8.581370439328395E-009
 -9.699999999999999E-003    8.357472377359407E-009
 -9.599999999999999E-003    7.771006280656273E-009
 -9.500000000000000E-003    6.824765281723279E-009
 -9.399999999999999E-003    5.540222393282840E-009
 -9.299999999999999E-003    3.956279450269163E-009
 -9.200000000000000E-003    2.126889699301808E-009
 -9.099999999999999E-003    1.178201605713810E-010
 -8.999999999999999E-003   -1.997076193667317E-009
 -8.900000000000000E-003   -4.139658178459808E-009
 -8.799999999999999E-003   -6.230928462134315E-009
 -8.699999999999999E-003   -8.193681725572897E-009
 -8.600000000000000E-003   -9.954018116490656E-009
 -8.499999999999999E-003   -1.144150649156913E-008
 -8.399999999999999E-003   -1.258786129306903E-008
 -8.300000000000000E-003   -1.332421686682093E-008
 -8.199999999999999E-003   -1.357715405016948E-008
 -8.100000000000000E-003   -1.326387542961337E-008
 -8.000000000000000E-003   -1.228692801984105E-008
 -7.899999999999999E-003   -1.052901572994385E-008
 -7.800000000000000E-003   -7.848415273927218E-009
 -7.699999999999999E-003   -4.075538340329827E-009
 -7.599999999999999E-003    9.889977061841845E-010
 -7.499999999999999E-003    7.574464241883119E-009
 -7.399999999999999E-003    1.593821059491781E-008
 -7.299999999999999E-003    2.636199493821660E-008
 -7.199999999999999E-003    3.914673106889012E-008
 -7.100000000000000E-003    5.460610772885023E-008
 -6.999999999999999E-003    7.305961275833720E-008
 -6.899999999999999E-003    9.482565086847130E-008
 -6.800000000000000E-003    1.202154554649796E-007
 -6.699999999999999E-003    1.495283204237484E-007
 -6.599999999999999E-003    1.830488443776706E-007
 -6.499999999999999E-003    2.210464084332017E-007
 -6.399999999999999E-003    2.637770595692182E-007
 -6.299999999999999E-003    3.114877558507287E-007
 -6.199999999999999E-003    3.644226388481706E-007
 -6.100000000000000E-003    4.228307179069959E-007
 -5.999999999999999E-003    4.869744634367709E-007
 -5.899999999999999E-003    5.571382204804859E-007
 -5.800000000000000E-003    6.336358403395151E-007
 -5.699999999999999E-003    7.168167428014302E-007
 -5.599999999999999E-003    8.070694371957609E-007
 -5.499999999999999E-003    9.048227436135730E-007
 -5.399999999999999E-003    1.010543754477972E-006
 -5.299999999999999E-003    1.124733340322519E-006
 -5.199999999999999E-003    1.247918927666674E-006
 -5.099999999999999E-003    1.380645967977089E-006
 -4.999999999999999E-003    1.523468375979079E-006
 -4.899999999999999E-003    1.676939304609826E-006
 -4.799999999999999E-003    1.841603099815722E-006
 -4.699999999999999E-003    2.017989506622490E-006
 -4.599999999999999E-003    2.206610914938845E-006
 -4.499999999999999E-003    2.407963535567855E-006
 -4.399999999999999E-003    2.622532088272031E-006
 -4.299999999999999E-003    2.850798311648556E-006
 -4.199999999999999E-003    3.093253563658178E-006
 -4.099999999999999E-003    3.350413429110841E-006
 -3.999999999999999E-003    3.622833651223615E-006
 -3.899999999999999E-003    3.911128109173080E-006
 -3.799999999999999E-003    4.215983722428411E-006
 -3.699999999999999E-003    4.538174642991573E-006
 -3.599999999999999E-003    4.878573496974747E-006
 -3.499999999999999E-003    5.238159077737523E-006
 -3.399999999999999E-003    5.618018576535833E-006
 -3.299999999999999E-003    6.019347666376300E-006
 -3.199999999999999E-003    6.443445214752265E-006
 -3.099999999999999E-003    6.891706368548301E-006
 -2.999999999999999E-003    7.365612927575858E-006
 -2.899999999999999E-003    7.866725285476968E-006
 -2.799999999999999E-003    8.396670736765712E-006
 -2.699999999999999E-003    8.957141000591713E-006
 -2.599999999999999E-003    9.549887269423848E-006
 -2.499999999999999E-003    1.017672130507412E-005
 -2.399999999999999E-003    1.083952084722316E-005
 -2.299999999999999E-003    1.154024166516932E-005
 -2.199999999999999E-003    1.228092947426156E-005
 -2.099999999999999E-003    1.306373785371020E-005
 -1.999999999999999E-003    1.389094562044931E-005
 -1.899999999999999E-003    1.476497483269978E-005
 -1.799999999999999E-003    1.568840963354139E-005
 -1.699999999999999E-003    1.666400663984944E-005
 -1.599999999999999E-003    1.769470795599929E-005
 -1.499999999999999E-003    1.878364242795358E-005
 -1.399999999999999E-003    1.993412481790864E-005
 -1.299999999999999E-003    2.114965192449673E-005
 -1.199999999999999E-003    2.243389035193252E-005
 -1.099999999999999E-003    2.379066429989181E-005
 -9.999999999999989E-004    2.522394253685307E-005
 -8.999999999999990E-004    2.673782117071568E-005
 -7.999999999999990E-004    2.833652190738415E-005
 -6.999999999999989E-004    3.002438008610802E-005
 -5.999999999999990E-004    3.180585105215136E-005
 -4.999999999999989E-004    3.368551503251594E-005
 -3.999999999999989E-004    3.566809500354828E-005
 -2.999999999999989E-004    3.775849087095450E-005
 -1.999999999999989E-004    3.996179706482308E-005
 -9.999999999999892E-005    4.228334986950797E-005
  1.084202172485504E-018    4.472876294360892E-005
  1.000000000000011E-004    4.730396430951814E-005
  2.000000000000011E-004    5.001523473588651E-005
  3.000000000000011E-004    5.286923947394757E-005
  4.000000000000011E-004    5.587305258605530E-005
  5.000000000000011E-004    5.903417115210135E-005
  6.000000000000011E-004    6.236052838966405E-005
  7.000000000000011E-004    6.586047625522930E-005
  8.000000000000011E-004    6.954278339713101E-005
  9.000000000000012E-004    7.341662992022441E-005
  1.000000000000001E-003    7.749157152162872E-005
  1.100000000000001E-003    8.177752279841261E-005
  1.200000000000001E-003    8.628474643707147E-005
  1.300000000000001E-003    9.102384496731011E-005
  1.400000000000001E-003    9.600575229508697E-005
  1.500000000000001E-003    1.012417372852025E-004
  1.600000000000001E-003    1.067434325972941E-004
  1.700000000000001E-003    1.125228663229287E-004
  1.800000000000001E-003    1.185924917032431E-004
  1.900000000000001E-003    1.249652609389715E-004
  2.000000000000001E-003    1.316546285275030E-004
  2.100000000000001E-003    1.386746548368529E-004
  2.200000000000001E-003    1.460400221342710E-004
  2.300000000000001E-003    1.537661219006204E-004
  2.400000000000001E-003    1.618690474363581E-004
  2.500000000000001E-003    1.703656331074434E-004
  2.600000000000001E-003    1.792734769025936E-004
  2.700000000000001E-003    1.886109364800479E-004
  2.800000000000001E-003    1.983971386469534E-004
  2.900000000000001E-003    2.086519438579469E-004
  3.000000000000001E-003    2.193959219742596E-004
  3.100000000000001E-003    2.306503388372977E-004
  3.200000000000001E-003    2.424371803908747E-004
  3.300000000000001E-003    2.547791215814009E-004
  3.400000000000001E-003    2.676994584761471E-004
  3.500000000000001E-003    2.812222240339461E-004
  3.600000000000001E-003    2.953722228675575E-004
  3.700000000000001E-003    3.101749746408601E-004
  3.800000000000001E-003    3.256568697571722E-004
  3.900000000000001E-003    3.418452115786069E-004
  4.000000000000001E-003    3.587682499070743E-004
  4.100000000000001E-003    3.764552809222855E-004
  4.200000000000001E-003    3.949366905910900E-004
  4.300000000000001E-003    4.142440421017366E-004
  4.400000000000001E-003    4.344101138266486E-004
  4.500000000000001E-003    4.554688774615628E-004
  4.600000000000002E-003    4.774555353644620E-004
  4.700000000000001E-003    5.004065820093528E-004
  4.800000000000001E-003    5.243596995521367E-004
  4.900000000000002E-003    5.493537333637772E-004
  5.000000000000001E-003    5.754286454213587E-004
  5.100000000000001E-003    6.026256161435505E-004
  5.200000000000001E-003    6.309869174253022E-004
  5.300000000000002E-003    6.605558574132401E-004
  5.400000000000001E-003    6.913769245638037E-004
  5.500000000000001E-003    7.234956483419680E-004
  5.600000000000002E-003    7.569587991522580E-004
  5.700000000000001E-003    7.918142933722177E-004
  5.800000000000001E-003    8.281114795812478E-004
  5.900000000000002E-003    8.659009476039045E-004
  6.000000000000001E-003    9.052348865213982E-004
  6.100000000000001E-003    9.461670150987503E-004
  6.200000000000002E-003    9.887527780775385E-004
  6.300000000000002E-003    1.033049152123464E-003
  6.400000000000001E-003    1.079115154672195E-003
  6.500000000000001E-003    1.127011311600995E-003
  6.600000000000002E-003    1.176800188192248E-003
  6.700000000000001E-003    1.228545845402154E-003
  6.800000000000001E-003    1.282314381403563E-003
  6.900000000000002E-003    1.338173375087204E-003
  7.000000000000001E-003    1.396192159573475E-003
  7.100000000000001E-003    1.456441476669839E-003
  7.200000000000002E-003    1.518993740323289E-003
  7.300000000000002E-003    1.583922868120188E-003
  7.400000000000001E-003    1.651304135048712E-003
  7.500000000000001E-003    1.721214506259932E-003
  7.600000000000002E-003    1.793732211323285E-003
  7.700000000000001E-003    1.868937274926110E-003
  7.800000000000001E-003    1.946911478983988E-003
  7.900000000000001E-003    2.027737988735030E-003
  8.000000000000002E-003    2.111502206997034E-003
  8.100000000000001E-003    2.198291075038177E-003
  8.200000000000001E-003    2.288194075562772E-003
  8.300000000000002E-003    2.381302241936264E-003
  8.400000000000001E-003    2.477708872076469E-003
  8.500000000000002E-003    2.577509583365284E-003
  8.600000000000002E-003    2.680801643674313E-003
  8.700000000000001E-003    2.787684861724026E-003
  8.800000000000002E-003    2.898260384914409E-003
  8.900000000000002E-003    3.012631561481044E-003
  9.000000000000001E-003    3.130903202553570E-003
  9.100000000000002E-003    3.253181735144951E-003
  9.200000000000002E-003    3.379575187274806E-003
  9.300000000000001E-003    3.510192779759066E-003
  9.400000000000002E-003    3.645144906222014E-003
  9.500000000000001E-003    3.784543552257155E-003
  9.600000000000001E-003    3.928501794994715E-003
  9.700000000000002E-003    4.077133403094458E-003
  9.800000000000001E-003    4.230554115159325E-003
  9.900000000000001E-003    4.388880974122340E-003
  1.000000000000000E-002    4.552231550497715E-003
  1.010000000000000E-002    4.720725726148021E-003
  1.020000000000000E-002    4.894484127309403E-003
  1.030000000000000E-002    5.073629388931564E-003
  1.040000000000000E-002    5.258285145047676E-003
  1.050000000000000E-002    5.448576050194819E-003
  1.060000000000000E-002    5.644629033199963E-003
  1.070000000000000E-002    5.846570996243386E-003
  1.080000000000000E-002    6.054530595155427E-003
  1.090000000000000E-002    6.268637031244782E-003
  1.100000000000000E-002    6.489019833743117E-003
  1.110000000000000E-002    6.715809705596723E-003
  1.120000000000000E-002    6.949136670305224E-003
  1.130000000000000E-002    7.189130996066988E-003
  1.140000000000000E-002    7.435923417425188E-003
  1.150000000000000E-002    7.689644099981648E-003
  1.160000000000000E-002    7.950422598334481E-003
  1.170000000000000E-002    8.218388202757925E-003
  1.180000000000000E-002    8.493671693057528E-003
  1.190000000000000E-002    8.776400994983165E-003
  1.200000000000000E-002    9.066704647114249E-003
  1.210000000000000E-002    9.364710796894228E-003
  1.220000000000000E-002    9.670547443868277E-003
  1.230000000000000E-002    9.984342176508012E-003
  1.240000000000000E-002    1.030622124016758E-002
  1.250000000000000E-002    1.063631147812825E-002
  1.260000000000000E-002    1.097473790106630E-002
  1.270000000000000E-002    1.132162502340670E-002
  1.280000000000000E-002    1.167709592531817E-002
  1.290000000000000E-002    1.204127184846345E-002
  1.300000000000000E-002    1.241427289803331E-002
  1.310000000000000E-002    1.279621600384141E-002
  1.320000000000000E-002    1.318721662432044E-002
  1.330000000000000E-002    1.358738724393083E-002
  1.340000000000000E-002    1.399683824044804E-002
  1.350000000000000E-002    1.441567545745068E-002
  1.360000000000000E-002    1.484400320874870E-002
  1.370000000000000E-002    1.528192232001163E-002
  1.380000000000000E-002    1.572953029542816E-002
  1.390000000000000E-002    1.618691970173615E-002
  1.400000000000000E-002    1.665418117032106E-002
  1.410000000000000E-002    1.713140325413688E-002
  1.420000000000000E-002    1.761866847935027E-002
  1.430000000000000E-002    1.811605885123986E-002
  1.440000000000000E-002    1.862364768307588E-002
  1.450000000000000E-002    1.914150854970320E-002
  1.460000000000000E-002    1.966970886560449E-002
  1.470000000000000E-002    2.020831215310843E-002
  1.480000000000000E-002    2.075737578668690E-002
  1.490000000000000E-002    2.131695281298817E-002
  1.500000000000000E-002    2.188709014915285E-002
  1.510000000000000E-002    2.246783039080627E-002
  1.520000000000000E-002    2.305920760838244E-002
  1.530000000000000E-002    2.366125289033313E-002
  1.540000000000000E-002    2.427398816199670E-002
  1.550000000000000E-002    2.489742792657453E-002
  1.560000000000000E-002    2.553158140712730E-002
  1.570000000000000E-002    2.617645132357210E-002
  1.580000000000000E-002    2.683203166454531E-002
  1.590000000000000E-002    2.749830954806424E-002
  1.600000000000000E-002    2.817526562332002E-002
  1.610000000000000E-002    2.886287306973839E-002
  1.620000000000000E-002    2.956109720938603E-002
  1.630000000000000E-002    3.026989595228575E-002
  1.640000000000000E-002    3.098921889215087E-002
  1.650000000000000E-002    3.171901175104244E-002
  1.660000000000000E-002    3.245920525750452E-002
  1.670000000000000E-002    3.320972870312577E-002
  1.680000000000000E-002    3.397049837581059E-002
  1.690000000000000E-002    3.474142282490443E-002
  1.700000000000000E-002    3.552239921543197E-002
  1.710000000000000E-002    3.631332064900455E-002
  1.720000000000000E-002    3.711406521838389E-002
  1.730000000000000E-002    3.792450780841519E-002
  1.740000000000000E-002    3.874450832899031E-002
  1.750000000000000E-002    3.957391701322370E-002
  1.760000000000000E-002    4.041257589718814E-002
  1.770000000000000E-002    4.126031920377194E-002
  1.780000000000000E-002    4.211696863782564E-002
  1.790000000000000E-002    4.298233723426588E-002
  1.800000000000000E-002    4.385622922080502E-002
  1.810000000000000E-002    4.473843907762211E-002
  1.820000000000000E-002    4.562875309003186E-002
  1.830000000000000E-002    4.652694782401198E-002
  1.840000000000000E-002    4.743279144193959E-002
  1.850000000000000E-002    4.834604578883119E-002
  1.860000000000000E-002    4.926646525921911E-002
  1.870000000000000E-002    5.019379316576034E-002