 -4.000000000000000E-002    0.000000000000000E+000
 -3.990000000000000E-002    0.000000000000000E+000
 -3.980000000000000E-002    0.000000000000000E+000
 -3.970000000000000E-002    0.000000000000000E+000
 -3.960000000000000E-002    0.000000000000000E+000
 -3.950000000000000E-002    0.000000000000000E+000
 -3.940000000000000E-002    0.000000000000000E+000
 -3.930000000000000E-002    0.000000000000000E+000
 -3.920000000000000E-002    0.000000000000000E+000
 -3.910000000000000E-002    0.000000000000000E+000
 -3.900000000000000E-002    0.000000000000000E+000
 -3.890000000000000E-002    0.000000000000000E+000
 -3.880000000000000E-002    0.000000000000000E+000
 -3.870000000000000E-002    0.000000000000000E+000
 -3.860000000000000E-002    0.000000000000000E+000
 -3.850000000000000E-002    0.000000000000000E+000
 -3.840000000000000E-002    0.000000000000000E+000
 -3.830000000000000E-002    0.000000000000000E+000
 -3.820000000000000E-002    0.000000000000000E+000
 -3.810000000000000E-002    0.000000000000000E+000
 -3.800000000000000E-002    0.000000000000000E+000
 -3.790000000000000E-002    0.000000000000000E+000
 -3.780000000000000E-002    0.000000000000000E+000
 -3.770000000000000E-002    0.000000000000000E+000
 -3.760000000000000E-002    0.000000000000000E+000
 -3.750000000000000E-002    0.000000000000000E+000
 -3.740000000000000E-002    0.000000000000000E+000
 -3.730000000000000E-002    0.000000000000000E+000
 -3.720000000000000E-002    0.000000000000000E+000
 -3.710000000000000E-002    0.000000000000000E+000
 -3.700000000000000E-002    0.000000000000000E+000
 -3.690000000000000E-002    0.000000000000000E+000
 -3.680000000000000E-002    0.000000000000000E+000
 -3.670000000000000E-002    0.000000000000000E+000
 -3.660000000000000E-002    0.000000000000000E+000
 -3.650000000000000E-002    0.000000000000000E+000
 -3.640000000000000E-002    0.000000000000000E+000
 -3.630000000000000E-002    0.000000000000000E+000
 -3.620000000000000E-002    0.000000000000000E+000
 -3.610000000000000E-002    0.000000000000000E+000
 -3.600000000000000E-002    0.000000000000000E+000
 -3.590000000000000E-002    0.000000000000000E+000
 -3.580000000000000E-002    0.000000000000000E+000
 -3.570000000000000E-002    0.000000000000000E+000
 -3.560000000000000E-002    0.000000000000000E+000
 -3.550000000000000E-002    0.000000000000000E+000
 -3.540000000000000E-002    0.000000000000000E+000
 -3.530000000000000E-002    0.000000000000000E+000
 -3.520000000000000E-002    0.000000000000000E+000
 -3.510000000000000E-002    0.000000000000000E+000
 -3.500000000000000E-002    0.000000000000000E+000
 -3.490000000000000E-002    0.000000000000000E+000
 -3.480000000000000E-002    0.000000000000000E+000
 -3.470000000000000E-002    0.000000000000000E+000
 -3.460000000000000E-002    0.000000000000000E+000
 -3.450000000000000E-002    0.000000000000000E+000
 -3.440000000000000E-002    0.000000000000000E+000
 -3.430000000000000E-002    0.000000000000000E+000
 -3.420000000000000E-002    0.000000000000000E+000
 -3.410000000000000E-002    0.000000000000000E+000
 -3.400000000000000E-002    0.000000000000000E+000
 -3.390000000000000E-002    0.000000000000000E+000
 -3.380000000000000E-002    0.000000000000000E+000
 -3.370000000000000E-002    0.000000000000000E+000
 -3.360000000000000E-002    0.000000000000000E+000
 -3.350000000000000E-002    0.000000000000000E+000
 -3.340000000000000E-002    0.000000000000000E+000
 -3.330000000000000E-002    0.000000000000000E+000
 -3.320000000000000E-002    0.000000000000000E+000
 -3.310000000000000E-002    0.000000000000000E+000
 -3.300000000000000E-002    0.000000000000000E+000
 -3.290000000000000E-002    0.000000000000000E+000
 -3.280000000000000E-002    0.000000000000000E+000
 -3.270000000000000E-002    0.000000000000000E+000
 -3.260000000000000E-002    0.000000000000000E+000
 -3.250000000000000E-002    0.000000000000000E+000
 -3.240000000000000E-002    0.000000000000000E+000
 -3.230000000000000E-002    0.000000000000000E+000
 -3.220000000000000E-002    0.000000000000000E+000
 -3.210000000000000E-002    0.000000000000000E+000
 -3.200000000000000E-002    0.000000000000000E+000
 -3.190000000000000E-002    0.000000000000000E+000
 -3.180000000000000E-002    0.000000000000000E+000
 -3.170000000000000E-002    0.000000000000000E+000
 -3.160000000000000E-002    0.000000000000000E+000
 -3.150000000000000E-002    0.000000000000000E+000
 -3.140000000000000E-002    0.000000000000000E+000
 -3.130000000000000E-002    0.000000000000000E+000
 -3.120000000000000E-002    0.000000000000000E+000
 -3.110000000000000E-002    0.000000000000000E+000
 -3.100000000000000E-002    0.000000000000000E+000
 -3.090000000000000E-002    0.000000000000000E+000
 -3.080000000000000E-002    0.000000000000000E+000
 -3.070000000000000E-002    0.000000000000000E+000
 -3.060000000000000E-002    0.000000000000000E+000
 -3.050000000000000E-002    0.000000000000000E+000
 -3.040000000000000E-002    0.000000000000000E+000
 -3.030000000000000E-002    0.000000000000000E+000
 -3.020000000000000E-002    0.000000000000000E+000
 -3.010000000000000E-002    0.000000000000000E+000
 -3.000000000000000E-002    0.000000000000000E+000
 -2.990000000000000E-002    0.000000000000000E+000
 -2.980000000000000E-002    0.000000000000000E+000
 -2.970000000000000E-002    0.000000000000000E+000
 -2.960000000000000E-002    0.000000000000000E+000
 -2.950000000000000E-002    0.000000000000000E+000
 -2.940000000000000E-002    0.000000000000000E+000
 -2.930000000000000E-002    0.000000000000000E+000
 -2.920000000000000E-002    0.000000000000000E+000
 -2.910000000000000E-002    0.000000000000000E+000
 -2.900000000000000E-002    0.000000000000000E+000
 -2.890000000000000E-002    0.000000000000000E+000
 -2.880000000000000E-002    0.000000000000000E+000
 -2.870000000000000E-002    0.000000000000000E+000
 -2.860000000000000E-002    0.000000000000000E+000
 -2.850000000000000E-002    0.000000000000000E+000
 -2.840000000000000E-002    0.000000000000000E+000
 -2.830000000000000E-002    0.000000000000000E+000
 -2.820000000000000E-002    0.000000000000000E+000
 -2.810000000000000E-002    0.000000000000000E+000
 -2.800000000000000E-002    0.000000000000000E+000
 -2.790000000000000E-002    0.000000000000000E+000
 -2.780000000000000E-002    0.000000000000000E+000
 -2.770000000000000E-002    0.000000000000000E+000
 -2.760000000000000E-002    0.000000000000000E+000
 -2.750000000000000E-002    0.000000000000000E+000
 -2.740000000000000E-002    0.000000000000000E+000
 -2.730000000000000E-002    0.000000000000000E+000
 -2.720000000000000E-002    0.000000000000000E+000
 -2.710000000000000E-002    0.000000000000000E+000
 -2.700000000000000E-002    0.000000000000000E+000
 -2.690000000000000E-002    0.000000000000000E+000
 -2.680000000000000E-002    0.000000000000000E+000
 -2.670000000000000E-002    0.000000000000000E+000
 -2.660000000000000E-002    0.000000000000000E+000
 -2.650000000000000E-002    0.000000000000000E+000
 -2.640000000000000E-002    0.000000000000000E+000
 -2.630000000000000E-002    0.000000000000000E+000
 -2.620000000000000E-002    0.000000000000000E+000
 -2.610000000000000E-002    0.000000000000000E+000
 -2.600000000000000E-002    0.000000000000000E+000
 -2.590000000000000E-002    0.000000000000000E+000
 -2.580000000000000E-002    0.000000000000000E+000
 -2.570000000000000E-002    0.000000000000000E+000
 -2.560000000000000E-002    0.000000000000000E+000
 -2.550000000000000E-002    0.000000000000000E+000
 -2.540000000000000E-002    0.000000000000000E+000
 -2.530000000000000E-002    0.000000000000000E+000
 -2.520000000000000E-002    0.000000000000000E+000
 -2.510000000000000E-002    0.000000000000000E+000
 -2.500000000000000E-002    0.000000000000000E+000
 -2.490000000000000E-002    0.000000000000000E+000
 -2.480000000000000E-002    0.000000000000000E+000
 -2.470000000000000E-002    0.000000000000000E+000
 -2.460000000000000E-002    0.000000000000000E+000
 -2.450000000000000E-002    0.000000000000000E+000
 -2.440000000000000E-002    0.000000000000000E+000
 -2.430000000000000E-002    0.000000000000000E+000
 -2.420000000000000E-002    0.000000000000000E+000
 -2.410000000000000E-002    0.000000000000000E+000
 -2.400000000000000E-002    0.000000000000000E+000
 -2.390000000000000E-002    0.000000000000000E+000
 -2.380000000000000E-002    0.000000000000000E+000
 -2.370000000000000E-002    0.000000000000000E+000
 -2.360000000000000E-002    0.000000000000000E+000
 -2.350000000000000E-002    0.000000000000000E+000
 -2.340000000000000E-002    0.000000000000000E+000
 -2.330000000000000E-002    0.000000000000000E+000
 -2.320000000000000E-002    0.000000000000000E+000
 -2.310000000000000E-002    0.000000000000000E+000
 -2.300000000000000E-002    0.000000000000000E+000
 -2.290000000000000E-002    0.000000000000000E+000
 -2.280000000000000E-002    0.000000000000000E+000
 -2.270000000000000E-002    0.000000000000000E+000
 -2.260000000000000E-002    0.000000000000000E+000
 -2.250000000000000E-002    0.000000000000000E+000
 -2.240000000000000E-002    0.000000000000000E+000
 -2.230000000000000E-002    0.000000000000000E+000
 -2.220000000000000E-002    0.000000000000000E+000
 -2.210000000000000E-002    0.000000000000000E+000
 -2.200000000000000E-002    0.000000000000000E+000
 -2.190000000000000E-002    0.000000000000000E+000
 -2.180000000000000E-002    0.000000000000000E+000
 -2.170000000000000E-002    0.000000000000000E+000
 -2.160000000000000E-002    0.000000000000000E+000
 -2.150000000000000E-002    0.000000000000000E+000
 -2.140000000000000E-002    0.000000000000000E+000
 -2.130000000000000E-002    0.000000000000000E+000
 -2.120000000000000E-002    0.000000000000000E+000
 -2.110000000000000E-002    0.000000000000000E+000
 -2.100000000000000E-002    0.000000000000000E+000
 -2.090000000000000E-002    0.000000000000000E+000
 -2.080000000000000E-002    0.000000000000000E+000
 -2.070000000000000E-002    0.000000000000000E+000
 -2.060000000000000E-002    0.000000000000000E+000
 -2.050000000000000E-002    0.000000000000000E+000
 -2.040000000000000E-002    0.000000000000000E+000
 -2.030000000000000E-002    0.000000000000000E+000
 -2.020000000000000E-002    0.000000000000000E+000
 -2.010000000000000E-002    0.000000000000000E+000
 -2.000000000000000E-002    0.000000000000000E+000
 -1.990000000000000E-002    0.000000000000000E+000
 -1.980000000000000E-002    0.000000000000000E+000
 -1.970000000000000E-002    0.000000000000000E+000
 -1.960000000000000E-002    0.000000000000000E+000
 -1.950000000000000E-002    0.000000000000000E+000
 -1.940000000000000E-002    0.000000000000000E+000
 -1.930000000000000E-002    0.000000000000000E+000
 -1.920000000000000E-002    0.000000000000000E+000
 -1.910000000000000E-002    0.000000000000000E+000
 -1.900000000000000E-002    0.000000000000000E+000
 -1.890000000000000E-002    0.000000000000000E+000
 -1.880000000000000E-002    0.000000000000000E+000
 -1.870000000000000E-002    0.000000000000000E+000
 -1.860000000000000E-002    0.000000000000000E+000
 -1.850000000000000E-002    0.000000000000000E+000
 -1.840000000000000E-002    0.000000000000000E+000
 -1.830000000000000E-002    0.000000000000000E+000
 -1.820000000000000E-002    0.000000000000000E+000
 -1.810000000000000E-002    0.000000000000000E+000
 -1.800000000000000E-002    0.000000000000000E+000
 -1.790000000000000E-002    0.000000000000000E+000
 -1.780000000000000E-002    0.000000000000000E+000
 -1.770000000000000E-002    0.000000000000000E+000
 -1.760000000000000E-002    0.000000000000000E+000
 -1.750000000000000E-002    0.000000000000000E+000
 -1.740000000000000E-002    0.000000000000000E+000
 -1.730000000000000E-002    0.000000000000000E+000
 -1.720000000000000E-002    0.000000000000000E+000
 -1.710000000000000E-002    0.000000000000000E+000
 -1.700000000000000E-002    0.000000000000000E+000
 -1.690000000000000E-002    0.000000000000000E+000
 -1.680000000000000E-002    0.000000000000000E+000
 -1.670000000000000E-002    0.000000000000000E+000
 -1.660000000000000E-002    0.000000000000000E+000
 -1.650000000000000E-002    0.000000000000000E+000
 -1.640000000000000E-002    0.000000000000000E+000
 -1.630000000000000E-002    0.000000000000000E+000
 -1.620000000000000E-002    0.000000000000000E+000
 -1.610000000000000E-002    0.000000000000000E+000
 -1.600000000000000E-002    0.000000000000000E+000
 -1.590000000000000E-002    0.000000000000000E+000
 -1.580000000000000E-002    0.000000000000000E+000
 -1.570000000000000E-002    0.000000000000000E+000
 -1.560000000000000E-002    0.000000000000000E+000
 -1.550000000000000E-002    0.000000000000000E+000
 -1.540000000000000E-002    0.000000000000000E+000
 -1.530000000000000E-002    0.000000000000000E+000
 -1.520000000000000E-002    0.000000000000000E+000
 -1.510000000000000E-002    0.000000000000000E+000
 -1.500000000000000E-002    0.000000000000000E+000
 -1.490000000000000E-002    0.000000000000000E+000
 -1.480000000000000E-002    0.000000000000000E+000
 -1.470000000000000E-002    0.000000000000000E+000
 -1.460000000000000E-002    0.000000000000000E+000
 -1.450000000000000E-002    0.000000000000000E+000
 -1.440000000000000E-002    0.000000000000000E+000
 -1.430000000000000E-002    0.000000000000000E+000
 -1.420000000000000E-002    0.000000000000000E+000
 -1.410000000000000E-002    0.000000000000000E+000
 -1.400000000000000E-002    0.000000000000000E+000
 -1.390000000000000E-002    0.000000000000000E+000
 -1.380000000000000E-002    0.000000000000000E+000
 -1.370000000000000E-002    0.000000000000000E+000
 -1.360000000000000E-002    0.000000000000000E+000
 -1.350000000000000E-002    0.000000000000000E+000
 -1.340000000000000E-002    0.000000000000000E+000
 -1.330000000000000E-002    0.000000000000000E+000
 -1.320000000000000E-002    0.000000000000000E+000
 -1.310000000000000E-002    0.000000000000000E+000
 -1.300000000000000E-002    0.000000000000000E+000
 -1.290000000000000E-002    0.000000000000000E+000
 -1.280000000000000E-002    0.000000000000000E+000
 -1.270000000000000E-002    0.000000000000000E+000
 -1.260000000000000E-002    0.000000000000000E+000
 -1.250000000000000E-002    0.000000000000000E+000
 -1.240000000000000E-002    0.000000000000000E+000
 -1.230000000000000E-002    0.000000000000000E+000
 -1.220000000000000E-002    0.000000000000000E+000
 -1.210000000000000E-002    0.000000000000000E+000
 -1.200000000000000E-002    0.000000000000000E+000
 -1.190000000000000E-002    0.000000000000000E+000
 -1.180000000000000E-002    0.000000000000000E+000
 -1.170000000000000E-002    0.000000000000000E+000
 -1.160000000000000E-002    0.000000000000000E+000
 -1.150000000000000E-002    0.000000000000000E+000
 -1.140000000000000E-002    0.000000000000000E+000
 -1.130000000000000E-002    0.000000000000000E+000
 -1.120000000000000E-002    0.000000000000000E+000
 -1.110000000000000E-002    0.000000000000000E+000
 -1.100000000000000E-002    0.000000000000000E+000
 -1.090000000000000E-002    0.000000000000000E+000
 -1.080000000000000E-002    0.000000000000000E+000
 -1.070000000000000E-002    0.000000000000000E+000
 -1.060000000000000E-002    0.000000000000000E+000
 -1.050000000000000E-002    0.000000000000000E+000
 -1.040000000000000E-002    0.000000000000000E+000
 -1.030000000000000E-002    0.000000000000000E+000
 -1.020000000000000E-002    0.000000000000000E+000
 -1.010000000000000E-002    0.000000000000000E+000
 -1.000000000000000E-002    0.000000000000000E+000
 -9.899999999999999E-003    0.000000000000000E+000
 -9.800000000000000E-003    0.000000000000000E+000
 -9.699999999999999E-003    0.000000000000000E+000
 -9.599999999999999E-003    0.000000000000000E+000
 -9.500000000000000E-003    0.000000000000000E+000
 -9.399999999999999E-003    0.000000000000000E+000
 -9.299999999999999E-003    0.000000000000000E+000
 -9.200000000000000E-003    0.000000000000000E+000
 -9.099999999999999E-003    8.700000408781844E-049
 -8.999999999999999E-003    8.700000408781844E-049
 -8.900000000000000E-003    8.700000408781844E-049
 -8.799999999999999E-003    8.700000408781844E-049
 -8.699999999999999E-003    0.000000000000000E+000
 -8.600000000000000E-003   -8.700000408781844E-049
 -8.499999999999999E-003   -5.251643749891576E-048
 -8.399999999999999E-003   -6.991643831647945E-048
 -8.300000000000000E-003   -8.731643913404313E-048
 -8.199999999999999E-003   -1.047164399516068E-047
 -8.100000000000000E-003   -1.038200053008699E-047
 -8.000000000000000E-003    1.656553192137179E-048
 -7.899999999999999E-003    1.894675066425292E-047
 -7.800000000000000E-003    2.028611120750926E-047
 -7.699999999999999E-003    2.423547187340015E-047
 -7.599999999999999E-003    2.447718902666927E-047
 -7.499999999999999E-003    3.156782213718819E-047
 -7.399999999999999E-003    2.087855235987606E-047
 -7.299999999999999E-003   -1.337075087994843E-047
 -7.199999999999999E-003   -5.353560760453340E-048
 -7.100000000000000E-003    1.107838932712527E-046
 -6.999999999999999E-003    1.643982457726360E-046
 -6.899999999999999E-003    2.044651656635194E-046
 -6.800000000000000E-003    2.124481377907826E-046
 -6.699999999999999E-003    4.105823756301462E-046
 -6.599999999999999E-003    2.938406475066663E-046
 -6.499999999999999E-003    1.372783911199895E-046
 -6.399999999999999E-003   -2.752743222242046E-046
 -6.299999999999999E-003   -7.121195628825584E-046
 -6.199999999999999E-003   -9.668747943608810E-046
 -6.100000000000000E-003   -1.396175529566831E-045
 -5.999999999999999E-003   -1.774510068670291E-045
 -5.899999999999999E-003   -1.560590998254716E-045
 -5.800000000000000E-003   -9.371572310626314E-046
 -5.699999999999999E-003   -1.637178678866194E-046
 -5.599999999999999E-003   -3.225264348886137E-046
 -5.499999999999999E-003   -1.537504159815259E-046
 -5.399999999999999E-003    7.101716386388836E-047
 -5.299999999999999E-003   -1.111900956020840E-046
 -5.199999999999999E-003   -9.115373015892025E-046
 -5.099999999999999E-003   -2.358596514665492E-045
 -4.999999999999999E-003   -4.090873810206694E-045
 -4.899999999999999E-003   -6.043563470294892E-045
 -4.799999999999999E-003   -8.604889544512094E-045
 -4.699999999999999E-003   -1.137328028023281E-044
 -4.599999999999999E-003   -1.254718680490688E-044
 -4.499999999999999E-003   -1.283878303307625E-044
 -4.399999999999999E-003   -9.731871008281437E-045
 -4.299999999999999E-003   -2.514777728869356E-045
 -4.199999999999999E-003    9.550312355247190E-045
 -4.099999999999999E-003    2.699880143279698E-044
 -3.999999999999999E-003    4.838363558502885E-044
 -3.899999999999999E-003    6.964385278095348E-044
 -3.799999999999999E-003    8.876757600533486E-044
 -3.699999999999999E-003    9.907074281061885E-044
 -3.599999999999999E-003    9.426527046054276E-044
 -3.499999999999999E-003    6.856851992387364E-044
 -3.399999999999999E-003    1.635764463056601E-044
 -3.299999999999999E-003   -6.544235381386764E-044
 -3.199999999999999E-003   -1.750889892051288E-043
 -3.099999999999999E-003   -3.028362880249989E-043
 -2.999999999999999E-003   -4.337895140455037E-043
 -2.899999999999999E-003   -5.454987684530129E-043
 -2.799999999999999E-003   -6.075221762353098E-043
 -2.699999999999999E-003   -5.858921153816632E-043
 -2.599999999999999E-003   -4.500828516144258E-043
 -2.499999999999999E-003   -1.745590022101969E-043
 -2.399999999999999E-003    2.513437381781695E-043
 -2.299999999999999E-003    8.161240778293120E-043
 -2.199999999999999E-003    1.477753280766488E-042
 -2.099999999999999E-003    2.163388669653286E-042
 -1.999999999999999E-003    2.767035992017952E-042
 -1.899999999999999E-003    3.156165688595436E-042
 -1.799999999999999E-003    3.181988447288208E-042
 -1.699999999999999E-003    2.701268881555535E-042
 -1.599999999999999E-003    1.598803681775201E-042
 -1.499999999999999E-003   -1.844641468002891E-043
 -1.399999999999999E-003   -2.620999798997684E-042
 -1.299999999999999E-003   -5.574630368144286E-042
 -1.199999999999999E-003   -8.783033232659754E-042
 -1.099999999999999E-003   -1.185636470621878E-041
 -9.999999999999989E-004   -1.429250654890252E-041
 -8.999999999999990E-004   -1.551053988864383E-041
 -7.999999999999990E-004   -1.491277059325702E-041
 -6.999999999999989E-004   -1.195297253223357E-041
 -5.999999999999990E-004   -6.232896929031815E-042
 -4.999999999999989E-004    2.405548271598838E-042
 -3.999999999999989E-004    1.378357734330091E-041
 -2.999999999999989E-004    2.730705853638080E-041
 -1.999999999999989E-004    4.191206234151922E-041
 -9.999999999999892E-005    5.604962050744259E-041
  1.084202172485504E-018    6.771546359725053E-041
  1.000000000000011E-004    7.454053107152209E-041
  2.000000000000011E-004    7.394955239324349E-041
  3.000000000000011E-004    6.338756362242879E-041
  4.000000000000011E-004    4.062445872531793E-041
  5.000000000000011E-004    4.134058931368811E-042
  6.000000000000011E-004   -4.646661431875256E-041
  7.000000000000011E-004   -1.099314798779153E-040
  8.000000000000011E-004   -1.829047456603301E-040
  9.000000000000012E-004   -2.594906026662048E-040
  1.000000000000001E-003   -3.309709488192359E-040
  1.100000000000001E-003   -3.857787681496783E-040
  1.200000000000001E-003   -4.098620855855916E-040
  1.300000000000001E-003   -3.875761233281107E-040
  1.400000000000001E-003   -3.032208792267611E-040
  1.500000000000001E-003   -1.432997890554585E-040
  1.600000000000001E-003    1.005286204745288E-040
  1.700000000000001E-003    4.279588574978038E-040
  1.800000000000001E-003    8.263292699912209E-040
  1.900000000000001E-003    1.267222173665688E-039
  2.000000000000001E-003    1.704075823687287E-039
  2.100000000000001E-003    2.071658198412523E-039
  2.200000000000001E-003    2.288296176600381E-039
  2.300000000000001E-003    2.261674234781351E-039
  2.400000000000001E-003    1.898741133110899E-039
  2.500000000000001E-003    1.119775710332489E-039
  2.600000000000001E-003   -1.239976074219148E-040
  2.700000000000001E-003   -1.830710284394686E-039
  2.800000000000001E-003   -3.928436284406651E-039
  2.900000000000001E-003   -6.259299172876453E-039
  3.000000000000001E-003   -8.570941563861412E-039
  3.100000000000001E-003   -1.051943436574786E-038
  3.200000000000001E-003   -1.168730642585942E-038
  3.300000000000001E-003   -1.161927634665650E-038
  3.400000000000001E-003   -9.876355046310444E-039
  3.500000000000001E-003   -6.106377435808316E-039
  3.600000000000001E-003   -1.258098773212398E-040
  3.700000000000001E-003    7.995654911432726E-039
  3.800000000000001E-003    1.785939578431622E-038
  3.900000000000001E-003    2.868497814478386E-038
  4.000000000000001E-003    3.929492593454335E-038
  4.100000000000001E-003    4.815099419427851E-038
  4.200000000000001E-003    5.345238535324904E-038
  4.300000000000001E-003    5.330068461775372E-038
  4.400000000000001E-003    4.592820024323362E-038
  4.500000000000001E-003    2.997696176703005E-038
  4.600000000000002E-003    4.805145161341377E-039
  4.700000000000001E-003   -2.921184369074616E-038
  4.800000000000001E-003   -7.042640932815411E-038
  4.900000000000002E-003   -1.157549585098430E-037
  5.000000000000001E-003   -1.606501426980608E-037
  5.100000000000001E-003   -1.992482450929137E-037
  5.200000000000001E-003   -2.247192106859559E-037
  5.300000000000002E-003   -2.298295861879005E-037
  5.400000000000001E-003   -2.077065846278428E-037
  5.500000000000001E-003   -1.527669554871549E-037
  5.600000000000002E-003   -6.174713910806243E-038
  5.700000000000001E-003    6.525293003190919E-038
  5.800000000000001E-003    2.238222042928079E-037
  5.900000000000002E-003    4.045130522762258E-037
  6.000000000000001E-003    5.924720479851738E-037
  6.100000000000001E-003    7.675601774893808E-037
  6.200000000000002E-003    9.050824270032418E-037
  6.300000000000002E-003    9.772221353687900E-037
  6.400000000000001E-003    9.552350083002112E-037
  6.500000000000001E-003    8.123997915823606E-037
  6.600000000000002E-003    5.276518371747118E-037
  6.700000000000001E-003    8.972638456569295E-038
  6.800000000000001E-003   -4.984639498586188E-037
  6.900000000000002E-003   -1.215619419583029E-036
  7.000000000000001E-003   -2.018538340777635E-036
  7.100000000000001E-003   -2.839937559755230E-036
  7.200000000000002E-003   -3.588331765176037E-036
  7.300000000000002E-003   -4.150726312796063E-036
  7.400000000000001E-003   -4.398805211840997E-036
  7.500000000000001E-003   -4.199137505886950E-036
  7.600000000000002E-003   -3.427585881237835E-036
  7.700000000000001E-003   -1.987649792811077E-036
  7.800000000000001E-003    1.681698014725446E-037
  7.900000000000001E-003    3.015626677513303E-036
  8.000000000000002E-003    6.437044021926969E-036
  8.100000000000001E-003    1.020390434631897E-035
  8.200000000000001E-003    1.396751529872511E-035
  8.300000000000002E-003    1.726186287831793E-035
  8.400000000000001E-003    1.952255083603225E-035
  8.500000000000002E-003    2.012499269628732E-035
  8.600000000000002E-003    1.844349167730648E-035
  8.700000000000001E-003    1.393059628574133E-035
  8.800000000000002E-003    6.213253624753123E-036
  8.900000000000002E-003   -4.801286120734954E-036
  9.000000000000001E-003   -1.882038191457354E-035
  9.100000000000002E-003   -3.507581784057579E-035
  9.200000000000002E-003   -5.226526424936991E-035
  9.300000000000001E-003   -6.854342447319718E-035
  9.400000000000002E-003   -8.158019561311609E-035
  9.500000000000001E-003   -8.870010368978330E-035
  9.600000000000001E-003   -8.711099985324971E-035
  9.700000000000002E-003   -7.422120799252183E-035
  9.800000000000001E-003   -4.803233503688636E-035
  9.900000000000001E-003   -7.581207240754068E-036
  1.000000000000000E-002    4.661018173809315E-035
  1.010000000000000E-002    1.121318358410235E-034
  1.020000000000000E-002    1.843962863784234E-034
  1.030000000000000E-002    2.565346784279184E-034
  1.040000000000000E-002    3.195494801197878E-034
  1.050000000000000E-002    3.627836624941092E-034
  1.060000000000000E-002    3.747450820385490E-034
  1.070000000000000E-002    3.442903406505173E-034
  1.080000000000000E-002    2.621289828726879E-034
  1.090000000000000E-002    1.225557562109830E-034
  1.100000000000000E-002   -7.473899151695397E-035
  1.110000000000000E-002   -3.229859257191630E-034
  1.120000000000000E-002   -6.070321290113325E-034
  1.130000000000000E-002   -9.026956087850255E-034
  1.140000000000000E-002   -1.177059722769224E-033
  1.150000000000000E-002   -1.389955118080793E-033
  1.160000000000000E-002   -1.496797317635407E-033
  1.170000000000000E-002   -1.452829047397961E-033
  1.180000000000000E-002   -1.218647863981639E-033
  1.190000000000000E-002   -7.667045067019087E-034
  1.200000000000000E-002   -8.823203788279775E-035
  1.210000000000000E-002    8.001397054169857E-034
  1.220000000000000E-002    1.851020628087877E-033
  1.230000000000000E-002    2.983187734426048E-033
  1.240000000000000E-002    4.081865459505931E-033
  1.250000000000000E-002    5.003291967796893E-033
  1.260000000000000E-002    5.584226934467157E-033
  1.270000000000000E-002    5.656618589133460E-033
  1.280000000000000E-002    5.067041714732151E-033
  1.290000000000000E-002    3.699805006600452E-033
  1.300000000000000E-002    1.501847919337497E-033
  1.310000000000000E-002   -1.493213105657637E-033
  1.320000000000000E-002   -5.145135674852480E-033
  1.330000000000000E-002   -9.194858921058967E-033
  1.340000000000000E-002   -1.326368437679246E-032
  1.350000000000000E-002   -1.686704669521014E-032
  1.360000000000000E-002   -1.944508310558022E-032
  1.370000000000000E-002   -2.041069210229833E-032
  1.380000000000000E-002   -1.921376142774882E-032
  1.390000000000000E-002   -1.541784685772854E-032
  1.400000000000000E-002   -8.783167066202892E-033
  1.410000000000000E-002    6.528199824043200E-034
  1.420000000000000E-002    1.250762814793694E-032
  1.430000000000000E-002    2.601043298777784E-032
  1.440000000000000E-002    3.999470830173642E-032
  1.450000000000000E-002    5.293676931277442E-032
  1.460000000000000E-002    6.304704057045273E-032
  1.470000000000000E-002    6.841609739438617E-032
  1.480000000000000E-002    6.721141577773526E-032
  1.490000000000000E-002    5.791349435821185E-032
  1.500000000000000E-002    3.957275004738311E-032
  1.510000000000000E-002    1.206143908186402E-032
  1.520000000000000E-002   -2.371053850957461E-032
  1.530000000000000E-002   -6.565026114332630E-032
  1.540000000000000E-002   -1.104405496091262E-031
  1.550000000000000E-002   -1.536323775882833E-031
  1.560000000000000E-002   -1.898913091981030E-031
  1.570000000000000E-002   -2.134048879274727E-031
  1.580000000000000E-002   -2.184406046506478E-031
  1.590000000000000E-002   -2.000241787167796E-031
  1.600000000000000E-002   -1.546869241451058E-031
  1.610000000000000E-002   -8.121116631205148E-032
  1.620000000000000E-002    1.871248998451270E-032
  1.630000000000000E-002    1.400115395434858E-031
  1.640000000000000E-002    2.740373166070302E-031
  1.650000000000000E-002    4.087343920154710E-031
  1.660000000000000E-002    5.292348593788445E-031
  1.670000000000000E-002    6.189034945186881E-031
  1.680000000000000E-002    6.608135577475627E-031
  1.690000000000000E-002    6.395798265217029E-031
  1.700000000000000E-002    5.434192625534394E-031
  1.710000000000000E-002    3.662537058598996E-031
  1.720000000000000E-002    1.096284891443746E-031
  1.730000000000000E-002   -2.158105046289048E-031
  1.740000000000000E-002   -5.895399575274460E-031
  1.750000000000000E-002   -9.813188858137635E-031
  1.760000000000000E-002   -1.352462751602104E-030
  1.770000000000000E-002   -1.658321961905331E-030
  1.780000000000000E-002   -1.851938950863607E-030
  1.790000000000000E-002   -1.888714037084768E-030
  1.800000000000000E-002   -1.731772252151641E-030
  1.810000000000000E-002   -1.357569405548873E-030
  1.820000000000000E-002   -7.611668689070013E-031
  1.830000000000000E-002    3.947741426926340E-032
  1.840000000000000E-002    1.000872404473443E-030
  1.850000000000000E-002    2.053629192904436E-030
  1.860000000000000E-002    3.104848068571461E-030
  1.870000000000000E-002    4.043525303479765E-030