 -4.000000000000000E-002    0.000000000000000E+000
 -3.990000000000000E-002    0.000000000000000E+000
 -3.980000000000000E-002    0.000000000000000E+000
 -3.970000000000000E-002    0.000000000000000E+000
 -3.960000000000000E-002    0.000000000000000E+000
 -3.950000000000000E-002    0.000000000000000E+000
 -3.940000000000000E-002    0.000000000000000E+000
 -3.930000000000000E-002    0.000000000000000E+000
 -3.920000000000000E-002    0.000000000000000E+000
 -3.910000000000000E-002    0.000000000000000E+000
 -3.900000000000000E-002    0.000000000000000E+000
 -3.890000000000000E-002    0.000000000000000E+000
 -3.880000000000000E-002    0.000000000000000E+000
 -3.870000000000000E-002    0.000000000000000E+000
 -3.860000000000000E-002    0.000000000000000E+000
 -3.850000000000000E-002    0.000000000000000E+000
 -3.840000000000000E-002    0.000000000000000E+000
 -3.830000000000000E-002    0.000000000000000E+000
 -3.820000000000000E-002    0.000000000000000E+000
 -3.810000000000000E-002    0.000000000000000E+000
 -3.800000000000000E-002    0.000000000000000E+000
 -3.790000000000000E-002    0.000000000000000E+000
 -3.780000000000000E-002    0.000000000000000E+000
 -3.770000000000000E-002    0.000000000000000E+000
 -3.760000000000000E-002    0.000000000000000E+000
 -3.750000000000000E-002    0.000000000000000E+000
 -3.740000000000000E-002    0.000000000000000E+000
 -3.730000000000000E-002    0.000000000000000E+000
 -3.720000000000000E-002    0.000000000000000E+000
 -3.710000000000000E-002    0.000000000000000E+000
 -3.700000000000000E-002    0.000000000000000E+000
 -3.690000000000000E-002    0.000000000000000E+000
 -3.680000000000000E-002    0.000000000000000E+000
 -3.670000000000000E-002    0.000000000000000E+000
 -3.660000000000000E-002    0.000000000000000E+000
 -3.650000000000000E-002    0.000000000000000E+000
 -3.640000000000000E-002    0.000000000000000E+000
 -3.630000000000000E-002    0.000000000000000E+000
 -3.620000000000000E-002    0.000000000000000E+000
 -3.610000000000000E-002    0.000000000000000E+000
 -3.600000000000000E-002    0.000000000000000E+000
 -3.590000000000000E-002    0.000000000000000E+000
 -3.580000000000000E-002    0.000000000000000E+000
 -3.570000000000000E-002    0.000000000000000E+000
 -3.560000000000000E-002    0.000000000000000E+000
 -3.550000000000000E-002    0.000000000000000E+000
 -3.540000000000000E-002    0.000000000000000E+000
 -3.530000000000000E-002    0.000000000000000E+000
 -3.520000000000000E-002    0.000000000000000E+000
 -3.510000000000000E-002    0.000000000000000E+000
 -3.500000000000000E-002    0.000000000000000E+000
 -3.490000000000000E-002    0.000000000000000E+000
 -3.480000000000000E-002    0.000000000000000E+000
 -3.470000000000000E-002    0.000000000000000E+000
 -3.460000000000000E-002    0.000000000000000E+000
 -3.450000000000000E-002    0.000000000000000E+000
 -3.440000000000000E-002    0.000000000000000E+000
 -3.430000000000000E-002    0.000000000000000E+000
 -3.420000000000000E-002    0.000000000000000E+000
 -3.410000000000000E-002    0.000000000000000E+000
 -3.400000000000000E-002    0.000000000000000E+000
 -3.390000000000000E-002    0.000000000000000E+000
 -3.380000000000000E-002    0.000000000000000E+000
 -3.370000000000000E-002    0.000000000000000E+000
 -3.360000000000000E-002    0.000000000000000E+000
 -3.350000000000000E-002    0.000000000000000E+000
 -3.340000000000000E-002    0.000000000000000E+000
 -3.330000000000000E-002    0.000000000000000E+000
 -3.320000000000000E-002    0.000000000000000E+000
 -3.310000000000000E-002    0.000000000000000E+000
 -3.300000000000000E-002    0.000000000000000E+000
 -3.290000000000000E-002    0.000000000000000E+000
 -3.280000000000000E-002    0.000000000000000E+000
 -3.270000000000000E-002    0.000000000000000E+000
 -3.260000000000000E-002    0.000000000000000E+000
 -3.250000000000000E-002    0.000000000000000E+000
 -3.240000000000000E-002    0.000000000000000E+000
 -3.230000000000000E-002    0.000000000000000E+000
 -3.220000000000000E-002    0.000000000000000E+000
 -3.210000000000000E-002    0.000000000000000E+000
 -3.200000000000000E-002    0.000000000000000E+000
 -3.190000000000000E-002    0.000000000000000E+000
 -3.180000000000000E-002    0.000000000000000E+000
 -3.170000000000000E-002    0.000000000000000E+000
 -3.160000000000000E-002    0.000000000000000E+000
 -3.150000000000000E-002    0.000000000000000E+000
 -3.140000000000000E-002    0.000000000000000E+000
 -3.130000000000000E-002    0.000000000000000E+000
 -3.120000000000000E-002    0.000000000000000E+000
 -3.110000000000000E-002    0.000000000000000E+000
 -3.100000000000000E-002    0.000000000000000E+000
 -3.090000000000000E-002    0.000000000000000E+000
 -3.080000000000000E-002    0.000000000000000E+000
 -3.070000000000000E-002    0.000000000000000E+000
 -3.060000000000000E-002    0.000000000000000E+000
 -3.050000000000000E-002    0.000000000000000E+000
 -3.040000000000000E-002    0.000000000000000E+000
 -3.030000000000000E-002    0.000000000000000E+000
 -3.020000000000000E-002    0.000000000000000E+000
 -3.010000000000000E-002    0.000000000000000E+000
 -3.000000000000000E-002    0.000000000000000E+000
 -2.990000000000000E-002    0.000000000000000E+000
 -2.980000000000000E-002    0.000000000000000E+000
 -2.970000000000000E-002    0.000000000000000E+000
 -2.960000000000000E-002    0.000000000000000E+000
 -2.950000000000000E-002    0.000000000000000E+000
 -2.940000000000000E-002    0.000000000000000E+000
 -2.930000000000000E-002    0.000000000000000E+000
 -2.920000000000000E-002    0.000000000000000E+000
 -2.910000000000000E-002    0.000000000000000E+000
 -2.900000000000000E-002    0.000000000000000E+000
 -2.890000000000000E-002    0.000000000000000E+000
 -2.880000000000000E-002    0.000000000000000E+000
 -2.870000000000000E-002    0.000000000000000E+000
 -2.860000000000000E-002    0.000000000000000E+000
 -2.850000000000000E-002    0.000000000000000E+000
 -2.840000000000000E-002    0.000000000000000E+000
 -2.830000000000000E-002    0.000000000000000E+000
 -2.820000000000000E-002    0.000000000000000E+000
 -2.810000000000000E-002    0.000000000000000E+000
 -2.800000000000000E-002    0.000000000000000E+000
 -2.790000000000000E-002    0.000000000000000E+000
 -2.780000000000000E-002    0.000000000000000E+000
 -2.770000000000000E-002    0.000000000000000E+000
 -2.760000000000000E-002    0.000000000000000E+000
 -2.750000000000000E-002    0.000000000000000E+000
 -2.740000000000000E-002    0.000000000000000E+000
 -2.730000000000000E-002    0.000000000000000E+000
 -2.720000000000000E-002    0.000000000000000E+000
 -2.710000000000000E-002    0.000000000000000E+000
 -2.700000000000000E-002    0.000000000000000E+000
 -2.690000000000000E-002    0.000000000000000E+000
 -2.680000000000000E-002    0.000000000000000E+000
 -2.670000000000000E-002    0.000000000000000E+000
 -2.660000000000000E-002    0.000000000000000E+000
 -2.650000000000000E-002    0.000000000000000E+000
 -2.640000000000000E-002    0.000000000000000E+000
 -2.630000000000000E-002    0.000000000000000E+000
 -2.620000000000000E-002    0.000000000000000E+000
 -2.610000000000000E-002    0.000000000000000E+000
 -2.600000000000000E-002    0.000000000000000E+000
 -2.590000000000000E-002    0.000000000000000E+000
 -2.580000000000000E-002    0.000000000000000E+000
 -2.570000000000000E-002    0.000000000000000E+000
 -2.560000000000000E-002    0.000000000000000E+000
 -2.550000000000000E-002    0.000000000000000E+000
 -2.540000000000000E-002    0.000000000000000E+000
 -2.530000000000000E-002    0.000000000000000E+000
 -2.520000000000000E-002    0.000000000000000E+000
 -2.510000000000000E-002    0.000000000000000E+000
 -2.500000000000000E-002    0.000000000000000E+000
 -2.490000000000000E-002    0.000000000000000E+000
 -2.480000000000000E-002    0.000000000000000E+000
 -2.470000000000000E-002    0.000000000000000E+000
 -2.460000000000000E-002    0.000000000000000E+000
 -2.450000000000000E-002    0.000000000000000E+000
 -2.440000000000000E-002    0.000000000000000E+000
 -2.430000000000000E-002    0.000000000000000E+000
 -2.420000000000000E-002    0.000000000000000E+000
 -2.410000000000000E-002    0.000000000000000E+000
 -2.400000000000000E-002    0.000000000000000E+000
 -2.390000000000000E-002    0.000000000000000E+000
 -2.380000000000000E-002    0.000000000000000E+000
 -2.370000000000000E-002    0.000000000000000E+000
 -2.360000000000000E-002    0.000000000000000E+000
 -2.350000000000000E-002    0.000000000000000E+000
 -2.340000000000000E-002    0.000000000000000E+000
 -2.330000000000000E-002    0.000000000000000E+000
 -2.320000000000000E-002    0.000000000000000E+000
 -2.310000000000000E-002    0.000000000000000E+000
 -2.300000000000000E-002    0.000000000000000E+000
 -2.290000000000000E-002    0.000000000000000E+000
 -2.280000000000000E-002    0.000000000000000E+000
 -2.270000000000000E-002    0.000000000000000E+000
 -2.260000000000000E-002    0.000000000000000E+000
 -2.250000000000000E-002    0.000000000000000E+000
 -2.240000000000000E-002    0.000000000000000E+000
 -2.230000000000000E-002    0.000000000000000E+000
 -2.220000000000000E-002    0.000000000000000E+000
 -2.210000000000000E-002    0.000000000000000E+000
 -2.200000000000000E-002    0.000000000000000E+000
 -2.190000000000000E-002    0.000000000000000E+000
 -2.180000000000000E-002    0.000000000000000E+000
 -2.170000000000000E-002    0.000000000000000E+000
 -2.160000000000000E-002    0.000000000000000E+000
 -2.150000000000000E-002    0.000000000000000E+000
 -2.140000000000000E-002    0.000000000000000E+000
 -2.130000000000000E-002    0.000000000000000E+000
 -2.120000000000000E-002    0.000000000000000E+000
 -2.110000000000000E-002    0.000000000000000E+000
 -2.100000000000000E-002    0.000000000000000E+000
 -2.090000000000000E-002    0.000000000000000E+000
 -2.080000000000000E-002    0.000000000000000E+000
 -2.070000000000000E-002    0.000000000000000E+000
 -2.060000000000000E-002    0.000000000000000E+000
 -2.050000000000000E-002    0.000000000000000E+000
 -2.040000000000000E-002    0.000000000000000E+000
 -2.030000000000000E-002    0.000000000000000E+000
 -2.020000000000000E-002    0.000000000000000E+000
 -2.010000000000000E-002    0.000000000000000E+000
 -2.000000000000000E-002    0.000000000000000E+000
 -1.990000000000000E-002    0.000000000000000E+000
 -1.980000000000000E-002    0.000000000000000E+000
 -1.970000000000000E-002    0.000000000000000E+000
 -1.960000000000000E-002    0.000000000000000E+000
 -1.950000000000000E-002    0.000000000000000E+000
 -1.940000000000000E-002    0.000000000000000E+000
 -1.930000000000000E-002    0.000000000000000E+000
 -1.920000000000000E-002    0.000000000000000E+000
 -1.910000000000000E-002    0.000000000000000E+000
 -1.900000000000000E-002    0.000000000000000E+000
 -1.890000000000000E-002    0.000000000000000E+000
 -1.880000000000000E-002    0.000000000000000E+000
 -1.870000000000000E-002    0.000000000000000E+000
 -1.860000000000000E-002    0.000000000000000E+000
 -1.850000000000000E-002    0.000000000000000E+000
 -1.840000000000000E-002    0.000000000000000E+000
 -1.830000000000000E-002    0.000000000000000E+000
 -1.820000000000000E-002    0.000000000000000E+000
 -1.810000000000000E-002    0.000000000000000E+000
 -1.800000000000000E-002    0.000000000000000E+000
 -1.790000000000000E-002    0.000000000000000E+000
 -1.780000000000000E-002    0.000000000000000E+000
 -1.770000000000000E-002    0.000000000000000E+000
 -1.760000000000000E-002    0.000000000000000E+000
 -1.750000000000000E-002    0.000000000000000E+000
 -1.740000000000000E-002    0.000000000000000E+000
 -1.730000000000000E-002    0.000000000000000E+000
 -1.720000000000000E-002    0.000000000000000E+000
 -1.710000000000000E-002    0.000000000000000E+000
 -1.700000000000000E-002    0.000000000000000E+000
 -1.690000000000000E-002    0.000000000000000E+000
 -1.680000000000000E-002    0.000000000000000E+000
 -1.670000000000000E-002    0.000000000000000E+000
 -1.660000000000000E-002    0.000000000000000E+000
 -1.650000000000000E-002    0.000000000000000E+000
 -1.640000000000000E-002    0.000000000000000E+000
 -1.630000000000000E-002    0.000000000000000E+000
 -1.620000000000000E-002    0.000000000000000E+000
 -1.610000000000000E-002    0.000000000000000E+000
 -1.600000000000000E-002    0.000000000000000E+000
 -1.590000000000000E-002    0.000000000000000E+000
 -1.580000000000000E-002    0.000000000000000E+000
 -1.570000000000000E-002    0.000000000000000E+000
 -1.560000000000000E-002    0.000000000000000E+000
 -1.550000000000000E-002    0.000000000000000E+000
 -1.540000000000000E-002    0.000000000000000E+000
 -1.530000000000000E-002    0.000000000000000E+000
 -1.520000000000000E-002    0.000000000000000E+000
 -1.510000000000000E-002    0.000000000000000E+000
 -1.500000000000000E-002    0.000000000000000E+000
 -1.490000000000000E-002    0.000000000000000E+000
 -1.480000000000000E-002    0.000000000000000E+000
 -1.470000000000000E-002    0.000000000000000E+000
 -1.460000000000000E-002    0.000000000000000E+000
 -1.450000000000000E-002    0.000000000000000E+000
 -1.440000000000000E-002    0.000000000000000E+000
 -1.430000000000000E-002    0.000000000000000E+000
 -1.420000000000000E-002    0.000000000000000E+000
 -1.410000000000000E-002    0.000000000000000E+000
 -1.400000000000000E-002    0.000000000000000E+000
 -1.390000000000000E-002    0.000000000000000E+000
 -1.380000000000000E-002    0.000000000000000E+000
 -1.370000000000000E-002    0.000000000000000E+000
 -1.360000000000000E-002    0.000000000000000E+000
 -1.350000000000000E-002    0.000000000000000E+000
 -1.340000000000000E-002    0.000000000000000E+000
 -1.330000000000000E-002    0.000000000000000E+000
 -1.320000000000000E-002    0.000000000000000E+000
 -1.310000000000000E-002    0.000000000000000E+000
 -1.300000000000000E-002    0.000000000000000E+000
 -1.290000000000000E-002    0.000000000000000E+000
 -1.280000000000000E-002    0.000000000000000E+000
 -1.270000000000000E-002    0.000000000000000E+000
 -1.260000000000000E-002    0.000000000000000E+000
 -1.250000000000000E-002    0.000000000000000E+000
 -1.240000000000000E-002    0.000000000000000E+000
 -1.230000000000000E-002    0.000000000000000E+000
 -1.220000000000000E-002    0.000000000000000E+000
 -1.210000000000000E-002    0.000000000000000E+000
 -1.200000000000000E-002    0.000000000000000E+000
 -1.190000000000000E-002    0.000000000000000E+000
 -1.180000000000000E-002    0.000000000000000E+000
 -1.170000000000000E-002    0.000000000000000E+000
 -1.160000000000000E-002    0.000000000000000E+000
 -1.150000000000000E-002    0.000000000000000E+000
 -1.140000000000000E-002    0.000000000000000E+000
 -1.130000000000000E-002    0.000000000000000E+000
 -1.120000000000000E-002    0.000000000000000E+000
 -1.110000000000000E-002    0.000000000000000E+000
 -1.100000000000000E-002    0.000000000000000E+000
 -1.090000000000000E-002    0.000000000000000E+000
 -1.080000000000000E-002    0.000000000000000E+000
 -1.070000000000000E-002    0.000000000000000E+000
 -1.060000000000000E-002    0.000000000000000E+000
 -1.050000000000000E-002    0.000000000000000E+000
 -1.040000000000000E-002    0.000000000000000E+000
 -1.030000000000000E-002    0.000000000000000E+000
 -1.020000000000000E-002    0.000000000000000E+000
 -1.010000000000000E-002    0.000000000000000E+000
 -1.000000000000000E-002    0.000000000000000E+000
 -9.899999999999999E-003    0.000000000000000E+000
 -9.800000000000000E-003    0.000000000000000E+000
 -9.699999999999999E-003    0.000000000000000E+000
 -9.599999999999999E-003    0.000000000000000E+000
 -9.500000000000000E-003    0.000000000000000E+000
 -9.399999999999999E-003    0.000000000000000E+000
 -9.299999999999999E-003    0.000000000000000E+000
 -9.200000000000000E-003    0.000000000000000E+000
 -9.099999999999999E-003    8.210456020062442E-049
 -8.999999999999999E-003    8.210456020062442E-049
 -8.900000000000000E-003    8.210456020062442E-049
 -8.799999999999999E-003    8.210456020062442E-049
 -8.699999999999999E-003    0.000000000000000E+000
 -8.600000000000000E-003   -8.210456020062442E-049
 -8.499999999999999E-003   -4.956136553510569E-048
 -8.399999999999999E-003   -6.598227757523057E-048
 -8.300000000000000E-003   -8.240318961535545E-048
 -8.199999999999999E-003   -9.882410165548034E-048
 -8.100000000000000E-003   -9.797810890503098E-048
 -8.000000000000000E-003    8.966283103483508E-049
 -7.899999999999999E-003    1.654720406471037E-047
 -7.800000000000000E-003    1.714448798756944E-047
 -7.699999999999999E-003    2.020490871644725E-047
 -7.599999999999999E-003    1.976631305818523E-047
 -7.499999999999999E-003    2.450227287437433E-047
 -7.399999999999999E-003    1.581660257404731E-047
 -7.299999999999999E-003   -9.041680266426652E-048
 -7.199999999999999E-003   -1.566790911086563E-048
 -7.100000000000000E-003    7.425745454707309E-047
 -6.999999999999999E-003    1.052318629682335E-046
 -6.899999999999999E-003    7.730135937210743E-047
 -6.800000000000000E-003    3.787418509561815E-047
 -6.699999999999999E-003   -4.507654376766088E-047
 -6.599999999999999E-003   -1.604071074809925E-046
 -6.499999999999999E-003   -2.492149033677542E-046
 -6.399999999999999E-003   -3.266186960010321E-046
 -6.299999999999999E-003   -3.578704653269825E-046
 -6.199999999999999E-003   -3.639669122154624E-046
 -6.100000000000000E-003   -2.694769910270300E-046
 -5.999999999999999E-003   -1.304684838237005E-046
 -5.899999999999999E-003    6.030656532185906E-047
 -5.800000000000000E-003    7.746347865215147E-046
 -5.699999999999999E-003    1.316000097225066E-045
 -5.599999999999999E-003    1.353298720200705E-045
 -5.499999999999999E-003    1.139081656366625E-045
 -5.399999999999999E-003    3.100389206443470E-046
 -5.299999999999999E-003   -1.065776309536520E-045
 -5.199999999999999E-003   -2.618994655197653E-045
 -5.099999999999999E-003   -4.188960815192631E-045
 -4.999999999999999E-003   -5.373449464489707E-045
 -4.899999999999999E-003   -5.664763080612508E-045
 -4.799999999999999E-003   -4.498667606261881E-045
 -4.699999999999999E-003   -1.848427972296513E-045
 -4.599999999999999E-003    3.029465396361958E-045
 -4.499999999999999E-003    1.062101631634587E-044
 -4.399999999999999E-003    1.954110138402686E-044
 -4.299999999999999E-003    2.903697389902229E-044
 -4.199999999999999E-003    3.772733390269862E-044
 -4.099999999999999E-003    4.334138403501838E-044
 -3.999999999999999E-003    4.255379593072224E-044
 -3.899999999999999E-003    3.279680998866095E-044
 -3.799999999999999E-003    9.990417110204354E-045
 -3.699999999999999E-003   -2.641636994393686E-044
 -3.599999999999999E-003   -7.734354493805707E-044
 -3.499999999999999E-003   -1.385173226161870E-043
 -3.399999999999999E-003   -2.042324124914023E-043
 -3.299999999999999E-003   -2.633196298612259E-043
 -3.199999999999999E-003   -3.003143788828246E-043
 -3.099999999999999E-003   -2.995972265409292E-043
 -2.999999999999999E-003   -2.426427101769979E-043
 -2.899999999999999E-003   -1.142662447945815E-043
 -2.799999999999999E-003    9.245286175990614E-044
 -2.699999999999999E-003    3.748285727280703E-043
 -2.599999999999999E-003    7.146025352950468E-043
 -2.499999999999999E-003    1.075934433121854E-042
 -2.399999999999999E-003    1.404609928178264E-042
 -2.299999999999999E-003    1.629290701779359E-042
 -2.199999999999999E-003    1.669869642912555E-042
 -2.099999999999999E-003    1.446075861749798E-042
 -1.999999999999999E-003    8.907646843144992E-043
 -1.899999999999999E-003   -3.283857591398071E-044
 -1.799999999999999E-003   -1.317160970178549E-042
 -1.699999999999999E-003   -2.890483023121781E-042
 -1.599999999999999E-003   -4.611358837052974E-042
 -1.499999999999999E-003   -6.264662932083652E-042
 -1.399999999999999E-003   -7.568269278734808E-042
 -1.299999999999999E-003   -8.197026760673817E-042
 -1.199999999999999E-003   -7.817394829589088E-042
 -1.099999999999999E-003   -6.129802845013852E-042
 -9.999999999999989E-004   -2.924421958663716E-042
 -8.999999999999990E-004    1.859743303596415E-042
 -7.999999999999990E-004    8.086573557768474E-042
 -6.999999999999989E-004    1.537361197959662E-041
 -5.999999999999990E-004    2.307706629219834E-041
 -4.999999999999989E-004    3.029211210674114E-041
 -3.999999999999989E-004    3.588985456952943E-041
 -2.999999999999989E-004    3.858564028910102E-041
 -1.999999999999989E-004    3.704926518092448E-041
 -9.999999999999892E-005    3.004358762886675E-041
  1.084202172485504E-018    1.658925888712242E-041
  1.000000000000011E-004   -3.836711502903204E-042
  2.000000000000011E-004   -3.110278976612466E-041
  3.000000000000011E-004   -6.421247737218263E-041
  4.000000000000011E-004   -1.011141135832399E-040
  5.000000000000011E-004   -1.385453918277716E-040
  6.000000000000011E-004   -1.719563952870647E-040
  7.000000000000011E-004   -1.955416777333755E-040
  8.000000000000011E-004   -2.024393037934246E-040
  9.000000000000012E-004   -1.851652829194994E-040
  1.000000000000001E-003   -1.363349512354178E-040
  1.100000000000001E-003   -4.971516329855308E-041
  1.200000000000001E-003    7.837711287222237E-041
  1.300000000000001E-003    2.473902547655006E-040
  1.400000000000001E-003    4.506909364825182E-040
  1.500000000000001E-003    6.737939434681377E-040
  1.600000000000001E-003    8.930062075244334E-040
  1.700000000000001E-003    1.074940724846849E-039
  1.800000000000001E-003    1.177379523616275E-039
  1.900000000000001E-003    1.151992878340460E-039
  2.000000000000001E-003    9.492896779399548E-040
  2.100000000000001E-003    5.259561774901655E-040
  2.200000000000001E-003   -1.456243041779174E-040
  2.300000000000001E-003   -1.066354225913979E-039
  2.400000000000001E-003   -2.199149923191729E-039
  2.500000000000001E-003   -3.459212915000804E-039
  2.600000000000001E-003   -4.708112918796030E-039
  2.700000000000001E-003   -5.754190109724445E-039
  2.800000000000001E-003   -6.361706087554424E-039
  2.900000000000001E-003   -6.270586037850789E-039
  3.000000000000001E-003   -5.227554552393020E-039
  3.100000000000001E-003   -3.027842754427042E-039
  3.200000000000001E-003    4.353792371759859E-040
  3.300000000000001E-003    5.118947105621940E-039
  3.400000000000001E-003    1.078229835987031E-038
  3.500000000000001E-003    1.695374447001435E-038
  3.600000000000001E-003    2.292025162766780E-038
  3.700000000000001E-003    2.775009300318651E-038
  3.800000000000001E-003    3.035564391942404E-038
  3.900000000000001E-003    2.959974985807312E-038
  4.000000000000001E-003    2.444353913896361E-038
  4.100000000000001E-003    1.412678736161599E-038
  4.200000000000001E-003   -1.635465719820377E-039
  4.300000000000001E-003   -2.246334016506434E-038
  4.400000000000001E-003   -4.715836328635805E-038
  4.500000000000001E-003   -7.361718713381817E-038
  4.600000000000002E-003   -9.884332636812845E-038
  4.700000000000001E-003   -1.190823384668288E-037
  4.800000000000001E-003   -1.300954844862956E-037
  4.900000000000002E-003   -1.275726685755548E-037
  5.000000000000001E-003   -1.076677219541131E-037
  5.100000000000001E-003   -6.761959199614363E-038
  5.200000000000001E-003   -6.404401947991544E-039
  5.300000000000002E-003    7.465302658395238E-038
  5.400000000000001E-003    1.713899765704448E-037
  5.500000000000001E-003    2.765250121146418E-037
  5.600000000000002E-003    3.796662988662705E-037
  5.700000000000001E-003    4.676763532215530E-037
  5.800000000000001E-003    5.254383614313953E-037
  5.900000000000002E-003    5.370384640158393E-037
  6.000000000000001E-003    4.873426242202476E-037
  6.100000000000001E-003    3.639056443978880E-037
  6.200000000000002E-003    1.591074754859684E-037
  6.300000000000002E-003   -1.276343052365764E-037
  6.400000000000001E-003   -4.877684455082750E-037
  6.500000000000001E-003   -9.018663879120012E-037
  6.600000000000002E-003   -1.338502594132866E-036
  6.700000000000001E-003   -1.754059611013946E-036
  6.800000000000001E-003   -2.093767653649365E-036
  6.900000000000002E-003   -2.294276828313022E-036
  7.000000000000001E-003   -2.288009938667954E-036
  7.100000000000001E-003   -2.009441369707399E-036
  7.200000000000002E-003   -1.403287010648358E-036
  7.300000000000002E-003   -4.343510087396959E-037
  7.400000000000001E-003    9.015223838879540E-037
  7.500000000000001E-003    2.566317259908822E-036
  7.600000000000002E-003    4.469853971816059E-036
  7.700000000000001E-003    6.462621376810090E-036
  7.800000000000001E-003    8.333431923540079E-036
  7.900000000000001E-003    9.814007094376571E-036
  8.000000000000002E-003    1.059248870835621E-035
  8.100000000000001E-003    1.033739069116693E-035
  8.200000000000001E-003    8.732651328960663E-036
  8.300000000000002E-003    5.523152937572111E-036
  8.400000000000001E-003    5.683785351901283E-037
  8.500000000000002E-003   -6.100066492774085E-036
  8.600000000000002E-003   -1.422345089937227E-035
  8.700000000000001E-003   -2.327165288615387E-035
  8.800000000000002E-003   -3.241930216567405E-035
  8.900000000000002E-003   -4.055250835311545E-035
  9.000000000000001E-003   -4.631563468792730E-035
  9.100000000000002E-003   -4.820532268024347E-035
  9.200000000000002E-003   -4.471505316782044E-035
  9.300000000000001E-003   -3.452772382402801E-035
  9.400000000000002E-003   -1.674662121941187E-035
  9.500000000000001E-003    8.853111791903880E-036
  9.600000000000001E-003    4.157874384579520E-035
  9.700000000000002E-003    7.961383881041140E-035
  9.800000000000001E-003    1.198909636618537E-034
  9.900000000000001E-003    1.580845663044402E-034
  1.000000000000000E-002    1.887624970714917E-034
  1.010000000000000E-002    2.057262122307058E-034
  1.020000000000000E-002    2.025546799201692E-034
  1.030000000000000E-002    1.733453847208192E-034
  1.040000000000000E-002    1.136189694260258E-034
  1.050000000000000E-002    2.132279379770662E-035
  1.060000000000000E-002   -1.021636295231824E-034
  1.070000000000000E-002   -2.511476736971587E-034
  1.080000000000000E-002   -4.150164580718134E-034
  1.090000000000000E-002   -5.780633961197102E-034
  1.100000000000000E-002   -7.199016027962069E-034
  1.110000000000000E-002   -8.165896380305343E-034
  1.120000000000000E-002   -8.425433439846932E-034
  1.130000000000000E-002   -7.732294365901335E-034
  1.140000000000000E-002   -5.885371293219215E-034
  1.150000000000000E-002   -2.766063471906494E-034
  1.160000000000000E-002    1.622332750769322E-034
  1.170000000000000E-002    7.118752117568505E-034
  1.180000000000000E-002    1.337759819482291E-033
  1.190000000000000E-002    1.985716214062185E-033
  1.200000000000000E-002    2.582918089968271E-033
  1.210000000000000E-002    3.041456642038789E-033
  1.220000000000000E-002    3.264848227277126E-033
  1.230000000000000E-002    3.157511960277418E-033
  1.240000000000000E-002    2.636883085444171E-033
  1.250000000000000E-002    1.647397394403243E-033
  1.260000000000000E-002    1.751126948957849E-034
  1.270000000000000E-002   -1.738688486849200E-033
  1.280000000000000E-002   -3.986936266922175E-033
  1.290000000000000E-002   -6.391431148677140E-033
  1.300000000000000E-002   -8.704865375683635E-033
  1.310000000000000E-002   -1.062201342044917E-032
  1.320000000000000E-002   -1.180121893474147E-032
  1.330000000000000E-002   -1.189631416279496E-032
  1.340000000000000E-002   -1.059781972338108E-032
  1.350000000000000E-002   -7.680776165166123E-033
  1.360000000000000E-002   -3.055037637752405E-033
  1.370000000000000E-002    3.187592376346057E-033
  1.380000000000000E-002    1.073607378601771E-032
  1.390000000000000E-002    1.903985583706013E-032
  1.400000000000000E-002    2.731258085609392E-032
  1.410000000000000E-002    3.456545631991359E-032
  1.420000000000000E-002    3.967376364847860E-032
  1.430000000000000E-002    4.147680844994167E-032
  1.440000000000000E-002    3.890747236235603E-032
  1.450000000000000E-002    3.114307403590295E-032
  1.460000000000000E-002    1.776452122082110E-032
  1.470000000000000E-002   -1.093333718376043E-033
  1.480000000000000E-002   -2.462034104411019E-032
  1.490000000000000E-002   -5.126011429963789E-032
  1.500000000000000E-002   -7.870997506678838E-032
  1.510000000000000E-002   -1.040086146508014E-031
  1.520000000000000E-002   -1.237217114560670E-031
  1.530000000000000E-002   -1.342266098223617E-031
  1.540000000000000E-002   -1.320856914210115E-031
  1.550000000000000E-002   -1.144855129551026E-031
  1.560000000000000E-002   -7.970582476339509E-032
  1.570000000000000E-002   -2.757115731904770E-032
  1.580000000000000E-002    4.017078640057326E-032
  1.590000000000000E-002    1.196035321076025E-031
  1.600000000000000E-002    2.045866924244249E-031
  1.610000000000000E-002    2.869397705514154E-031
  1.620000000000000E-002    3.568968476420799E-031
  1.630000000000000E-002    4.038404828323096E-031
  1.640000000000000E-002    4.172933829013329E-031
  1.650000000000000E-002    3.881133680517068E-031
  1.660000000000000E-002    3.098019386685348E-031
  1.670000000000000E-002    1.798062202274014E-031
  1.680000000000000E-002    6.679625986601384E-034
  1.690000000000000E-002   -2.191396409696222E-031
  1.700000000000000E-002   -4.648466966178212E-031
  1.710000000000000E-002   -7.156320172991882E-031
  1.720000000000000E-002   -9.455828469816099E-031
  1.730000000000000E-002   -1.125413340373012E-030
  1.740000000000000E-002   -1.224913088915453E-030
  1.750000000000000E-002   -1.216010822009635E-030
  1.760000000000000E-002   -1.076247235426381E-030
  1.770000000000000E-002   -7.923657176551636E-031
  1.780000000000000E-002   -3.636514143061289E-031
  1.790000000000000E-002    1.953886700203385E-031
  1.800000000000000E-002    8.534334102174434E-031
  1.810000000000000E-002    1.562228715736257E-030
  1.820000000000000E-002    2.258254707167935E-030
  1.830000000000000E-002    2.866348242548306E-030
  1.840000000000000E-002    3.305280947295432E-030
  1.850000000000000E-002    3.495074152631301E-030
  1.860000000000000E-002    3.365606591205192E-030
  1.870000000000000E-002    2.865844342027882E-030