 -4.000000000000000E-002    0.000000000000000E+000
 -3.990000000000000E-002    0.000000000000000E+000
 -3.980000000000000E-002    0.000000000000000E+000
 -3.970000000000000E-002    0.000000000000000E+000
 -3.960000000000000E-002    0.000000000000000E+000
 -3.950000000000000E-002    0.000000000000000E+000
 -3.940000000000000E-002    0.000000000000000E+000
 -3.930000000000000E-002    0.000000000000000E+000
 -3.920000000000000E-002    0.000000000000000E+000
 -3.910000000000000E-002    0.000000000000000E+000
 -3.900000000000000E-002    0.000000000000000E+000
 -3.890000000000000E-002    0.000000000000000E+000
 -3.880000000000000E-002    0.000000000000000E+000
 -3.870000000000000E-002    0.000000000000000E+000
 -3.860000000000000E-002    0.000000000000000E+000
 -3.850000000000000E-002    0.000000000000000E+000
 -3.840000000000000E-002    0.000000000000000E+000
 -3.830000000000000E-002    0.000000000000000E+000
 -3.820000000000000E-002    0.000000000000000E+000
 -3.810000000000000E-002    0.000000000000000E+000
 -3.800000000000000E-002    0.000000000000000E+000
 -3.790000000000000E-002    0.000000000000000E+000
 -3.780000000000000E-002    0.000000000000000E+000
 -3.770000000000000E-002    0.000000000000000E+000
 -3.760000000000000E-002    0.000000000000000E+000
 -3.750000000000000E-002    0.000000000000000E+000
 -3.740000000000000E-002    0.000000000000000E+000
 -3.730000000000000E-002    0.000000000000000E+000
 -3.720000000000000E-002    0.000000000000000E+000
 -3.710000000000000E-002    0.000000000000000E+000
 -3.700000000000000E-002    0.000000000000000E+000
 -3.690000000000000E-002    0.000000000000000E+000
 -3.680000000000000E-002    0.000000000000000E+000
 -3.670000000000000E-002    0.000000000000000E+000
 -3.660000000000000E-002    0.000000000000000E+000
 -3.650000000000000E-002    0.000000000000000E+000
 -3.640000000000000E-002    0.000000000000000E+000
 -3.630000000000000E-002    0.000000000000000E+000
 -3.620000000000000E-002   -1.030420998818643E-047
 -3.610000000000000E-002   -5.802375694323636E-047
 -3.600000000000000E-002   -1.293956462038421E-046
 -3.590000000000000E-002   -2.683961612139966E-046
 -3.580000000000000E-002   -6.359257467682190E-046
 -3.570000000000000E-002   -1.367481666950927E-045
 -3.560000000000000E-002   -2.748252239414013E-045
 -3.550000000000000E-002   -5.126527535942613E-045
 -3.540000000000000E-002   -9.485399258894941E-045
 -3.530000000000000E-002   -1.551719911704110E-044
 -3.520000000000000E-002   -2.278086868358231E-044
 -3.510000000000000E-002   -2.573292294698803E-044
 -3.500000000000000E-002   -9.949108839519724E-045
 -3.490000000000000E-002    5.731630003979697E-044
 -3.480000000000000E-002    2.472836402313931E-043
 -3.470000000000000E-002    7.047122525572732E-043
 -3.460000000000000E-002    1.691740156701320E-042
 -3.450000000000000E-002    3.664353097268135E-042
 -3.440000000000000E-002    7.360467322388848E-042
 -3.430000000000000E-002    1.389203902650899E-041
 -3.420000000000000E-002    2.479363440043471E-041
 -3.410000000000000E-002    4.192704777389706E-041
 -3.400000000000000E-002    6.707553147928875E-041
 -3.390000000000000E-002    1.009173207091642E-040
 -3.380000000000000E-002    1.409562547233724E-040
 -3.370000000000000E-002    1.777769959856811E-040
 -3.360000000000000E-002    1.888892749352908E-040
 -3.350000000000000E-002    1.293629149309634E-040
 -3.340000000000000E-002   -8.124270809199387E-041
 -3.330000000000000E-002   -5.754198179428927E-040
 -3.320000000000000E-002   -1.555814573888282E-039
 -3.310000000000000E-002   -3.310066779138886E-039
 -3.300000000000000E-002   -6.212866317589315E-039
 -3.290000000000000E-002   -1.069883907562698E-038
 -3.280000000000000E-002   -1.718079422873966E-038
 -3.270000000000000E-002   -2.587694863221868E-038
 -3.260000000000000E-002   -3.649978835826008E-038
 -3.250000000000000E-002   -4.775132566104046E-038
 -3.240000000000000E-002   -5.657072095171882E-038
 -3.230000000000000E-002   -5.709930913969919E-038
 -3.220000000000000E-002   -3.937776423823093E-038
 -3.210000000000000E-002    1.211325348380789E-038
 -3.200000000000000E-002    1.197955148761962E-037
 -3.190000000000000E-002    3.136995557218702E-037
 -3.180000000000000E-002    6.306750038336208E-037
 -3.170000000000000E-002    1.110811791744604E-036
 -3.160000000000000E-002    1.789288241432453E-036
 -3.150000000000000E-002    2.681390984075473E-036
 -3.140000000000000E-002    3.758150370165330E-036
 -3.130000000000000E-002    4.910144517179794E-036
 -3.120000000000000E-002    5.897888168632623E-036
 -3.110000000000000E-002    6.289316326602297E-036
 -3.100000000000000E-002    5.388739922328940E-036
 -3.090000000000000E-002    2.167891052394265E-036
 -3.080000000000000E-002   -4.781232534642577E-036
 -3.070000000000000E-002   -1.723989599966131E-035
 -3.060000000000000E-002   -3.725601076093300E-035
 -3.050000000000000E-002   -6.687511969246323E-035
 -3.040000000000000E-002   -1.076330122829508E-034
 -3.030000000000000E-002   -1.597274591027144E-034
 -3.020000000000000E-002   -2.207947386981122E-034
 -3.010000000000000E-002   -2.842500615307352E-034
 -3.000000000000000E-002   -3.372215448350006E-034
 -2.990000000000000E-002   -3.582292337190280E-034
 -2.980000000000000E-002   -3.149438710551923E-034
 -2.970000000000000E-002   -1.626117821930336E-034
 -2.960000000000000E-002    1.559553863009737E-034
 -2.950000000000000E-002    7.075790233665704E-034
 -2.940000000000000E-002    1.561523405080907E-033
 -2.930000000000000E-002    2.776120253601119E-033
 -2.920000000000000E-002    4.377427348457353E-033
 -2.910000000000000E-002    6.328574005413144E-033
 -2.900000000000000E-002    8.489491892368296E-033
 -2.890000000000000E-002    1.056860415113100E-032
 -2.880000000000000E-002    1.207092090763454E-032
 -2.870000000000000E-002    1.225094380152262E-032
 -2.860000000000000E-002    1.008369677493313E-032
 -2.850000000000000E-002    4.272693901313730E-033
 -2.840000000000000E-002   -6.681059412842215E-033
 -2.830000000000000E-002   -2.432110805064141E-032
 -2.820000000000000E-002   -4.996008220887023E-032
 -2.810000000000000E-002   -8.426299335578822E-032
 -2.800000000000000E-002   -1.266782775990878E-031
 -2.790000000000000E-002   -1.747286647761541E-031
 -2.780000000000000E-002   -2.232091986635077E-031
 -2.770000000000000E-002   -2.633875713923290E-031
 -2.760000000000000E-002   -2.823609432810694E-031
 -2.750000000000000E-002   -2.627880282306257E-031
 -2.740000000000000E-002   -1.832770964982680E-031
 -2.730000000000000E-002   -1.975551173497233E-032
 -2.720000000000000E-002    2.518432275751174E-031
 -2.710000000000000E-002    6.512853007220945E-031
 -2.700000000000000E-002    1.187972336840411E-030
 -2.690000000000000E-002    1.853170172710463E-030
 -2.680000000000000E-002    2.610935552257876E-030
 -2.670000000000000E-002    3.388600092853840E-030
 -2.660000000000000E-002    4.068217053642664E-030
 -2.650000000000000E-002    4.480967758633090E-030
 -2.640000000000000E-002    4.407074994906023E-030
 -2.630000000000000E-002    3.584163885603708E-030
 -2.620000000000000E-002    1.727108314514866E-030
 -2.610000000000000E-002   -1.437986352850398E-030
 -2.600000000000000E-002   -6.124017367617017E-030
 -2.590000000000000E-002   -1.241747691850581E-029
 -2.580000000000000E-002   -2.020017200202773E-029
 -2.570000000000000E-002   -2.906424933994244E-029
 -2.560000000000000E-002   -3.823072790206670E-029
 -2.550000000000000E-002   -4.648595194137485E-029
 -2.540000000000000E-002   -5.215425070339468E-029
 -2.530000000000000E-002   -5.312771543364840E-029
 -2.520000000000000E-002   -4.697461122624584E-029
 -2.510000000000000E-002   -3.114534060720600E-029
 -2.500000000000000E-002   -3.288309607268394E-030
 -2.490000000000000E-002    3.832324340065673E-029
 -2.480000000000000E-002    9.426847606981139E-029
 -2.470000000000000E-002    1.633957214472504E-028
 -2.460000000000000E-002    2.422376734996293E-028
 -2.450000000000000E-002    3.245075601464379E-028
 -2.440000000000000E-002    4.007799996314459E-028
 -2.430000000000000E-002    4.584737145668460E-028
 -2.420000000000000E-002    4.822552680895326E-028
 -2.410000000000000E-002    4.549684590290771E-028
 -2.400000000000000E-002    3.591588169048466E-028
 -2.390000000000000E-002    1.792060366464653E-028
 -2.380000000000000E-002   -9.600174906997768E-029
 -2.370000000000000E-002   -4.700134519030929E-028
 -2.360000000000000E-002   -9.356471846362176E-028
 -2.350000000000000E-002   -1.472077703814724E-027
 -2.340000000000000E-002   -2.042632673927007E-027
 -2.330000000000000E-002   -2.593797397060442E-027
 -2.320000000000000E-002   -3.055923909643995E-027
 -2.310000000000000E-002   -3.346064996352845E-027
 -2.300000000000000E-002   -3.373206154622192E-027
 -2.290000000000000E-002   -3.045940422135698E-027
 -2.280000000000000E-002   -2.282340323846442E-027
 -2.270000000000000E-002   -1.021455065569650E-027
 -2.260000000000000E-002    7.644740090552112E-028
 -2.250000000000000E-002    3.058269453854159E-027
 -2.240000000000000E-002    5.787925971003973E-027
 -2.230000000000000E-002    8.819995372661962E-027
 -2.220000000000000E-002    1.195753399830044E-026
 -2.210000000000000E-002    1.494357284039599E-026
 -2.200000000000000E-002    1.747055201636699E-026
 -2.190000000000000E-002    1.919553681505587E-026
 -2.180000000000000E-002    1.976034457277682E-026
 -2.170000000000000E-002    1.881513410438173E-026
 -2.160000000000000E-002    1.604359472664221E-026
 -2.150000000000000E-002    1.118782868240584E-026
 -2.140000000000000E-002    4.071361201167671E-027
 -2.130000000000000E-002   -5.380511821087620E-027
 -2.120000000000000E-002   -1.712270487896761E-026
 -2.110000000000000E-002   -3.097301607780761E-026
 -2.100000000000000E-002   -4.659271246989989E-026
 -2.090000000000000E-002   -6.346158720416273E-026
 -2.080000000000000E-002   -8.084434740771885E-026
 -2.070000000000000E-002   -9.774679381458472E-026
 -2.060000000000000E-002   -1.128634304322804E-025
 -2.050000000000000E-002   -1.245228833040888E-025
 -2.040000000000000E-002   -1.306434716215741E-025
 -2.030000000000000E-002   -1.287178594659610E-025
 -2.020000000000000E-002   -1.158514486058268E-025
 -2.010000000000000E-002   -8.888308553367240E-026
 -2.000000000000000E-002   -4.461637200676546E-026
 -1.990000000000000E-002    1.981557839458828E-026
 -1.980000000000000E-002    1.064415748560769E-025
 -1.970000000000000E-002    2.158093660365556E-025
 -1.960000000000000E-002    3.462441704523512E-025
 -1.950000000000000E-002    4.930761799341834E-025
 -1.940000000000000E-002    6.479373264975241E-025
 -1.930000000000000E-002    7.982571264143064E-025
 -1.920000000000000E-002    9.271072046738282E-025
 -1.910000000000000E-002    1.013548076767493E-024
 -1.900000000000000E-002    1.033613904480805E-024
 -1.890000000000000E-002    9.620267999027125E-025
 -1.880000000000000E-002    7.746606650639610E-025
 -1.870000000000000E-002    4.516772157146090E-025
 -1.860000000000000E-002   -1.885694440083935E-026
 -1.850000000000000E-002   -6.371851599645482E-025
 -1.840000000000000E-002   -1.388330117337426E-024
 -1.830000000000000E-002   -2.239322070374331E-024
 -1.820000000000000E-002   -3.137723420384690E-024
 -1.810000000000000E-002   -4.011953948532078E-024
 -1.800000000000000E-002   -4.773812859988455E-024
 -1.790000000000000E-002   -5.323404890761219E-024
 -1.780000000000000E-002   -5.556425436505110E-024
 -1.770000000000000E-002   -5.373450853503483E-024
 -1.760000000000000E-002   -4.690571495521486E-024
 -1.750000000000000E-002   -3.450414199951602E-024
 -1.740000000000000E-002   -1.632399870290503E-024
 -1.730000000000000E-002    7.390050180213112E-025
 -1.720000000000000E-002    3.589208199589804E-024
 -1.710000000000000E-002    6.792499168065091E-024
 -1.700000000000000E-002    1.017565230132091E-023
 -1.690000000000000E-002    1.352609265684993E-023
 -1.680000000000000E-002    1.660399441458602E-023
 -1.670000000000000E-002    1.915711298205992E-023
 -1.660000000000000E-002    2.093670795610411E-023
 -1.650000000000000E-002    2.171271213409328E-023
 -1.640000000000000E-002    2.128637380602062E-023
 -1.630000000000000E-002    1.949905939268773E-023
 -1.620000000000000E-002    1.623664530988667E-023
 -1.610000000000000E-002    1.142994191197596E-023
 -1.600000000000000E-002    5.052702929141475E-024
 -1.590000000000000E-002   -2.880212741023556E-024
 -1.580000000000000E-002   -1.231127873205951E-023
 -1.570000000000000E-002   -2.313192993664597E-023
 -1.560000000000000E-002   -3.516459597502831E-023
 -1.550000000000000E-002   -4.813371595257511E-023
 -1.540000000000000E-002   -6.162657939979610E-023
 -1.530000000000000E-002   -7.504763061984446E-023
 -1.520000000000000E-002   -8.757302778411224E-023
 -1.510000000000000E-002   -9.811521541654161E-023
 -1.500000000000000E-002   -1.053094984682417E-022
 -1.490000000000000E-002   -1.075355239784009E-022
 -1.480000000000000E-002   -1.029857100458050E-022
 -1.470000000000000E-002   -8.978955413545155E-023
 -1.460000000000000E-002   -6.619730399106479E-023
 -1.450000000000000E-002   -3.081901402605178E-023
 -1.440000000000000E-002    1.709418245095874E-023
 -1.430000000000000E-002    7.734946943699186E-023
 -1.420000000000000E-002    1.485246408584892E-022
 -1.410000000000000E-002    2.277328356090569E-022
 -1.400000000000000E-002    3.104834293634115E-022
 -1.390000000000000E-002    3.906822018410697E-022
 -1.380000000000000E-002    4.608079817712441E-022
 -1.370000000000000E-002    5.122906898215089E-022
 -1.360000000000000E-002    5.360983196554846E-022
 -1.350000000000000E-002    5.235172209123962E-022
 -1.340000000000000E-002    4.670847461248138E-022
 -1.330000000000000E-002    3.616064671674292E-022
 -1.320000000000000E-002    2.051655859074343E-022
 -1.310000000000000E-002    1.351290243430072E-026
 -1.300000000000000E-002   -2.467801368409128E-022
 -1.290000000000000E-002   -5.230387698672113E-022
 -1.280000000000000E-002   -8.116568434220841E-022
 -1.270000000000000E-002   -1.091320058940867E-021
 -1.260000000000000E-002   -1.337798674348593E-021
 -1.250000000000000E-002   -1.525786443582787E-021
 -1.240000000000000E-002   -1.631190220996641E-021
 -1.230000000000000E-002   -1.633705089003585E-021
 -1.220000000000000E-002   -1.519440763226924E-021
 -1.210000000000000E-002   -1.283311303992395E-021
 -1.200000000000000E-002   -9.308657422007563E-022
 -1.190000000000000E-002   -4.792351601475649E-022
 -1.180000000000000E-002    4.309054084606086E-023
 -1.170000000000000E-002    5.978636774327542E-022
 -1.160000000000000E-002    1.140136961394707E-021
 -1.150000000000000E-002    1.622690565373534E-021
 -1.140000000000000E-002    2.001546472700874E-021
 -1.130000000000000E-002    2.242077194383546E-021
 -1.120000000000000E-002    2.325024611901797E-021
 -1.110000000000000E-002    2.251593386553229E-021
 -1.100000000000000E-002    2.046709780215146E-021
 -1.090000000000000E-002    1.759566613345439E-021
 -1.080000000000000E-002    1.460734500242757E-021
 -1.070000000000000E-002    1.235417113169254E-021
 -1.060000000000000E-002    1.172863882482483E-021
 -1.050000000000000E-002    1.352486802259055E-021
 -1.040000000000000E-002    1.827830667080310E-021
 -1.030000000000000E-002    2.610122808656989E-021
 -1.020000000000000E-002    3.653624702259605E-021
 -1.010000000000000E-002    4.845295514369914E-021
 -1.000000000000000E-002    6.001301559252480E-021
 -9.899999999999999E-003    6.872582118885093E-021
 -9.800000000000000E-003    7.160969364630696E-021
 -9.699999999999999E-003    6.546303432799235E-021
 -9.599999999999999E-003    4.723596870260013E-021
 -9.500000000000000E-003    1.447785336153556E-021
 -9.399999999999999E-003   -3.417952316113075E-021
 -9.299999999999999E-003   -9.855622995104431E-021
 -9.200000000000000E-003   -1.765379311924411E-020
 -9.099999999999999E-003   -2.638332566636094E-020
 -8.999999999999999E-003   -3.539333288448882E-020
 -8.900000000000000E-003   -4.383174314796907E-020
 -8.799999999999999E-003   -5.069265861102313E-020
 -8.699999999999999E-003   -5.488976020022583E-020
 -8.600000000000000E-003   -5.535176463277785E-020
 -8.499999999999999E-003   -5.113276060285827E-020
 -8.399999999999999E-003   -4.152746951522034E-020
 -8.300000000000000E-003   -2.617968525249080E-020
 -8.199999999999999E-003   -5.171588671524013E-021
 -8.100000000000000E-003    2.091739793030841E-020
 -8.000000000000000E-003    5.099105263099811E-020
 -7.899999999999999E-003    8.346111369472236E-020
 -7.800000000000000E-003    1.163165914571851E-019
 -7.699999999999999E-003    1.472328525127796E-019
 -7.599999999999999E-003    1.737111030757353E-019
 -7.499999999999999E-003    1.932354312364622E-019
 -7.399999999999999E-003    2.034330637494328E-019
 -7.299999999999999E-003    2.022241308707915E-019
 -7.199999999999999E-003    1.879500576200001E-019
 -7.100000000000000E-003    1.594747402933617E-019
 -6.999999999999999E-003    1.162586170438013E-019
 -6.899999999999999E-003    5.841169635617465E-020
 -6.800000000000000E-003   -1.326329869884635E-020
 -6.699999999999999E-003   -9.722448871968607E-020
 -6.599999999999999E-003   -1.911291919979426E-019
 -6.499999999999999E-003   -2.917508515532076E-019
 -6.399999999999999E-003   -3.948778429889862E-019
 -6.299999999999999E-003   -4.952106561679765E-019
 -6.199999999999999E-003   -5.862877416890248E-019
 -6.100000000000000E-003   -6.604838243276731E-019
 -5.999999999999999E-003   -7.091330357545702E-019
 -5.899999999999999E-003   -7.228315426279722E-019
 -5.800000000000000E-003   -6.919659302857769E-019
 -5.699999999999999E-003   -6.074956137641918E-019
 -5.599999999999999E-003   -4.619864682548276E-019
 -5.499999999999999E-003   -2.508535728742182E-019
 -5.399999999999999E-003    2.627486704851310E-020
 -5.299999999999999E-003    3.642068092711001E-019
 -5.199999999999999E-003    7.510238210921167E-019
 -5.099999999999999E-003    1.167307910556661E-018
 -4.999999999999999E-003    1.585966468960130E-018
 -4.899999999999999E-003    1.972843338116178E-018
 -4.799999999999999E-003    2.288256140834379E-018
 -4.699999999999999E-003    2.489521128045129E-018
 -4.599999999999999E-003    2.534423504356850E-018
 -4.499999999999999E-003    2.385470408638058E-018
 -4.399999999999999E-003    2.014635965323822E-018
 -4.299999999999999E-003    1.408191981130556E-018
 -4.199999999999999E-003    5.711196909297507E-019
 -4.099999999999999E-003   -4.694512605764124E-019
 -3.999999999999999E-003   -1.662336030702213E-018
 -3.899999999999999E-003   -2.932417444311889E-018
 -3.799999999999999E-003   -4.183169849097332E-018
 -3.699999999999999E-003   -5.301769910288776E-018
 -3.599999999999999E-003   -6.166745455197669E-018
 -3.499999999999999E-003   -6.657839558173633E-018
 -3.399999999999999E-003   -6.667494919578048E-018
 -3.299999999999999E-003   -6.113105039861564E-018
 -3.199999999999999E-003   -4.948968235375066E-018
 -3.099999999999999E-003   -3.176741994684094E-018
 -2.999999999999999E-003   -8.531702494391191E-019
 -2.899999999999999E-003    1.906074673195233E-018
 -2.799999999999999E-003    4.927389772851605E-018
 -2.699999999999999E-003    7.985720153025064E-018
 -2.599999999999999E-003    1.081673897747458E-017
 -2.499999999999999E-003    1.313446250198218E-017
 -2.399999999999999E-003    1.465350335222362E-017
 -2.299999999999999E-003    1.511463386418654E-017
 -2.199999999999999E-003    1.431186202025739E-017
 -2.099999999999999E-003    1.211883678634487E-017
 -1.999999999999999E-003    8.512160244988655E-018
 -1.899999999999999E-003    3.589133197842101E-018
 -1.799999999999999E-003   -2.422417964642410E-018
 -1.699999999999999E-003   -9.164197717482659E-018
 -1.599999999999999E-003   -1.615879478128046E-017
 -1.499999999999999E-003   -2.283296464461074E-017
 -1.399999999999999E-003   -2.855254166822840E-017
 -1.299999999999999E-003   -3.266768903374954E-017
 -1.199999999999999E-003   -3.456607291977884E-017
 -1.099999999999999E-003   -3.373063446086516E-017
 -9.999999999999989E-004   -2.979771705951379E-017
 -8.999999999999990E-004   -2.261067915138023E-017
 -7.999999999999990E-004   -1.226393157780658E-017
 -6.999999999999989E-004    8.677150810131948E-019
 -5.999999999999990E-004    1.611882437132192E-017
 -4.999999999999989E-004    3.254577759849165E-017
 -3.999999999999989E-004    4.896392476045057E-017
 -2.999999999999989E-004    6.400976056577036E-017
 -1.999999999999989E-004    7.622637424087911E-017
 -9.999999999999892E-005    8.416823108635236E-017
  1.084202172485504E-018    8.651932097157205E-017
  1.000000000000011E-004    8.221679346700057E-017
  2.000000000000011E-004    7.057081804895294E-017
  3.000000000000011E-004    5.137062210993100E-017
  4.000000000000011E-004    2.496664728389476E-017
  5.000000000000011E-004   -7.680554846689670E-018
  6.000000000000011E-004   -4.499232742825554E-017
  7.000000000000011E-004   -8.481011400459703E-017
  8.000000000000011E-004   -1.244821642269485E-016
  9.000000000000012E-004   -1.609974562447236E-016
  1.000000000000001E-003   -1.911620486821492E-016
  1.100000000000001E-003   -2.118093439191013E-016
  1.200000000000001E-003   -2.200327538827431E-016
  1.300000000000001E-003   -2.134265772800432E-016
  1.400000000000001E-003   -1.903191813373037E-016
  1.500000000000001E-003   -1.499821981966577E-016
  1.600000000000001E-003   -9.279912617798924E-017
  1.700000000000001E-003   -2.037895573222009E-017
  1.800000000000001E-003    6.439819163374054E-017
  1.900000000000001E-003    1.574127086906394E-016
  2.000000000000001E-003    2.534203292615464E-016
  2.100000000000001E-003    3.462521620607554E-016
  2.200000000000001E-003    4.290971243219448E-016
  2.300000000000001E-003    4.948602032410491E-016
  2.400000000000001E-003    5.365844945927543E-016
  2.500000000000001E-003    5.479217281004120E-016
  2.600000000000001E-003    5.236298683262701E-016
  2.700000000000001E-003    4.600739202363991E-016
  2.800000000000001E-003    3.557003762762596E-016
  2.900000000000001E-003    2.114530442858825E-016
  3.000000000000001E-003    3.109506006163115E-017
  3.100000000000001E-003   -1.785991930479012E-016
  3.200000000000001E-003   -4.078181241686624E-016
  3.300000000000001E-003   -6.438854107631452E-016
  3.400000000000001E-003   -8.716566065508731E-016
  3.500000000000001E-003   -1.074155450116867E-015
  3.600000000000001E-003   -1.233451410852930E-015
  3.700000000000001E-003   -1.331762085829568E-015
  3.800000000000001E-003   -1.352741965216058E-015
  3.900000000000001E-003   -1.282898384518081E-015
  4.000000000000001E-003   -1.113049538886338E-015
  4.100000000000001E-003   -8.397208371511931E-016
  4.200000000000001E-003   -4.663588327961737E-016
  4.300000000000001E-003   -4.231046870649503E-018
  4.400000000000001E-003    5.271161444208418E-016
  4.500000000000001E-003    1.099959953631553E-015
  4.600000000000002E-003    1.679155482354203E-015
  4.700000000000001E-003    2.223595040021025E-015
  4.800000000000001E-003    2.688376065800882E-015
  4.900000000000002E-003    3.027620893835031E-015
  5.000000000000001E-003    3.197826901264549E-015
  5.100000000000001E-003    3.161561423082956E-015
  5.200000000000001E-003    2.891256027043520E-015
  5.300000000000002E-003    2.372806573724749E-015
  5.400000000000001E-003    1.608659557029914E-015
  5.500000000000001E-003    6.200578383496117E-016
  5.600000000000002E-003   -5.518562919428105E-016
  5.700000000000001E-003   -1.846335094351373E-015
  5.800000000000001E-003   -3.184887243629725E-015
  5.900000000000002E-003   -4.474775843720825E-015
  6.000000000000001E-003   -5.614095315762684E-015
  6.100000000000001E-003   -6.498241284633168E-015
  6.200000000000002E-003   -7.027439683597008E-015
  6.300000000000002E-003   -7.114897285087367E-015
  6.400000000000001E-003   -6.695011236515683E-015
  6.500000000000001E-003   -5.731022028612080E-015
  6.600000000000002E-003   -4.221460139474283E-015
  6.700000000000001E-003   -2.204754851420200E-015
  6.800000000000001E-003    2.385559645124719E-016
  6.900000000000002E-003    2.986455282512963E-015
  7.000000000000001E-003    5.879198575661301E-015
  7.100000000000001E-003    8.726258722048835E-015
  7.200000000000002E-003    1.131632876768928E-014
  7.300000000000002E-003    1.342999287172797E-014
  7.400000000000001E-003    1.485445919544466E-014
  7.500000000000001E-003    1.539954552673149E-014
  7.600000000000002E-003    1.491391189652982E-014
  7.700000000000001E-003    1.330045954976749E-014
  7.800000000000001E-003    1.052970832938798E-014
  7.900000000000001E-003    6.650035996689922E-015
  8.000000000000002E-003    1.793712780793008E-015
  8.100000000000001E-003   -3.822141341630699E-015
  8.200000000000001E-003   -9.900305978510934E-015
  8.300000000000002E-003   -1.607424905527552E-014
  8.400000000000001E-003   -2.192491386821819E-014
  8.500000000000002E-003   -2.700307261521407E-014
  8.600000000000002E-003   -3.085640993926338E-014
  8.700000000000001E-003   -3.306008672535688E-014
  8.800000000000002E-003   -3.324916339029625E-014
  8.900000000000002E-003   -3.115097007202353E-014
  9.000000000000001E-003   -2.661524036252977E-014
  9.100000000000002E-003   -1.963976326366513E-014
  9.200000000000002E-003   -1.038927271424552E-014
  9.300000000000001E-003    7.945358480208097E-016
  9.400000000000002E-003    1.339366368449339E-014
  9.500000000000001E-003    2.672644788997299E-014
  9.600000000000001E-003    3.997289442529795E-014
  9.700000000000002E-003    5.221269062284954E-014
  9.800000000000001E-003    6.247492134791675E-014
  9.900000000000001E-003    6.979777952376178E-014
  1.000000000000000E-002    7.329544577068669E-014
  1.010000000000000E-002    7.222862547798000E-014
  1.020000000000000E-002    6.607437810474764E-014
  1.030000000000000E-002    5.459032022023798E-014
  1.040000000000000E-002    3.786814853772121E-014
  1.050000000000000E-002    1.637120502598014E-014
  1.060000000000000E-002   -9.048549084557167E-015
  1.070000000000000E-002   -3.715816926765958E-014
  1.080000000000000E-002   -6.637880641708544E-014
  1.090000000000000E-002   -9.484938348571408E-014
  1.100000000000000E-002   -1.205184059607661E-013
  1.110000000000000E-002   -1.412611927829317E-013
  1.120000000000000E-002   -1.550177606488645E-013
  1.130000000000000E-002   -1.599443619989613E-013
  1.140000000000000E-002   -1.545698966312089E-013
  1.150000000000000E-002   -1.379467758766423E-013
  1.160000000000000E-002   -1.097847147844308E-013
  1.170000000000000E-002   -7.055588131881532E-014
  1.180000000000000E-002   -2.155996492284380E-014
  1.190000000000000E-002    3.506065577090278E-014
  1.200000000000000E-002    9.636322763930316E-014
  1.210000000000000E-002    1.587089771155854E-013
  1.220000000000000E-002    2.179300565547610E-013
  1.230000000000000E-002    2.695551490849781E-013
  1.240000000000000E-002    3.090852170981769E-013
  1.250000000000000E-002    3.323058591116505E-013
  1.260000000000000E-002    3.356186365902822E-013
  1.270000000000000E-002    3.163700082238387E-013
  1.280000000000000E-002    2.731536164783466E-013
  1.290000000000000E-002    2.060614494741087E-013
  1.300000000000000E-002    1.168590386117328E-013
  1.310000000000000E-002    9.063038827340040E-015
  1.320000000000000E-002   -1.120963155237143E-013
  1.330000000000000E-002   -2.398389908887634E-013
  1.340000000000000E-002   -3.661284493169549E-013
  1.350000000000000E-002   -4.820889498720569E-013
  1.360000000000000E-002   -5.785311854702512E-013
  1.370000000000000E-002   -6.465611765579670E-013
  1.380000000000000E-002   -6.782387553013608E-013
  1.390000000000000E-002   -6.672433284575297E-013
  1.400000000000000E-002   -6.095010853115785E-013
  1.410000000000000E-002   -5.037230948737826E-013
  1.420000000000000E-002   -3.518070809080051E-013
  1.430000000000000E-002   -1.590581520375032E-013
  1.440000000000000E-002    6.580676756906908E-014
  1.450000000000000E-002    3.108949256537026E-013
  1.460000000000000E-002    5.616231172856327E-013
  1.470000000000000E-002    8.014450014038956E-013
  1.480000000000000E-002    1.012793948941073E-012
  1.490000000000000E-002    1.178197489000869E-012
  1.500000000000000E-002    1.281502343884396E-012
  1.510000000000000E-002    1.309134752292150E-012
  1.520000000000000E-002    1.251309969008709E-012
  1.530000000000000E-002    1.103100751699055E-012
  1.540000000000000E-002    8.652751481361375E-013
  1.550000000000000E-002    5.448209635196980E-013
  1.560000000000000E-002    1.550884837264041E-013
  1.570000000000000E-002   -2.844960106213664E-013
  1.580000000000000E-002   -7.491686137142367E-013
  1.590000000000000E-002   -1.210010055795199E-012
  1.600000000000000E-002   -1.635531936703330E-012
  1.610000000000000E-002   -1.993595297062095E-012
  1.620000000000000E-002   -2.253558054253344E-012
  1.630000000000000E-002   -2.388523601057135E-012
  1.640000000000000E-002   -2.377541706749886E-012
  1.650000000000000E-002   -2.207604859991112E-012
  1.660000000000000E-002   -1.875279948482983E-012
  1.670000000000000E-002   -1.387828142931610E-012
  1.680000000000000E-002   -7.636891092369876E-013
  1.690000000000000E-002   -3.223501257728140E-014
  1.700000000000000E-002    7.672522018358051E-013
  1.710000000000000E-002    1.587380539625923E-012
  1.720000000000000E-002    2.375167912959723E-012
  1.730000000000000E-002    3.075171428086431E-012
  1.740000000000000E-002    3.633061536243672E-012
  1.750000000000000E-002    3.999432056156261E-012
  1.760000000000000E-002    4.133600087496439E-012
  1.770000000000000E-002    4.007131059446576E-012
  1.780000000000000E-002    3.606823351406656E-012
  1.790000000000000E-002    2.936892613142718E-012
  1.800000000000000E-002    2.020141445589603E-012
  1.810000000000000E-002    8.979444433148179E-013
  1.820000000000000E-002   -3.710476521419721E-013
  1.830000000000000E-002   -1.713503700654311E-012
  1.840000000000000E-002   -3.045234858622315E-012
  1.850000000000000E-002   -4.276077637166658E-012
  1.860000000000000E-002   -5.315590418233631E-012
  1.870000000000000E-002   -6.079232285460895E-012