 -4.000000000000000E-002    0.000000000000000E+000
 -3.990000000000000E-002    0.000000000000000E+000
 -3.980000000000000E-002    0.000000000000000E+000
 -3.970000000000000E-002    0.000000000000000E+000
 -3.960000000000000E-002    1.972757686356691E-018
 -3.950000000000000E-002    1.854376766941235E-017
 -3.940000000000000E-002    9.662947299335723E-017
 -3.930000000000000E-002    3.673359151127972E-016
 -3.920000000000000E-002    1.133586598319930E-015
 -3.910000000000000E-002    3.001174157566969E-015
 -3.900000000000000E-002    7.044498873307055E-015
 -3.890000000000000E-002    1.497414885882314E-014
 -3.880000000000000E-002    2.924129058198558E-014
 -3.870000000000000E-002    5.297867298119977E-014
 -3.860000000000000E-002    8.964835762837762E-014
 -3.850000000000000E-002    1.422525524702428E-013
 -3.840000000000000E-002    2.119778950340696E-013
 -3.830000000000000E-002    2.961948929498468E-013
 -3.820000000000000E-002    3.858289004634202E-013
 -3.810000000000000E-002    4.622573590700637E-013
 -3.800000000000000E-002    4.940628260305922E-013
 -3.790000000000000E-002    4.341661495399431E-013
 -3.780000000000000E-002    2.180574313730070E-013
 -3.770000000000000E-002   -2.359982301176144E-013
 -3.760000000000000E-002   -1.023811317258728E-012
 -3.750000000000000E-002   -2.248219530273007E-012
 -3.740000000000000E-002   -4.007344121298752E-012
 -3.730000000000000E-002   -6.377680205040848E-012
 -3.720000000000000E-002   -9.392081006411214E-012
 -3.710000000000000E-002   -1.301341423467166E-011
 -3.700000000000000E-002   -1.710555838273735E-011
 -3.690000000000000E-002   -2.140443024729623E-011
 -3.680000000000000E-002   -2.549276280167766E-011
 -3.670000000000000E-002   -2.878329582301702E-011
 -3.660000000000000E-002   -3.051567947093521E-011
 -3.650000000000000E-002   -2.977261896372742E-011
 -3.640000000000000E-002   -2.552028777029514E-011
 -3.630000000000000E-002   -1.667676684205422E-011
 -3.620000000000000E-002   -2.210069658644935E-012
 -3.610000000000000E-002    1.873579160246653E-011
 -3.600000000000000E-002    4.669219501927871E-011
 -3.590000000000000E-002    8.170450015192357E-011
 -3.580000000000000E-002    1.231720545132656E-010
 -3.570000000000000E-002    1.697075492810018E-010
 -3.560000000000000E-002    2.190362013049122E-010
 -3.550000000000000E-002    2.679558186829953E-010
 -3.540000000000000E-002    3.123770730375022E-010
 -3.530000000000000E-002    3.474583781039178E-010
 -3.520000000000000E-002    3.678427022939531E-010
 -3.510000000000000E-002    3.679933804215244E-010
 -3.500000000000000E-002    3.426150611721218E-010
 -3.490000000000000E-002    2.871338188044647E-010
 -3.480000000000000E-002    1.982001143181090E-010
 -3.470000000000000E-002    7.417022592852405E-011
 -3.460000000000000E-002   -8.448153063466471E-011
 -3.450000000000000E-002   -2.748662516581459E-010
 -3.440000000000000E-002   -4.915381589435715E-010
 -3.430000000000000E-002   -7.265327352248246E-010
 -3.420000000000000E-002   -9.695937910777405E-010
 -3.410000000000000E-002   -1.208578545511356E-009
 -3.400000000000000E-002   -1.430010736156968E-009
 -3.390000000000000E-002   -1.619734353590740E-009
 -3.380000000000000E-002   -1.763611267158247E-009
 -3.370000000000000E-002   -1.848202481590647E-009
 -3.360000000000000E-002   -1.861379148994094E-009
 -3.350000000000000E-002   -1.792824795159866E-009
 -3.340000000000000E-002   -1.634412665839552E-009
 -3.330000000000000E-002   -1.380467027873382E-009
 -3.320000000000000E-002   -1.027943789098806E-009
 -3.310000000000000E-002   -5.765852733598069E-010
 -3.300000000000000E-002   -2.911422557298491E-011
 -3.290000000000000E-002    6.084723912976490E-010
 -3.280000000000000E-002    1.326467898722134E-009
 -3.270000000000000E-002    2.110872439777074E-009
 -3.260000000000000E-002    2.942701631545361E-009
 -3.250000000000000E-002    3.797280192419996E-009
 -3.240000000000000E-002    4.643664414788430E-009
 -3.230000000000000E-002    5.444374578375457E-009
 -3.220000000000000E-002    6.155640481064058E-009
 -3.210000000000000E-002    6.728349404827681E-009
 -3.200000000000000E-002    7.109844771884170E-009
 -3.190000000000000E-002    7.246645319206131E-009
 -3.180000000000000E-002    7.088052239189661E-009
 -3.170000000000000E-002    6.590480421390459E-009
 -3.160000000000000E-002    5.722223405143601E-009
 -3.150000000000000E-002    4.468242488410102E-009
 -3.140000000000000E-002    2.834476140943262E-009
 -3.130000000000000E-002    8.511305720734769E-010
 -3.120000000000000E-002   -1.425576571150086E-009
 -3.110000000000000E-002   -3.913658054671468E-009
 -3.100000000000000E-002   -6.507871262680897E-009
 -3.090000000000000E-002   -9.084590378536056E-009
 -3.080000000000000E-002   -1.150886646734744E-008
 -3.070000000000000E-002   -1.364325940205781E-008
 -3.060000000000000E-002   -1.535777610588885E-008
 -3.050000000000000E-002   -1.654006163837808E-008
 -3.040000000000000E-002   -1.710487428358734E-008
 -3.030000000000000E-002   -1.700186170155171E-008
 -3.020000000000000E-002   -1.622074382373082E-008
 -3.010000000000000E-002   -1.479322267723584E-008
 -3.000000000000000E-002   -1.279121847919585E-008
 -2.990000000000000E-002   -1.032142077025672E-008
 -2.980000000000000E-002   -7.516517101968879E-009
 -2.970000000000000E-002   -4.523858298432469E-009
 -2.960000000000000E-002   -1.492634824798022E-009
 -2.950000000000000E-002    1.439140106209136E-009
 -2.940000000000000E-002    4.156455987335692E-009
 -2.930000000000000E-002    6.576622347598452E-009
 -2.920000000000000E-002    8.654987196774265E-009
 -2.910000000000000E-002    1.038629961468057E-008
 -2.900000000000000E-002    1.180145621026228E-008
 -2.890000000000000E-002    1.295987022958196E-008
 -2.880000000000000E-002    1.393821994573877E-008
 -2.870000000000000E-002    1.481680382341983E-008
 -2.860000000000000E-002    1.566507206852601E-008
 -2.850000000000000E-002    1.652808544261829E-008
 -2.840000000000000E-002    1.741564986013093E-008
 -2.830000000000000E-002    1.829566149353797E-008
 -2.820000000000000E-002    1.909281428548159E-008
 -2.810000000000000E-002    1.969327072236030E-008
 -2.800000000000000E-002    1.995522915807268E-008
 -2.790000000000000E-002    1.972466591995313E-008
 -2.780000000000000E-002    1.885486175132935E-008
 -2.770000000000000E-002    1.722776789813320E-008
 -2.760000000000000E-002    1.477493220861889E-008
 -2.750000000000000E-002    1.149552177388213E-008
 -2.740000000000000E-002    7.469094219497095E-009
 -2.730000000000000E-002    2.861114496252187E-009
 -2.720000000000000E-002   -2.080200902388462E-009
 -2.710000000000000E-002   -7.036365026573777E-009
 -2.700000000000000E-002   -1.164019626246591E-008
 -2.690000000000000E-002   -1.550532976254070E-008
 -2.680000000000000E-002   -1.826163336410769E-008
 -2.670000000000000E-002   -1.959375393727301E-008
 -2.660000000000000E-002   -1.927952945928581E-008
 -2.650000000000000E-002   -1.722474864752514E-008
 -2.640000000000000E-002   -1.349086195780377E-008
 -2.630000000000000E-002   -8.312682595845013E-009
 -2.620000000000000E-002   -2.103884901485572E-009
 -2.610000000000000E-002    4.550868413430529E-009
 -2.600000000000000E-002    1.091708613585618E-008
 -2.590000000000000E-002    1.614353105972646E-008
 -2.580000000000000E-002    1.930453512250733E-008
 -2.570000000000000E-002    1.944782500387743E-008
 -2.560000000000000E-002    1.564333290400844E-008
 -2.550000000000000E-002    7.027855522645583E-009
 -2.540000000000000E-002   -7.159052560172622E-009
 -2.530000000000000E-002   -2.755254825382098E-008
 -2.520000000000000E-002   -5.465620186369296E-008
 -2.510000000000000E-002   -8.885381988623003E-008
 -2.500000000000000E-002   -1.304389928786821E-007
 -2.490000000000000E-002   -1.796602326228154E-007
 -2.480000000000000E-002   -2.367774617949332E-007
 -2.470000000000000E-002   -3.021239115412264E-007
 -2.460000000000000E-002   -3.761664265741271E-007
 -2.450000000000000E-002   -4.595565617967981E-007
 -2.440000000000000E-002   -5.531647874147851E-007
 -2.430000000000000E-002   -6.580920820135527E-007
 -2.420000000000000E-002   -7.756538934820902E-007
 -2.410000000000000E-002   -9.073352810384268E-007
 -2.400000000000000E-002   -1.054718172630193E-006
 -2.390000000000000E-002   -1.219385324360840E-006
 -2.380000000000000E-002   -1.402809373793540E-006
 -2.370000000000000E-002   -1.606236189861564E-006
 -2.360000000000000E-002   -1.830574722199419E-006
 -2.350000000000000E-002   -2.076307128834390E-006
 -2.340000000000000E-002   -2.343428811972037E-006
 -2.330000000000000E-002   -2.631429966732863E-006
 -2.320000000000000E-002   -2.939323516575161E-006
 -2.310000000000000E-002   -3.265722661285425E-006
 -2.300000000000000E-002   -3.608964170247422E-006
 -2.290000000000000E-002   -3.967269605631016E-006
 -2.280000000000000E-002   -4.338931894307362E-006
 -2.270000000000000E-002   -4.722511932133574E-006
 -2.260000000000000E-002   -5.117024637813022E-006
 -2.250000000000000E-002   -5.522098112809963E-006
 -2.240000000000000E-002   -5.938085724162380E-006
 -2.230000000000000E-002   -6.366121063495022E-006
 -2.220000000000000E-002   -6.808103996480335E-006
 -2.210000000000000E-002   -7.266618116340602E-006
 -2.200000000000000E-002   -7.744783080165613E-006
 -2.190000000000000E-002   -8.246053976771097E-006
 -2.180000000000000E-002   -8.773988123992823E-006
 -2.170000000000000E-002   -9.332000003757218E-006
 -2.160000000000000E-002   -9.923127917064283E-006
 -2.150000000000000E-002   -1.054984012604593E-005
 -2.140000000000000E-002   -1.121390275952193E-005
 -2.130000000000000E-002   -1.191632216281744E-005
 -2.120000000000000E-002   -1.265737295670258E-005
 -2.110000000000000E-002   -1.343671590716648E-005
 -2.100000000000000E-002   -1.425359197446602E-005
 -2.090000000000000E-002   -1.510707836832820E-005
 -2.080000000000000E-002   -1.599637748514633E-005
 -2.070000000000000E-002   -1.692112311476309E-005
 -2.060000000000000E-002   -1.788165381217445E-005
 -2.050000000000000E-002   -1.887923836855727E-005
 -2.040000000000000E-002   -1.991622312512301E-005
 -2.030000000000000E-002   -2.099608491010354E-005
 -2.020000000000000E-002   -2.212337333637773E-005
 -2.010000000000000E-002   -2.330355951134724E-005
 -2.000000000000000E-002   -2.454278821644864E-005
 -1.990000000000000E-002   -2.584756951023998E-005
 -1.980000000000000E-002   -2.722441974103928E-005
 -1.970000000000000E-002   -2.867952115983072E-005
 -1.960000000000000E-002   -3.021839706639226E-005
 -1.950000000000000E-002   -3.184566000728390E-005
 -1.940000000000000E-002   -3.356485414232442E-005
 -1.930000000000000E-002   -3.537841255198807E-005
 -1.920000000000000E-002   -3.728772326982191E-005
 -1.910000000000000E-002   -3.929332771067031E-005
 -1.900000000000000E-002   -4.139519919563292E-005
 -1.890000000000000E-002   -4.359310528291300E-005
 -1.880000000000000E-002   -4.588700703072740E-005
 -1.870000000000000E-002   -4.827745735771492E-005
 -1.860000000000000E-002   -5.076596002195473E-005
 -1.850000000000000E-002   -5.335526667379848E-005
 -1.840000000000000E-002   -5.604955403918587E-005
 -1.830000000000000E-002   -5.885451098318048E-005
 -1.820000000000000E-002   -6.177728998901986E-005
 -1.810000000000000E-002   -6.482634130338130E-005
 -1.800000000000000E-002   -6.801115536104554E-005
 -1.790000000000000E-002   -7.134192951269623E-005
 -1.780000000000000E-002   -7.482922418969049E-005
 -1.770000000000000E-002   -7.848357964517070E-005
 -1.760000000000000E-002   -8.231521902769168E-005
 -1.750000000000000E-002   -8.633378325027363E-005
 -1.740000000000000E-002   -9.054817990191512E-005
 -1.730000000000000E-002   -9.496654221017557E-005
 -1.720000000000000E-002   -9.959630119770754E-005
 -1.710000000000000E-002   -1.044443162024156E-004
 -1.700000000000000E-002   -1.095171381990671E-004
 -1.690000000000000E-002   -1.148212904987466E-004
 -1.680000000000000E-002   -1.203635528289046E-004
 -1.670000000000000E-002   -1.261512539759783E-004
 -1.660000000000000E-002   -1.321924929584202E-004
 -1.650000000000000E-002   -1.384962713605117E-004
 -1.640000000000000E-002   -1.450725383172414E-004
 -1.630000000000000E-002   -1.519321572496119E-004
 -1.620000000000000E-002   -1.590867480390422E-004
 -1.610000000000000E-002   -1.665484836721737E-004
 -1.600000000000000E-002   -1.743297968982749E-004
 -1.590000000000000E-002   -1.824431345591174E-004
 -1.580000000000000E-002   -1.909006888216471E-004
 -1.570000000000000E-002   -1.997142077323753E-004
 -1.560000000000000E-002   -2.088948674119314E-004
 -1.550000000000000E-002   -2.184532982218731E-004
 -1.540000000000000E-002   -2.283996420844829E-004
 -1.530000000000000E-002   -2.387437847096899E-004
 -1.520000000000000E-002   -2.494956337804866E-004
 -1.510000000000000E-002   -2.606654442793087E-004
 -1.500000000000000E-002   -2.722641562010362E-004
 -1.490000000000000E-002   -2.843036873661162E-004
 -1.480000000000000E-002   -2.967971975712260E-004
 -1.470000000000000E-002   -3.097592295413330E-004
 -1.460000000000000E-002   -3.232056266744873E-004
 -1.450000000000000E-002   -3.371534328485964E-004
 -1.440000000000000E-002   -3.516205831300288E-004
 -1.430000000000000E-002   -3.666254875906369E-004
 -1.420000000000000E-002   -3.821865288405545E-004
 -1.410000000000000E-002   -3.983215916074342E-004
 -1.400000000000000E-002   -4.150474874343887E-004
 -1.390000000000000E-002   -4.323794916132541E-004
 -1.380000000000000E-002   -4.503311443343610E-004
 -1.370000000000000E-002   -4.689139748515959E-004
 -1.360000000000000E-002   -4.881375558894946E-004
 -1.350000000000000E-002   -5.080097865529590E-004
 -1.340000000000000E-002   -5.285371842497085E-004
 -1.330000000000000E-002   -5.497253833965580E-004
 -1.320000000000000E-002   -5.715797922580612E-004
 -1.310000000000000E-002   -5.941061553392300E-004
 -1.300000000000000E-002   -6.173111108115022E-004
 -1.290000000000000E-002   -6.412026355908356E-004
 -1.280000000000000E-002   -6.657902926830219E-004
 -1.270000000000000E-002   -6.910853192030837E-004
 -1.260000000000000E-002   -7.171004923456833E-004
 -1.250000000000000E-002   -7.438496433741414E-004
 -1.240000000000000E-002   -7.713470827441280E-004
 -1.230000000000000E-002   -7.996070086685889E-004
 -1.220000000000000E-002   -8.286424271247767E-004
 -1.210000000000000E-002   -8.584645115370813E-004
 -1.200000000000000E-002   -8.890817425531783E-004
 -1.190000000000000E-002   -9.204994259040318E-004
 -1.180000000000000E-002   -9.527190369643518E-004
 -1.170000000000000E-002   -9.857381264962077E-004
 -1.160000000000000E-002   -1.019550329601398E-003
 -1.150000000000000E-002   -1.054145721630811E-003
 -1.140000000000000E-002   -1.089511020403579E-003
 -1.130000000000000E-002   -1.125630449298667E-003
 -1.120000000000000E-002   -1.162486113698319E-003
 -1.110000000000000E-002   -1.200058731759085E-003
 -1.100000000000000E-002   -1.238328198895695E-003
 -1.090000000000000E-002   -1.277273787378178E-003
 -1.080000000000000E-002   -1.316874386743918E-003
 -1.070000000000000E-002   -1.357108221020117E-003
 -1.060000000000000E-002   -1.397952689234587E-003
 -1.050000000000000E-002   -1.439383706336722E-003
 -1.040000000000000E-002   -1.481374847520768E-003
 -1.030000000000000E-002   -1.523896514774525E-003
 -1.020000000000000E-002   -1.566915158789270E-003
 -1.010000000000000E-002   -1.610392152683772E-003
 -1.000000000000000E-002   -1.654283339173131E-003
 -9.899999999999999E-003   -1.698538267162029E-003
 -9.800000000000000E-003   -1.743099780825961E-003
 -9.699999999999999E-003   -1.787904038591149E-003
 -9.599999999999999E-003   -1.832880325145170E-003
 -9.500000000000000E-003   -1.877951243103815E-003
 -9.399999999999999E-003   -1.923033476783796E-003
 -9.299999999999999E-003   -1.968037571579815E-003
 -9.200000000000000E-003   -2.012868924248868E-003
 -9.099999999999999E-003   -2.057427269913115E-003
 -8.999999999999999E-003   -2.101607596973380E-003
 -8.900000000000000E-003   -2.145299662444428E-003
 -8.799999999999999E-003   -2.188387742632489E-003
 -8.699999999999999E-003   -2.230750303945307E-003
 -8.600000000000000E-003   -2.272258965806868E-003
 -8.499999999999999E-003   -2.312778327364458E-003
 -8.399999999999999E-003   -2.352164534800106E-003
 -8.300000000000000E-003   -2.390264808209607E-003
 -8.199999999999999E-003   -2.426915902981336E-003
 -8.100000000000000E-003   -2.461944197587222E-003
 -8.000000000000000E-003   -2.495164554528373E-003
 -7.899999999999999E-003   -2.526380401203985E-003
 -7.800000000000000E-003   -2.555382694832827E-003
 -7.699999999999999E-003   -2.581950771399166E-003
 -7.599999999999999E-003   -2.605851705456710E-003
 -7.499999999999999E-003   -2.626840997399147E-003
 -7.399999999999999E-003   -2.644662370932730E-003
 -7.299999999999999E-003   -2.659048660724824E-003
 -7.199999999999999E-003   -2.669720901607310E-003
 -7.100000000000000E-003   -2.676389613060940E-003
 -6.999999999999999E-003   -2.678753126237232E-003
 -6.899999999999999E-003   -2.676498375796815E-003
 -6.800000000000000E-003   -2.669300045588775E-003
 -6.699999999999999E-003   -2.656819595654426E-003
 -6.599999999999999E-003   -2.638704320009728E-003
 -6.499999999999999E-003   -2.614586670951891E-003
 -6.399999999999999E-003   -2.584083468643182E-003
 -6.299999999999999E-003   -2.546794309163731E-003
 -6.199999999999999E-003   -2.502301244908227E-003
 -6.100000000000000E-003   -2.450167293608741E-003
 -5.999999999999999E-003   -2.389936882861429E-003
 -5.899999999999999E-003   -2.321134414054381E-003
 -5.800000000000000E-003   -2.243264799779801E-003
 -5.699999999999999E-003   -2.155812815864616E-003
 -5.599999999999999E-003   -2.058243815296907E-003
 -5.499999999999999E-003   -1.950003296248080E-003
 -5.399999999999999E-003   -1.830517444264050E-003
 -5.299999999999999E-003   -1.699193459637624E-003
 -5.199999999999999E-003   -1.555419618703912E-003
 -5.099999999999999E-003   -1.398565699902845E-003
 -4.999999999999999E-003   -1.227982368529633E-003
 -4.899999999999999E-003   -1.043001505090693E-003
 -4.799999999999999E-003   -8.429354518172704E-004
 -4.699999999999999E-003   -6.270766916587504E-004
 -4.599999999999999E-003   -3.946974416727975E-004
 -4.499999999999999E-003   -1.450483155481077E-004
 -4.399999999999999E-003    1.226422297851678E-004
 -4.299999999999999E-003    4.091682479104560E-004
 -4.199999999999999E-003    7.153474971754981E-004
 -4.099999999999999E-003    1.042021962064939E-003
 -3.999999999999999E-003    1.390058454510770E-003
 -3.899999999999999E-003    1.760348554105490E-003
 -3.799999999999999E-003    2.153808621638110E-003
 -3.699999999999999E-003    2.571380439868519E-003
 -3.599999999999999E-003    3.014029911429700E-003
 -3.499999999999999E-003    3.482747506107142E-003
 -3.399999999999999E-003    3.978548206121525E-003
 -3.299999999999999E-003    4.502469147609853E-003
 -3.199999999999999E-003    5.055571108520633E-003
 -3.099999999999999E-003    5.638936273519570E-003
 -2.999999999999999E-003    6.253668886232461E-003
 -2.899999999999999E-003    6.900895286496721E-003
 -2.799999999999999E-003    7.581762214263934E-003
 -2.699999999999999E-003    8.297437974777678E-003
 -2.599999999999999E-003    9.049111117991990E-003
 -2.499999999999999E-003    9.837992051752755E-003
 -2.399999999999999E-003    1.066531163053407E-002
 -2.299999999999999E-003    1.153232260191531E-002
 -2.199999999999999E-003    1.244029822997964E-002
 -2.099999999999999E-003    1.339053175626911E-002
 -1.999999999999999E-003    1.438433852291878E-002
 -1.899999999999999E-003    1.542305195181138E-002
 -1.799999999999999E-003    1.650802484327548E-002
 -1.699999999999999E-003    1.764062982882882E-002
 -1.599999999999999E-003    1.882225579967814E-002
 -1.499999999999999E-003    2.005430840613987E-002
 -1.399999999999999E-003    2.133820748419725E-002
 -1.299999999999999E-003    2.267538738062670E-002
 -1.199999999999999E-003    2.406729478932480E-002
 -1.099999999999999E-003    2.551538887296178E-002
 -9.999999999999989E-004    2.702113604009358E-002
 -8.999999999999990E-004    2.858601381576178E-002
 -7.999999999999990E-004    3.021150540828653E-002
 -6.999999999999989E-004    3.189910343460322E-002
 -5.999999999999990E-004    3.365030362842084E-002
 -4.999999999999989E-004    3.546660625991412E-002
 -3.999999999999989E-004    3.734951386527419E-002
 -2.999999999999989E-004    3.930053107328586E-002
 -1.999999999999989E-004    4.132116488855225E-002
 -9.999999999999892E-005    4.341291773954491E-002
  1.084202172485504E-018    4.557729339061238E-002
  1.000000000000011E-004    4.781578851943038E-002
  2.000000000000011E-004    5.012989649225422E-002
  3.000000000000011E-004    5.252109995718538E-002
  4.000000000000011E-004    5.499087393713961E-002
  5.000000000000011E-004    5.754067600351071E-002
  6.000000000000011E-004    6.017195495114329E-002
  7.000000000000011E-004    6.288613758258337E-002
  8.000000000000011E-004    6.568463809605403E-002
  9.000000000000012E-004    6.856884346603923E-002
  1.000000000000001E-003    7.154011145684912E-002
  1.100000000000001E-003    7.459977794356420E-002
  1.200000000000001E-003    7.774915165868673E-002
  1.300000000000001E-003    8.098949963765013E-002
  1.400000000000001E-003    8.432206155421680E-002
  1.500000000000001E-003    8.774803367478144E-002
  1.600000000000001E-003    9.126857772206622E-002
  1.700000000000001E-003    9.488480909545623E-002
  1.800000000000001E-003    9.859780387521036E-002
  1.900000000000001E-003    0.102408586843133     
  2.000000000000001E-003    0.106318133255924     
  2.100000000000001E-003    0.110327365792716     
  2.200000000000001E-003    0.114437154192142     
  2.300000000000001E-003    0.118648313693535     
  2.400000000000001E-003    0.122961597568942     
  2.500000000000001E-003    0.127377687294170     
  2.600000000000001E-003    0.131897194127398     
  2.700000000000001E-003    0.136520675599849     
  2.800000000000001E-003    0.141248598817665     
  2.900000000000001E-003    0.146081363031028     
  3.000000000000001E-003    0.151019283431136     
  3.100000000000001E-003    0.156062582941676     
  3.200000000000001E-003    0.161211409391313     
  3.300000000000001E-003    0.166465819842225     
  3.400000000000001E-003    0.171825763139974     
  3.500000000000001E-003    0.177291093115843     
  3.600000000000001E-003    0.182861571552188     
  3.700000000000001E-003    0.188536858758545     
  3.800000000000001E-003    0.194316501133926     
  3.900000000000001E-003    0.200199952134888     
  4.000000000000001E-003    0.206186533659382     
  4.100000000000001E-003    0.212275465373361     
  4.200000000000001E-003    0.218465850696201     
  4.300000000000001E-003    0.224756661640252     
  4.400000000000001E-003    0.231146779190139     
  4.500000000000001E-003    0.237634938574221     
  4.600000000000002E-003    0.244219729851770     
  4.700000000000001E-003    0.250899654259858     
  4.800000000000001E-003    0.257673051933052     
  4.900000000000002E-003    0.264538107633579     
  5.000000000000001E-003    0.271492907510000     
  5.100000000000001E-003    0.278535385147896     
  5.200000000000001E-003    0.285663306043172     
  5.300000000000002E-003    0.292874306969545     
  5.400000000000001E-003    0.300165890297434     
  5.500000000000001E-003    0.307535382937968     
  5.600000000000002E-003    0.314979958121256     
  5.700000000000001E-003    0.322496666169062     
  5.800000000000001E-003    0.330082382053356     
  5.900000000000002E-003    0.337733841289532     
  6.000000000000001E-003    0.345447607438411     
  6.100000000000001E-003    0.353220103071214     
  6.200000000000002E-003    0.361047593351541     
  6.300000000000002E-003    0.368926191633978     
  6.400000000000001E-003    0.376851823610512     
  6.500000000000001E-003    0.384820310212693     
  6.600000000000002E-003    0.392827249635240     
  6.700000000000001E-003    0.400868131857842     
  6.800000000000001E-003    0.408938246960165     
  6.900000000000002E-003    0.417032748547243     
  7.000000000000001E-003    0.425146615997168     
  7.100000000000001E-003    0.433274677326647     
  7.200000000000002E-003    0.441411583345917     
  7.300000000000002E-003    0.449551871468158     
  7.400000000000001E-003    0.457689850970377     
  7.500000000000001E-003    0.465819749473714     
  7.600000000000002E-003    0.473935647032940     
  7.700000000000001E-003    0.482031421473246     
  7.800000000000001E-003    0.490100822209405     
  7.900000000000001E-003    0.498137470171775     
  8.000000000000002E-003    0.506134847009369     
  8.100000000000001E-003    0.514086262240321     
  8.200000000000001E-003    0.521984918550069     
  8.300000000000002E-003    0.529823926411685     
  8.400000000000001E-003    0.537596212511817     
  8.500000000000002E-003    0.545294581401082     
  8.600000000000002E-003    0.552911712428420     
  8.700000000000001E-003    0.560440187206825     
  8.800000000000002E-003    0.567872475915216     
  8.900000000000002E-003    0.575200947606314     
  9.000000000000001E-003    0.582417891728680     
  9.100000000000002E-003    0.589515416671591     
  9.200000000000002E-003    0.596485584054544     
  9.300000000000001E-003    0.603320413956408     
  9.400000000000002E-003    0.610011802398421     
  9.500000000000001E-003    0.616551560842129     
  9.600000000000001E-003    0.622931495033987     
  9.700000000000002E-003    0.629143278279565     
  9.800000000000001E-003    0.635178572936011     
  9.900000000000001E-003    0.641028996002321     
  1.000000000000000E-002    0.646686118797889     
  1.010000000000000E-002    0.652141479708391     
  1.020000000000000E-002    0.657386540388745     
  1.030000000000000E-002    0.662412888683016     
  1.040000000000000E-002    0.667211936693319     
  1.050000000000000E-002    0.671775223170859     
  1.060000000000000E-002    0.676094264783555     
  1.070000000000000E-002    0.680160568145338     
  1.080000000000000E-002    0.683965670154574     
  1.090000000000000E-002    0.687501181315152     
  1.100000000000000E-002    0.690758681323867     
  1.110000000000000E-002    0.693729891111696     
  1.120000000000000E-002    0.696406558484134     
  1.130000000000000E-002    0.698780492404405     
  1.140000000000000E-002    0.700843599351049     
  1.150000000000000E-002    0.702587881937820     
  1.160000000000000E-002    0.704005364359166     
  1.170000000000000E-002    0.705088322608330     
  1.180000000000000E-002    0.705829062915425     
  1.190000000000000E-002    0.706220014094453     
  1.200000000000000E-002    0.706253785601759     
  1.210000000000000E-002    0.705923100988287     
  1.220000000000000E-002    0.705220917589987     
  1.230000000000000E-002    0.704140250958015     
  1.240000000000000E-002    0.702674361766315     
  1.250000000000000E-002    0.700816701539426     
  1.260000000000000E-002    0.698560921774497     
  1.270000000000000E-002    0.695900848889395     
  1.280000000000000E-002    0.692830542574293     
  1.290000000000000E-002    0.689344277184722     
  1.300000000000000E-002    0.685436624850053     
  1.310000000000000E-002    0.681102350861746     
  1.320000000000000E-002    0.676336505477141     
  1.330000000000000E-002    0.671134363627676     
  1.340000000000000E-002    0.665491504086463     
  1.350000000000000E-002    0.659403790714141     
  1.360000000000000E-002    0.652867367733867     
  1.370000000000000E-002    0.645878699803291     
  1.380000000000000E-002    0.638434549163153     
  1.390000000000000E-002    0.630531995594408     
  1.400000000000000E-002    0.622168421283636     
  1.410000000000000E-002    0.613341577775837     
  1.420000000000000E-002    0.604049511769389     
  1.430000000000000E-002    0.594290656089035     
  1.440000000000000E-002    0.584063762307578     
  1.450000000000000E-002    0.573367935009542     
  1.460000000000000E-002    0.562202688512743     
  1.470000000000000E-002    0.550567884143897     
  1.480000000000000E-002    0.538463767823245     
  1.490000000000000E-002    0.525890905391062     
  1.500000000000000E-002    0.512850397079977     
  1.510000000000000E-002    0.499343585480229     
  1.520000000000000E-002    0.485372280823027     
  1.530000000000000E-002    0.470938695984192     
  1.540000000000000E-002    0.456045464508755     
  1.550000000000000E-002    0.440695568856448     
  1.560000000000000E-002    0.424892445419086     
  1.570000000000000E-002    0.408639923700895     
  1.580000000000000E-002    0.391942226595417     
  1.590000000000000E-002    0.374804027597584     
  1.600000000000000E-002    0.357230361693608     
  1.610000000000000E-002    0.339226724728226     
  1.620000000000000E-002    0.320799017271592     
  1.630000000000000E-002    0.301953527926641     
  1.640000000000000E-002    0.282696982386533     
  1.650000000000000E-002    0.263036488303741     
  1.660000000000000E-002    0.242979603961787     
  1.670000000000000E-002    0.222534271425246     
  1.680000000000000E-002    0.201708847561211     
  1.690000000000000E-002    0.180512083335074     
  1.700000000000000E-002    0.158953148791473     
  1.710000000000000E-002    0.137041598143557     
  1.720000000000000E-002    0.114787366815650     
  1.730000000000000E-002    9.220078271825269E-002
  1.740000000000000E-002    6.929256136363091E-002
  1.750000000000000E-002    4.607378827974312E-002
  1.760000000000000E-002    2.255590622239025E-002
  1.770000000000000E-002   -1.249293564216203E-003
  1.780000000000000E-002   -2.532966087969202E-002
  1.790000000000000E-002   -4.967268948388930E-002
  1.800000000000000E-002   -7.426557267565398E-002
  1.810000000000000E-002   -9.909514017456994E-002
  1.820000000000000E-002   -0.124147931162192     
  1.830000000000000E-002   -0.149410184879178     
  1.840000000000000E-002   -0.174867797952631     
  1.850000000000000E-002   -0.200506436872622     
  1.860000000000000E-002   -0.226311478509854     
  1.870000000000000E-002   -0.252268007626394     