 -4.000000000000000E-002    0.000000000000000E+000
 -3.990000000000000E-002    0.000000000000000E+000
 -3.980000000000000E-002    0.000000000000000E+000
 -3.970000000000000E-002    0.000000000000000E+000
 -3.960000000000000E-002    0.000000000000000E+000
 -3.950000000000000E-002    0.000000000000000E+000
 -3.940000000000000E-002    0.000000000000000E+000
 -3.930000000000000E-002    0.000000000000000E+000
 -3.920000000000000E-002    0.000000000000000E+000
 -3.910000000000000E-002    0.000000000000000E+000
 -3.900000000000000E-002   -7.250512984799157E-037
 -3.890000000000000E-002   -1.515892387709796E-035
 -3.880000000000000E-002   -1.654286395640270E-034
 -3.870000000000000E-002   -1.253199566840374E-033
 -3.860000000000000E-002   -7.396387467630231E-033
 -3.850000000000000E-002   -3.619763881430425E-032
 -3.840000000000000E-002   -1.526989322693772E-031
 -3.830000000000000E-002   -5.700062774652494E-031
 -3.820000000000000E-002   -1.918530293742788E-030
 -3.810000000000000E-002   -5.904458763581379E-030
 -3.800000000000000E-002   -1.679467707257964E-029
 -3.790000000000000E-002   -4.452315333745038E-029
 -3.780000000000000E-002   -1.107408070941275E-028
 -3.770000000000000E-002   -2.597968669378981E-028
 -3.760000000000000E-002   -5.772788932978234E-028
 -3.750000000000000E-002   -1.218932909667944E-027
 -3.740000000000000E-002   -2.451711085116362E-027
 -3.730000000000000E-002   -4.704949462948490E-027
 -3.720000000000000E-002   -8.621165136046692E-027
 -3.710000000000000E-002   -1.507988318260780E-026
 -3.700000000000000E-002   -2.514109177890002E-026
 -3.690000000000000E-002   -3.981465885118834E-026
 -3.680000000000000E-002   -5.950764859737955E-026
 -3.670000000000000E-002   -8.293683537974537E-026
 -3.660000000000000E-002   -1.052310930272236E-025
 -3.650000000000000E-002   -1.149130038287742E-025
 -3.640000000000000E-002   -8.948390027228658E-026
 -3.630000000000000E-002    1.049268577994914E-026
 -3.620000000000000E-002    2.485206911204280E-025
 -3.610000000000000E-002    7.195038511026059E-025
 -3.600000000000000E-002    1.555117355412606E-024
 -3.590000000000000E-002    2.923401177282146E-024
 -3.580000000000000E-002    5.016612281282490E-024
 -3.570000000000000E-002    8.018923949973790E-024
 -3.560000000000000E-002    1.204320436541739E-023
 -3.550000000000000E-002    1.702464188387251E-023
 -3.540000000000000E-002    2.255956207741840E-023
 -3.530000000000000E-002    2.768201307391120E-023
 -3.520000000000000E-002    3.058058984756253E-023
 -3.510000000000000E-002    2.827553428907944E-023
 -3.500000000000000E-002    1.630307667493089E-023
 -3.490000000000000E-002   -1.150891577998032E-023
 -3.480000000000000E-002   -6.304414709414926E-023
 -3.470000000000000E-002   -1.474998740920253E-022
 -3.460000000000000E-002   -2.743617415919724E-022
 -3.450000000000000E-002   -4.514968940501511E-022
 -3.440000000000000E-002   -6.821191696544113E-022
 -3.430000000000000E-002   -9.604473506460544E-022
 -3.420000000000000E-002   -1.266029928244216E-021
 -3.410000000000000E-002   -1.556969473966286E-021
 -3.400000000000000E-002   -1.762662718821511E-021
 -3.390000000000000E-002   -1.777176987672668E-021
 -3.380000000000000E-002   -1.454984545443423E-021
 -3.370000000000000E-002   -6.114135345115795E-022
 -3.360000000000000E-002    9.692490408966759E-022
 -3.350000000000000E-002    3.514698422749453E-021
 -3.340000000000000E-002    7.231314545890273E-021
 -3.330000000000000E-002    1.225395256602014E-020
 -3.320000000000000E-002    1.857758340719689E-020
 -3.310000000000000E-002    2.597194457649557E-020
 -3.300000000000000E-002    3.388388098660237E-020
 -3.290000000000000E-002    4.133662772776128E-020
 -3.280000000000000E-002    4.684068701904054E-020
 -3.270000000000000E-002    4.833682957493254E-020
 -3.260000000000000E-002    4.319727104617294E-020
 -3.250000000000000E-002    2.831527486334148E-020
 -3.240000000000000E-002    3.152990715561528E-022
 -3.230000000000000E-002   -4.408656308243905E-020
 -3.220000000000000E-002   -1.075496093403127E-019
 -3.210000000000000E-002   -1.913951637179507E-019
 -3.200000000000000E-002   -2.947269820376895E-019
 -3.190000000000000E-002   -4.134298898751558E-019
 -3.180000000000000E-002   -5.391286170536560E-019
 -3.170000000000000E-002   -6.582322446177382E-019
 -3.160000000000000E-002   -7.512349849284226E-019
 -3.150000000000000E-002   -7.924872570422074E-019
 -3.140000000000000E-002   -7.506829207861729E-019
 -3.130000000000000E-002   -5.903248582699824E-019
 -3.120000000000000E-002   -2.744149333818217E-019
 -3.110000000000000E-002    2.314371023499061E-019
 -3.100000000000000E-002    9.533922052287482E-019
 -3.090000000000000E-002    1.902313893932252E-018
 -3.080000000000000E-002    3.065535831316856E-018
 -3.070000000000000E-002    4.398021824720463E-018
 -3.060000000000000E-002    5.813794295799810E-018
 -3.050000000000000E-002    7.178840960228644E-018
 -3.040000000000000E-002    8.307033556228853E-018
 -3.030000000000000E-002    8.960839540556818E-018
 -3.020000000000000E-002    8.858729438506515E-018
 -3.010000000000000E-002    7.691087955119878E-018
 -3.000000000000000E-002    5.146087376594093E-018
 -2.990000000000000E-002    9.462624664457000E-019
 -2.980000000000000E-002   -5.104544963064488E-018
 -2.970000000000000E-002   -1.306568965308903E-017
 -2.960000000000000E-002   -2.279927564374878E-017
 -2.950000000000000E-002   -3.391040861894702E-017
 -2.940000000000000E-002   -4.569580423038750E-017
 -2.930000000000000E-002   -5.711022038638017E-017
 -2.920000000000000E-002   -6.676137744064588E-017
 -2.910000000000000E-002   -7.294424297313881E-017
 -2.900000000000000E-002   -7.372443948493434E-017
 -2.890000000000000E-002   -6.707775154607236E-017
 -2.880000000000000E-002   -5.108803083404325E-017
 -2.870000000000000E-002   -2.419926840899886E-017
 -2.860000000000000E-002    1.449053702713604E-017
 -2.850000000000000E-002    6.491530895960819E-017
 -2.840000000000000E-002    1.257375205575764E-016
 -2.830000000000000E-002    1.940947080553160E-016
 -2.820000000000000E-002    2.654408720312691E-016
 -2.810000000000000E-002    3.335295850949591E-016
 -2.800000000000000E-002    3.905819685735920E-016
 -2.790000000000000E-002    4.276726742323613E-016
 -2.780000000000000E-002    4.353498525259968E-016
 -2.770000000000000E-002    4.044811508622682E-016
 -2.760000000000000E-002    3.272894563609662E-016
 -2.750000000000000E-002    1.985088263985516E-016
 -2.740000000000000E-002    1.656069992210982E-017
 -2.730000000000000E-002   -2.153772845111914E-016
 -2.720000000000000E-002   -4.885544380138795E-016
 -2.710000000000000E-002   -7.882305677379982E-016
 -2.700000000000000E-002   -1.093794555345710E-015
 -2.690000000000000E-002   -1.379518479248494E-015
 -2.680000000000000E-002   -1.615995026625671E-015
 -2.670000000000000E-002   -1.772235127250143E-015
 -2.660000000000000E-002   -1.818321298559322E-015
 -2.650000000000000E-002   -1.728427710497845E-015
 -2.640000000000000E-002   -1.483939076556635E-015
 -2.630000000000000E-002   -1.076347133994368E-015
 -2.620000000000000E-002   -5.095710113226949E-016
 -2.610000000000000E-002    1.986357161924973E-016
 -2.600000000000000E-002    1.016470957532290E-015
 -2.590000000000000E-002    1.899238448445971E-015
 -2.580000000000000E-002    2.791902561156941E-015
 -2.570000000000000E-002    3.632905819809509E-015
 -2.560000000000000E-002    4.358933298002918E-015
 -2.550000000000000E-002    4.910149186883626E-015
 -2.540000000000000E-002    5.235317115934647E-015
 -2.530000000000000E-002    5.296159567004255E-015
 -2.520000000000000E-002    5.070356968655566E-015
 -2.510000000000000E-002    4.552716185830386E-015
 -2.500000000000000E-002    3.754261267877894E-015
 -2.490000000000000E-002    2.699298224562864E-015
 -2.480000000000000E-002    1.420845796619408E-015
 -2.470000000000000E-002   -4.484625730532378E-017
 -2.460000000000000E-002   -1.663699025105360E-015
 -2.450000000000000E-002   -3.407970767834005E-015
 -2.440000000000000E-002   -5.258051020804349E-015
 -2.430000000000000E-002   -7.200940167603780E-015
 -2.420000000000000E-002   -9.224885777921806E-015
 -2.410000000000000E-002   -1.131024262505908E-014
 -2.400000000000000E-002   -1.341733965556393E-014
 -2.390000000000000E-002   -1.547290478303513E-014
 -2.380000000000000E-002   -1.735728165151357E-014
 -2.370000000000000E-002   -1.889516926212977E-014
 -2.360000000000000E-002   -1.985279963711351E-014
 -2.350000000000000E-002   -1.994421873802306E-014
 -2.340000000000000E-002   -1.884862613544414E-014
 -2.330000000000000E-002   -1.623954162666232E-014
 -2.320000000000000E-002   -1.182500142201518E-014
 -2.310000000000000E-002   -5.396118063706197E-015
 -2.300000000000000E-002    3.120488539320162E-015
 -2.290000000000000E-002    1.361257669517680E-014
 -2.280000000000000E-002    2.574176293855501E-014
 -2.270000000000000E-002    3.892025701410851E-014
 -2.260000000000000E-002    5.231188941881781E-014
 -2.250000000000000E-002    6.486273647242839E-014
 -2.240000000000000E-002    7.536386446152073E-014
 -2.230000000000000E-002    8.254502236570426E-014
 -2.220000000000000E-002    8.519391121405294E-014
 -2.210000000000000E-002    8.229128015169413E-014
 -2.200000000000000E-002    7.314837389792624E-014
 -2.190000000000000E-002    5.753046725124410E-014
 -2.180000000000000E-002    3.574923767307169E-014
 -2.170000000000000E-002    8.707738879230058E-015
 -2.160000000000000E-002   -2.211481510330248E-014
 -2.150000000000000E-002   -5.474565904468685E-014
 -2.140000000000000E-002   -8.686817708877518E-014
 -2.130000000000000E-002   -1.160296431325762E-013
 -2.120000000000000E-002   -1.398890827995341E-013
 -2.110000000000000E-002   -1.564794143026609E-013
 -2.100000000000000E-002   -1.644523953068779E-013
 -2.090000000000000E-002   -1.632723236956732E-013
 -2.080000000000000E-002   -1.533263783767154E-013
 -2.070000000000000E-002   -1.359258400235128E-013
 -2.060000000000000E-002   -1.131833485583283E-013
 -2.050000000000000E-002   -8.776584754100546E-014
 -2.040000000000000E-002   -6.254009482409725E-014
 -2.030000000000000E-002   -4.014455588751591E-014
 -2.020000000000000E-002   -2.253757432339680E-014
 -2.010000000000000E-002   -1.058233137165924E-014
 -2.000000000000000E-002   -3.734484114768760E-015
 -1.990000000000000E-002    1.055040295124999E-016
 -1.980000000000000E-002    4.525386007859531E-015
 -1.970000000000000E-002    1.429060994176513E-014
 -1.960000000000000E-002    3.479032160766449E-014
 -1.950000000000000E-002    7.127249750132583E-014
 -1.940000000000000E-002    1.279359152107652E-013
 -1.930000000000000E-002    2.069768534746705E-013
 -1.920000000000000E-002    3.077122358397264E-013
 -1.910000000000000E-002    4.259117174491864E-013
 -1.900000000000000E-002    5.534661661625767E-013
 -1.890000000000000E-002    6.784990227703590E-013
 -1.880000000000000E-002    7.859872114849009E-013
 -1.870000000000000E-002    8.589047348651491E-013
 -1.860000000000000E-002    8.798384814132077E-013
 -1.850000000000000E-002    8.329577486134877E-013
 -1.840000000000000E-002    7.061563195390315E-013
 -1.830000000000000E-002    4.931362184666484E-013
 -1.820000000000000E-002    1.951745358024838E-013
 -1.810000000000000E-002   -1.776871256002554E-013
 -1.800000000000000E-002   -6.062582597024782E-013
 -1.790000000000000E-002   -1.062783744536705E-012
 -1.780000000000000E-002   -1.512568501659285E-012
 -1.770000000000000E-002   -1.916597484479062E-012
 -1.760000000000000E-002   -2.234983569789489E-012
 -1.750000000000000E-002   -2.430952743975622E-012
 -1.740000000000000E-002   -2.474977975061914E-012
 -1.730000000000000E-002   -2.348600264224391E-012
 -1.720000000000000E-002   -2.047463361096547E-012
 -1.710000000000000E-002   -1.583115769581385E-012
 -1.700000000000000E-002   -9.832348741597164E-013
 -1.690000000000000E-002   -2.900704113460877E-013
 -1.680000000000000E-002    4.429018847748276E-013
 -1.670000000000000E-002    1.155914196946445E-012
 -1.660000000000000E-002    1.789008672403359E-012
 -1.650000000000000E-002    2.288700121204603E-012
 -1.640000000000000E-002    2.614454200941408E-012
 -1.630000000000000E-002    2.744176725600353E-012
 -1.620000000000000E-002    2.677937138478379E-012
 -1.610000000000000E-002    2.439280918553528E-012
 -1.600000000000000E-002    2.073712136104217E-012
 -1.590000000000000E-002    1.644229144858328E-012
 -1.580000000000000E-002    1.224151456596334E-012
 -1.570000000000000E-002    8.878407774801081E-013
 -1.560000000000000E-002    7.002583438646575E-013
 -1.550000000000000E-002    7.065521651738807E-013
 -1.540000000000000E-002    9.230162105915896E-013
 -1.530000000000000E-002    1.330749327864463E-012
 -1.520000000000000E-002    1.873166132329262E-012
 -1.510000000000000E-002    2.458181686438023E-012
 -1.500000000000000E-002    2.965403067589984E-012
 -1.490000000000000E-002    3.258088412935953E-012
 -1.480000000000000E-002    3.199007093627912E-012
 -1.470000000000000E-002    2.668757032722197E-012
 -1.460000000000000E-002    1.584601552159818E-012
 -1.450000000000000E-002   -8.241097476430658E-014
 -1.440000000000000E-002   -2.294355287979318E-012
 -1.430000000000000E-002   -4.939477221817019E-012
 -1.420000000000000E-002   -7.833017858123423E-012
 -1.410000000000000E-002   -1.072672813062471E-011
 -1.400000000000000E-002   -1.332707052980319E-011
 -1.390000000000000E-002   -1.532109161575826E-011
 -1.380000000000000E-002   -1.640792391126185E-011
 -1.370000000000000E-002   -1.633301029919081E-011
 -1.360000000000000E-002   -1.492149160255098E-011
 -1.350000000000000E-002   -1.210691124044270E-011
 -1.340000000000000E-002   -7.951508170064211E-012
 -1.330000000000000E-002   -2.654945649053187E-012
 -1.320000000000000E-002    3.450702599370527E-012
 -1.310000000000000E-002    9.920545397231941E-012
 -1.300000000000000E-002    1.623033706339791E-011
 -1.290000000000000E-002    2.182146436097861E-011
 -1.280000000000000E-002    2.615362845714270E-011
 -1.270000000000000E-002    2.876019548090391E-011
 -1.260000000000000E-002    2.930042455873247E-011
 -1.250000000000000E-002    2.760271399279324E-011
 -1.240000000000000E-002    2.369344913065390E-011
 -1.230000000000000E-002    1.780729064863153E-011
 -1.220000000000000E-002    1.037642729198861E-011
 -1.210000000000000E-002    1.998532838225101E-012
 -1.200000000000000E-002   -6.614527489743155E-012
 -1.190000000000000E-002   -1.470285061459270E-011
 -1.180000000000000E-002   -2.153322000922352E-011
 -1.170000000000000E-002   -2.647465798901340E-011
 -1.160000000000000E-002   -2.906659772168116E-011
 -1.150000000000000E-002   -2.907166141439566E-011
 -1.140000000000000E-002   -2.650645466508498E-011
 -1.130000000000000E-002   -2.164578251762602E-011
 -1.120000000000000E-002   -1.499858803583317E-011
 -1.110000000000000E-002   -7.257044266433831E-012
 -1.100000000000000E-002    7.765627059758759E-013
 -1.090000000000000E-002    8.277643911387671E-012
 -1.080000000000000E-002    1.449216897882062E-011
 -1.070000000000000E-002    1.882380178540312E-011
 -1.060000000000000E-002    2.090461480417071E-011
 -1.050000000000000E-002    2.064007355969050E-011
 -1.040000000000000E-002    1.822160139179356E-011
 -1.030000000000000E-002    1.410356774203820E-011
 -1.020000000000000E-002    8.945769184753839E-012
 -1.010000000000000E-002    3.526821851273579E-012
 -1.000000000000000E-002   -1.362146908388930E-012
 -9.899999999999999E-003   -5.031007617683740E-012
 -9.800000000000000E-003   -6.997027562110986E-012
 -9.699999999999999E-003   -7.069697217855511E-012
 -9.599999999999999E-003   -5.401124286418294E-012
 -9.500000000000000E-003   -2.492443239909945E-012
 -9.399999999999999E-003    8.485541499023399E-013
 -9.299999999999999E-003    3.597635840344972E-012
 -9.200000000000000E-003    4.645184730310801E-012
 -9.099999999999999E-003    2.955316278779115E-012
 -8.999999999999999E-003   -2.264391464050444E-012
 -8.900000000000000E-003   -1.140300924520243E-011
 -8.799999999999999E-003   -2.431747345272139E-011
 -8.699999999999999E-003   -4.025450169141094E-011
 -8.600000000000000E-003   -5.783873955038141E-011
 -8.499999999999999E-003   -7.513633892643164E-011
 -8.399999999999999E-003   -8.979532530662249E-011
 -8.300000000000000E-003   -9.925531192476526E-011
 -8.199999999999999E-003   -1.010105890094425E-010
 -8.100000000000000E-003   -9.290292008832593E-011
 -8.000000000000000E-003   -7.341489144863264E-011
 -7.899999999999999E-003   -4.193200091319626E-011
 -7.800000000000000E-003    1.058054670540576E-012
 -7.699999999999999E-003    5.385622422254045E-011
 -7.599999999999999E-003    1.135533471322408E-010
 -7.499999999999999E-003    1.761520810162067E-010
 -7.399999999999999E-003    2.368081349500922E-010
 -7.299999999999999E-003    2.901771402669222E-010
 -7.199999999999999E-003    3.308415690867503E-010
 -7.100000000000000E-003    3.537827979290292E-010
 -6.999999999999999E-003    3.548561799774905E-010
 -6.899999999999999E-003    3.312243215143200E-010
 -6.800000000000000E-003    2.817056221236509E-010
 -6.699999999999999E-003    2.070006787800557E-010
 -6.599999999999999E-003    1.097695456666040E-010
 -6.499999999999999E-003   -5.454224336956279E-012
 -6.399999999999999E-003   -1.325117631757546E-010
 -6.299999999999999E-003   -2.640126523735517E-010
 -6.199999999999999E-003   -3.918436163100793E-010
 -6.100000000000000E-003   -5.077495890258882E-010
 -5.999999999999999E-003   -6.039372552239371E-010
 -5.899999999999999E-003   -6.736477115479673E-010
 -5.800000000000000E-003   -7.116479073254483E-010
 -5.699999999999999E-003   -7.145976403037229E-010
 -5.599999999999999E-003   -6.812606178101441E-010
 -5.499999999999999E-003   -6.125436868568171E-010
 -5.399999999999999E-003   -5.113645180805612E-010
 -5.299999999999999E-003   -3.823657054299242E-010
 -5.199999999999999E-003   -2.315073753546619E-010
 -5.099999999999999E-003   -6.558281868855081E-011
 -4.999999999999999E-003    1.082918869460932E-010
 -4.899999999999999E-003    2.831617391110544E-010
 -4.799999999999999E-003    4.526417595923017E-010
 -4.699999999999999E-003    6.112125710620790E-010
 -4.599999999999999E-003    7.543776180174914E-010
 -4.499999999999999E-003    8.786742873435743E-010
 -4.399999999999999E-003    9.815487961071580E-010
 -4.299999999999999E-003    1.061121613786137E-009
 -4.199999999999999E-003    1.115884253685332E-009
 -4.099999999999999E-003    1.144377987585685E-009
 -3.999999999999999E-003    1.144908179152401E-009
 -3.899999999999999E-003    1.115346297601148E-009
 -3.799999999999999E-003    1.053061509445806E-009
 -3.699999999999999E-003    9.550107785692116E-010
 -3.599999999999999E-003    8.179960255656818E-010
 -3.499999999999999E-003    6.390778277383111E-010
 -3.399999999999999E-003    4.161127927055085E-010
 -3.299999999999999E-003    1.483642139129047E-010
 -3.199999999999999E-003   -1.628792794306175E-010
 -3.099999999999999E-003   -5.137499923568033E-010
 -2.999999999999999E-003   -8.973852367446165E-010
 -2.899999999999999E-003   -1.303715042684054E-009
 -2.799999999999999E-003   -1.719503561471479E-009
 -2.699999999999999E-003   -2.128673510950244E-009
 -2.599999999999999E-003   -2.512915530173712E-009
 -2.499999999999999E-003   -2.852556572095587E-009
 -2.399999999999999E-003   -3.127635348040752E-009
 -2.299999999999999E-003   -3.319106259651487E-009
 -2.199999999999999E-003   -3.410078366023786E-009
 -2.099999999999999E-003   -3.386985492954096E-009
 -1.999999999999999E-003   -3.240584549503403E-009
 -1.899999999999999E-003   -2.966692167645264E-009
 -1.799999999999999E-003   -2.566588870961180E-009
 -1.699999999999999E-003   -2.047049486825246E-009
 -1.599999999999999E-003   -1.419995871548120E-009
 -1.499999999999999E-003   -7.018021476106263E-010
 -1.399999999999999E-003    8.767679335345538E-011
 -1.299999999999999E-003    9.262580135704617E-010
 -1.199999999999999E-003    1.790638575597337E-009
 -1.099999999999999E-003    2.657531865422164E-009
 -9.999999999999989E-004    3.504596807313298E-009
 -8.999999999999990E-004    4.311053984176259E-009
 -7.999999999999990E-004    5.057900178356509E-009
 -6.999999999999989E-004    5.727687535518665E-009
 -5.999999999999990E-004    6.303873801152181E-009
 -4.999999999999989E-004    6.769809056232297E-009
 -3.999999999999989E-004    7.107477033205659E-009
 -2.999999999999989E-004    7.296147219030469E-009
 -1.999999999999989E-004    7.311147740800154E-009
 -9.999999999999892E-005    7.122965073222024E-009
  1.084202172485504E-018    6.696885034916606E-009
  1.000000000000011E-004    5.993389310023564E-009
  2.000000000000011E-004    4.969449746337302E-009
  3.000000000000011E-004    3.580831320663708E-009
  4.000000000000011E-004    1.785448113522928E-009
  5.000000000000011E-004   -4.522831441709072E-010
  6.000000000000011E-004   -3.156181391594250E-009
  7.000000000000011E-004   -6.332339249815127E-009
  8.000000000000011E-004   -9.962686070718111E-009
  9.000000000000012E-004   -1.399834343058367E-008
  1.000000000000001E-003   -1.835310944423140E-008
  1.100000000000001E-003   -2.289731216005642E-008
  1.200000000000001E-003   -2.745231378885215E-008
  1.300000000000001E-003   -3.178588965154701E-008
  1.400000000000001E-003   -3.560856964708405E-008
  1.500000000000001E-003   -3.857108368285050E-008
  1.600000000000001E-003   -4.026284351359393E-008
  1.700000000000001E-003   -4.021138969251117E-008
  1.800000000000001E-003   -3.788265235116693E-008
  1.900000000000001E-003   -3.268190607431838E-008
  2.000000000000001E-003   -2.395517033430320E-008
  2.100000000000001E-003   -1.099087376971137E-008
  2.200000000000001E-003    6.978289338869325E-009
  2.300000000000001E-003    3.077354818845750E-008
  2.400000000000001E-003    6.126815289180396E-008
  2.500000000000001E-003    9.938546891064178E-008
  2.600000000000001E-003    1.460968922807599E-007
  2.700000000000001E-003    2.024195011012120E-007
  2.800000000000001E-003    2.694132543670030E-007
  2.900000000000001E-003    3.481775210511696E-007
  3.000000000000001E-003    4.398468931800087E-007
  3.100000000000001E-003    5.455861504146523E-007
  3.200000000000001E-003    6.665844055048968E-007
  3.300000000000001E-003    8.040486682822190E-007
  3.400000000000001E-003    9.591968527452908E-007
  3.500000000000001E-003    1.133250821873229E-006
  3.600000000000001E-003    1.327429649513488E-006
  3.700000000000001E-003    1.542943818683948E-006
  3.800000000000001E-003    1.780991070402567E-006
  3.900000000000001E-003    2.042753157711018E-006
  4.000000000000001E-003    2.329395822310947E-006
  4.100000000000001E-003    2.642071012346262E-006
  4.200000000000001E-003    2.981921700907013E-006
  4.300000000000001E-003    3.350088683229149E-006
  4.400000000000001E-003    3.747720738844834E-006
  4.500000000000001E-003    4.175986671054638E-006
  4.600000000000002E-003    4.636087552132375E-006
  4.700000000000001E-003    5.129271829255560E-006
  4.800000000000001E-003    5.656848920756251E-006
  4.900000000000002E-003    6.220202564486732E-006
  5.000000000000001E-003    6.820804002974558E-006
  5.100000000000001E-003    7.460222140769311E-006
  5.200000000000001E-003    8.140133845926306E-006
  5.300000000000002E-003    8.862328585376536E-006
  5.400000000000001E-003    9.628717590757994E-006
  5.500000000000001E-003    1.044133625920835E-005
  5.600000000000002E-003    1.130234620971780E-005
  5.700000000000001E-003    1.221404074814369E-005
  5.800000000000001E-003    1.317884821644024E-005
  5.900000000000002E-003    1.419933618644627E-005
  6.000000000000001E-003    1.527822059347738E-005
  6.100000000000001E-003    1.641837399432256E-005
  6.200000000000002E-003    1.762283606311409E-005
  6.300000000000002E-003    1.889483221739692E-005
  6.400000000000001E-003    2.023778753230288E-005
  6.500000000000001E-003    2.165534929602141E-005
  6.600000000000002E-003    2.315140582235066E-005
  6.700000000000001E-003    2.473010858274970E-005
  6.800000000000001E-003    2.639589409755146E-005
  6.900000000000002E-003    2.815350632751944E-005
  7.000000000000001E-003    3.000801172509917E-005
  7.100000000000001E-003    3.196481689835267E-005
  7.200000000000002E-003    3.402969087519486E-005
  7.300000000000002E-003    3.620876421939530E-005
  7.400000000000001E-003    3.850854970319865E-005
  7.500000000000001E-003    4.093595081294370E-005
  7.600000000000002E-003    4.349825630186754E-005
  7.700000000000001E-003    4.620316041335581E-005
  7.800000000000001E-003    4.905876168471223E-005
  7.900000000000001E-003    5.207358117936222E-005
  8.000000000000002E-003    5.525655553723242E-005
  8.100000000000001E-003    5.861706754580657E-005
  8.200000000000001E-003    6.216493951310942E-005
  8.300000000000002E-003    6.591047465293459E-005
  8.400000000000001E-003    6.986445681619335E-005
  8.500000000000002E-003    7.403818321562252E-005
  8.600000000000002E-003    7.844347032715234E-005
  8.700000000000001E-003    8.309269683066627E-005
  8.800000000000002E-003    8.799880740724444E-005
  8.900000000000002E-003    9.317534787157646E-005
  9.000000000000001E-003    9.863647711291359E-005
  9.100000000000002E-003    1.043969937926447E-004
  9.200000000000002E-003    1.104723544831227E-004
  9.300000000000001E-003    1.168786771463512E-004
  9.400000000000002E-003    1.236327785793672E-004
  9.500000000000001E-003    1.307521734971509E-004
  9.600000000000001E-003    1.382551212526557E-004
  9.700000000000002E-003    1.461606168709507E-004
  9.800000000000001E-003    1.544884469994779E-004
  9.900000000000001E-003    1.632591989048515E-004
  1.000000000000000E-002    1.724943094479327E-004
  1.010000000000000E-002    1.822160910883104E-004
  1.020000000000000E-002    1.924477893481194E-004
  1.030000000000000E-002    2.032136329697708E-004
  1.040000000000000E-002    2.145388877997234E-004
  1.050000000000000E-002    2.264498784880039E-004
  1.060000000000000E-002    2.389741057646754E-004
  1.070000000000000E-002    2.521402472907802E-004
  1.080000000000000E-002    2.659782272984317E-004
  1.090000000000000E-002    2.805192991637407E-004
  1.100000000000000E-002    2.957960386623595E-004
  1.110000000000000E-002    3.118424305412117E-004
  1.120000000000000E-002    3.286938792149199E-004
  1.130000000000000E-002    3.463872811636784E-004
  1.140000000000000E-002    3.649610250899035E-004
  1.150000000000000E-002    3.844550377665839E-004
  1.160000000000000E-002    4.049108307992748E-004
  1.170000000000000E-002    4.263715177341472E-004
  1.180000000000000E-002    4.488818496781042E-004
  1.190000000000000E-002    4.724882694195803E-004
  1.200000000000000E-002    4.972389998715937E-004
  1.210000000000000E-002    5.231839251208313E-004
  1.220000000000000E-002    5.503749092960271E-004
  1.230000000000000E-002    5.788657181410648E-004
  1.240000000000000E-002    6.087120273973834E-004
  1.250000000000000E-002    6.399715973973777E-004
  1.260000000000000E-002    6.727043098638208E-004
  1.270000000000000E-002    7.069722452052189E-004
  1.280000000000000E-002    7.428397703599618E-004
  1.290000000000000E-002    7.803735645145555E-004
  1.300000000000000E-002    8.196427505823846E-004
  1.310000000000000E-002    8.607189317502796E-004
  1.320000000000000E-002    9.036762070136652E-004
  1.330000000000000E-002    9.485913072793730E-004
  1.340000000000000E-002    9.955435816290164E-004
  1.350000000000000E-002    1.044615159307117E-003
  1.360000000000000E-002    1.095890682317648E-003
  1.370000000000000E-002    1.149457840530492E-003
  1.380000000000000E-002    1.205406965698828E-003
  1.390000000000000E-002    1.263831316418971E-003
  1.400000000000000E-002    1.324827067609949E-003
  1.410000000000000E-002    1.388493453092236E-003
  1.420000000000000E-002    1.454932664808373E-003
  1.430000000000000E-002    1.524250169622123E-003
  1.440000000000000E-002    1.596554433672323E-003
  1.450000000000000E-002    1.671957416293063E-003
  1.460000000000000E-002    1.750574322030751E-003
  1.470000000000000E-002    1.832523728733458E-003
  1.480000000000000E-002    1.917927814184115E-003
  1.490000000000000E-002    2.006912210053911E-003
  1.500000000000000E-002    2.099606311844929E-003
  1.510000000000000E-002    2.196143396588661E-003
  1.520000000000000E-002    2.296659865652280E-003
  1.530000000000000E-002    2.401296374429783E-003
  1.540000000000000E-002    2.510197361688895E-003
  1.550000000000000E-002    2.623511050162942E-003
  1.560000000000000E-002    2.741389704351039E-003
  1.570000000000000E-002    2.863989372647333E-003
  1.580000000000000E-002    2.991469799323838E-003
  1.590000000000000E-002    3.123994953360668E-003
  1.600000000000000E-002    3.261732949560754E-003
  1.610000000000000E-002    3.404855722993609E-003
  1.620000000000000E-002    3.553539320949266E-003
  1.630000000000000E-002    3.707963648589906E-003
  1.640000000000000E-002    3.868313142542087E-003
  1.650000000000000E-002    4.034776281456169E-003
  1.660000000000000E-002    4.207545434439157E-003
  1.670000000000000E-002    4.386817580317352E-003
  1.680000000000000E-002    4.572793624862887E-003
  1.690000000000000E-002    4.765679021302240E-003
  1.700000000000000E-002    4.965683332875687E-003
  1.710000000000000E-002    5.173019970694126E-003
  1.720000000000000E-002    5.387907135261465E-003
  1.730000000000000E-002    5.610566876150842E-003
  1.740000000000000E-002    5.841225651792766E-003
  1.750000000000000E-002    6.080113863378550E-003
  1.760000000000000E-002    6.327465787660914E-003
  1.770000000000000E-002    6.583519777418669E-003
  1.780000000000000E-002    6.848518107478262E-003
  1.790000000000000E-002    7.122706940663423E-003
  1.800000000000000E-002    7.406336169367548E-003
  1.810000000000000E-002    7.699659009273841E-003
  1.820000000000000E-002    8.002933039111189E-003
  1.830000000000000E-002    8.316417721372451E-003
  1.840000000000000E-002    8.640377019008929E-003
  1.850000000000000E-002    8.975078508467798E-003
  1.860000000000000E-002    9.320792102499247E-003
  1.870000000000000E-002    9.677791477998505E-003