 -4.000000000000000E-002    0.000000000000000E+000
 -3.990000000000000E-002    0.000000000000000E+000
 -3.980000000000000E-002    0.000000000000000E+000
 -3.970000000000000E-002    0.000000000000000E+000
 -3.960000000000000E-002    0.000000000000000E+000
 -3.950000000000000E-002    0.000000000000000E+000
 -3.940000000000000E-002    0.000000000000000E+000
 -3.930000000000000E-002    0.000000000000000E+000
 -3.920000000000000E-002    0.000000000000000E+000
 -3.910000000000000E-002    0.000000000000000E+000
 -3.900000000000000E-002    0.000000000000000E+000
 -3.890000000000000E-002    0.000000000000000E+000
 -3.880000000000000E-002    0.000000000000000E+000
 -3.870000000000000E-002    0.000000000000000E+000
 -3.860000000000000E-002    0.000000000000000E+000
 -3.850000000000000E-002    0.000000000000000E+000
 -3.840000000000000E-002    0.000000000000000E+000
 -3.830000000000000E-002    0.000000000000000E+000
 -3.820000000000000E-002    0.000000000000000E+000
 -3.810000000000000E-002    0.000000000000000E+000
 -3.800000000000000E-002    0.000000000000000E+000
 -3.790000000000000E-002    0.000000000000000E+000
 -3.780000000000000E-002    0.000000000000000E+000
 -3.770000000000000E-002    0.000000000000000E+000
 -3.760000000000000E-002    0.000000000000000E+000
 -3.750000000000000E-002    0.000000000000000E+000
 -3.740000000000000E-002    0.000000000000000E+000
 -3.730000000000000E-002    0.000000000000000E+000
 -3.720000000000000E-002    0.000000000000000E+000
 -3.710000000000000E-002    0.000000000000000E+000
 -3.700000000000000E-002    0.000000000000000E+000
 -3.690000000000000E-002    0.000000000000000E+000
 -3.680000000000000E-002    0.000000000000000E+000
 -3.670000000000000E-002    0.000000000000000E+000
 -3.660000000000000E-002    0.000000000000000E+000
 -3.650000000000000E-002    0.000000000000000E+000
 -3.640000000000000E-002    0.000000000000000E+000
 -3.630000000000000E-002    0.000000000000000E+000
 -3.620000000000000E-002    0.000000000000000E+000
 -3.610000000000000E-002    0.000000000000000E+000
 -3.600000000000000E-002    0.000000000000000E+000
 -3.590000000000000E-002    0.000000000000000E+000
 -3.580000000000000E-002    0.000000000000000E+000
 -3.570000000000000E-002    0.000000000000000E+000
 -3.560000000000000E-002    0.000000000000000E+000
 -3.550000000000000E-002    0.000000000000000E+000
 -3.540000000000000E-002    0.000000000000000E+000
 -3.530000000000000E-002    0.000000000000000E+000
 -3.520000000000000E-002    0.000000000000000E+000
 -3.510000000000000E-002    0.000000000000000E+000
 -3.500000000000000E-002    0.000000000000000E+000
 -3.490000000000000E-002    0.000000000000000E+000
 -3.480000000000000E-002    0.000000000000000E+000
 -3.470000000000000E-002    0.000000000000000E+000
 -3.460000000000000E-002    0.000000000000000E+000
 -3.450000000000000E-002    0.000000000000000E+000
 -3.440000000000000E-002    0.000000000000000E+000
 -3.430000000000000E-002    0.000000000000000E+000
 -3.420000000000000E-002    0.000000000000000E+000
 -3.410000000000000E-002    0.000000000000000E+000
 -3.400000000000000E-002    0.000000000000000E+000
 -3.390000000000000E-002    0.000000000000000E+000
 -3.380000000000000E-002    0.000000000000000E+000
 -3.370000000000000E-002    0.000000000000000E+000
 -3.360000000000000E-002    0.000000000000000E+000
 -3.350000000000000E-002    0.000000000000000E+000
 -3.340000000000000E-002    0.000000000000000E+000
 -3.330000000000000E-002    0.000000000000000E+000
 -3.320000000000000E-002    0.000000000000000E+000
 -3.310000000000000E-002    0.000000000000000E+000
 -3.300000000000000E-002    0.000000000000000E+000
 -3.290000000000000E-002    0.000000000000000E+000
 -3.280000000000000E-002    0.000000000000000E+000
 -3.270000000000000E-002    0.000000000000000E+000
 -3.260000000000000E-002    0.000000000000000E+000
 -3.250000000000000E-002    0.000000000000000E+000
 -3.240000000000000E-002    0.000000000000000E+000
 -3.230000000000000E-002    0.000000000000000E+000
 -3.220000000000000E-002    0.000000000000000E+000
 -3.210000000000000E-002    0.000000000000000E+000
 -3.200000000000000E-002    0.000000000000000E+000
 -3.190000000000000E-002    0.000000000000000E+000
 -3.180000000000000E-002    0.000000000000000E+000
 -3.170000000000000E-002    0.000000000000000E+000
 -3.160000000000000E-002    0.000000000000000E+000
 -3.150000000000000E-002   -9.546356541526741E-048
 -3.140000000000000E-002   -2.897440207944938E-047
 -3.130000000000000E-002   -1.810684541480898E-047
 -3.120000000000000E-002    4.276384006228592E-047
 -3.110000000000000E-002    3.193477918109219E-047
 -3.100000000000000E-002    3.197327496453885E-047
 -3.090000000000000E-002    4.917124427799665E-047
 -3.080000000000000E-002    8.316039806937340E-047
 -3.070000000000000E-002    1.893035167111037E-046
 -3.060000000000000E-002    2.338416923835335E-046
 -3.050000000000000E-002    5.085420623245616E-046
 -3.040000000000000E-002    8.298715973292753E-046
 -3.030000000000000E-002    7.221565614621552E-046
 -3.020000000000000E-002    1.152824191932446E-045
 -3.010000000000000E-002    1.682288623946437E-045
 -3.000000000000000E-002    1.606358137924539E-045
 -2.990000000000000E-002    2.376770955258683E-046
 -2.980000000000000E-002   -2.503478308746668E-045
 -2.970000000000000E-002   -9.051530916482944E-045
 -2.960000000000000E-002   -2.055334881302675E-044
 -2.950000000000000E-002   -3.930185852682264E-044
 -2.940000000000000E-002   -6.716886307380883E-044
 -2.930000000000000E-002   -1.051632009087568E-043
 -2.920000000000000E-002   -1.513156514708538E-043
 -2.910000000000000E-002   -1.996662978035828E-043
 -2.900000000000000E-002   -2.318725175938529E-043
 -2.890000000000000E-002   -2.165827269415124E-043
 -2.880000000000000E-002   -1.014984742417234E-043
 -2.870000000000000E-002    1.908454475354581E-043
 -2.860000000000000E-002    7.636045203131359E-043
 -2.850000000000000E-002    1.735705916800596E-042
 -2.840000000000000E-002    3.221936491602114E-042
 -2.830000000000000E-002    5.285450946348961E-042
 -2.820000000000000E-002    7.862519029509018E-042
 -2.810000000000000E-002    1.065344081752104E-041
 -2.800000000000000E-002    1.297421187356814E-041
 -2.790000000000000E-002    1.359724780077396E-041
 -2.780000000000000E-002    1.059598167600028E-041
 -2.770000000000000E-002    1.270746904496423E-042
 -2.760000000000000E-002   -1.775617927869991E-041
 -2.750000000000000E-002   -5.016132571399829E-041
 -2.740000000000000E-002   -9.909272984431886E-041
 -2.730000000000000E-002   -1.657734778333766E-040
 -2.720000000000000E-002   -2.474329021452201E-040
 -2.710000000000000E-002   -3.345967064041927E-040
 -2.700000000000000E-002   -4.079862939912467E-040
 -2.690000000000000E-002   -4.355601151523200E-040
 -2.680000000000000E-002   -3.706505459600237E-040
 -2.670000000000000E-002   -1.525755009707737E-040
 -2.660000000000000E-002    2.885129607970756E-040
 -2.650000000000000E-002    1.020582283732619E-039
 -2.640000000000000E-002    2.090714242544537E-039
 -2.630000000000000E-002    3.497208962578852E-039
 -2.620000000000000E-002    5.153522346132739E-039
 -2.610000000000000E-002    6.847403043491761E-039
 -2.600000000000000E-002    8.202167625850395E-039
 -2.590000000000000E-002    8.651297171249171E-039
 -2.580000000000000E-002    7.441688450716986E-039
 -2.570000000000000E-002    3.683898008440726E-039
 -2.560000000000000E-002   -3.532044221216555E-039
 -2.550000000000000E-002   -1.494091650652382E-038
 -2.540000000000000E-002   -3.082296193279398E-038
 -2.530000000000000E-002   -5.065525796715194E-038
 -2.520000000000000E-002   -7.273368771473247E-038
 -2.510000000000000E-002   -9.383629990776691E-038
 -2.500000000000000E-002   -1.090305907160897E-037
 -2.490000000000000E-002   -1.117517786724995E-037
 -2.480000000000000E-002   -9.428639348169888E-038
 -2.470000000000000E-002   -4.877327092936668E-038
 -2.460000000000000E-002    3.122910359234448E-038
 -2.450000000000000E-002    1.486704296148506E-037
 -2.440000000000000E-002    3.006498075514961E-037
 -2.430000000000000E-002    4.761752548952617E-037
 -2.420000000000000E-002    6.546321286185474E-037
 -2.410000000000000E-002    8.056839155065279E-037
 -2.400000000000000E-002    8.913419967894372E-037
 -2.390000000000000E-002    8.707689404048420E-037
 -2.380000000000000E-002    7.079474086615258E-037
 -2.370000000000000E-002    3.816492692346676E-037
 -2.360000000000000E-002   -1.038161482562633E-037
 -2.350000000000000E-002   -7.096586379252992E-037
 -2.340000000000000E-002   -1.359017325789603E-036
 -2.330000000000000E-002   -1.942781301813181E-036
 -2.320000000000000E-002   -2.338532798423424E-036
 -2.310000000000000E-002   -2.444689223573603E-036
 -2.300000000000000E-002   -2.228683871676434E-036
 -2.290000000000000E-002   -1.783094448852946E-036
 -2.280000000000000E-002   -1.377398276599452E-036
 -2.270000000000000E-002   -1.486348489832528E-036
 -2.260000000000000E-002   -2.770475703047165E-036
 -2.250000000000000E-002   -5.982095058300154E-036
 -2.240000000000000E-002   -1.177408892585162E-035
 -2.230000000000000E-002   -2.040121970583902E-035
 -2.220000000000000E-002   -3.132668522452604E-035
 -2.210000000000000E-002   -4.278038935518701E-035
 -2.200000000000000E-002   -5.135746813158758E-035
 -2.190000000000000E-002   -5.179048943180939E-035
 -2.180000000000000E-002   -3.706634222426069E-035
 -2.170000000000000E-002    9.240753213383369E-037
 -2.160000000000000E-002    7.003458651200072E-035
 -2.150000000000000E-002    1.757138701656467E-034
 -2.140000000000000E-002    3.180960947814764E-034
 -2.130000000000000E-002    4.885743796165376E-034
 -2.120000000000000E-002    6.663588289918545E-034
 -2.110000000000000E-002    8.158065076263045E-034
 -2.100000000000000E-002    8.855697062912379E-034
 -2.090000000000000E-002    8.107689734107820E-034
 -2.080000000000000E-002    5.193707930913061E-034
 -2.070000000000000E-002   -5.635354573880981E-035
 -2.060000000000000E-002   -9.630652129152975E-034
 -2.050000000000000E-002   -2.205100265080881E-033
 -2.040000000000000E-002   -3.720905164850705E-033
 -2.030000000000000E-002   -5.360939177645819E-033
 -2.020000000000000E-002   -6.872379865183932E-033
 -2.010000000000000E-002   -7.897149369614143E-033
 -2.000000000000000E-002   -7.990163554847208E-033
 -1.990000000000000E-002   -6.663819771898034E-033
 -1.980000000000000E-002   -3.462210251040960E-033
 -1.970000000000000E-002    1.935883509420067E-033
 -1.960000000000000E-002    9.592385987166321E-033
 -1.950000000000000E-002    1.917847148713426E-032
 -1.940000000000000E-002    2.985896385949232E-032
 -1.930000000000000E-002    4.022217662643057E-032
 -1.920000000000000E-002    4.828872074029635E-032
 -1.910000000000000E-002    5.163170546593413E-032
 -1.900000000000000E-002    4.763285046923816E-032
 -1.890000000000000E-002    3.388285550102778E-032
 -1.880000000000000E-002    8.709890716359497E-033
 -1.870000000000000E-002   -2.821132827091611E-032
 -1.860000000000000E-002   -7.525229444713059E-032
 -1.850000000000000E-002   -1.283406470324983E-031
 -1.840000000000000E-002   -1.807263856800461E-031
 -1.830000000000000E-002   -2.231496167393874E-031
 -1.820000000000000E-002   -2.445357902423540E-031
 -1.810000000000000E-002   -2.332935390704265E-031
 -1.800000000000000E-002   -1.792052799573483E-031
 -1.790000000000000E-002   -7.578548257086392E-032
 -1.780000000000000E-002    7.715349868069656E-032
 -1.770000000000000E-002    2.711243431416375E-031
 -1.760000000000000E-002    4.872849127651031E-031
 -1.750000000000000E-002    6.960219117518080E-031
 -1.740000000000000E-002    8.583370750924164E-031
 -1.730000000000000E-002    9.294377072800122E-031
 -1.720000000000000E-002    8.646727938713990E-031
 -1.710000000000000E-002    6.275764094662270E-031
 -1.700000000000000E-002    1.993129178607110E-031
 -1.690000000000000E-002   -4.116834375834805E-031
 -1.680000000000000E-002   -1.161534553673826E-030
 -1.670000000000000E-002   -1.966176891152539E-030
 -1.660000000000000E-002   -2.702073930683565E-030
 -1.650000000000000E-002   -3.214115799775517E-030
 -1.640000000000000E-002   -3.331746974970864E-030
 -1.630000000000000E-002   -2.893263832497779E-030
 -1.620000000000000E-002   -1.776782203385968E-030
 -1.610000000000000E-002    6.526136081285759E-032
 -1.600000000000000E-002    2.572803024047111E-030
 -1.590000000000000E-002    5.552046621676451E-030
 -1.580000000000000E-002    8.663193066301998E-030
 -1.570000000000000E-002    1.142832975895261E-029
 -1.560000000000000E-002    1.326434926729120E-029
 -1.550000000000000E-002    1.354307379073938E-029
 -1.540000000000000E-002    1.167697786345898E-029
 -1.530000000000000E-002    7.224338190853085E-030
 -1.520000000000000E-002    2.862165864499361E-033
 -1.510000000000000E-002   -9.803389703073968E-030
 -1.500000000000000E-002   -2.156189075160730E-029
 -1.490000000000000E-002   -3.415321686115633E-029
 -1.480000000000000E-002   -4.599319306428232E-029
 -1.470000000000000E-002   -5.512754141029437E-029
 -1.460000000000000E-002   -5.940306825069885E-029
 -1.450000000000000E-002   -5.670936862204749E-029
 -1.440000000000000E-002   -4.527389401709068E-029
 -1.430000000000000E-002   -2.398258212455651E-029
 -1.420000000000000E-002    7.310251046378131E-030
 -1.410000000000000E-002    4.752378506496213E-029
 -1.400000000000000E-002    9.418515891597172E-029
 -1.390000000000000E-002    1.433917631302083E-028
 -1.380000000000000E-002    1.899260177204098E-028
 -1.370000000000000E-002    2.275331174259457E-028
 -1.360000000000000E-002    2.493563504009075E-028
 -1.350000000000000E-002    2.485099898582732E-028
 -1.340000000000000E-002    2.187579473539604E-028
 -1.330000000000000E-002    1.552598606661145E-028
 -1.320000000000000E-002    5.534445826044592E-029
 -1.310000000000000E-002   -8.072817642682240E-029
 -1.300000000000000E-002   -2.490517492971181E-028
 -1.290000000000000E-002   -4.414449464374294E-028
 -1.280000000000000E-002   -6.449582762006404E-028
 -1.270000000000000E-002   -8.415893249656983E-028
 -1.260000000000000E-002   -1.008315697091749E-027
 -1.250000000000000E-002   -1.117597666292101E-027
 -1.240000000000000E-002   -1.138546585179264E-027
 -1.230000000000000E-002   -1.038977164168537E-027
 -1.220000000000000E-002   -7.885500216260837E-028
 -1.210000000000000E-002   -3.631349401101978E-028
 -1.200000000000000E-002    2.496248187677045E-028
 -1.190000000000000E-002    1.043807423280467E-027
 -1.180000000000000E-002    1.988344853413162E-027
 -1.170000000000000E-002    3.020741933526155E-027
 -1.160000000000000E-002    4.042701189639182E-027
 -1.150000000000000E-002    4.919263826939960E-027
 -1.140000000000000E-002    5.483200442311939E-027
 -1.130000000000000E-002    5.546234304903179E-027
 -1.120000000000000E-002    4.918177493820467E-027
 -1.110000000000000E-002    3.434143534168916E-027
 -1.100000000000000E-002    9.886828167592731E-028
 -1.090000000000000E-002   -2.425955664961178E-027
 -1.080000000000000E-002   -6.682024016882727E-027
 -1.070000000000000E-002   -1.148520562746227E-026
 -1.060000000000000E-002   -1.635777500398380E-026
 -1.050000000000000E-002   -2.064389423867661E-026
 -1.040000000000000E-002   -2.354417487739923E-026
 -1.030000000000000E-002   -2.418440105359782E-026
 -1.020000000000000E-002   -2.171949286434806E-026
 -1.010000000000000E-002   -1.546851791905216E-026
 -1.000000000000000E-002   -5.070237367421421E-027
 -9.899999999999999E-003    9.358044077449915E-027
 -9.800000000000000E-003    2.708160045568603E-026
 -9.699999999999999E-003    4.665694661691334E-026
 -9.599999999999999E-003    6.591687907732257E-026
 -9.500000000000000E-003    8.205783006585426E-026
 -9.399999999999999E-003    9.184774489252777E-026
 -9.299999999999999E-003    9.195985489152283E-026
 -9.200000000000000E-003    7.942033217247202E-026
 -9.099999999999999E-003    5.213743406211381E-026
 -8.999999999999999E-003    9.458324797101467E-027
 -8.900000000000000E-003   -4.731912190066912E-026
 -8.799999999999999E-003   -1.145658811360242E-025
 -8.699999999999999E-003   -1.861631390789526E-025
 -8.600000000000000E-003   -2.536482070009659E-025
 -8.499999999999999E-003   -3.067258434689883E-025
 -8.399999999999999E-003   -3.341697639379910E-025
 -8.300000000000000E-003   -3.250906200988813E-025
 -8.199999999999999E-003   -2.704895945592583E-025
 -8.100000000000000E-003   -1.649578180542180E-025
 -8.000000000000000E-003   -8.327629397590396E-027
 -7.899999999999999E-003    1.929568460039163E-025
 -7.800000000000000E-003    4.249993385428216E-025
 -7.699999999999999E-003    6.663763025147439E-025
 -7.599999999999999E-003    8.890140540923264E-025
 -7.499999999999999E-003    1.060121503525427E-024
 -7.399999999999999E-003    1.145167941240425E-024
 -7.299999999999999E-003    1.111758844121927E-024
 -7.199999999999999E-003    9.341197745277061E-025
 -7.100000000000000E-003    5.977631680294569E-025
 -6.999999999999999E-003    1.038070956172752E-025
 -6.899999999999999E-003   -5.276455455743659E-025
 -6.800000000000000E-003   -1.255656966129870E-024
 -6.699999999999999E-003   -2.018651991284967E-024
 -6.599999999999999E-003   -2.737034102569823E-024
 -6.499999999999999E-003   -3.318381489818081E-024
 -6.399999999999999E-003   -3.665119874753004E-024
 -6.299999999999999E-003   -3.684278166127093E-024
 -6.199999999999999E-003   -3.298643522247223E-024
 -6.100000000000000E-003   -2.458374533208523E-024
 -5.999999999999999E-003   -1.151935066251080E-024
 -5.899999999999999E-003    5.848922515458417E-025
 -5.800000000000000E-003    2.663152547848125E-024
 -5.699999999999999E-003    4.939147471787284E-024
 -5.599999999999999E-003    7.218029790968042E-024
 -5.499999999999999E-003    9.263111567872483E-024
 -5.399999999999999E-003    1.081100684261603E-023
 -5.299999999999999E-003    1.159224388936998E-023
 -5.199999999999999E-003    1.135646521994784E-023
 -5.099999999999999E-003    9.900810781294165E-024
 -4.999999999999999E-003    7.099576185271513E-024
 -4.899999999999999E-003    2.932795383174010E-024
 -4.799999999999999E-003   -2.488977330342809E-024
 -4.699999999999999E-003   -8.906662766378369E-024
 -4.599999999999999E-003   -1.590450453886644E-023
 -4.499999999999999E-003   -2.291474081513206E-023
 -4.399999999999999E-003   -2.923769730854355E-023
 -4.299999999999999E-003   -3.407920433789150E-023
 -4.199999999999999E-003   -3.660615718744008E-023
 -4.099999999999999E-003   -3.601955980614569E-023
 -3.999999999999999E-003   -3.164247460025896E-023
 -3.899999999999999E-003   -2.301805623151466E-023
 -3.799999999999999E-003   -1.001040690951735E-023
 -3.699999999999999E-003    7.101466208953736E-024
 -3.599999999999999E-003    2.754839059594487E-023
 -3.499999999999999E-003    5.002765748012786E-023
 -3.399999999999999E-003    7.270499030219663E-023
 -3.299999999999999E-003    9.327404732984119E-023
 -3.199999999999999E-003    1.090824241435872E-022
 -3.099999999999999E-003    1.173281097821584E-022
 -2.999999999999999E-003    1.153230250584433E-022
 -2.899999999999999E-003    1.008116487243231E-022
 -2.799999999999999E-003    7.232292842798978E-023
 -2.699999999999999E-003    2.952400264260051E-023
 -2.599999999999999E-003   -2.646419645511173E-023
 -2.499999999999999E-003   -9.283514907658231E-023
 -2.399999999999999E-003   -1.649960749053495E-022
 -2.299999999999999E-003   -2.366420665446682E-022
 -2.199999999999999E-003   -3.000387339100607E-022
 -2.099999999999999E-003   -3.465308726877725E-022
 -1.999999999999999E-003   -3.672724159921817E-022
 -1.899999999999999E-003   -3.541459689417500E-022
 -1.799999999999999E-003   -3.008114834996869E-022
 -1.699999999999999E-003   -2.037950436369221E-022
 -1.599999999999999E-003   -6.350485161021827E-023
 -1.499999999999999E-003    1.149544612202683E-022
 -1.399999999999999E-003    3.213025103297972E-022
 -1.299999999999999E-003    5.400621189487209E-022
 -1.199999999999999E-003    7.510938805433204E-022
 -1.099999999999999E-003    9.307419886669560E-022
 -9.999999999999989E-004    1.053590241971476E-021
 -8.999999999999990E-004    1.094761787315196E-021
 -7.999999999999990E-004    1.032623780493567E-021
 -6.999999999999989E-004    8.516900474886674E-022
 -5.999999999999990E-004    5.454555965613819E-022
 -4.999999999999989E-004    1.188563653956791E-022
 -3.999999999999989E-004   -4.099686347303050E-022
 -2.999999999999989E-004   -1.008919277129116E-021
 -1.999999999999989E-004   -1.632438964590769E-021
 -9.999999999999892E-005   -2.223458123579999E-021
  1.084202172485504E-018   -2.716837256561505E-021
  1.000000000000011E-004   -3.044237794847210E-021
  2.000000000000011E-004   -3.140194922841054E-021
  3.000000000000011E-004   -2.949017202984745E-021
  4.000000000000011E-004   -2.431998307349071E-021
  5.000000000000011E-004   -1.574313648764104E-021
  6.000000000000011E-004   -3.909019230919360E-022
  7.000000000000011E-004    1.069386151799445E-021
  8.000000000000011E-004    2.722054826008836E-021
  9.000000000000012E-004    4.448218475815550E-021
  1.000000000000001E-003    6.099252241127382E-021
  1.100000000000001E-003    7.505012550074062E-021
  1.200000000000001E-003    8.485518531234096E-021
  1.300000000000001E-003    8.865672572017091E-021
  1.400000000000001E-003    8.492253480156182E-021
  1.500000000000001E-003    7.252091404573928E-021
  1.600000000000001E-003    5.090031581818364E-021
  1.700000000000001E-003    2.025055807571912E-021
  1.800000000000001E-003   -1.837214080980590E-021
  1.900000000000001E-003   -6.297431816215793E-021
  2.000000000000001E-003   -1.106253649899790E-020
  2.100000000000001E-003   -1.575423893071589E-020
  2.200000000000001E-003   -1.992689147013228E-020
  2.300000000000001E-003   -2.309499268333146E-020
  2.400000000000001E-003   -2.476975486928985E-020
  2.500000000000001E-003   -2.450323110507525E-020
  2.600000000000001E-003   -2.193748353185912E-020
  2.700000000000001E-003   -1.685528703738182E-020
  2.800000000000001E-003   -9.227979144459967E-021
  2.900000000000001E-003    7.445770121020343E-022
  3.000000000000001E-003    1.260725554712459E-020
  3.100000000000001E-003    2.564136690954218E-020
  3.200000000000001E-003    3.887930885067507E-020
  3.300000000000001E-003    5.114542470305276E-020
  3.400000000000001E-003    6.112447234199190E-020
  3.500000000000001E-003    6.745670266452165E-020
  3.600000000000001E-003    6.885578657705793E-020
  3.700000000000001E-003    6.424287298236995E-020
  3.800000000000001E-003    5.288711403192316E-020
  3.900000000000001E-003    3.454049920231672E-020
  4.000000000000001E-003    9.553048836594377E-021
  4.100000000000001E-003   -2.104638068602485E-020
  4.200000000000001E-003   -5.551788741323539E-020
  4.300000000000001E-003   -9.143903328947121E-020
  4.400000000000001E-003   -1.258026422755687E-019
  4.500000000000001E-003   -1.551872942713094E-019
  4.600000000000002E-003   -1.759975881508393E-019
  4.700000000000001E-003   -1.847640651321536E-019
  4.800000000000001E-003   -1.784852133812471E-019
  4.900000000000002E-003   -1.549869313217268E-019
  5.000000000000001E-003   -1.132690418910413E-019
  5.100000000000001E-003   -5.380441030503713E-020
  5.200000000000001E-003    2.124503335262077E-020
  5.300000000000002E-003    1.079292962158501E-019
  5.400000000000001E-003    2.005570398490663E-019
  5.500000000000001E-003    2.919078741278876E-019
  5.600000000000002E-003    3.736183763678503E-019
  5.700000000000001E-003    4.367353369875901E-019
  5.800000000000001E-003    4.724139274113910E-019
  5.900000000000002E-003    4.727216852870786E-019
  6.000000000000001E-003    4.314941019989926E-019
  6.100000000000001E-003    3.451744105691217E-019
  6.200000000000002E-003    2.135613131688565E-019
  6.300000000000002E-003    4.038461920621024E-020
  6.400000000000001E-003   -1.663684262563442E-019
  6.500000000000001E-003   -3.944438626010992E-019
  6.600000000000002E-003   -6.276795232241349E-019
  6.700000000000001E-003   -8.467585645742860E-019
  6.800000000000001E-003   -1.030355929469016E-018
  6.900000000000002E-003   -1.156641864991245E-018
  7.000000000000001E-003   -1.205071431502082E-018
  7.100000000000001E-003   -1.158353143568418E-018
  7.200000000000002E-003   -1.004459071031303E-018
  7.300000000000002E-003   -7.385132233911927E-019
  7.400000000000001E-003   -3.643792104016953E-019
  7.500000000000001E-003    1.042343746570172E-019
  7.600000000000002E-003    6.433215704536252E-019
  7.700000000000001E-003    1.218922897574998E-018
  7.800000000000001E-003    1.788365803717708E-018
  7.900000000000001E-003    2.302442402206408E-018
  8.000000000000002E-003    2.708493419116656E-018
  8.100000000000001E-003    2.954287843548722E-018
  8.200000000000001E-003    2.992499079846045E-018
  8.300000000000002E-003    2.785498512802836E-018
  8.400000000000001E-003    2.310114684956179E-018
  8.500000000000002E-003    1.561948791882999E-018
  8.600000000000002E-003    5.588088138759684E-019
  8.700000000000001E-003   -6.571705057869173E-019
  8.800000000000002E-003   -2.019118649279522E-018
  8.900000000000002E-003   -3.437041587222127E-018
  9.000000000000001E-003   -4.801647140221051E-018
  9.100000000000002E-003   -5.990417400770295E-018
  9.200000000000002E-003   -6.875772461809615E-018
  9.300000000000001E-003   -7.334967416431340E-018
  9.400000000000002E-003   -7.261160409918427E-018
  9.500000000000001E-003   -6.574893620995681E-018
  9.600000000000001E-003   -5.235082302491986E-018
  9.700000000000002E-003   -3.248499880149999E-018
  9.800000000000001E-003   -6.767217989143424E-019
  9.900000000000001E-003    2.360452475305036E-018
  1.000000000000000E-002    5.685929857525007E-018
  1.010000000000000E-002    9.071195305044157E-018
  1.020000000000000E-002    1.224737427337988E-017
  1.030000000000000E-002    1.492134490630348E-017
  1.040000000000000E-002    1.679629728588248E-017
  1.050000000000000E-002    1.759568736562896E-017
  1.060000000000000E-002    1.708908113893464E-017
  1.070000000000000E-002    1.511801915223869E-017
  1.080000000000000E-002    1.161975766362979E-017
  1.090000000000000E-002    6.646615101200647E-018
  1.100000000000000E-002    3.786978574995442E-019
  1.110000000000000E-002   -6.871991555302083E-018
  1.120000000000000E-002   -1.466761287399612E-017
  1.130000000000000E-002   -2.246166810303981E-017
  1.140000000000000E-002   -2.962745732815015E-017
  1.150000000000000E-002   -3.549708045240844E-017
  1.160000000000000E-002   -3.940930116596869E-017
  1.170000000000000E-002   -4.076364053288025E-017
  1.180000000000000E-002   -3.907719931217345E-017
  1.190000000000000E-002   -3.404004916931154E-017
  1.200000000000000E-002   -2.556454708336641E-017
  1.210000000000000E-002   -1.382381099563950E-017
  1.220000000000000E-002    7.251885965634693E-019
  1.230000000000000E-002    1.733786542976376E-017
  1.240000000000000E-002    3.500050814041841E-017
  1.250000000000000E-002    5.247263499502669E-017
  1.260000000000000E-002    6.835308956619163E-017
  1.270000000000000E-002    8.116793349287810E-017
  1.280000000000000E-002    8.947619834498159E-017
  1.290000000000000E-002    9.198761752012305E-017
  1.300000000000000E-002    8.768473078129013E-017
  1.310000000000000E-002    7.594041513011859E-017
  1.320000000000000E-002    5.662098442855629E-017
  1.330000000000000E-002    3.016485194723269E-017
  1.340000000000000E-002   -2.372735014397493E-018
  1.350000000000000E-002   -3.931696719851514E-017
  1.360000000000000E-002   -7.841874516288765E-017
  1.370000000000000E-002   -1.169508134668771E-016
  1.380000000000000E-002   -1.518542604461672E-016
  1.390000000000000E-002   -1.799306911945826E-016
  1.400000000000000E-002   -1.980713187400694E-016
  1.410000000000000E-002   -2.035099912684646E-016
  1.420000000000000E-002   -1.940837731906455E-016
  1.430000000000000E-002   -1.684816850706396E-016
  1.440000000000000E-002   -1.264607169534291E-016
  1.450000000000000E-002   -6.900793723713201E-017
  1.460000000000000E-002    1.571041651049801E-018
  1.470000000000000E-002    8.165386926702286E-017
  1.480000000000000E-002    1.664051856592334E-016
  1.490000000000000E-002    2.499877022079780E-016
  1.500000000000000E-002    3.258781014113512E-016
  1.510000000000000E-002    3.872769264525732E-016
  1.520000000000000E-002    4.275929347776187E-016
  1.530000000000000E-002    4.409740600632197E-016
  1.540000000000000E-002    4.228499605300794E-016
  1.550000000000000E-002    3.704459670261491E-016
  1.560000000000000E-002    2.832251541889512E-016
  1.570000000000000E-002    1.632158584656294E-016
  1.580000000000000E-002    1.518501136352837E-017
  1.590000000000000E-002   -1.533749126162276E-016
  1.600000000000000E-002   -3.324673450586677E-016
  1.610000000000000E-002   -5.100306097737049E-016
  1.620000000000000E-002   -6.725870793434445E-016
  1.630000000000000E-002   -8.060796809509197E-016
  1.640000000000000E-002   -8.968545218806739E-016
  1.650000000000000E-002   -9.327338456756970E-016
  1.660000000000000E-002   -9.041087535289468E-016
  1.670000000000000E-002   -8.049726532069862E-016
  1.680000000000000E-002   -6.338106537655440E-016
  1.690000000000000E-002   -3.942611590279418E-016
  1.700000000000000E-002   -9.547369391836101E-017
  1.710000000000000E-002    2.478995970895512E-016
  1.720000000000000E-002    6.161217740735929E-016
  1.730000000000000E-002    9.852145110872983E-016
  1.740000000000000E-002    1.328215267874295E-015
  1.750000000000000E-002    1.616803787572875E-015
  1.760000000000000E-002    1.823219942950205E-015
  1.770000000000000E-002    1.922367607189814E-015
  1.780000000000000E-002    1.893969883989485E-015
  1.790000000000000E-002    1.724624293948294E-015
  1.800000000000000E-002    1.409595459351290E-015
  1.810000000000000E-002    9.541839738827844E-016
  1.820000000000000E-002    3.745224478585175E-016
  1.830000000000000E-002   -3.023256860073849E-016
  1.840000000000000E-002   -1.039051518273429E-015
  1.850000000000000E-002   -1.789610496236671E-015
  1.860000000000000E-002   -2.501541554130669E-015
  1.870000000000000E-002   -3.119018804693661E-015