 -4.000000000000000E-002    0.000000000000000E+000
 -3.990000000000000E-002    0.000000000000000E+000
 -3.980000000000000E-002    0.000000000000000E+000
 -3.970000000000000E-002    0.000000000000000E+000
 -3.960000000000000E-002    0.000000000000000E+000
 -3.950000000000000E-002    0.000000000000000E+000
 -3.940000000000000E-002    0.000000000000000E+000
 -3.930000000000000E-002    0.000000000000000E+000
 -3.920000000000000E-002    0.000000000000000E+000
 -3.910000000000000E-002    0.000000000000000E+000
 -3.900000000000000E-002    0.000000000000000E+000
 -3.890000000000000E-002    0.000000000000000E+000
 -3.880000000000000E-002    0.000000000000000E+000
 -3.870000000000000E-002    0.000000000000000E+000
 -3.860000000000000E-002    2.121069298514179E-046
 -3.850000000000000E-002    6.108706241800011E-045
 -3.840000000000000E-002    8.948884896840662E-044
 -3.830000000000000E-002    9.028413286097584E-043
 -3.820000000000000E-002    7.014982989280580E-042
 -3.810000000000000E-002    4.458726134300402E-041
 -3.800000000000000E-002    2.411803554670694E-040
 -3.790000000000000E-002    1.140638115619653E-039
 -3.780000000000000E-002    4.809709453915354E-039
 -3.770000000000000E-002    1.834989578556431E-038
 -3.760000000000000E-002    6.406668838032945E-038
 -3.750000000000000E-002    2.065495051283857E-037
 -3.740000000000000E-002    6.193713947849681E-037
 -3.730000000000000E-002    1.737654947590346E-036
 -3.720000000000000E-002    4.582902213754657E-036
 -3.710000000000000E-002    1.140704606953641E-035
 -3.700000000000000E-002    2.687941218797210E-035
 -3.690000000000000E-002    6.010919556674966E-035
 -3.680000000000000E-002    1.277955502820353E-034
 -3.670000000000000E-002    2.586060387485875E-034
 -3.660000000000000E-002    4.983023526957425E-034
 -3.650000000000000E-002    9.138830201854640E-034
 -3.640000000000000E-002    1.592786481793960E-033
 -3.630000000000000E-002    2.629775962630696E-033
 -3.620000000000000E-002    4.089603059985084E-033
 -3.610000000000000E-002    5.928667317562693E-033
 -3.600000000000000E-002    7.855424747317309E-033
 -3.590000000000000E-002    9.110396935174183E-033
 -3.580000000000000E-002    8.156749920261155E-033
 -3.570000000000000E-002    2.296655925711694E-033
 -3.560000000000000E-002   -1.272883432719106E-032
 -3.550000000000000E-002   -4.303806029308656E-032
 -3.540000000000000E-002   -9.661631703213485E-032
 -3.530000000000000E-002   -1.827845091762115E-031
 -3.520000000000000E-002   -3.108699786125474E-031
 -3.510000000000000E-002   -4.879090632453357E-031
 -3.500000000000000E-002   -7.154566039455336E-031
 -3.490000000000000E-002   -9.860164935934124E-031
 -3.480000000000000E-002   -1.280224835404997E-030
 -3.470000000000000E-002   -1.566593330211151E-030
 -3.460000000000000E-002   -1.806069612219971E-030
 -3.450000000000000E-002   -1.963406189126036E-030
 -3.440000000000000E-002   -2.025669216239677E-030
 -3.430000000000000E-002   -2.024354757422757E-030
 -3.420000000000000E-002   -2.050781974920462E-030
 -3.410000000000000E-002   -2.244465512159256E-030
 -3.400000000000000E-002   -2.721784954623575E-030
 -3.390000000000000E-002   -3.399775633639447E-030
 -3.380000000000000E-002   -3.662140957721011E-030
 -3.370000000000000E-002   -1.818867098902897E-030
 -3.360000000000000E-002    5.662663954039192E-030
 -3.350000000000000E-002    2.511630411586736E-029
 -3.340000000000000E-002    6.668138149619650E-029
 -3.330000000000000E-002    1.450501547686341E-028
 -3.320000000000000E-002    2.794507596751103E-028
 -3.310000000000000E-002    4.921204050084843E-028
 -3.300000000000000E-002    8.043069479803707E-028
 -3.290000000000000E-002    1.228696961854208E-027
 -3.280000000000000E-002    1.757229880716557E-027
 -3.270000000000000E-002    2.343622783857965E-027
 -3.260000000000000E-002    2.880761477795965E-027
 -3.250000000000000E-002    3.174515806386367E-027
 -3.240000000000000E-002    2.917586004532587E-027
 -3.230000000000000E-002    1.669654021324831E-027
 -3.220000000000000E-002   -1.146824012889070E-027
 -3.210000000000000E-002   -6.222758872160332E-027
 -3.200000000000000E-002   -1.429566666614807E-026
 -3.190000000000000E-002   -2.602421168353255E-026
 -3.180000000000000E-002   -4.179018537384279E-026
 -3.170000000000000E-002   -6.141960583653820E-026
 -3.160000000000000E-002   -8.382530953613956E-026
 -3.150000000000000E-002   -1.065899528351484E-025
 -3.140000000000000E-002   -1.255306318666710E-025
 -3.130000000000000E-002   -1.343139450226999E-025
 -3.120000000000000E-002   -1.242207705832367E-025
 -3.110000000000000E-002   -8.418960158196749E-026
 -3.100000000000000E-002   -1.291526446645950E-027
 -3.090000000000000E-002    1.381997266410424E-025
 -3.080000000000000E-002    3.469884520652702E-025
 -3.070000000000000E-002    6.340724772434238E-025
 -3.060000000000000E-002    1.001152751943839E-024
 -3.050000000000000E-002    1.438211199392799E-024
 -3.040000000000000E-002    1.918493241444780E-024
 -3.030000000000000E-002    2.393329484349516E-024
 -3.020000000000000E-002    2.787464309821489E-024
 -3.010000000000000E-002    2.995807412465670E-024
 -3.000000000000000E-002    2.882752530822582E-024
 -2.990000000000000E-002    2.285408666374498E-024
 -2.980000000000000E-002    1.022185598322070E-024
 -2.970000000000000E-002   -1.091860158371382E-024
 -2.960000000000000E-002   -4.221725251238190E-024
 -2.950000000000000E-002   -8.480471904482048E-024
 -2.940000000000000E-002   -1.388859705724321E-023
 -2.930000000000000E-002   -2.032587020687633E-023
 -2.920000000000000E-002   -2.747821967456889E-023
 -2.910000000000000E-002   -3.478399927264426E-023
 -2.900000000000000E-002   -4.138608279088679E-023
 -2.890000000000000E-002   -4.609843359643842E-023
 -2.880000000000000E-002   -4.739796717062619E-023
 -2.870000000000000E-002   -4.345445780609828E-023
 -2.860000000000000E-002   -3.221226654440470E-023
 -2.850000000000000E-002   -1.153755183120597E-023
 -2.840000000000000E-002    2.055714258259714E-023
 -2.830000000000000E-002    6.560374370889172E-023
 -2.820000000000000E-002    1.242848409812309E-022
 -2.810000000000000E-002    1.959660444158821E-022
 -2.800000000000000E-002    2.781797350749240E-022
 -2.790000000000000E-002    3.661028016966722E-022
 -2.780000000000000E-002    4.520910678788926E-022
 -2.770000000000000E-002    5.253524845806673E-022
 -2.760000000000000E-002    5.718607353938441E-022
 -2.750000000000000E-002    5.746211166987228E-022
 -2.740000000000000E-002    5.144058152544767E-022
 -2.730000000000000E-002    3.710623383378531E-022
 -2.720000000000000E-002    1.254684959272911E-022
 -2.710000000000000E-002   -2.378413710053202E-022
 -2.700000000000000E-002   -7.274350339446404E-022
 -2.690000000000000E-002   -1.341273405304648E-021
 -2.680000000000000E-002   -2.062802355957865E-021
 -2.670000000000000E-002   -2.857233129050038E-021
 -2.660000000000000E-002   -3.668521141974721E-021
 -2.650000000000000E-002   -4.417648488171134E-021
 -2.640000000000000E-002   -5.002870619272966E-021
 -2.630000000000000E-002   -5.302575742479152E-021
 -2.620000000000000E-002   -5.181316787901535E-021
 -2.610000000000000E-002   -4.499382304650506E-021
 -2.600000000000000E-002   -3.125979535274629E-021
 -2.590000000000000E-002   -9.557065564492365E-022
 -2.580000000000000E-002    2.072470426155929E-021
 -2.570000000000000E-002    5.955035710149001E-021
 -2.560000000000000E-002    1.060432792595050E-020
 -2.550000000000000E-002    1.583174486887604E-020
 -2.540000000000000E-002    2.133623462313371E-020
 -2.530000000000000E-002    2.670062086526550E-020
 -2.520000000000000E-002    3.139809701392686E-020
 -2.510000000000000E-002    3.481070973452724E-020
 -2.500000000000000E-002    3.626083943956166E-020
 -2.490000000000000E-002    3.505558331010612E-020
 -2.480000000000000E-002    3.054268228070636E-020
 -2.470000000000000E-002    2.217530241175918E-020
 -2.460000000000000E-002    9.581660661297741E-021
 -2.450000000000000E-002   -7.365474091240069E-021
 -2.440000000000000E-002   -2.848515813120412E-020
 -2.430000000000000E-002   -5.323620379002963E-020
 -2.420000000000000E-002   -8.068221556012680E-020
 -2.410000000000000E-002   -1.094781447487350E-019
 -2.400000000000000E-002   -1.378814309286064E-019
 -2.390000000000000E-002   -1.637893127702258E-019
 -2.380000000000000E-002   -1.848020292200764E-019
 -2.370000000000000E-002   -1.983105666076874E-019
 -2.360000000000000E-002   -2.016065376302924E-019
 -2.350000000000000E-002   -1.920118136963914E-019
 -2.340000000000000E-002   -1.670258367419815E-019
 -2.330000000000000E-002   -1.244902394576171E-019
 -2.320000000000000E-002   -6.277101579268496E-020
 -2.310000000000000E-002    1.904027313428073E-020
 -2.300000000000000E-002    1.209045027320600E-019
 -2.290000000000000E-002    2.415927290485337E-019
 -2.280000000000000E-002    3.784279707810403E-019
 -2.270000000000000E-002    5.270224618793072E-019
 -2.260000000000000E-002    6.810306368576294E-019
 -2.250000000000000E-002    8.319496450871717E-019
 -2.240000000000000E-002    9.690110307880505E-019
 -2.230000000000000E-002    1.079217431690178E-018
 -2.220000000000000E-002    1.147584585075155E-018
 -2.210000000000000E-002    1.157650074783677E-018
 -2.200000000000000E-002    1.092298622942241E-018
 -2.190000000000000E-002    9.349405488419807E-019
 -2.180000000000000E-002    6.710381046787504E-019
 -2.170000000000000E-002    2.899442311322394E-019
 -2.160000000000000E-002   -2.130433674029955E-019
 -2.150000000000000E-002   -8.345576106369450E-019
 -2.140000000000000E-002   -1.561168290529254E-018
 -2.130000000000000E-002   -2.367760415668584E-018
 -2.120000000000000E-002   -3.216551504907457E-018
 -2.110000000000000E-002   -4.057010363570199E-018
 -2.100000000000000E-002   -4.826908225336147E-018
 -2.090000000000000E-002   -5.454658814422399E-018
 -2.080000000000000E-002   -5.863003945042144E-018
 -2.070000000000000E-002   -5.973965729105687E-018
 -2.060000000000000E-002   -5.714840787875111E-018
 -2.050000000000000E-002   -5.024857605636374E-018
 -2.040000000000000E-002   -3.861988586378085E-018
 -2.030000000000000E-002   -2.209310693171032E-018
 -2.020000000000000E-002   -8.026921146159185E-020
 -2.010000000000000E-002    2.477767891066091E-018
 -2.000000000000000E-002    5.382178168009934E-018
 -1.990000000000000E-002    8.516294809002263E-018
 -1.980000000000000E-002    1.173325569069837E-017
 -1.970000000000000E-002    1.486229207924684E-017
 -1.960000000000000E-002    1.771699754243467E-017
 -1.950000000000000E-002    2.010486562763950E-017
 -1.940000000000000E-002    2.183722504130403E-017
 -1.930000000000000E-002    2.273863366768747E-017
 -1.920000000000000E-002    2.265489724421522E-017
 -1.910000000000000E-002    2.145906806085400E-017
 -1.900000000000000E-002    1.905516264152775E-017
 -1.890000000000000E-002    1.537971035207139E-017
 -1.880000000000000E-002    1.040177785662350E-017
 -1.870000000000000E-002    4.122473538915844E-018
 -1.860000000000000E-002   -3.424708649387142E-018
 -1.850000000000000E-002   -1.217129220634140E-017
 -1.840000000000000E-002   -2.200769510678660E-017
 -1.830000000000000E-002   -3.277273745822308E-017
 -1.820000000000000E-002   -4.423868547039221E-017
 -1.810000000000000E-002   -5.609266551205700E-017
 -1.800000000000000E-002   -6.791642319136088E-017
 -1.790000000000000E-002   -7.916739755602510E-017
 -1.780000000000000E-002   -8.916506265896585E-017
 -1.770000000000000E-002   -9.708706452827962E-017
 -1.760000000000000E-002   -1.019796311269392E-016
 -1.750000000000000E-002   -1.027864775086003E-016
 -1.740000000000000E-002   -9.839885833469470E-017
 -1.730000000000000E-002   -8.772797750164241E-017
 -1.720000000000000E-002   -6.979829702658261E-017
 -1.710000000000000E-002   -4.385780166686565E-017
 -1.700000000000000E-002   -9.498400949554836E-018
 -1.690000000000000E-002    3.322266339976686E-017
 -1.680000000000000E-002    8.367168459202069E-017
 -1.670000000000000E-002    1.405497075910786E-016
 -1.660000000000000E-002    2.018382433963597E-016
 -1.650000000000000E-002    2.647903568842342E-016
 -1.640000000000000E-002    3.259754547442791E-016
 -1.630000000000000E-002    3.813827864945606E-016
 -1.620000000000000E-002    4.265839556906347E-016
 -1.610000000000000E-002    4.569506579754516E-016
 -1.600000000000000E-002    4.679185721075393E-016
 -1.590000000000000E-002    4.552849818388055E-016
 -1.580000000000000E-002    4.155230988359062E-016
 -1.570000000000000E-002    3.460952163393883E-016
 -1.560000000000000E-002    2.457454544609504E-016
 -1.550000000000000E-002    1.147521130090527E-016
 -1.540000000000000E-002   -4.487649587101793E-017
 -1.530000000000000E-002   -2.292791433359205E-016
 -1.520000000000000E-002   -4.327034069411937E-016
 -1.510000000000000E-002   -6.475607550845569E-016
 -1.500000000000000E-002   -8.645810170579109E-016
 -1.490000000000000E-002   -1.073068491714765E-015
 -1.480000000000000E-002   -1.261258048287878E-015
 -1.470000000000000E-002   -1.416767471724160E-015
 -1.460000000000000E-002   -1.527136199986331E-015
 -1.450000000000000E-002   -1.580437381069021E-015
 -1.440000000000000E-002   -1.565942790766910E-015
 -1.430000000000000E-002   -1.474816619968110E-015
 -1.420000000000000E-002   -1.300802700407261E-015
 -1.410000000000000E-002   -1.040866146305626E-015
 -1.400000000000000E-002   -6.957450530271985E-016
 -1.390000000000000E-002   -2.703628168922305E-016
 -1.380000000000000E-002    2.259437211735412E-016
 -1.370000000000000E-002    7.794224529409940E-016
 -1.360000000000000E-002    1.372158138309295E-015
 -1.350000000000000E-002    1.982586854952320E-015
 -1.340000000000000E-002    2.586262219607819E-015
 -1.330000000000000E-002    3.156834086704387E-015
 -1.320000000000000E-002    3.667173247924936E-015
 -1.310000000000000E-002    4.090560450534945E-015
 -1.300000000000000E-002    4.401835135285535E-015
 -1.290000000000000E-002    4.578402997940191E-015
 -1.280000000000000E-002    4.601011337815420E-015
 -1.270000000000000E-002    4.454232242981058E-015
 -1.260000000000000E-002    4.126625758810425E-015
 -1.250000000000000E-002    3.610621319159441E-015
 -1.240000000000000E-002    2.902206930187116E-015
 -1.230000000000000E-002    2.000571241377790E-015
 -1.220000000000000E-002    9.078830373976614E-016
 -1.210000000000000E-002   -3.705774565288307E-016
 -1.200000000000000E-002   -1.825750545457010E-015
 -1.190000000000000E-002   -3.443444933843375E-015
 -1.180000000000000E-002   -5.202250014998392E-015
 -1.170000000000000E-002   -7.070783195515838E-015
 -1.160000000000000E-002   -9.004494864885933E-015
 -1.150000000000000E-002   -1.094241969538816E-014
 -1.140000000000000E-002   -1.280437839124915E-014
 -1.130000000000000E-002   -1.448928955873135E-014
 -1.120000000000000E-002   -1.587524657481886E-014
 -1.110000000000000E-002   -1.682202507057951E-014
 -1.100000000000000E-002   -1.717651483101387E-014
 -1.090000000000000E-002   -1.678136309680538E-014
 -1.080000000000000E-002   -1.548678187327148E-014
 -1.070000000000000E-002   -1.316507047762330E-014
 -1.060000000000000E-002   -9.726996214508332E-015
 -1.050000000000000E-002   -5.138737246067528E-015
 -1.040000000000000E-002    5.622341895612937E-016
 -1.030000000000000E-002    7.254188004819204E-015
 -1.020000000000000E-002    1.472300126645754E-014
 -1.010000000000000E-002    2.266060089535845E-014
 -1.000000000000000E-002    3.067137190863582E-014
 -9.899999999999999E-003    3.828729742456491E-014
 -9.800000000000000E-003    4.499187359832742E-014
 -9.699999999999999E-003    5.025187135567375E-014
 -9.599999999999999E-003    5.355518858835009E-014
 -9.500000000000000E-003    5.445208313129017E-014
 -9.399999999999999E-003    5.259645297152394E-014
 -9.299999999999999E-003    4.778339416369623E-014
 -9.200000000000000E-003    3.997918498287703E-014
 -9.099999999999999E-003    2.934017578924926E-014
 -8.999999999999999E-003    1.621783062286694E-014
 -8.900000000000000E-003    1.148202937355377E-015
 -8.799999999999999E-003   -1.517444682326033E-014
 -8.699999999999999E-003   -3.193868003391907E-014
 -8.600000000000000E-003   -4.826880272293833E-014
 -8.499999999999999E-003   -6.328555118264880E-014
 -8.399999999999999E-003   -7.616941774059048E-014
 -8.300000000000000E-003   -8.622088563631979E-014
 -8.199999999999999E-003   -9.291183671098090E-014
 -8.100000000000000E-003   -9.592307375716902E-014
 -8.000000000000000E-003   -9.516397697661786E-014
 -7.899999999999999E-003   -9.077198440403023E-014
 -7.800000000000000E-003   -8.309167161129751E-014
 -7.699999999999999E-003   -7.263508174046554E-014
 -7.599999999999999E-003   -6.002719651009258E-014
 -7.499999999999999E-003   -4.594191693291942E-014
 -7.399999999999999E-003   -3.103506806699547E-014
 -7.299999999999999E-003   -1.588148331490148E-014
 -7.199999999999999E-003   -9.229247404379477E-016
 -7.100000000000000E-003    1.356748953658810E-014
 -6.999999999999999E-003    2.750022038736283E-014
 -6.899999999999999E-003    4.096165651873165E-014
 -6.800000000000000E-003    5.418419249649454E-014
 -6.699999999999999E-003    6.749668386450678E-014
 -6.599999999999999E-003    8.126000783063319E-014
 -6.499999999999999E-003    9.579390556637976E-014
 -6.399999999999999E-003    1.113023019844737E-013
 -6.299999999999999E-003    1.278043031284732E-013
 -6.199999999999999E-003    1.450776034695934E-013
 -6.100000000000000E-003    1.626200017577363E-013
 -5.999999999999999E-003    1.796327545876844E-013
 -5.899999999999999E-003    1.950281502500256E-013
 -5.800000000000000E-003    2.074613295068542E-013
 -5.699999999999999E-003    2.153853248716635E-013
 -5.599999999999999E-003    2.171264406402937E-013
 -5.499999999999999E-003    2.109769318719315E-013
 -5.399999999999999E-003    1.953007165687345E-013
 -5.299999999999999E-003    1.686486555746498E-013
 -5.199999999999999E-003    1.298792613316320E-013
 -5.099999999999999E-003    7.828105599264545E-014
 -4.999999999999999E-003    1.369250132823987E-014
 -4.899999999999999E-003   -6.338523745920694E-014
 -4.799999999999999E-003   -1.516884322270249E-013
 -4.699999999999999E-003   -2.491111549490252E-013
 -4.599999999999999E-003   -3.526544813497068E-013
 -4.499999999999999E-003   -4.584150747909616E-013
 -4.399999999999999E-003   -5.616237469184833E-013
 -4.299999999999999E-003   -6.567453277561758E-013
 -4.199999999999999E-003   -7.376492878449863E-013
 -4.099999999999999E-003   -7.978567068752961E-013
 -3.999999999999999E-003   -8.308652550159437E-013
 -3.899999999999999E-003   -8.305453760054937E-013
 -3.799999999999999E-003   -7.915948982262816E-013
 -3.699999999999999E-003   -7.100273975578503E-013
 -3.599999999999999E-003   -5.836642146646824E-013
 -3.499999999999999E-003   -4.125900925992345E-013
 -3.399999999999999E-003   -1.995285474791035E-013
 -3.299999999999999E-003    4.990911531587112E-014
 -3.199999999999999E-003    3.271440959458789E-013
 -3.099999999999999E-003    6.207563469975495E-013
 -2.999999999999999E-003    9.168403531073524E-013
 -2.899999999999999E-003    1.199598348938626E-012
 -2.799999999999999E-003    1.452158993443485E-012
 -2.699999999999999E-003    1.657587956364346E-012
 -2.599999999999999E-003    1.800035116726344E-012
 -2.499999999999999E-003    1.865943195775564E-012
 -2.399999999999999E-003    1.845228762161469E-012
 -2.299999999999999E-003    1.732334553843648E-012
 -2.199999999999999E-003    1.527055259579810E-012
 -2.099999999999999E-003    1.235040154073067E-012
 -1.999999999999999E-003    8.678998045913738E-013
 -1.899999999999999E-003    4.428635077161239E-013
 -1.799999999999999E-003   -1.802932938819813E-014
 -1.699999999999999E-003   -4.891851783586136E-013
 -1.599999999999999E-003   -9.430994381569304E-013
 -1.499999999999999E-003   -1.352287151648702E-012
 -1.399999999999999E-003   -1.691369231394371E-012
 -1.299999999999999E-003   -1.939153189759960E-012
 -1.199999999999999E-003   -2.080534237798771E-012
 -1.099999999999999E-003   -2.108038837992696E-012
 -9.999999999999989E-004   -2.022848572574654E-012
 -8.999999999999990E-004   -1.835168057615243E-012
 -7.999999999999990E-004   -1.563847743783228E-012
 -6.999999999999989E-004   -1.235223051026944E-012
 -5.999999999999990E-004   -8.812005747939026E-013
 -4.999999999999989E-004   -5.366865477686580E-013
 -3.999999999999989E-004   -2.365222824449130E-013
 -2.999999999999989E-004   -1.214931023610787E-014
 -1.999999999999989E-004    1.117234968617345E-013
 -9.999999999999892E-005    1.201519814364710E-013
  1.084202172485504E-018    1.038346524733830E-014
  1.000000000000011E-004   -2.066089357236261E-013
  2.000000000000011E-004   -5.057201033723586E-013
  3.000000000000011E-004   -8.486007003061580E-013
  4.000000000000011E-004   -1.185907227402157E-012
  5.000000000000011E-004   -1.460868724086189E-012
  6.000000000000011E-004   -1.614004513572872E-012
  7.000000000000011E-004   -1.588701179944396E-012
  8.000000000000011E-004   -1.337252600849815E-012
  9.000000000000012E-004   -8.268707899453563E-013
  1.000000000000001E-003   -4.512325571210890E-014
  1.100000000000001E-003    9.957607073096961E-013
  1.200000000000001E-003    2.256246274712024E-012
  1.300000000000001E-003    3.668952491734784E-012
  1.400000000000001E-003    5.140531210003808E-012
  1.500000000000001E-003    6.556104061693848E-012
  1.600000000000001E-003    7.786189275951029E-012
  1.700000000000001E-003    8.695832712696545E-012
  1.800000000000001E-003    9.155423080501015E-012
  1.900000000000001E-003    9.052479420590931E-012
  2.000000000000001E-003    8.303521707625565E-012
  2.100000000000001E-003    6.865039468836355E-012
  2.200000000000001E-003    4.742534043057502E-012
  2.300000000000001E-003    1.996653377804019E-012
  2.400000000000001E-003   -1.254412378414018E-012
  2.500000000000001E-003   -4.836903583511275E-012
  2.600000000000001E-003   -8.528156945140289E-012
  2.700000000000001E-003   -1.206795049400713E-011
  2.800000000000001E-003   -1.517413701514767E-011
  2.900000000000001E-003   -1.756179259902203E-011
  3.000000000000001E-003   -1.896476372059303E-011
  3.100000000000001E-003   -1.915819767770924E-011
  3.200000000000001E-003   -1.798043922070703E-011
  3.300000000000001E-003   -1.535258999602276E-011
  3.400000000000001E-003   -1.129402618791668E-011
  3.500000000000001E-003   -5.932355798093401E-012
  3.600000000000001E-003    4.934474211549572E-013
  3.700000000000001E-003    7.637597470752205E-012
  3.800000000000001E-003    1.506012636309895E-011
  3.900000000000001E-003    2.224745033841755E-011
  4.000000000000001E-003    2.864015861505161E-011
  4.100000000000001E-003    3.366678559952910E-011
  4.200000000000001E-003    3.678182023630956E-011
  4.300000000000001E-003    3.750580047970108E-011
  4.400000000000001E-003    3.546504844651060E-011
  4.500000000000001E-003    3.042845521895363E-011
  4.600000000000002E-003    2.233869872519057E-011
  4.700000000000001E-003    1.133545643488151E-011
  4.800000000000001E-003   -2.231542177814335E-012
  4.900000000000002E-003   -1.780128982521175E-011
  5.000000000000001E-003   -3.461323480772351E-011
  5.100000000000001E-003   -5.173240328605607E-011
  5.200000000000001E-003   -6.808757685862864E-011
  5.300000000000002E-003   -8.252147186422130E-011
  5.400000000000001E-003   -9.385101868940198E-011
  5.500000000000001E-003   -1.009351752739259E-010
  5.600000000000002E-003   -1.027470093791418E-010
  5.700000000000001E-003   -9.844628377921914E-011
  5.800000000000001E-003   -8.744845429118246E-011
  5.900000000000002E-003   -6.948575136367454E-011
  6.000000000000001E-003   -4.465619108543483E-011
  6.100000000000001E-003   -1.345656832608635E-011
  6.200000000000002E-003    2.320388687231089E-011
  6.300000000000002E-003    6.401169896767754E-011
  6.400000000000001E-003    1.072806649587470E-010
  6.500000000000001E-003    1.510069633888435E-010
  6.600000000000002E-003    1.929467362099016E-010
  6.700000000000001E-003    2.307135336603701E-010
  6.800000000000001E-003    2.618917958454736E-010
  6.900000000000002E-003    2.841610044684169E-010
  7.000000000000001E-003    2.954243225336292E-010
  7.100000000000001E-003    2.939344845009981E-010
  7.200000000000002E-003    2.784097442941260E-010
  7.300000000000002E-003    2.481322142235405E-010
  7.400000000000001E-003    2.030220408875763E-010
  7.500000000000001E-003    1.436815109058854E-010
  7.600000000000002E-003    7.140496998638150E-011
  7.700000000000001E-003   -1.184787446504673E-011
  7.800000000000001E-003   -1.035153749071899E-010
  7.900000000000001E-003   -2.005318960333636E-010
  8.000000000000002E-003   -2.994558704316764E-010
  8.100000000000001E-003   -3.966211837689488E-010
  8.200000000000001E-003   -4.883034679309450E-010
  8.300000000000002E-003   -5.708917128084700E-010
  8.400000000000001E-003   -6.410544431331008E-010
  8.500000000000002E-003   -6.958901078942772E-010
  8.600000000000002E-003   -7.330519552788003E-010
  8.700000000000001E-003   -7.508392470255351E-010
  8.800000000000002E-003   -7.482485084442386E-010
  8.900000000000002E-003   -7.249815465502318E-010
  9.000000000000001E-003   -6.814098296803040E-010
  9.100000000000002E-003   -6.184981869790303E-010
  9.200000000000002E-003   -5.376941231711797E-010
  9.300000000000001E-003   -4.407915406071040E-010
  9.400000000000002E-003   -3.297805395704004E-010
  9.500000000000001E-003   -2.066970731539453E-010
  9.600000000000001E-003   -7.348573784964017E-011
  9.700000000000002E-003    6.810882423708409E-011
  9.800000000000001E-003    2.166106745919466E-010
  9.900000000000001E-003    3.708291543681540E-010
  1.000000000000000E-002    5.298163439577111E-010
  1.010000000000000E-002    6.927620665681401E-010
  1.020000000000000E-002    8.588269969673781E-010
  1.030000000000000E-002    1.026920490831062E-009
  1.040000000000000E-002    1.195434435839592E-009
  1.050000000000000E-002    1.361949146497071E-009
  1.060000000000000E-002    1.522932172610674E-009
  1.070000000000000E-002    1.673454705579425E-009
  1.080000000000000E-002    1.806952214649106E-009
  1.090000000000000E-002    1.915056829132259E-009
  1.100000000000000E-002    1.987529820235565E-009
  1.110000000000000E-002    2.012319221399676E-009
  1.120000000000000E-002    1.975763409954695E-009
  1.130000000000000E-002    1.862958891982561E-009
  1.140000000000000E-002    1.658301649156031E-009
  1.150000000000000E-002    1.346202624740894E-009
  1.160000000000000E-002    9.119753896921081E-010
  1.170000000000000E-002    3.428768604048705E-010
  1.180000000000000E-002   -3.707170738390798E-010
  1.190000000000000E-002   -1.234033712520573E-009
  1.200000000000000E-002   -2.246558631980881E-009
  1.210000000000000E-002   -3.400665327636406E-009
  1.220000000000000E-002   -4.680261220153052E-009
  1.230000000000000E-002   -6.059494950570408E-009
  1.240000000000000E-002   -7.501569045402628E-009
  1.250000000000000E-002   -8.957689694828644E-009
  1.260000000000000E-002   -1.036618954265075E-008
  1.270000000000000E-002   -1.165184703604216E-008
  1.280000000000000E-002   -1.272541221973509E-008
  1.290000000000000E-002   -1.348334410318602E-008
  1.300000000000000E-002   -1.380774902536589E-008
  1.310000000000000E-002   -1.356650904320084E-008
  1.320000000000000E-002   -1.261355965581598E-008
  1.330000000000000E-002   -1.078929189614016E-008
  1.340000000000000E-002   -7.921030172144431E-009
  1.350000000000000E-002   -3.823543003479179E-009
  1.360000000000000E-002    1.700465245322258E-009
  1.370000000000000E-002    8.859930521653339E-009
  1.380000000000000E-002    1.787509573865256E-008
  1.390000000000000E-002    2.897733954359238E-008
  1.400000000000000E-002    4.240916704632011E-008
  1.410000000000000E-002    5.842440584347470E-008
  1.420000000000000E-002    7.728856458184175E-008
  1.430000000000000E-002    9.927944071667294E-008
  1.440000000000000E-002    1.246878714382745E-007
  1.450000000000000E-002    1.538186626712611E-007
  1.460000000000000E-002    1.869916693729427E-007
  1.470000000000000E-002    2.245428937610965E-007
  1.480000000000000E-002    2.668257201020157E-007
  1.490000000000000E-002    3.142120983703098E-007
  1.500000000000000E-002    3.670936652624486E-007
  1.510000000000000E-002    4.258828826568967E-007
  1.520000000000000E-002    4.910139039649727E-007
  1.530000000000000E-002    5.629434322189973E-007
  1.540000000000000E-002    6.421513619774658E-007
  1.550000000000000E-002    7.291413264071510E-007
  1.560000000000000E-002    8.244409270273930E-007
  1.570000000000000E-002    9.286020390504848E-007
  1.580000000000000E-002    1.042200882535396E-006
  1.590000000000000E-002    1.165838125035938E-006
  1.600000000000000E-002    1.300139001300472E-006
  1.610000000000000E-002    1.445753277286843E-006
  1.620000000000000E-002    1.603355803356717E-006
  1.630000000000000E-002    1.773646738078911E-006
  1.640000000000000E-002    1.957352320411761E-006
  1.650000000000000E-002    2.155226004765185E-006
  1.660000000000000E-002    2.368049543476226E-006
  1.670000000000000E-002    2.596634766584030E-006
  1.680000000000000E-002    2.841825680345492E-006
  1.690000000000000E-002    3.104501307834357E-006
  1.700000000000000E-002    3.385577928634416E-006
  1.710000000000000E-002    3.686012768113968E-006
  1.720000000000000E-002    4.006807023968914E-006
  1.730000000000000E-002    4.349010471471033E-006
  1.740000000000000E-002    4.713724744239353E-006
  1.750000000000000E-002    5.102108516978826E-006
  1.760000000000000E-002    5.515381010421637E-006
  1.770000000000000E-002    5.954827817631887E-006
  1.780000000000000E-002    6.421804160912808E-006
  1.790000000000000E-002    6.917741563368916E-006
  1.800000000000000E-002    7.444151078780176E-006
  1.810000000000000E-002    8.002628949819135E-006
  1.820000000000000E-002    8.594862187183025E-006
  1.830000000000000E-002    9.222633408024958E-006
  1.840000000000000E-002    9.887825819303732E-006
  1.850000000000000E-002    1.059242745974658E-005
  1.860000000000000E-002    1.133853853471878E-005
  1.870000000000000E-002    1.212837691806697E-005