 -4.000000000000000E-002    0.000000000000000E+000
 -3.990000000000000E-002    0.000000000000000E+000
 -3.980000000000000E-002    0.000000000000000E+000
 -3.970000000000000E-002    6.900615819329142E-017
 -3.960000000000000E-002    3.372955462843833E-016
 -3.950000000000000E-002    6.522788377579638E-016
 -3.940000000000000E-002   -3.958425475290511E-016
 -3.930000000000000E-002   -7.292629171293631E-015
 -3.920000000000000E-002   -3.026477740772085E-014
 -3.910000000000000E-002   -8.845949533185681E-014
 -3.900000000000000E-002   -2.128860816909428E-013
 -3.890000000000000E-002   -4.479413877638045E-013
 -3.880000000000000E-002   -8.500134863690380E-013
 -3.870000000000000E-002   -1.481552475638686E-012
 -3.860000000000000E-002   -2.399245252467214E-012
 -3.850000000000000E-002   -3.635608965128681E-012
 -3.840000000000000E-002   -5.174463161976758E-012
 -3.830000000000000E-002   -6.922274668246718E-012
 -3.820000000000000E-002   -8.679124671007568E-012
 -3.810000000000000E-002   -1.011473920677745E-011
 -3.800000000000000E-002   -1.075627692535389E-011
 -3.790000000000000E-002   -9.995023945546758E-012
 -3.780000000000000E-002   -7.118410466336755E-012
 -3.770000000000000E-002   -1.371649402247931E-012
 -3.760000000000000E-002    7.950243229648120E-012
 -3.750000000000000E-002    2.138403559963105E-011
 -3.740000000000000E-002    3.916285021386695E-011
 -3.730000000000000E-002    6.107855304971904E-011
 -3.720000000000000E-002    8.636102061067094E-011
 -3.710000000000000E-002    1.135958743916026E-010
 -3.700000000000000E-002    1.407017428304520E-010
 -3.690000000000000E-002    1.649843792250451E-010
 -3.680000000000000E-002    1.832775293220326E-010
 -3.670000000000000E-002    1.921700286631899E-010
 -3.660000000000000E-002    1.883062386713192E-010
 -3.650000000000000E-002    1.687338532803415E-010
 -3.640000000000000E-002    1.312617309084657E-010
 -3.630000000000000E-002    7.478224862728799E-011
 -3.620000000000000E-002   -4.898238042905310E-013
 -3.610000000000000E-002   -9.290555533282398E-011
 -3.600000000000000E-002   -1.994300329248216E-010
 -3.590000000000000E-002   -3.158640112863940E-010
 -3.580000000000000E-002   -4.372300573903701E-010
 -3.570000000000000E-002   -5.582871439471901E-010
 -3.560000000000000E-002   -6.741134006615704E-010
 -3.550000000000000E-002   -7.806754757662174E-010
 -3.540000000000000E-002   -8.752912738850845E-010
 -3.530000000000000E-002   -9.568929857390205E-010
 -3.520000000000000E-002   -1.026010401706676E-009
 -3.510000000000000E-002   -1.084421485914576E-009
 -3.500000000000000E-002   -1.134457318877253E-009
 -3.490000000000000E-002   -1.177996385423187E-009
 -3.480000000000000E-002   -1.215235561703396E-009
 -3.470000000000000E-002   -1.243373674104844E-009
 -3.460000000000000E-002   -1.255382642304438E-009
 -3.450000000000000E-002   -1.239067573687234E-009
 -3.440000000000000E-002   -1.176614104475707E-009
 -3.430000000000000E-002   -1.044804816920791E-009
 -3.420000000000000E-002   -8.160343807501435E-010
 -3.410000000000000E-002   -4.601853108133129E-010
 -3.400000000000000E-002    5.266140924384121E-011
 -3.390000000000000E-002    7.488066734904869E-010
 -3.380000000000000E-002    1.647024080090162E-009
 -3.370000000000000E-002    2.754471960960384E-009
 -3.360000000000000E-002    4.062801738079187E-009
 -3.350000000000000E-002    5.544874224983577E-009
 -3.340000000000000E-002    7.152497710654951E-009
 -3.330000000000000E-002    8.815558643140443E-009
 -3.320000000000000E-002    1.044284550951661E-008
 -3.310000000000000E-002    1.192473752883153E-008
 -3.300000000000000E-002    1.313780601828660E-008
 -3.290000000000000E-002    1.395120278220990E-008
 -3.280000000000000E-002    1.423455910860934E-008
 -3.270000000000000E-002    1.386695971165452E-008
 -3.260000000000000E-002    1.274643213316385E-008
 -3.250000000000000E-002    1.079930228141374E-008
 -3.240000000000000E-002    7.988712881183930E-009
 -3.230000000000000E-002    4.321618882762400E-009
 -3.220000000000000E-002   -1.463760446956995E-010
 -3.210000000000000E-002   -5.308843368543293E-009
 -3.200000000000000E-002   -1.100938454611718E-008
 -3.190000000000000E-002   -1.704566213094390E-008
 -3.180000000000000E-002   -2.317654170997121E-008
 -3.170000000000000E-002   -2.913205887554739E-008
 -3.160000000000000E-002   -3.462569422400387E-008
 -3.150000000000000E-002   -3.936825982958208E-008
 -3.140000000000000E-002   -4.308256865116157E-008
 -3.130000000000000E-002   -4.551794093240973E-008
 -3.120000000000000E-002   -4.646363073338476E-008
 -3.110000000000000E-002   -4.576028457076792E-008
 -3.100000000000000E-002   -4.330868744485968E-008
 -3.090000000000000E-002   -3.907524930779583E-008
 -3.080000000000000E-002   -3.309395149812957E-008
 -3.070000000000000E-002   -2.546472758852844E-008
 -3.060000000000000E-002   -1.634855624105454E-008
 -3.050000000000000E-002   -5.959820599779900E-009
 -3.040000000000000E-002    5.443308123361330E-009
 -3.030000000000000E-002    1.756955112603513E-008
 -3.020000000000000E-002    3.010530180555608E-008
 -3.010000000000000E-002    4.272457768065031E-008
 -3.000000000000000E-002    5.509740885503982E-008
 -2.990000000000000E-002    6.689611869888105E-008
 -2.980000000000000E-002    7.779933965014329E-008
 -2.970000000000000E-002    8.749388924439608E-008
 -2.960000000000000E-002    9.567507231996161E-008
 -2.950000000000000E-002    1.020461987511326E-007
 -2.940000000000000E-002    1.063184190649205E-007
 -2.930000000000000E-002    1.082119688579461E-007
 -2.920000000000000E-002    1.074599725671568E-007
 -2.910000000000000E-002    1.038156682814989E-007
 -2.900000000000000E-002    9.706355321318837E-008
 -2.890000000000000E-002    8.703450156052204E-008
 -2.880000000000000E-002    7.362432298994370E-008
 -2.870000000000000E-002    5.681461098720327E-008
 -2.860000000000000E-002    3.669431709463048E-008
 -2.850000000000000E-002    1.347992331758025E-008
 -2.840000000000000E-002   -1.246798592112286E-008
 -2.830000000000000E-002   -4.063400974921188E-008
 -2.820000000000000E-002   -7.034504824550714E-008
 -2.810000000000000E-002   -1.007767250348632E-007
 -2.800000000000000E-002   -1.309697706520920E-007
 -2.790000000000000E-002   -1.598562520008242E-007
 -2.780000000000000E-002   -1.862944086829589E-007
 -2.770000000000000E-002   -2.091100823002332E-007
 -2.760000000000000E-002   -2.271417839547113E-007
 -2.750000000000000E-002   -2.392859143518332E-007
 -2.740000000000000E-002   -2.445385421615307E-007
 -2.730000000000000E-002   -2.420298565490108E-007
 -2.720000000000000E-002   -2.310484993322311E-007
 -2.710000000000000E-002   -2.110532201655460E-007
 -2.700000000000000E-002   -1.816708363333531E-007
 -2.690000000000000E-002   -1.426805616659142E-007
 -2.680000000000000E-002   -9.398620327419428E-008
 -2.670000000000000E-002   -3.557906648737830E-008
 -2.660000000000000E-002    3.250487549380144E-008
 -2.650000000000000E-002    1.102288425592608E-007
 -2.640000000000000E-002    1.975957190761401E-007
 -2.630000000000000E-002    2.946804100328707E-007
 -2.620000000000000E-002    4.016505676758320E-007
 -2.610000000000000E-002    5.187731094832053E-007
 -2.600000000000000E-002    6.464052175511290E-007
 -2.590000000000000E-002    7.849703646885744E-007
 -2.580000000000000E-002    9.349214292767444E-007
 -2.570000000000000E-002    1.096694511749263E-006
 -2.560000000000000E-002    1.270657482832745E-006
 -2.550000000000000E-002    1.457059312798355E-006
 -2.540000000000000E-002    1.655984819818690E-006
 -2.530000000000000E-002    1.867320137379866E-006
 -2.520000000000000E-002    2.090732547974216E-006
 -2.510000000000000E-002    2.325667560413667E-006
 -2.500000000000000E-002    2.571364676920323E-006
 -2.490000000000000E-002    2.826889905773627E-006
 -2.480000000000000E-002    3.091183338266367E-006
 -2.470000000000000E-002    3.363118185170746E-006
 -2.460000000000000E-002    3.641566608252055E-006
 -2.450000000000000E-002    3.925464421753372E-006
 -2.440000000000000E-002    4.213874195349989E-006
 -2.430000000000000E-002    4.506036354462505E-006
 -2.420000000000000E-002    4.801408780037254E-006
 -2.410000000000000E-002    5.099689337525544E-006
 -2.400000000000000E-002    5.400821829117682E-006
 -2.390000000000000E-002    5.704986058073037E-006
 -2.380000000000000E-002    6.012571637698927E-006
 -2.370000000000000E-002    6.324142265981366E-006
 -2.360000000000000E-002    6.640390612854861E-006
 -2.350000000000000E-002    6.962090229771987E-006
 -2.340000000000000E-002    7.290045735766893E-006
 -2.330000000000000E-002    7.625049469673143E-006
 -2.320000000000000E-002    7.967842585576884E-006
 -2.310000000000000E-002    8.319082883438666E-006
 -2.300000000000000E-002    8.679325192195006E-006
 -2.290000000000000E-002    9.049005632108962E-006
 -2.280000000000000E-002    9.428438202418525E-006
 -2.270000000000000E-002    9.817817598866122E-006
 -2.260000000000000E-002    1.021722404903230E-005
 -2.250000000000000E-002    1.062663824494686E-005
 -2.240000000000000E-002    1.104595664280355E-005
 -2.230000000000000E-002    1.147501340689669E-005
 -2.220000000000000E-002    1.191360426211867E-005
 -2.210000000000000E-002    1.236151308335435E-005
 -2.200000000000000E-002    1.281854688103341E-005
 -2.190000000000000E-002    1.328457557850747E-005
 -2.180000000000000E-002    1.375957133855064E-005
 -2.170000000000000E-002    1.424365407227694E-005
 -2.160000000000000E-002    1.473713654071454E-005
 -2.150000000000000E-002    1.524056916930940E-005
 -2.140000000000000E-002    1.575477146602602E-005
 -2.130000000000000E-002    1.628086348378885E-005
 -2.120000000000000E-002    1.682026695411369E-005
 -2.110000000000000E-002    1.737469559254532E-005
 -2.100000000000000E-002    1.794611796223445E-005
 -2.090000000000000E-002    1.853669977640437E-005
 -2.080000000000000E-002    1.914871522046443E-005
 -2.070000000000000E-002    1.978443712811985E-005
 -2.060000000000000E-002    2.044601992313079E-005
 -2.050000000000000E-002    2.113536102635337E-005
 -2.040000000000000E-002    2.185396890253364E-005
 -2.030000000000000E-002    2.260285162592828E-005
 -2.020000000000000E-002    2.338240715258009E-005
 -2.010000000000000E-002    2.419235997971224E-005
 -2.000000000000000E-002    2.503173194531120E-005
 -1.990000000000000E-002    2.589885770751254E-005
 -1.980000000000000E-002    2.679145189324099E-005
 -1.970000000000000E-002    2.770670521811158E-005
 -1.960000000000000E-002    2.864144203710568E-005
 -1.950000000000000E-002    2.959227576601818E-005
 -1.940000000000000E-002    3.055580456158470E-005
 -1.930000000000000E-002    3.152880104579280E-005
 -1.920000000000000E-002    3.250838456570099E-005
 -1.910000000000000E-002    3.349214921217764E-005
 -1.900000000000000E-002    3.447827845322077E-005
 -1.890000000000000E-002    3.546557651527941E-005
 -1.880000000000000E-002    3.645344276513978E-005
 -1.870000000000000E-002    3.744180416617023E-005
 -1.860000000000000E-002    3.843096115438812E-005
 -1.850000000000000E-002    3.942140470179591E-005
 -1.840000000000000E-002    4.041358876877063E-005
 -1.830000000000000E-002    4.140766586254300E-005
 -1.820000000000000E-002    4.240322997695710E-005
 -1.810000000000000E-002    4.339910160830882E-005
 -1.800000000000000E-002    4.439308740565538E-005
 -1.790000000000000E-002    4.538182647848003E-005
 -1.780000000000000E-002    4.636068691615296E-005
 -1.770000000000000E-002    4.732372517980674E-005
 -1.760000000000000E-002    4.826370548850811E-005
 -1.750000000000000E-002    4.917218441401993E-005
 -1.740000000000000E-002    5.003964283936613E-005
 -1.730000000000000E-002    5.085565012625761E-005
 -1.720000000000000E-002    5.160908706429721E-005
 -1.710000000000000E-002    5.228830240638596E-005
 -1.700000000000000E-002    5.288132505123050E-005
 -1.690000000000000E-002    5.337599179536882E-005
 -1.680000000000000E-002    5.376003394637750E-005
 -1.670000000000000E-002    5.402117362110168E-005
 -1.660000000000000E-002    5.414703190657827E-005
 -1.650000000000000E-002    5.412506980479218E-005
 -1.640000000000000E-002    5.394249388617377E-005
 -1.630000000000000E-002    5.358597641769107E-005
 -1.620000000000000E-002    5.304146629610261E-005
 -1.610000000000000E-002    5.229395722526571E-005
 -1.600000000000000E-002    5.132713996787096E-005
 -1.590000000000000E-002    5.012325806031028E-005
 -1.580000000000000E-002    4.866281089409016E-005
 -1.570000000000000E-002    4.692439449224543E-005
 -1.560000000000000E-002    4.488453008887329E-005
 -1.550000000000000E-002    4.251758158712633E-005
 -1.540000000000000E-002    3.979571380874464E-005
 -1.530000000000000E-002    3.668885559684556E-005
 -1.520000000000000E-002    3.316476228371315E-005
 -1.510000000000000E-002    2.918899963270620E-005
 -1.500000000000000E-002    2.472500201115218E-005
 -1.490000000000000E-002    1.973418251337640E-005
 -1.480000000000000E-002    1.417584927002395E-005
 -1.470000000000000E-002    8.007233302109617E-006
 -1.460000000000000E-002    1.183452624157380E-006
 -1.450000000000000E-002   -6.342601164468618E-006
 -1.440000000000000E-002   -1.462043590647087E-005
 -1.430000000000000E-002   -2.370204566851145E-005
 -1.420000000000000E-002   -3.364213338762498E-005
 -1.410000000000000E-002   -4.449845763393499E-005
 -1.400000000000000E-002   -5.633191380662369E-005
 -1.390000000000000E-002   -6.920680225163589E-005
 -1.380000000000000E-002   -8.319100644001722E-005
 -1.370000000000000E-002   -9.835628338371074E-005
 -1.360000000000000E-002   -1.147782757533696E-004
 -1.350000000000000E-002   -1.325367387622783E-004
 -1.340000000000000E-002   -1.517155843111951E-004
 -1.330000000000000E-002   -1.724029514989951E-004
 -1.320000000000000E-002   -1.946913796123582E-004
 -1.310000000000000E-002   -2.186777635261382E-004
 -1.300000000000000E-002   -2.444635044506436E-004
 -1.290000000000000E-002   -2.721546258353001E-004
 -1.280000000000000E-002   -3.018620148003079E-004
 -1.270000000000000E-002   -3.337015569270345E-004
 -1.260000000000000E-002   -3.677943221034814E-004
 -1.250000000000000E-002   -4.042671383480152E-004
 -1.240000000000000E-002   -4.432526477651953E-004
 -1.230000000000000E-002   -4.848898752578305E-004
 -1.220000000000000E-002   -5.293246052857142E-004
 -1.210000000000000E-002   -5.767095917226304E-004
 -1.200000000000000E-002   -6.272050379172765E-004
 -1.190000000000000E-002   -6.809789946124068E-004
 -1.180000000000000E-002   -7.382073179805080E-004
 -1.170000000000000E-002   -7.990742803951117E-004
 -1.160000000000000E-002   -8.637723432028320E-004
 -1.150000000000000E-002   -9.325025225390054E-004
 -1.140000000000000E-002   -1.005474235789675E-003
 -1.130000000000000E-002   -1.082905394506167E-003
 -1.120000000000000E-002   -1.165022346096713E-003
 -1.110000000000000E-002   -1.252060167756552E-003
 -1.100000000000000E-002   -1.344262378487573E-003
 -1.090000000000000E-002   -1.441881326003122E-003
 -1.080000000000000E-002   -1.545178381659086E-003
 -1.070000000000000E-002   -1.654423810095320E-003
 -1.060000000000000E-002   -1.769898003934717E-003
 -1.050000000000000E-002   -1.891891201144810E-003
 -1.040000000000000E-002   -2.020704232314953E-003
 -1.030000000000000E-002   -2.156649074791433E-003
 -1.020000000000000E-002   -2.300049519995104E-003
 -1.010000000000000E-002   -2.451241623208479E-003
 -1.000000000000000E-002   -2.610574205349034E-003
 -9.899999999999999E-003   -2.778409849376869E-003
 -9.800000000000000E-003   -2.955124668824884E-003
 -9.699999999999999E-003   -3.141109092002951E-003
 -9.599999999999999E-003   -3.336767652105371E-003
 -9.500000000000000E-003   -3.542519974157129E-003
 -9.399999999999999E-003   -3.758800029821645E-003
 -9.299999999999999E-003   -3.986056855260280E-003
 -9.200000000000000E-003   -4.224753611553817E-003
 -9.099999999999999E-003   -4.475368873471324E-003
 -8.999999999999999E-003   -4.738395422800651E-003
 -8.900000000000000E-003   -5.014340976521312E-003
 -8.799999999999999E-003   -5.303727621445776E-003
 -8.699999999999999E-003   -5.607093058266934E-003
 -8.600000000000000E-003   -5.924989589906906E-003
 -8.499999999999999E-003   -6.257985146210833E-003
 -8.399999999999999E-003   -6.606662828175438E-003
 -8.300000000000000E-003   -6.971623016778182E-003
 -8.199999999999999E-003   -7.353481401938873E-003
 -8.100000000000000E-003   -7.752871740970732E-003
 -8.000000000000000E-003   -8.170444278030216E-003
 -7.899999999999999E-003   -8.606867682224928E-003
 -7.800000000000000E-003   -9.062827913453373E-003
 -7.699999999999999E-003   -9.539030052754046E-003
 -7.599999999999999E-003   -1.003619757632321E-002
 -7.499999999999999E-003   -1.055507210834884E-002
 -7.399999999999999E-003   -1.109641392754465E-002
 -7.299999999999999E-003   -1.166100423189780E-002
 -7.199999999999999E-003   -1.224963931819033E-002
 -7.100000000000000E-003   -1.286313661914309E-002
 -6.999999999999999E-003   -1.350233179271152E-002
 -6.899999999999999E-003   -1.416807845406222E-002
 -6.800000000000000E-003   -1.486124833141177E-002
 -6.699999999999999E-003   -1.558273193845903E-002
 -6.599999999999999E-003   -1.633343816028400E-002
 -6.499999999999999E-003   -1.711429414627461E-002
 -6.399999999999999E-003   -1.792624336082293E-002
 -6.299999999999999E-003   -1.877024800063238E-002
 -6.199999999999999E-003   -1.964728848120558E-002
 -6.100000000000000E-003   -2.055836123975450E-002
 -5.999999999999999E-003   -2.150447949385384E-002
 -5.899999999999999E-003   -2.248667612925827E-002
 -5.800000000000000E-003   -2.350599698820601E-002
 -5.699999999999999E-003   -2.456350416180960E-002
 -5.599999999999999E-003   -2.566027777250737E-002
 -5.499999999999999E-003   -2.679741249130365E-002
 -5.399999999999999E-003   -2.797601623536743E-002
 -5.299999999999999E-003   -2.919721083515679E-002
 -5.199999999999999E-003   -3.046213396550679E-002
 -5.099999999999999E-003   -3.177193536140273E-002
 -4.999999999999999E-003   -3.312777413558819E-002
 -4.899999999999999E-003   -3.453082546645553E-002
 -4.799999999999999E-003   -3.598227604391104E-002
 -4.699999999999999E-003   -3.748332012197256E-002
 -4.599999999999999E-003   -3.903516114215200E-002
 -4.499999999999999E-003   -4.063901451989247E-002
 -4.399999999999999E-003   -4.229610371695424E-002
 -4.299999999999999E-003   -4.400765752941526E-002
 -4.199999999999999E-003   -4.577491087539921E-002
 -4.099999999999999E-003   -4.759910684043072E-002
 -3.999999999999999E-003   -4.948148990805350E-002
 -3.899999999999999E-003   -5.142330621795161E-002
 -3.799999999999999E-003   -5.342580458565712E-002
 -3.699999999999999E-003   -5.549023895395607E-002
 -3.599999999999999E-003   -5.761785088020874E-002
 -3.499999999999999E-003   -5.980988803339798E-002
 -3.399999999999999E-003   -6.206758777037984E-002
 -3.299999999999999E-003   -6.439218451458971E-002
 -3.199999999999999E-003   -6.678490137302100E-002
 -3.099999999999999E-003   -6.924695771607527E-002
 -2.999999999999999E-003   -7.177955860984352E-002
 -2.899999999999999E-003   -7.438389661704348E-002
 -2.799999999999999E-003   -7.706115268490540E-002
 -2.699999999999999E-003   -7.981249340695999E-002
 -2.599999999999999E-003   -8.263906159924266E-002
 -2.499999999999999E-003   -8.554198444072454E-002
 -2.399999999999999E-003   -8.852236982443291E-002
 -2.299999999999999E-003   -9.158130243981782E-002
 -2.199999999999999E-003   -9.471983253658856E-002
 -2.099999999999999E-003   -9.793899522212610E-002
 -1.999999999999999E-003   -0.101239792192760     
 -1.899999999999999E-003   -0.104623186327441     
 -1.799999999999999E-003   -0.108090109454708     
 -1.699999999999999E-003   -0.111641458798874     
 -1.599999999999999E-003   -0.115278094902901     
 -1.499999999999999E-003   -0.119000823499390     
 -1.399999999999999E-003   -0.122810417987861     
 -1.299999999999999E-003   -0.126707598900355     
 -1.199999999999999E-003   -0.130693030698521     
 -1.099999999999999E-003   -0.134767340697181     
 -9.999999999999989E-004   -0.138931093419774     
 -8.999999999999990E-004   -0.143184798939801     
 -7.999999999999990E-004   -0.147528895329235     
 -6.999999999999989E-004   -0.151963780214350     
 -5.999999999999990E-004   -0.156489772525223     
 -4.999999999999989E-004   -0.161107117263829     
 -3.999999999999989E-004   -0.165816001683192     
 -2.999999999999989E-004   -0.170616546036244     
 -1.999999999999989E-004   -0.175508768562019     
 -9.999999999999892E-005   -0.180492642433004     
  1.084202172485504E-018   -0.185568042573630     
  1.000000000000011E-004   -0.190734741255119     
  2.000000000000011E-004   -0.195992459617509     
  3.000000000000011E-004   -0.201340802933787     
  4.000000000000011E-004   -0.206779291543277     
  5.000000000000011E-004   -0.212307342879511     
  6.000000000000011E-004   -0.217924286835308     
  7.000000000000011E-004   -0.223629359597750     
  8.000000000000011E-004   -0.229421668967462     
  9.000000000000012E-004   -0.235300231389621     
  1.000000000000001E-003   -0.241263950332455     
  1.100000000000001E-003   -0.247311634106570     
  1.200000000000001E-003   -0.253441941233039     
  1.300000000000001E-003   -0.259653434356891     
  1.400000000000001E-003   -0.265944577715732     
  1.500000000000001E-003   -0.272313702467349     
  1.600000000000001E-003   -0.278758975788541     
  1.700000000000001E-003   -0.285278488431326     
  1.800000000000001E-003   -0.291870218530426     
  1.900000000000001E-003   -0.298531938337371     
  2.000000000000001E-003   -0.305261360784163     
  2.100000000000001E-003   -0.312056033856087     
  2.200000000000001E-003   -0.318913395159444     
  2.300000000000001E-003   -0.325830709981480     
  2.400000000000001E-003   -0.332805113904411     
  2.500000000000001E-003   -0.339833613884898     
  2.600000000000001E-003   -0.346913098430248     
  2.700000000000001E-003   -0.354040290222670     
  2.800000000000001E-003   -0.361211743333711     
  2.900000000000001E-003   -0.368423897396645     
  3.000000000000001E-003   -0.375673053223731     
  3.100000000000001E-003   -0.382955366805357     
  3.200000000000001E-003   -0.390266861647489     
  3.300000000000001E-003   -0.397603355462157     
  3.400000000000001E-003   -0.404960570295957     
  3.500000000000001E-003   -0.412334072442820     
  3.600000000000001E-003   -0.419719261917665     
  3.700000000000001E-003   -0.427111436830281     
  3.800000000000001E-003   -0.434505711636114     
  3.900000000000001E-003   -0.441897069426022     
  4.000000000000001E-003   -0.449280378184110     
  4.100000000000001E-003   -0.456650303605658     
  4.200000000000001E-003   -0.464001406649963     
  4.300000000000001E-003   -0.471328095502775     
  4.400000000000001E-003   -0.478624720060841     
  4.500000000000001E-003   -0.485885378915284     
  4.600000000000002E-003   -0.493104111017500     
  4.700000000000001E-003   -0.500274788318464     
  4.800000000000001E-003   -0.507391162587277     
  4.900000000000002E-003   -0.514446860153129     
  5.000000000000001E-003   -0.521435471655963     
  5.100000000000001E-003   -0.528350316953889     
  5.200000000000001E-003   -0.535184716005982     
  5.300000000000002E-003   -0.541931792100503     
  5.400000000000001E-003   -0.548584654140901     
  5.500000000000001E-003   -0.555136276271346     
  5.600000000000002E-003   -0.561579493974275     
  5.700000000000001E-003   -0.567907039660321     
  5.800000000000001E-003   -0.574111652013185     
  5.900000000000002E-003   -0.580185850918245     
  6.000000000000001E-003   -0.586122205266672     
  6.100000000000001E-003   -0.591913176362947     
  6.200000000000002E-003   -0.597551087136269     
  6.300000000000002E-003   -0.603028277629442     
  6.400000000000001E-003   -0.608337005073627     
  6.500000000000001E-003   -0.613469481563808     
  6.600000000000002E-003   -0.618417845387710     
  6.700000000000001E-003   -0.623174260986533     
  6.800000000000001E-003   -0.627730791049727     
  6.900000000000002E-003   -0.632079546513936     
  7.000000000000001E-003   -0.636212620779780     
  7.100000000000001E-003   -0.640122013311579     
  7.200000000000002E-003   -0.643799871064485     
  7.300000000000002E-003   -0.647238161649921     
  7.400000000000001E-003   -0.650429059667974     
  7.500000000000001E-003   -0.653364614832300     
  7.600000000000002E-003   -0.656037018537407     
  7.700000000000001E-003   -0.658438417646407     
  7.800000000000001E-003   -0.660561110778590     
  7.900000000000001E-003   -0.662397321819719     
  8.000000000000002E-003   -0.663939498879330     
  8.100000000000001E-003   -0.665180025638291     
  8.200000000000001E-003   -0.666111485122786     
  8.300000000000002E-003   -0.666726479808354     
  8.400000000000001E-003   -0.667017714012545     
  8.500000000000002E-003   -0.666978085442969     
  8.600000000000002E-003   -0.666600526180373     
  8.700000000000001E-003   -0.665878165232079     
  8.800000000000002E-003   -0.664804231219860     
  8.900000000000002E-003   -0.663372144081478     
  9.000000000000001E-003   -0.661575468219027     
  9.100000000000002E-003   -0.659407917094106     
  9.200000000000002E-003   -0.656863393786307     
  9.300000000000001E-003   -0.653936025830757     
  9.400000000000002E-003   -0.650620101534698     
  9.500000000000001E-003   -0.646910071079973     
  9.600000000000001E-003   -0.642800717202270     
  9.700000000000002E-003   -0.638286963656523     
  9.800000000000001E-003   -0.633364008621331     
  9.900000000000001E-003   -0.628027254206284     
  1.000000000000000E-002   -0.622272383241620     
  1.010000000000000E-002   -0.616095396399111     
  1.020000000000000E-002   -0.609492450401105     
  1.030000000000000E-002   -0.602460056275257     
  1.040000000000000E-002   -0.594995007015828     
  1.050000000000000E-002   -0.587094401864954     
  1.060000000000000E-002   -0.578755588972562     
  1.070000000000000E-002   -0.569976291103392     
  1.080000000000000E-002   -0.560754507933035     
  1.090000000000000E-002   -0.551088595730806     
  1.100000000000000E-002   -0.540977176089229     
  1.110000000000000E-002   -0.530419279390085     
  1.120000000000000E-002   -0.519414277297528     
  1.130000000000000E-002   -0.507961866894883     
  1.140000000000000E-002   -0.496062120385364     
  1.150000000000000E-002   -0.483715462207669     
  1.160000000000000E-002   -0.470922671190470     
  1.170000000000000E-002   -0.457684945944482     
  1.180000000000000E-002   -0.444003803986256     
  1.190000000000000E-002   -0.429881180323346     
  1.200000000000000E-002   -0.415319405742779     
  1.210000000000000E-002   -0.400321142669986     
  1.220000000000000E-002   -0.384889542812390     
  1.230000000000000E-002   -0.369028062927645     
  1.240000000000000E-002   -0.352740561827638     
  1.250000000000000E-002   -0.336031342420028     
  1.260000000000000E-002   -0.318905095607656     
  1.270000000000000E-002   -0.301366866534628     
  1.280000000000000E-002   -0.283422152509327     
  1.290000000000000E-002   -0.265076844714297     
  1.300000000000000E-002   -0.246337216243676     
  1.310000000000000E-002   -0.227209950597870     
  1.320000000000000E-002   -0.207702093582810     
  1.330000000000000E-002   -0.187821148577137     
  1.340000000000000E-002   -0.167574960710315     
  1.350000000000000E-002   -0.146971816656159     
  1.360000000000000E-002   -0.126020357212738     
  1.370000000000000E-002   -0.104729601446601     
  1.380000000000000E-002   -8.310897405957783E-002
  1.390000000000000E-002   -6.116826641567014E-002
  1.400000000000000E-002   -3.891763602839616E-002
  1.410000000000000E-002   -1.636761576050333E-002
  1.420000000000000E-002    6.470894690332527E-003
  1.430000000000000E-002    2.958665292953967E-002
  1.440000000000000E-002    5.296806994708355E-002
  1.450000000000000E-002    7.660321417671198E-002
  1.460000000000000E-002    0.100479837390910     
  1.470000000000000E-002    0.124585353784897     
  1.480000000000000E-002    0.148906874973711     
  1.490000000000000E-002    0.173431202725627     
  1.500000000000000E-002    0.198144838742964     
  1.510000000000000E-002    0.223034010125848     
  1.520000000000000E-002    0.248084665252616     
  1.530000000000000E-002    0.273282485021529     
  1.540000000000000E-002    0.298612912497745     
  1.550000000000000E-002    0.324061115259033     
  1.560000000000000E-002    0.349612094974213     
  1.570000000000000E-002    0.375250539835029     
  1.580000000000000E-002    0.400961012004345     
  1.590000000000000E-002    0.426727833862804     
  1.600000000000000E-002    0.452535206823143     
  1.610000000000000E-002    0.478367097066459     
  1.620000000000000E-002    0.504207367132771     
  1.630000000000000E-002    0.530039702971002     
  1.640000000000000E-002    0.555847669041426     
  1.650000000000000E-002    0.581614761408187     
  1.660000000000000E-002    0.607324375432678     
  1.670000000000000E-002    0.632959752899111     
  1.680000000000000E-002    0.658504161939245     
  1.690000000000000E-002    0.683940793046454     
  1.700000000000000E-002    0.709252775906610     
  1.710000000000000E-002    0.734423246318068     
  1.720000000000000E-002    0.759435309139521     
  1.730000000000000E-002    0.784272103296371     
  1.740000000000000E-002    0.808916815004375     
  1.750000000000000E-002    0.833352616473244     
  1.760000000000000E-002    0.857562840919511     
  1.770000000000000E-002    0.881530842269582     
  1.780000000000000E-002    0.905240029087335     
  1.790000000000000E-002    0.928673969021649     
  1.800000000000000E-002    0.951816342847560     
  1.810000000000000E-002    0.974650893691624     
  1.820000000000000E-002    0.997161711625016     
  1.830000000000000E-002     1.01933293306849     
  1.840000000000000E-002     1.04114881712117     
  1.850000000000000E-002     1.06259395071982     
  1.860000000000000E-002     1.08365307661590     
  1.870000000000000E-002     1.10431114915137     