 -4.000000000000000E-002    0.000000000000000E+000
 -3.990000000000000E-002    0.000000000000000E+000
 -3.980000000000000E-002    0.000000000000000E+000
 -3.970000000000000E-002    0.000000000000000E+000
 -3.960000000000000E-002    0.000000000000000E+000
 -3.950000000000000E-002    0.000000000000000E+000
 -3.940000000000000E-002    0.000000000000000E+000
 -3.930000000000000E-002    0.000000000000000E+000
 -3.920000000000000E-002    0.000000000000000E+000
 -3.910000000000000E-002    0.000000000000000E+000
 -3.900000000000000E-002    0.000000000000000E+000
 -3.890000000000000E-002    0.000000000000000E+000
 -3.880000000000000E-002    0.000000000000000E+000
 -3.870000000000000E-002    0.000000000000000E+000
 -3.860000000000000E-002    0.000000000000000E+000
 -3.850000000000000E-002    0.000000000000000E+000
 -3.840000000000000E-002    0.000000000000000E+000
 -3.830000000000000E-002    0.000000000000000E+000
 -3.820000000000000E-002    0.000000000000000E+000
 -3.810000000000000E-002    0.000000000000000E+000
 -3.800000000000000E-002    0.000000000000000E+000
 -3.790000000000000E-002    0.000000000000000E+000
 -3.780000000000000E-002    0.000000000000000E+000
 -3.770000000000000E-002    0.000000000000000E+000
 -3.760000000000000E-002    0.000000000000000E+000
 -3.750000000000000E-002    0.000000000000000E+000
 -3.740000000000000E-002    0.000000000000000E+000
 -3.730000000000000E-002    0.000000000000000E+000
 -3.720000000000000E-002    0.000000000000000E+000
 -3.710000000000000E-002    0.000000000000000E+000
 -3.700000000000000E-002    0.000000000000000E+000
 -3.690000000000000E-002    0.000000000000000E+000
 -3.680000000000000E-002    0.000000000000000E+000
 -3.670000000000000E-002    0.000000000000000E+000
 -3.660000000000000E-002    0.000000000000000E+000
 -3.650000000000000E-002    0.000000000000000E+000
 -3.640000000000000E-002    0.000000000000000E+000
 -3.630000000000000E-002    0.000000000000000E+000
 -3.620000000000000E-002    0.000000000000000E+000
 -3.610000000000000E-002    0.000000000000000E+000
 -3.600000000000000E-002    0.000000000000000E+000
 -3.590000000000000E-002    0.000000000000000E+000
 -3.580000000000000E-002    0.000000000000000E+000
 -3.570000000000000E-002    0.000000000000000E+000
 -3.560000000000000E-002    0.000000000000000E+000
 -3.550000000000000E-002    0.000000000000000E+000
 -3.540000000000000E-002    0.000000000000000E+000
 -3.530000000000000E-002    0.000000000000000E+000
 -3.520000000000000E-002    0.000000000000000E+000
 -3.510000000000000E-002    0.000000000000000E+000
 -3.500000000000000E-002    0.000000000000000E+000
 -3.490000000000000E-002    0.000000000000000E+000
 -3.480000000000000E-002    0.000000000000000E+000
 -3.470000000000000E-002    0.000000000000000E+000
 -3.460000000000000E-002    0.000000000000000E+000
 -3.450000000000000E-002    0.000000000000000E+000
 -3.440000000000000E-002    0.000000000000000E+000
 -3.430000000000000E-002    0.000000000000000E+000
 -3.420000000000000E-002    0.000000000000000E+000
 -3.410000000000000E-002    0.000000000000000E+000
 -3.400000000000000E-002    0.000000000000000E+000
 -3.390000000000000E-002    0.000000000000000E+000
 -3.380000000000000E-002    0.000000000000000E+000
 -3.370000000000000E-002    0.000000000000000E+000
 -3.360000000000000E-002    0.000000000000000E+000
 -3.350000000000000E-002    0.000000000000000E+000
 -3.340000000000000E-002    0.000000000000000E+000
 -3.330000000000000E-002    0.000000000000000E+000
 -3.320000000000000E-002    0.000000000000000E+000
 -3.310000000000000E-002    0.000000000000000E+000
 -3.300000000000000E-002    0.000000000000000E+000
 -3.290000000000000E-002    0.000000000000000E+000
 -3.280000000000000E-002    0.000000000000000E+000
 -3.270000000000000E-002    0.000000000000000E+000
 -3.260000000000000E-002    0.000000000000000E+000
 -3.250000000000000E-002    0.000000000000000E+000
 -3.240000000000000E-002    0.000000000000000E+000
 -3.230000000000000E-002    0.000000000000000E+000
 -3.220000000000000E-002    0.000000000000000E+000
 -3.210000000000000E-002    0.000000000000000E+000
 -3.200000000000000E-002    0.000000000000000E+000
 -3.190000000000000E-002    0.000000000000000E+000
 -3.180000000000000E-002    0.000000000000000E+000
 -3.170000000000000E-002    0.000000000000000E+000
 -3.160000000000000E-002    0.000000000000000E+000
 -3.150000000000000E-002    0.000000000000000E+000
 -3.140000000000000E-002    0.000000000000000E+000
 -3.130000000000000E-002    0.000000000000000E+000
 -3.120000000000000E-002    0.000000000000000E+000
 -3.110000000000000E-002    0.000000000000000E+000
 -3.100000000000000E-002    0.000000000000000E+000
 -3.090000000000000E-002    0.000000000000000E+000
 -3.080000000000000E-002    0.000000000000000E+000
 -3.070000000000000E-002    0.000000000000000E+000
 -3.060000000000000E-002    0.000000000000000E+000
 -3.050000000000000E-002    0.000000000000000E+000
 -3.040000000000000E-002    0.000000000000000E+000
 -3.030000000000000E-002    0.000000000000000E+000
 -3.020000000000000E-002    0.000000000000000E+000
 -3.010000000000000E-002    0.000000000000000E+000
 -3.000000000000000E-002    0.000000000000000E+000
 -2.990000000000000E-002    0.000000000000000E+000
 -2.980000000000000E-002    0.000000000000000E+000
 -2.970000000000000E-002    0.000000000000000E+000
 -2.960000000000000E-002    0.000000000000000E+000
 -2.950000000000000E-002    0.000000000000000E+000
 -2.940000000000000E-002    0.000000000000000E+000
 -2.930000000000000E-002    0.000000000000000E+000
 -2.920000000000000E-002    0.000000000000000E+000
 -2.910000000000000E-002    0.000000000000000E+000
 -2.900000000000000E-002    0.000000000000000E+000
 -2.890000000000000E-002    0.000000000000000E+000
 -2.880000000000000E-002    0.000000000000000E+000
 -2.870000000000000E-002    0.000000000000000E+000
 -2.860000000000000E-002    0.000000000000000E+000
 -2.850000000000000E-002    0.000000000000000E+000
 -2.840000000000000E-002    0.000000000000000E+000
 -2.830000000000000E-002    0.000000000000000E+000
 -2.820000000000000E-002    0.000000000000000E+000
 -2.810000000000000E-002    0.000000000000000E+000
 -2.800000000000000E-002    0.000000000000000E+000
 -2.790000000000000E-002    0.000000000000000E+000
 -2.780000000000000E-002    0.000000000000000E+000
 -2.770000000000000E-002    0.000000000000000E+000
 -2.760000000000000E-002    0.000000000000000E+000
 -2.750000000000000E-002    0.000000000000000E+000
 -2.740000000000000E-002    0.000000000000000E+000
 -2.730000000000000E-002    0.000000000000000E+000
 -2.720000000000000E-002    0.000000000000000E+000
 -2.710000000000000E-002    0.000000000000000E+000
 -2.700000000000000E-002    0.000000000000000E+000
 -2.690000000000000E-002    0.000000000000000E+000
 -2.680000000000000E-002    0.000000000000000E+000
 -2.670000000000000E-002    0.000000000000000E+000
 -2.660000000000000E-002    0.000000000000000E+000
 -2.650000000000000E-002    0.000000000000000E+000
 -2.640000000000000E-002    0.000000000000000E+000
 -2.630000000000000E-002    0.000000000000000E+000
 -2.620000000000000E-002    0.000000000000000E+000
 -2.610000000000000E-002    0.000000000000000E+000
 -2.600000000000000E-002    0.000000000000000E+000
 -2.590000000000000E-002    0.000000000000000E+000
 -2.580000000000000E-002    0.000000000000000E+000
 -2.570000000000000E-002    0.000000000000000E+000
 -2.560000000000000E-002    0.000000000000000E+000
 -2.550000000000000E-002    0.000000000000000E+000
 -2.540000000000000E-002    0.000000000000000E+000
 -2.530000000000000E-002    0.000000000000000E+000
 -2.520000000000000E-002    0.000000000000000E+000
 -2.510000000000000E-002    0.000000000000000E+000
 -2.500000000000000E-002    0.000000000000000E+000
 -2.490000000000000E-002    0.000000000000000E+000
 -2.480000000000000E-002    0.000000000000000E+000
 -2.470000000000000E-002    0.000000000000000E+000
 -2.460000000000000E-002    0.000000000000000E+000
 -2.450000000000000E-002    0.000000000000000E+000
 -2.440000000000000E-002    0.000000000000000E+000
 -2.430000000000000E-002    0.000000000000000E+000
 -2.420000000000000E-002    0.000000000000000E+000
 -2.410000000000000E-002    0.000000000000000E+000
 -2.400000000000000E-002    0.000000000000000E+000
 -2.390000000000000E-002    0.000000000000000E+000
 -2.380000000000000E-002    0.000000000000000E+000
 -2.370000000000000E-002    0.000000000000000E+000
 -2.360000000000000E-002    0.000000000000000E+000
 -2.350000000000000E-002    0.000000000000000E+000
 -2.340000000000000E-002    0.000000000000000E+000
 -2.330000000000000E-002    0.000000000000000E+000
 -2.320000000000000E-002    0.000000000000000E+000
 -2.310000000000000E-002    0.000000000000000E+000
 -2.300000000000000E-002    0.000000000000000E+000
 -2.290000000000000E-002    0.000000000000000E+000
 -2.280000000000000E-002    0.000000000000000E+000
 -2.270000000000000E-002    0.000000000000000E+000
 -2.260000000000000E-002    0.000000000000000E+000
 -2.250000000000000E-002    0.000000000000000E+000
 -2.240000000000000E-002    0.000000000000000E+000
 -2.230000000000000E-002    0.000000000000000E+000
 -2.220000000000000E-002    0.000000000000000E+000
 -2.210000000000000E-002    0.000000000000000E+000
 -2.200000000000000E-002    0.000000000000000E+000
 -2.190000000000000E-002    0.000000000000000E+000
 -2.180000000000000E-002    0.000000000000000E+000
 -2.170000000000000E-002    0.000000000000000E+000
 -2.160000000000000E-002    0.000000000000000E+000
 -2.150000000000000E-002    0.000000000000000E+000
 -2.140000000000000E-002    0.000000000000000E+000
 -2.130000000000000E-002    0.000000000000000E+000
 -2.120000000000000E-002    0.000000000000000E+000
 -2.110000000000000E-002    0.000000000000000E+000
 -2.100000000000000E-002    0.000000000000000E+000
 -2.090000000000000E-002    0.000000000000000E+000
 -2.080000000000000E-002    0.000000000000000E+000
 -2.070000000000000E-002    0.000000000000000E+000
 -2.060000000000000E-002    0.000000000000000E+000
 -2.050000000000000E-002    0.000000000000000E+000
 -2.040000000000000E-002    0.000000000000000E+000
 -2.030000000000000E-002    0.000000000000000E+000
 -2.020000000000000E-002    0.000000000000000E+000
 -2.010000000000000E-002   -1.213942243889671E-047
 -2.000000000000000E-002   -8.836223909752291E-047
 -1.990000000000000E-002   -1.645850557561491E-046
 -1.980000000000000E-002   -2.470868838632898E-046
 -1.970000000000000E-002   -4.203609764655823E-046
 -1.960000000000000E-002   -5.115518414188664E-046
 -1.950000000000000E-002   -4.882684412379976E-046
 -1.940000000000000E-002   -4.190929166687579E-046
 -1.930000000000000E-002   -1.150388509505175E-046
 -1.920000000000000E-002    4.910329400482669E-046
 -1.910000000000000E-002    1.331477954244793E-045
 -1.900000000000000E-002    2.387638482366766E-045
 -1.890000000000000E-002    3.408528018886096E-045
 -1.880000000000000E-002    3.972971626221532E-045
 -1.870000000000000E-002    4.259712118704160E-045
 -1.860000000000000E-002    2.410044760998237E-045
 -1.850000000000000E-002   -6.534296685225495E-046
 -1.840000000000000E-002   -5.873852973750230E-045
 -1.830000000000000E-002   -1.393011888709173E-044
 -1.820000000000000E-002   -2.543140907266949E-044
 -1.810000000000000E-002   -3.789105852327158E-044
 -1.800000000000000E-002   -5.126726113084786E-044
 -1.790000000000000E-002   -6.132597074572165E-044
 -1.780000000000000E-002   -6.277100457824485E-044
 -1.770000000000000E-002   -4.888149608306307E-044
 -1.760000000000000E-002   -1.348572334626881E-044
 -1.750000000000000E-002    5.162352114195222E-044
 -1.740000000000000E-002    1.502098534136692E-043
 -1.730000000000000E-002    2.793561278586080E-043
 -1.720000000000000E-002    4.297926800135908E-043
 -1.710000000000000E-002    5.777037978829303E-043
 -1.700000000000000E-002    6.837804336647276E-043
 -1.690000000000000E-002    6.914782084155661E-043
 -1.680000000000000E-002    5.322500140247759E-043
 -1.670000000000000E-002    1.344386624810723E-043
 -1.660000000000000E-002   -5.639902391391084E-043
 -1.650000000000000E-002   -1.590421542543809E-042
 -1.640000000000000E-002   -2.906750823111168E-042
 -1.630000000000000E-002   -4.381103086667424E-042
 -1.620000000000000E-002   -5.760166049530495E-042
 -1.610000000000000E-002   -6.648309137285041E-042
 -1.600000000000000E-002   -6.524988409798087E-042
 -1.590000000000000E-002   -4.785326781445364E-042
 -1.580000000000000E-002   -8.375212718718661E-043
 -1.570000000000000E-002    5.746662555945369E-042
 -1.560000000000000E-002    1.503641564172404E-041
 -1.550000000000000E-002    2.651109770198827E-041
 -1.540000000000000E-002    3.883666067694855E-041
 -1.530000000000000E-002    4.970108860037920E-041
 -1.520000000000000E-002    5.578958299166620E-041
 -1.510000000000000E-002    5.296973451242203E-041
 -1.500000000000000E-002    3.676865362749812E-041
 -1.490000000000000E-002    3.199789158733337E-042
 -1.480000000000000E-002   -5.008590326067957E-041
 -1.470000000000000E-002   -1.223732903891061E-040
 -1.460000000000000E-002   -2.083956876771707E-040
 -1.450000000000000E-002   -2.970555441467173E-040
 -1.440000000000000E-002   -3.707602765410245E-040
 -1.430000000000000E-002   -4.058385112222917E-040
 -1.420000000000000E-002   -3.744802687240729E-040
 -1.410000000000000E-002   -2.485671190065961E-040
 -1.400000000000000E-002   -5.485099058193444E-042
 -1.390000000000000E-002    3.643436714769464E-040
 -1.380000000000000E-002    8.489810817314046E-040
 -1.370000000000000E-002    1.406886196049208E-039
 -1.360000000000000E-002    1.961121902226916E-039
 -1.350000000000000E-002    2.398143164750424E-039
 -1.340000000000000E-002    2.573558826405432E-039
 -1.330000000000000E-002    2.326894962753732E-039
 -1.320000000000000E-002    1.506427781867626E-039
 -1.310000000000000E-002    3.550924016962146E-042
 -1.300000000000000E-002   -2.206039706539335E-039
 -1.290000000000000E-002   -5.019663487542762E-039
 -1.280000000000000E-002   -8.171358274359044E-039
 -1.270000000000000E-002   -1.121195686505637E-038
 -1.260000000000000E-002   -1.351641800661556E-038
 -1.250000000000000E-002   -1.432839832132655E-038
 -1.240000000000000E-002   -1.284879246604556E-038
 -1.230000000000000E-002   -8.369011201073030E-039
 -1.220000000000000E-002   -4.413607527307693E-040
 -1.210000000000000E-002    1.093131294844067E-038
 -1.200000000000000E-002    2.511517929487317E-038
 -1.190000000000000E-002    4.071177129199937E-038
 -1.180000000000000E-002    5.551391935065933E-038
 -1.170000000000000E-002    6.659295419146369E-038
 -1.160000000000000E-002    7.054939304429925E-038
 -1.150000000000000E-002    6.394035895634181E-038
 -1.140000000000000E-002    4.386887056697342E-038
 -1.130000000000000E-002    8.685395477813467E-039
 -1.120000000000000E-002   -4.128529914437193E-038
 -1.110000000000000E-002   -1.031122378714249E-037
 -1.100000000000000E-002   -1.708629082731655E-037
 -1.090000000000000E-002   -2.355891279074668E-037
 -1.080000000000000E-002   -2.858149318423004E-037
 -1.070000000000000E-002   -3.085958378710391E-037
 -1.060000000000000E-002   -2.911384320611973E-037
 -1.050000000000000E-002   -2.228711062872215E-037
 -1.040000000000000E-002   -9.774796771038991E-038
 -1.030000000000000E-002    8.352555469828443E-038
 -1.020000000000000E-002    3.117220408943779E-037
 -1.010000000000000E-002    5.681637126092622E-037
 -1.000000000000000E-002    8.249692038995718E-037
 -9.899999999999999E-003    1.046683743972348E-036
 -9.800000000000000E-003    1.193314148294162E-036
 -9.699999999999999E-003    1.224566441525142E-036
 -9.599999999999999E-003    1.104863184508756E-036
 -9.500000000000000E-003    8.085409682903430E-037
 -9.399999999999999E-003    3.245548991027569E-037
 -9.299999999999999E-003   -3.399360725970295E-037
 -9.200000000000000E-003   -1.157537952424408E-036
 -9.099999999999999E-003   -2.080262265091963E-036
 -8.999999999999999E-003   -3.040597120486364E-036
 -8.900000000000000E-003   -3.953437912428415E-036
 -8.799999999999999E-003   -4.718146648344248E-036
 -8.699999999999999E-003   -5.220126259421470E-036
 -8.600000000000000E-003   -5.331750456806281E-036
 -8.499999999999999E-003   -4.913367836229647E-036
 -8.399999999999999E-003   -3.816135057231801E-036
 -8.300000000000000E-003   -1.889629413329171E-036
 -8.199999999999999E-003    1.002055179618669E-036
 -8.100000000000000E-003    4.951916790225951E-036
 -8.000000000000000E-003    9.966685519986414E-036
 -7.899999999999999E-003    1.590846043072711E-035
 -7.800000000000000E-003    2.242556999466912E-035
 -7.699999999999999E-003    2.888252566798103E-035
 -7.599999999999999E-003    3.430523344237349E-035
 -7.499999999999999E-003    3.736334123482360E-035
 -7.399999999999999E-003    3.641531597914293E-035
 -7.299999999999999E-003    2.964128889863818E-035
 -7.199999999999999E-003    1.528264898382287E-035
 -7.100000000000000E-003   -8.005828919488988E-036
 -6.999999999999999E-003   -4.070609671666745E-035
 -6.899999999999999E-003   -8.193059126711459E-035
 -6.800000000000000E-003   -1.289310246114384E-034
 -6.699999999999999E-003   -1.767222731286280E-034
 -6.599999999999999E-003   -2.179425736959951E-034
 -6.499999999999999E-003   -2.430774199180810E-034
 -6.399999999999999E-003   -2.411598216441949E-034
 -6.299999999999999E-003   -2.010174118373600E-034
 -6.199999999999999E-003   -1.130662867125990E-034
 -6.100000000000000E-003    2.844591384557174E-035
 -5.999999999999999E-003    2.229603845536852E-034
 -5.899999999999999E-003    4.612228430636848E-034
 -5.800000000000000E-003    7.234304195716220E-034
 -5.699999999999999E-003    9.784096304836841E-034
 -5.599999999999999E-003    1.184328050493419E-033
 -5.499999999999999E-003    1.291360557285140E-033
 -5.399999999999999E-003    1.246555565013734E-033
 -5.299999999999999E-003    1.000875360250058E-033
 -5.199999999999999E-003    5.180328018212773E-034
 -5.099999999999999E-003   -2.156505219977715E-034
 -4.999999999999999E-003   -1.181535723179998E-033
 -4.899999999999999E-003   -2.320609828304815E-033
 -4.799999999999999E-003   -3.528782964605518E-033
 -4.699999999999999E-003   -4.657246098733447E-033
 -4.599999999999999E-003   -5.519350335002941E-033
 -4.499999999999999E-003   -5.904955472826854E-033
 -4.399999999999999E-003   -5.602409163969237E-033
 -4.299999999999999E-003   -4.427316591441148E-033
 -4.199999999999999E-003   -2.256117250796874E-033
 -4.099999999999999E-003    9.386726951224352E-034
 -3.999999999999999E-003    5.055722599554907E-033
 -3.899999999999999E-003    9.839581348336440E-033
 -3.799999999999999E-003    1.486804696411212E-032
 -3.699999999999999E-003    1.955722884550943E-032
 -3.599999999999999E-003    2.318845891041273E-032
 -3.499999999999999E-003    2.495967030239914E-032
 -3.399999999999999E-003    2.406170443589542E-032
 -3.299999999999999E-003    1.977727324943857E-032
 -3.199999999999999E-003    1.159717298822626E-032
 -3.099999999999999E-003   -6.550087231710199E-034
 -2.999999999999999E-003   -1.670171723948353E-032
 -2.899999999999999E-003   -3.570882254727367E-032
 -2.799999999999999E-003   -5.621881057563454E-032
 -2.699999999999999E-003   -7.613816806169086E-032
 -2.599999999999999E-003   -9.279684300455404E-032
 -2.499999999999999E-003   -1.030951853782780E-031
 -2.399999999999999E-003   -1.037485125380922E-031
 -2.299999999999999E-003   -9.163151480969571E-032
 -2.199999999999999E-003   -6.421342523022538E-032
 -2.099999999999999E-003   -2.006054051050240E-032
 -1.999999999999999E-003    4.063347288651853E-032
 -1.899999999999999E-003    1.155469407113801E-031
 -1.799999999999999E-003    1.998327798275340E-031
 -1.699999999999999E-003    2.859107065700428E-031
 -1.599999999999999E-003    3.635406438015140E-031
 -1.499999999999999E-003    4.202634294700014E-031
 -1.399999999999999E-003    4.422757161323916E-031
 -1.299999999999999E-003    4.157690205529574E-031
 -1.199999999999999E-003    3.287101921719077E-031
 -1.099999999999999E-003    1.729706283453487E-031
 -9.999999999999989E-004   -5.336771727563732E-032
 -8.999999999999990E-004   -3.437836160816884E-031
 -7.999999999999990E-004   -6.814932882338222E-031
 -6.999999999999989E-004   -1.038409586564193E-030
 -5.999999999999990E-004   -1.375273556003265E-030
 -4.999999999999989E-004   -1.643307846439501E-030
 -3.999999999999989E-004   -1.787639034261666E-030
 -2.999999999999989E-004   -1.752565462692912E-030
 -1.999999999999989E-004   -1.488518354288311E-030
 -9.999999999999892E-005   -9.602835702466295E-031
  1.084202172485504E-018   -1.557566716180093E-031
  1.000000000000011E-004    9.057816300499554E-031
  2.000000000000011E-004    2.167093514043565E-030
  3.000000000000011E-004    3.529457580111118E-030
  4.000000000000011E-004    4.853484350175596E-030
  5.000000000000011E-004    5.965338738647086E-030
  6.000000000000011E-004    6.669010221777703E-030
  7.000000000000011E-004    6.764648681671167E-030
  8.000000000000011E-004    6.072207185986197E-030
  9.000000000000012E-004    4.458773939222455E-030
  1.000000000000001E-003    1.867120448579026E-030
  1.100000000000001E-003   -1.657752545366672E-030
  1.200000000000001E-003   -5.947777348096860E-030
  1.300000000000001E-003   -1.070056689491101E-029
  1.400000000000001E-003   -1.548132511328424E-029
  1.500000000000001E-003   -1.974074144392927E-029
  1.600000000000001E-003   -2.285043287995592E-029
  1.700000000000001E-003   -2.415579148304270E-029
  1.800000000000001E-003   -2.304414113743994E-029
  1.900000000000001E-003   -1.902393766782566E-029
  2.000000000000001E-003   -1.180866478570466E-029
  2.100000000000001E-003   -1.397345534708064E-030
  2.200000000000001E-003    1.185770408288264E-029
  2.300000000000001E-003    2.720574786396527E-029
  2.400000000000001E-003    4.348467900585435E-029
  2.500000000000001E-003    5.914841675411372E-029
  2.600000000000001E-003    7.234050259513711E-029
  2.700000000000001E-003    8.101645205499517E-029
  2.800000000000001E-003    8.311330382022363E-029
  2.900000000000001E-003    7.676000358027518E-029
  3.000000000000001E-003    6.051725699684171E-029
  3.100000000000001E-003    3.363003945857451E-029
  3.200000000000001E-003   -3.728601922253629E-030
  3.300000000000001E-003   -5.024833962209857E-029
  3.400000000000001E-003   -1.033354088391062E-028
  3.500000000000001E-003   -1.590592949148326E-028
  3.600000000000001E-003   -2.122208180419838E-028
  3.700000000000001E-003   -2.565656508888314E-028
  3.800000000000001E-003   -2.851600241065370E-028
  3.900000000000001E-003   -2.909333978734063E-028
  4.000000000000001E-003   -2.673775259517188E-028
  4.100000000000001E-003   -2.093724871313376E-028
  4.200000000000001E-003   -1.140880436348747E-028
  4.300000000000001E-003    1.811352819050745E-029
  4.400000000000001E-003    1.828691220710380E-028
  4.500000000000001E-003    3.712139532536657E-028
  4.600000000000002E-003    5.693112489566736E-028
  4.700000000000001E-003    7.586340245453370E-028
  4.800000000000001E-003    9.167047138135388E-028
  4.900000000000002E-003    1.018465896403600E-027
  5.000000000000001E-003    1.038303605929835E-027
  5.100000000000001E-003    9.526769480317790E-028
  5.200000000000001E-003    7.432253312238964E-028
  5.300000000000002E-003    4.001348271613206E-028
  5.400000000000001E-003   -7.454536173032428E-029
  5.500000000000001E-003   -6.640200834620690E-028
  5.600000000000002E-003   -1.334738481887661E-027
  5.700000000000001E-003   -2.035710669094629E-027
  5.800000000000001E-003   -2.699571299756777E-027
  5.900000000000002E-003   -3.245719609679084E-027
  6.000000000000001E-003   -3.585718399783980E-027
  6.100000000000001E-003   -3.630915768786439E-027
  6.200000000000002E-003   -3.302008586930337E-027
  6.300000000000002E-003   -2.539967130823246E-027
  6.400000000000001E-003   -1.317458290870741E-027
  6.500000000000001E-003    3.503649655494877E-028
  6.600000000000002E-003    2.397038741632155E-027
  6.700000000000001E-003    4.699359728691338E-027
  6.800000000000001E-003    7.076749417004793E-027
  6.900000000000002E-003    9.296619092184820E-027
  7.000000000000001E-003    1.108656985118641E-026
  7.100000000000001E-003    1.215373211690921E-026
  7.200000000000002E-003    1.221084541830267E-026
  7.300000000000002E-003    1.100788691654924E-026
  7.400000000000001E-003    8.367184883967850E-027
  7.500000000000001E-003    4.219132889979303E-027
  7.600000000000002E-003   -1.365097974380470E-027
  7.700000000000001E-003   -8.147964388090603E-027
  7.800000000000001E-003   -1.571136214718686E-026
  7.900000000000001E-003   -2.345791825403666E-026
  8.000000000000002E-003   -3.063117088098578E-026
  8.100000000000001E-003   -3.635685499921040E-026
  8.200000000000001E-003   -3.970582769975683E-026
  8.300000000000002E-003   -3.977710340892373E-026
  8.400000000000001E-003   -3.579701330515642E-026
  8.500000000000002E-003   -2.722798538040027E-026
  8.600000000000002E-003   -1.387795970573479E-026
  8.700000000000001E-003    4.000628191337694E-027
  8.800000000000002E-003    2.563479996348162E-026
  8.900000000000002E-003    4.969093824762631E-026
  9.000000000000001E-003    7.428289482568727E-026
  9.100000000000002E-003    9.703839490463122E-026
  9.200000000000002E-003    1.152301598333422E-025
  9.300000000000001E-003    1.259729195362473E-025
  9.400000000000002E-003    1.264811015479044E-025
  9.500000000000001E-003    1.143744113136039E-025
  9.600000000000001E-003    8.801086429266794E-026
  9.700000000000002E-003    4.681930164847531E-026
  9.800000000000001E-003   -8.402699074272224E-027
  9.900000000000001E-003   -7.526369941258190E-026
  1.000000000000000E-002   -1.496652660623173E-025
  1.010000000000000E-002   -2.258371635072381E-025
  1.020000000000000E-002   -2.965499851156344E-025
  1.030000000000000E-002   -3.535224431897924E-025
  1.040000000000000E-002   -3.880244466851671E-025
  1.050000000000000E-002   -3.916572077134683E-025
  1.060000000000000E-002   -3.572690507207288E-025
  1.070000000000000E-002   -2.799439304937885E-025
  1.080000000000000E-002   -1.579771559493884E-025
  1.090000000000000E-002    6.262597241011999E-027
  1.100000000000000E-002    2.056962367262208E-025
  1.110000000000000E-002    4.282341985831177E-025
  1.120000000000000E-002    6.569139004070849E-025
  1.130000000000000E-002    8.705525988219160E-025
  1.140000000000000E-002    1.044957414078381E-024
  1.150000000000000E-002    1.154685798340183E-024
  1.160000000000000E-002    1.175295799561947E-024
  1.170000000000000E-002    1.085960172972504E-024
  1.180000000000000E-002    8.722618653897775E-025
  1.190000000000000E-002    5.289278900145346E-025
  1.200000000000000E-002    6.222267936740644E-026
  1.210000000000000E-002   -5.083050480044273E-025
  1.220000000000000E-002   -1.149021266968655E-024
  1.230000000000000E-002   -1.812617048447737E-024
  1.240000000000000E-002   -2.439930990234141E-024
  1.250000000000000E-002   -2.963282664997502E-024
  1.260000000000000E-002   -3.311290884512865E-024
  1.270000000000000E-002   -3.415000771087471E-024
  1.280000000000000E-002   -3.214981751685704E-024
  1.290000000000000E-002   -2.668901959331604E-024
  1.300000000000000E-002   -1.758946836761037E-024
  1.310000000000000E-002   -4.983394087060784E-025
  1.320000000000000E-002    1.063829278796979E-024
  1.330000000000000E-002    2.840243892404349E-024
  1.340000000000000E-002    4.706175862891135E-024
  1.350000000000000E-002    6.503986828026631E-024
  1.360000000000000E-002    8.051598426979094E-024
  1.370000000000000E-002    9.154874792672888E-024
  1.380000000000000E-002    9.623502013303310E-024
  1.390000000000000E-002    9.289513185954507E-024
  1.400000000000000E-002    8.027245775322623E-024
  1.410000000000000E-002    5.773114471789895E-024
  1.420000000000000E-002    2.543336663810084E-024
  1.430000000000000E-002   -1.552421969477151E-024
  1.440000000000000E-002   -6.303499963460846E-024
  1.450000000000000E-002   -1.139862093803712E-023
  1.460000000000000E-002   -1.643562791560544E-023
  1.470000000000000E-002   -2.094139442449883E-023
  1.480000000000000E-002   -2.440195417184098E-023
  1.490000000000000E-002   -2.630193740685782E-023
  1.500000000000000E-002   -2.617144075936079E-023
  1.510000000000000E-002   -2.363734679934624E-023
  1.520000000000000E-002   -1.847526875673638E-023
  1.530000000000000E-002   -1.065746578932463E-023
  1.540000000000000E-002   -3.916661441870522E-025
  1.550000000000000E-002    1.185437422389878E-023
  1.560000000000000E-002    2.534736794774729E-023
  1.570000000000000E-002    3.910596836448842E-023
  1.580000000000000E-002    5.194375223049771E-023
  1.590000000000000E-002    6.253841149420784E-023
  1.600000000000000E-002    6.952560655054733E-023
  1.610000000000000E-002    7.161344185784411E-023
  1.620000000000000E-002    6.771102625509006E-023
  1.630000000000000E-002    5.706202877490493E-023
  1.640000000000000E-002    3.937237605148378E-023
  1.650000000000000E-002    1.491952523249211E-023
  1.660000000000000E-002   -1.536951272745614E-023
  1.670000000000000E-002   -4.988379670208646E-023
  1.680000000000000E-002   -8.634847545633582E-023
  1.690000000000000E-002   -1.219068511900062E-022
  1.700000000000000E-002   -1.532681452502933E-022
  1.710000000000000E-002   -1.769193996607183E-022
  1.720000000000000E-002   -1.893941051752912E-022
  1.730000000000000E-002   -1.875838283663241E-022
  1.740000000000000E-002   -1.690731372547804E-022
  1.750000000000000E-002   -1.324725978300796E-022
  1.760000000000000E-002   -7.772068696968528E-023
  1.770000000000000E-002   -6.322797258032580E-024
  1.780000000000000E-002    7.850402173264943E-023
  1.790000000000000E-002    1.718094162955274E-022
  1.800000000000000E-002    2.670341599359809E-022
  1.810000000000000E-002    3.562951372251059E-022
  1.820000000000000E-002    4.308337110260752E-022
  1.830000000000000E-002    4.816172109548616E-022
  1.840000000000000E-002    5.000679233496150E-022
  1.850000000000000E-002    4.788788558319275E-022
  1.860000000000000E-002    4.128617374819946E-022
  1.870000000000000E-002    2.997596904030207E-022