 -4.000000000000000E-002    0.000000000000000E+000
 -3.990000000000000E-002    0.000000000000000E+000
 -3.980000000000000E-002    0.000000000000000E+000
 -3.970000000000000E-002    0.000000000000000E+000
 -3.960000000000000E-002    0.000000000000000E+000
 -3.950000000000000E-002    0.000000000000000E+000
 -3.940000000000000E-002    0.000000000000000E+000
 -3.930000000000000E-002   -7.752386835749519E-027
 -3.920000000000000E-002   -9.963685085685087E-026
 -3.910000000000000E-002   -6.609452753981697E-025
 -3.900000000000000E-002   -2.978684906310924E-024
 -3.890000000000000E-002   -1.006715773998241E-023
 -3.880000000000000E-002   -2.631666844148580E-023
 -3.870000000000000E-002   -5.128795993733074E-023
 -3.860000000000000E-002   -5.677329627835664E-023
 -3.850000000000000E-002    7.304326909312018E-023
 -3.840000000000000E-002    6.690676950535121E-022
 -3.830000000000000E-002    2.510058475099738E-021
 -3.820000000000000E-002    7.192724274920445E-021
 -3.810000000000000E-002    1.764111695499306E-020
 -3.800000000000000E-002    3.869007541483362E-020
 -3.790000000000000E-002    7.756484208790286E-020
 -3.780000000000000E-002    1.439240346223374E-019
 -3.770000000000000E-002    2.489574706090204E-019
 -3.760000000000000E-002    4.028806922672247E-019
 -3.750000000000000E-002    6.101162438327836E-019
 -3.740000000000000E-002    8.615893234937608E-019
 -3.730000000000000E-002    1.123988151903446E-018
 -3.720000000000000E-002    1.326618296648621E-018
 -3.710000000000000E-002    1.347633277829920E-018
 -3.700000000000000E-002    1.002876361217180E-018
 -3.690000000000000E-002    4.212782477869590E-020
 -3.680000000000000E-002   -1.841107634127697E-018
 -3.670000000000000E-002   -4.979455234080394E-018
 -3.660000000000000E-002   -9.674844720176722E-018
 -3.650000000000000E-002   -1.611085688137565E-017
 -3.640000000000000E-002   -2.423432582344734E-017
 -3.630000000000000E-002   -3.361270389209159E-017
 -3.620000000000000E-002   -4.328208499850734E-017
 -3.610000000000000E-002   -5.161031738071698E-017
 -3.600000000000000E-002   -5.620914202939313E-017
 -3.590000000000000E-002   -5.393692459856602E-017
 -3.580000000000000E-002   -4.103705924030948E-017
 -3.570000000000000E-002   -1.345423516564093E-017
 -3.560000000000000E-002    3.264069772668797E-017
 -3.550000000000000E-002    1.001083391091095E-016
 -3.540000000000000E-002    1.899043697573185E-016
 -3.530000000000000E-002    3.000152066620835E-016
 -3.520000000000000E-002    4.243807019050507E-016
 -3.510000000000000E-002    5.519701709498050E-016
 -3.500000000000000E-002    6.662232612016250E-016
 -3.490000000000000E-002    7.450973952521869E-016
 -3.480000000000000E-002    7.619683700166542E-016
 -3.470000000000000E-002    6.875983352094061E-016
 -3.460000000000000E-002    4.933074210494274E-016
 -3.450000000000000E-002    1.553544271425406E-016
 -3.440000000000000E-002   -3.396495360614169E-016
 -3.430000000000000E-002   -9.887005717041302E-016
 -3.420000000000000E-002   -1.766391737032221E-015
 -3.410000000000000E-002   -2.619844951301756E-015
 -3.400000000000000E-002   -3.465704405902458E-015
 -3.390000000000000E-002   -4.190430511932369E-015
 -3.380000000000000E-002   -4.655105093309098E-015
 -3.370000000000000E-002   -4.705737695108144E-015
 -3.360000000000000E-002   -4.189609159442633E-015
 -3.350000000000000E-002   -2.977474561238203E-015
 -3.340000000000000E-002   -9.905204475301099E-016
 -3.330000000000000E-002    1.770149932295260E-015
 -3.320000000000000E-002    5.194897829606478E-015
 -3.310000000000000E-002    9.042264709039607E-015
 -3.300000000000000E-002    1.292627329833834E-014
 -3.290000000000000E-002    1.631982954048808E-014
 -3.280000000000000E-002    1.857926427282082E-014
 -3.270000000000000E-002    1.899370008644068E-014
 -3.260000000000000E-002    1.686053533750827E-014
 -3.250000000000000E-002    1.158505996069155E-014
 -3.240000000000000E-002    2.798079744712646E-015
 -3.230000000000000E-002   -9.518986492807188E-015
 -3.220000000000000E-002   -2.491644098543758E-014
 -3.210000000000000E-002   -4.238446250910246E-014
 -3.200000000000000E-002   -6.030736573205764E-014
 -3.190000000000000E-002   -7.648382757749848E-014
 -3.180000000000000E-002   -8.822963835415182E-014
 -3.170000000000000E-002   -9.257291247370177E-014
 -3.160000000000000E-002   -8.654201680746987E-014
 -3.150000000000000E-002   -6.753393074188398E-014
 -3.140000000000000E-002   -3.373706729324098E-014
 -3.130000000000000E-002    1.543170520256495E-014
 -3.120000000000000E-002    7.892762057647404E-014
 -3.110000000000000E-002    1.537760597124418E-013
 -3.100000000000000E-002    2.349293257145551E-013
 -3.090000000000000E-002    3.153371002339284E-013
 -3.080000000000000E-002    3.862703624467982E-013
 -3.070000000000000E-002    4.379144207218650E-013
 -3.060000000000000E-002    4.602156972097634E-013
 -3.050000000000000E-002    4.439313626304446E-013
 -3.040000000000000E-002    3.817937441304354E-013
 -3.030000000000000E-002    2.696708000088441E-013
 -3.020000000000000E-002    1.075804746037850E-013
 -3.010000000000000E-002   -9.958978287684703E-014
 -3.000000000000000E-002   -3.417963124553165E-013
 -2.990000000000000E-002   -6.040917721213037E-013
 -2.980000000000000E-002   -8.674703763310817E-013
 -2.970000000000000E-002   -1.110292213848857E-012
 -2.960000000000000E-002   -1.310192541053051E-012
 -2.950000000000000E-002   -1.446305102046877E-012
 -2.940000000000000E-002   -1.501556908726345E-012
 -2.930000000000000E-002   -1.464748366677836E-012
 -2.920000000000000E-002   -1.332114822896437E-012
 -2.910000000000000E-002   -1.108097916434126E-012
 -2.900000000000000E-002   -8.051197463307413E-013
 -2.890000000000000E-002   -4.422712286481228E-013
 -2.880000000000000E-002   -4.296647015902251E-014
 -2.870000000000000E-002    3.682203921888469E-013
 -2.860000000000000E-002    7.691612993781800E-013
 -2.850000000000000E-002    1.143720719431813E-012
 -2.840000000000000E-002    1.484658104041876E-012
 -2.830000000000000E-002    1.795300781068498E-012
 -2.820000000000000E-002    2.089484740962558E-012
 -2.810000000000000E-002    2.389434649120853E-012
 -2.800000000000000E-002    2.721515995075145E-012
 -2.790000000000000E-002    3.110112134701081E-012
 -2.780000000000000E-002    3.570220421171274E-012
 -2.770000000000000E-002    4.099693647751398E-012
 -2.760000000000000E-002    4.672298940220080E-012
 -2.750000000000000E-002    5.232896317474585E-012
 -2.740000000000000E-002    5.696010959141943E-012
 -2.730000000000000E-002    5.948835305141319E-012
 -2.720000000000000E-002    5.859281438329882E-012
 -2.710000000000000E-002    5.289109042429522E-012
 -2.700000000000000E-002    4.111428525252956E-012
 -2.690000000000000E-002    2.231130480353755E-012
 -2.680000000000000E-002   -3.939269501202481E-013
 -2.670000000000000E-002   -3.733672170080958E-012
 -2.660000000000000E-002   -7.671498293484995E-012
 -2.650000000000000E-002   -1.199777092108977E-011
 -2.640000000000000E-002   -1.641358465408913E-011
 -2.630000000000000E-002   -2.054628846441200E-011
 -2.620000000000000E-002   -2.397704866131028E-011
 -2.610000000000000E-002   -2.627918355734153E-011
 -2.600000000000000E-002   -2.706439847695487E-011
 -2.590000000000000E-002   -2.603249343139888E-011
 -2.580000000000000E-002   -2.301897337396804E-011
 -2.570000000000000E-002   -1.803423692241466E-011
 -2.560000000000000E-002   -1.128808403062847E-011
 -2.550000000000000E-002   -3.194128864848964E-012
 -2.540000000000000E-002    5.649654306924049E-012
 -2.530000000000000E-002    1.450554329106981E-011
 -2.520000000000000E-002    2.256420397402078E-011
 -2.510000000000000E-002    2.903140438495520E-011
 -2.500000000000000E-002    3.322529217348446E-011
 -2.490000000000000E-002    3.467360136484242E-011
 -2.480000000000000E-002    3.319853227930419E-011
 -2.470000000000000E-002    2.897674715884989E-011
 -2.460000000000000E-002    2.256312035015632E-011
 -2.450000000000000E-002    1.486976062119166E-011
 -2.440000000000000E-002    7.096142144061502E-012
 -2.430000000000000E-002    6.117276929550935E-013
 -2.420000000000000E-002   -3.201387053914967E-012
 -2.410000000000000E-002   -3.132098227679146E-012
 -2.400000000000000E-002    1.668738953363323E-012
 -2.390000000000000E-002    1.151281178564799E-011
 -2.380000000000000E-002    2.603842405308692E-011
 -2.370000000000000E-002    4.413705658452179E-011
 -2.360000000000000E-002    6.396092075773883E-011
 -2.350000000000000E-002    8.302281679684061E-011
 -2.340000000000000E-002    9.839004531431017E-011
 -2.330000000000000E-002    1.069629928264305E-010
 -2.320000000000000E-002    1.058174915522193E-010
 -2.310000000000000E-002    9.257947954141621E-011
 -2.300000000000000E-002    6.579248216936793E-011
 -2.290000000000000E-002    2.523381309539979E-011
 -2.280000000000000E-002   -2.786440415002606E-011
 -2.270000000000000E-002   -9.072778851260267E-011
 -2.260000000000000E-002   -1.591135705323189E-010
 -2.250000000000000E-002   -2.275583416935086E-010
 -2.240000000000000E-002   -2.897933771097979E-010
 -2.230000000000000E-002   -3.393014588691353E-010
 -2.220000000000000E-002   -3.699692156520528E-010
 -2.210000000000000E-002   -3.767728730839195E-010
 -2.200000000000000E-002   -3.564243744863776E-010
 -2.190000000000000E-002   -3.079006495667420E-010
 -2.180000000000000E-002   -2.327839869854086E-010
 -2.170000000000000E-002   -1.353549568465102E-010
 -2.160000000000000E-002   -2.240129408365526E-011
 -2.150000000000000E-002    9.726526583834354E-011
 -2.140000000000000E-002    2.135596884527367E-010
 -2.130000000000000E-002    3.160843231926963E-010
 -2.120000000000000E-002    3.952121702939369E-010
 -2.110000000000000E-002    4.431825674459532E-010
 -2.100000000000000E-002    4.550866134866602E-010
 -2.090000000000000E-002    4.296206809053191E-010
 -2.080000000000000E-002    3.695003200408997E-010
 -2.070000000000000E-002    2.814560643445267E-010
 -2.060000000000000E-002    1.757728302802663E-010
 -2.050000000000000E-002    6.538294446228501E-011
 -2.040000000000000E-002   -3.542460132081057E-011
 -2.030000000000000E-002   -1.125666593904907E-010
 -2.020000000000000E-002   -1.538461753566784E-010
 -2.010000000000000E-002   -1.505687799734487E-010
 -2.000000000000000E-002   -9.890480601310035E-011
 -1.990000000000000E-002   -8.171617656516421E-013
 -1.980000000000000E-002    1.355906686893944E-010
 -1.970000000000000E-002    2.963999496582679E-010
 -1.960000000000000E-002    4.629000550306538E-010
 -1.950000000000000E-002    6.132571836876246E-010
 -1.940000000000000E-002    7.246987534547257E-010
 -1.930000000000000E-002    7.760127851132678E-010
 -1.920000000000000E-002    7.501093556905081E-010
 -1.910000000000000E-002    6.363627981822493E-010
 -1.900000000000000E-002    4.324524344622787E-010
 -1.890000000000000E-002    1.454548173467918E-010
 -1.880000000000000E-002   -2.079985268096373E-010
 -1.870000000000000E-002   -6.025929880313083E-010
 -1.860000000000000E-002   -1.006220808991445E-009
 -1.850000000000000E-002   -1.382763136285337E-009
 -1.840000000000000E-002   -1.695529261345046E-009
 -1.830000000000000E-002   -1.911026706812629E-009
 -1.820000000000000E-002   -2.002675073794344E-009
 -1.810000000000000E-002   -1.954054630619131E-009
 -1.800000000000000E-002   -1.761299863280730E-009
 -1.790000000000000E-002   -1.434318374653996E-009
 -1.780000000000000E-002   -9.966193329723916E-010
 -1.770000000000000E-002   -4.836774245473677E-010
 -1.760000000000000E-002    6.008807575608977E-011
 -1.750000000000000E-002    5.854792009091908E-010
 -1.740000000000000E-002    1.043448820620097E-009
 -1.730000000000000E-002    1.390303190056064E-009
 -1.720000000000000E-002    1.592625064181016E-009
 -1.710000000000000E-002    1.631361307934238E-009
 -1.700000000000000E-002    1.504575355336323E-009
 -1.690000000000000E-002    1.228482236682512E-009
 -1.680000000000000E-002    8.365501938059858E-010
 -1.670000000000000E-002    3.766532280095875E-010
 -1.660000000000000E-002   -9.352589006994492E-011
 -1.650000000000000E-002   -5.124370171045477E-010
 -1.640000000000000E-002   -8.213710150000002E-010
 -1.630000000000000E-002   -9.712376440419218E-010
 -1.620000000000000E-002   -9.286673144973183E-010
 -1.610000000000000E-002   -6.807225919960340E-010
 -1.600000000000000E-002   -2.376171022899034E-010
 -1.590000000000000E-002    3.669742363462788E-010
 -1.580000000000000E-002    1.078187125349115E-009
 -1.570000000000000E-002    1.824720017991165E-009
 -1.560000000000000E-002    2.525683965039314E-009
 -1.550000000000000E-002    3.098913041463251E-009
 -1.540000000000000E-002    3.469902656197008E-009
 -1.530000000000000E-002    3.580423886980258E-009
 -1.520000000000000E-002    3.395843041913031E-009
 -1.510000000000000E-002    2.910268115192692E-009
 -1.500000000000000E-002    2.148824526834808E-009
 -1.490000000000000E-002    1.166648327684036E-009
 -1.480000000000000E-002    4.451334452655222E-011
 -1.470000000000000E-002   -1.118621818807409E-009
 -1.460000000000000E-002   -2.215508974711450E-009
 -1.450000000000000E-002   -3.142009957509613E-009
 -1.440000000000000E-002   -3.808842590309286E-009
 -1.430000000000000E-002   -4.152413904805340E-009
 -1.420000000000000E-002   -4.143511153403173E-009
 -1.410000000000000E-002   -3.792780513994234E-009
 -1.400000000000000E-002   -3.152211961603790E-009
 -1.390000000000000E-002   -2.312232985910506E-009
 -1.380000000000000E-002   -1.394457676825437E-009
 -1.370000000000000E-002   -5.406033166175807E-010
 -1.360000000000000E-002    1.014820563402409E-010
 -1.350000000000000E-002    3.933924219851136E-010
 -1.340000000000000E-002    2.218103659176963E-010
 -1.330000000000000E-002   -4.873696439066120E-010
 -1.320000000000000E-002   -1.757953216677724E-009
 -1.310000000000000E-002   -3.556654377286283E-009
 -1.300000000000000E-002   -5.791460654526103E-009
 -1.290000000000000E-002   -8.315510939206451E-009
 -1.280000000000000E-002   -1.093627675957257E-008
 -1.270000000000000E-002   -1.342926692626017E-008
 -1.260000000000000E-002   -1.555497419342277E-008
 -1.250000000000000E-002   -1.707737218867931E-008
 -1.240000000000000E-002   -1.778204867366593E-008
 -1.230000000000000E-002   -1.749200845640324E-008
 -1.220000000000000E-002   -1.607934780113910E-008
 -1.210000000000000E-002   -1.347135431951406E-008
 -1.200000000000000E-002   -9.650092879759117E-009
 -1.190000000000000E-002   -4.645210196388780E-009
 -1.180000000000000E-002    1.479651148268808E-009
 -1.170000000000000E-002    8.645745480183370E-009
 -1.160000000000000E-002    1.678173940741565E-008
 -1.150000000000000E-002    2.584773204225723E-008
 -1.140000000000000E-002    3.585845660011639E-008
 -1.130000000000000E-002    4.690325443488392E-008
 -1.120000000000000E-002    5.916074799360311E-008
 -1.110000000000000E-002    7.290653438017248E-008
 -1.100000000000000E-002    8.851292133168340E-008
 -1.090000000000000E-002    1.064404201202942E-007
 -1.080000000000000E-002    1.272216606168088E-007
 -1.070000000000000E-002    1.514390887789798E-007
 -1.060000000000000E-002    1.796984375848392E-007
 -1.050000000000000E-002    2.126006887254006E-007
 -1.040000000000000E-002    2.507150164042630E-007
 -1.030000000000000E-002    2.945557136044910E-007
 -1.020000000000000E-002    3.445653857862364E-007
 -1.010000000000000E-002    4.011062670861886E-007
 -1.000000000000000E-002    4.644606158267585E-007
 -9.899999999999999E-003    5.348405221421060E-007
 -9.800000000000000E-003    6.124062094929738E-007
 -9.699999999999999E-003    6.972910937709967E-007
 -9.599999999999999E-003    7.896312271229592E-007
 -9.500000000000000E-003    8.895962855319465E-007
 -9.399999999999999E-003    9.974187093825486E-007
 -9.299999999999999E-003    1.113418142666494E-006
 -9.200000000000000E-003    1.238018733350742E-006
 -9.099999999999999E-003    1.371756628003370E-006
 -8.999999999999999E-003    1.515278222353428E-006
 -8.900000000000000E-003    1.669327324060350E-006
 -8.799999999999999E-003    1.834723847428137E-006
 -8.699999999999999E-003    2.012335628791753E-006
 -8.600000000000000E-003    2.203046862554787E-006
 -8.499999999999999E-003    2.407724982540728E-006
 -8.399999999999999E-003    2.627192522073656E-006
 -8.300000000000000E-003    2.862203329265954E-006
 -8.199999999999999E-003    3.113431111038632E-006
 -8.100000000000000E-003    3.381466740747776E-006
 -8.000000000000000E-003    3.666830059483838E-006
 -7.899999999999999E-003    3.969991615618734E-006
 -7.800000000000000E-003    4.291406651298782E-006
 -7.699999999999999E-003    4.631555693194238E-006
 -7.599999999999999E-003    4.990988340088517E-006
 -7.499999999999999E-003    5.370369370026145E-006
 -7.399999999999999E-003    5.770517825878726E-006
 -7.299999999999999E-003    6.192440212251400E-006
 -7.199999999999999E-003    6.637350266330930E-006
 -7.100000000000000E-003    7.106677361019560E-006
 -6.999999999999999E-003    7.602058078495110E-006
 -6.899999999999999E-003    8.125318578105139E-006
 -6.800000000000000E-003    8.678437955506424E-006
 -6.699999999999999E-003    9.263512290583751E-006
 -6.599999999999999E-003    9.882705610271980E-006
 -6.499999999999999E-003    1.053820920481640E-005
 -6.399999999999999E-003    1.123220157011521E-005
 -6.299999999999999E-003    1.196681766635025E-005
 -6.199999999999999E-003    1.274413565038602E-005
 -6.100000000000000E-003    1.356617695852195E-005
 -5.999999999999999E-003    1.443491992309818E-005
 -5.899999999999999E-003    1.535233588232340E-005
 -5.800000000000000E-003    1.632043008397241E-005
 -5.699999999999999E-003    1.734130257396242E-005
 -5.599999999999999E-003    1.841720398501812E-005
 -5.499999999999999E-003    1.955059837448111E-005
 -5.399999999999999E-003    2.074421949845790E-005
 -5.299999999999999E-003    2.200111273689910E-005
 -5.199999999999999E-003    2.332466830799090E-005
 -5.099999999999999E-003    2.471863779675538E-005
 -4.999999999999999E-003    2.618712777132269E-005
 -4.899999999999999E-003    2.773458290528767E-005
 -4.799999999999999E-003    2.936575550228183E-005
 -4.699999999999999E-003    3.108566241865208E-005
 -4.599999999999999E-003    3.289953450102232E-005
 -4.499999999999999E-003    3.481277195545229E-005
 -4.399999999999999E-003    3.683090678084325E-005
 -4.299999999999999E-003    3.895957219593627E-005
 -4.199999999999999E-003    4.120448704947003E-005
 -4.099999999999999E-003    4.357145624449912E-005
 -3.999999999999999E-003    4.606639821884045E-005
 -3.899999999999999E-003    4.869537776716607E-005
 -3.799999999999999E-003    5.146466303339729E-005
 -3.699999999999999E-003    5.438078494531110E-005
 -3.599999999999999E-003    5.745060747331452E-005
 -3.499999999999999E-003    6.068139315238255E-005
 -3.399999999999999E-003    6.408087266641447E-005
 -3.299999999999999E-003    6.765727183290928E-005
 -3.199999999999999E-003    7.141938115054444E-005
 -3.099999999999999E-003    7.537652762738886E-005
 -2.999999999999999E-003    7.953861367875204E-005
 -2.899999999999999E-003    8.391607557112817E-005
 -2.799999999999999E-003    8.851985219146438E-005
 -2.699999999999999E-003    9.336134145986512E-005
 -2.599999999999999E-003    9.845235244125606E-005
 -2.499999999999999E-003    1.038050554825888E-004
 -2.399999999999999E-003    1.094319478573358E-004
 -2.299999999999999E-003    1.153458193134406E-004
 -2.199999999999999E-003    1.215597422949752E-004
 -2.099999999999999E-003    1.280870796480953E-004
 -1.999999999999999E-003    1.349415175566696E-004
 -1.899999999999999E-003    1.421371065345404E-004
 -1.799999999999999E-003    1.496883539022930E-004
 -1.699999999999999E-003    1.576102672899274E-004
 -1.599999999999999E-003    1.659184770762509E-004
 -1.499999999999999E-003    1.746292559324486E-004
 -1.399999999999999E-003    1.837596880349719E-004
 -1.299999999999999E-003    1.933276754022496E-004
 -1.199999999999999E-003    2.033520013410012E-004
 -1.099999999999999E-003    2.138524021998251E-004
 -9.999999999999989E-004    2.248495347864896E-004
 -8.999999999999990E-004    2.363649804248187E-004
 -7.999999999999990E-004    2.484212805034547E-004
 -6.999999999999989E-004    2.610418022613411E-004
 -5.999999999999990E-004    2.742507636474056E-004
 -4.999999999999989E-004    2.880731650160992E-004
 -3.999999999999989E-004    3.025347547778401E-004
 -2.999999999999989E-004    3.176620101301831E-004
 -1.999999999999989E-004    3.334820632434530E-004
 -9.999999999999892E-005    3.500227885486441E-004
  1.084202172485504E-018    3.673127721895413E-004
  1.000000000000011E-004    3.853813979418213E-004
  2.000000000000011E-004    4.042589079609180E-004
  3.000000000000011E-004    4.239764158687313E-004
  4.000000000000011E-004    4.445661240552769E-004
  5.000000000000011E-004    4.660613448773690E-004
  6.000000000000011E-004    4.884966246987278E-004
  7.000000000000011E-004    5.119077999424667E-004
  8.000000000000011E-004    5.363321572167724E-004
  9.000000000000012E-004    5.618084164874425E-004
  1.000000000000001E-003    5.883767291600458E-004
  1.100000000000001E-003    6.160787900319365E-004
  1.200000000000001E-003    6.449576549935755E-004
  1.300000000000001E-003    6.750579476785364E-004
  1.400000000000001E-003    7.064256126084738E-004
  1.500000000000001E-003    7.391079398123624E-004
  1.600000000000001E-003    7.731534310042173E-004
  1.700000000000001E-003    8.086118866422359E-004
  1.800000000000001E-003    8.455341484218151E-004
  1.900000000000001E-003    8.839723378089666E-004
  2.000000000000001E-003    9.239797510259039E-004
  2.100000000000001E-003    9.656108223077079E-004
  2.200000000000001E-003    1.008921334006714E-003
  2.300000000000001E-003    1.053968476280555E-003
  2.400000000000001E-003    1.100810714232731E-003
  2.500000000000001E-003    1.149508216417287E-003
  2.600000000000001E-003    1.200122843684065E-003
  2.700000000000001E-003    1.252718159040493E-003
  2.800000000000001E-003    1.307359680576327E-003
  2.900000000000001E-003    1.364114815088130E-003
  3.000000000000001E-003    1.423052918311390E-003
  3.100000000000001E-003    1.484245299835634E-003
  3.200000000000001E-003    1.547765099918793E-003
  3.300000000000001E-003    1.613687546502916E-003
  3.400000000000001E-003    1.682089501477575E-003
  3.500000000000001E-003    1.753049519927613E-003
  3.600000000000001E-003    1.826647691492516E-003
  3.700000000000001E-003    1.902965781128131E-003
  3.800000000000001E-003    1.982086683447687E-003
  3.900000000000001E-003    2.064094747169483E-003
  4.000000000000001E-003    2.149075794413833E-003
  4.100000000000001E-003    2.237116521959890E-003
  4.200000000000001E-003    2.328305354980186E-003
  4.300000000000001E-003    2.422732135696530E-003
  4.400000000000001E-003    2.520488002367227E-003
  4.500000000000001E-003    2.621665856538451E-003
  4.600000000000002E-003    2.726360036736168E-003
  4.700000000000001E-003    2.834666808345284E-003
  4.800000000000001E-003    2.946684397902711E-003
  4.900000000000002E-003    3.062512686824594E-003
  5.000000000000001E-003    3.182253690589932E-003
  5.100000000000001E-003    3.306010826240676E-003
  5.200000000000001E-003    3.433889832748321E-003
  5.300000000000002E-003    3.565997633436451E-003
  5.400000000000001E-003    3.702442626488234E-003
  5.500000000000001E-003    3.843334912980402E-003
  5.600000000000002E-003    3.988785703147745E-003
  5.700000000000001E-003    4.138907070081767E-003
  5.800000000000001E-003    4.293812050314491E-003
  5.900000000000002E-003    4.453614779274256E-003
  6.000000000000001E-003    4.618429854274730E-003
  6.100000000000001E-003    4.788372654649200E-003
  6.200000000000002E-003    4.963559499803213E-003
  6.300000000000002E-003    5.144107044814098E-003
  6.400000000000001E-003    5.330133627457581E-003
  6.500000000000001E-003    5.521758060430202E-003
  6.600000000000002E-003    5.719099774134826E-003
  6.700000000000001E-003    5.922280079089042E-003
  6.800000000000001E-003    6.131420953627264E-003
  6.900000000000002E-003    6.346644877780098E-003
  7.000000000000001E-003    6.568076375397828E-003
  7.100000000000001E-003    6.795840287675301E-003
  7.200000000000002E-003    7.030062112653213E-003
  7.300000000000002E-003    7.270868502820566E-003
  7.400000000000001E-003    7.518385537491055E-003
  7.500000000000001E-003    7.772740568019542E-003
  7.600000000000002E-003    8.034059216347800E-003
  7.700000000000001E-003    8.302468423847109E-003
  7.800000000000001E-003    8.578093151314577E-003
  7.900000000000001E-003    8.861058263263170E-003
  8.000000000000002E-003    9.151486868055624E-003
  8.100000000000001E-003    9.449501269747045E-003
  8.200000000000001E-003    9.755223613781580E-003
  8.300000000000002E-003    1.006877348898482E-002
  8.400000000000001E-003    1.039027004634290E-002
  8.500000000000002E-003    1.071983021289383E-002
  8.600000000000002E-003    1.105757071547966E-002
  8.700000000000001E-003    1.140360647342884E-002
  8.800000000000002E-003    1.175805128456887E-002
  8.900000000000002E-003    1.212101756116570E-002
  9.000000000000001E-003    1.249261628000291E-002
  9.100000000000002E-003    1.287295586780939E-002
  9.200000000000002E-003    1.326214339215952E-002
  9.300000000000001E-003    1.366028363470667E-002
  9.400000000000002E-003    1.406747959315653E-002
  9.500000000000001E-003    1.448383044471336E-002
  9.600000000000001E-003    1.490943212294500E-002
  9.700000000000002E-003    1.534437802791581E-002
  9.800000000000001E-003    1.578875765438132E-002
  9.900000000000001E-003    1.624265534416217E-002
  1.000000000000000E-002    1.670615105841431E-002
  1.010000000000000E-002    1.717932136560103E-002
  1.020000000000000E-002    1.766223844675792E-002
  1.030000000000000E-002    1.815496858370149E-002
  1.040000000000000E-002    1.865757633068846E-002
  1.050000000000000E-002    1.917011633805624E-002
  1.060000000000000E-002    1.969264126359632E-002
  1.070000000000000E-002    2.022520011653418E-002
  1.080000000000000E-002    2.076783473972144E-002
  1.090000000000000E-002    2.132058475107703E-002
  1.100000000000000E-002    2.188348179831937E-002
  1.110000000000000E-002    2.245655345934628E-002
  1.120000000000000E-002    2.303982140866221E-002
  1.130000000000000E-002    2.363330508809538E-002
  1.140000000000000E-002    2.423701372771103E-002
  1.150000000000000E-002    2.485095333979161E-002
  1.160000000000000E-002    2.547512219312648E-002
  1.170000000000000E-002    2.610951094420779E-002
  1.180000000000000E-002    2.675410525416715E-002
  1.190000000000000E-002    2.740888214405299E-002
  1.200000000000000E-002    2.807381108958445E-002
  1.210000000000000E-002    2.874885438477317E-002
  1.220000000000000E-002    2.943396703132477E-002
  1.230000000000000E-002    3.012909670690787E-002
  1.240000000000000E-002    3.083418354744587E-002
  1.250000000000000E-002    3.154916013355440E-002
  1.260000000000000E-002    3.227395323920507E-002
  1.270000000000000E-002    3.300848150780630E-002
  1.280000000000000E-002    3.375265399227009E-002
  1.290000000000000E-002    3.450637607800230E-002
  1.300000000000000E-002    3.526954714601140E-002
  1.310000000000000E-002    3.604205886260645E-002
  1.320000000000000E-002    3.682379406094607E-002
  1.330000000000000E-002    3.761463301069713E-002
  1.340000000000000E-002    3.841444814699014E-002
  1.350000000000000E-002    3.922310238628076E-002
  1.360000000000000E-002    4.004044976517245E-002
  1.370000000000000E-002    4.086634798977359E-002
  1.380000000000000E-002    4.170063594921571E-002
  1.390000000000000E-002    4.254315431607634E-002
  1.400000000000000E-002    4.339372811409625E-002
  1.410000000000000E-002    4.425218443908739E-002
  1.420000000000000E-002    4.511833523239446E-002
  1.430000000000000E-002    4.599199269657519E-002
  1.440000000000000E-002    4.687295977758873E-002
  1.450000000000000E-002    4.776103320760487E-002
  1.460000000000000E-002    4.865600624399867E-002
  1.470000000000000E-002    4.955766385141940E-002
  1.480000000000000E-002    5.046578834852904E-002
  1.490000000000000E-002    5.138015710143036E-002
  1.500000000000000E-002    5.230054650771372E-002
  1.510000000000000E-002    5.322672217156039E-002
  1.520000000000000E-002    5.415845408181526E-002
  1.530000000000000E-002    5.509550000545951E-002
  1.540000000000000E-002    5.603762136344469E-002
  1.550000000000000E-002    5.698457720939930E-002
  1.560000000000000E-002    5.793611637557058E-002
  1.570000000000000E-002    5.889199285840625E-002
  1.580000000000000E-002    5.985195373367264E-002
  1.590000000000000E-002    6.081574548533459E-002
  1.600000000000000E-002    6.178310921791910E-002
  1.610000000000000E-002    6.275379131591942E-002
  1.620000000000000E-002    6.372753119151262E-002
  1.630000000000000E-002    6.470407340977916E-002
  1.640000000000000E-002    6.568315193052786E-002
  1.650000000000000E-002    6.666451321023283E-002
  1.660000000000000E-002    6.764790272934471E-002
  1.670000000000000E-002    6.863306224528909E-002
  1.680000000000000E-002    6.961974312974055E-002
  1.690000000000000E-002    7.060769145100258E-002
  1.700000000000000E-002    7.159666395101587E-002
  1.710000000000000E-002    7.258642064239081E-002
  1.720000000000000E-002    7.357672535356222E-002
  1.730000000000000E-002    7.456733916508693E-002
  1.740000000000000E-002    7.555804227696625E-002
  1.750000000000000E-002    7.654861572757717E-002
  1.760000000000000E-002    7.753883964706358E-002
  1.770000000000000E-002    7.852851147971328E-002
  1.780000000000000E-002    7.951743030817407E-002
  1.790000000000000E-002    8.050539608021902E-002
  1.800000000000000E-002    8.149222555863110E-002
  1.810000000000000E-002    8.247774886637942E-002
  1.820000000000000E-002    8.346179311194697E-002
  1.830000000000000E-002    8.444419862200134E-002
  1.840000000000000E-002    8.542482965821464E-002
  1.850000000000000E-002    8.640354531484624E-002
  1.860000000000000E-002    8.738022276557120E-002
  1.870000000000000E-002    8.835475386598068E-002