 -4.000000000000000E-002    0.000000000000000E+000
 -3.990000000000000E-002    0.000000000000000E+000
 -3.980000000000000E-002    0.000000000000000E+000
 -3.970000000000000E-002    0.000000000000000E+000
 -3.960000000000000E-002    0.000000000000000E+000
 -3.950000000000000E-002    0.000000000000000E+000
 -3.940000000000000E-002    0.000000000000000E+000
 -3.930000000000000E-002    0.000000000000000E+000
 -3.920000000000000E-002    0.000000000000000E+000
 -3.910000000000000E-002    0.000000000000000E+000
 -3.900000000000000E-002    0.000000000000000E+000
 -3.890000000000000E-002    0.000000000000000E+000
 -3.880000000000000E-002    0.000000000000000E+000
 -3.870000000000000E-002    0.000000000000000E+000
 -3.860000000000000E-002    0.000000000000000E+000
 -3.850000000000000E-002    0.000000000000000E+000
 -3.840000000000000E-002    0.000000000000000E+000
 -3.830000000000000E-002    0.000000000000000E+000
 -3.820000000000000E-002    0.000000000000000E+000
 -3.810000000000000E-002    0.000000000000000E+000
 -3.800000000000000E-002    0.000000000000000E+000
 -3.790000000000000E-002    0.000000000000000E+000
 -3.780000000000000E-002    0.000000000000000E+000
 -3.770000000000000E-002    0.000000000000000E+000
 -3.760000000000000E-002    0.000000000000000E+000
 -3.750000000000000E-002    0.000000000000000E+000
 -3.740000000000000E-002    0.000000000000000E+000
 -3.730000000000000E-002    0.000000000000000E+000
 -3.720000000000000E-002    0.000000000000000E+000
 -3.710000000000000E-002    0.000000000000000E+000
 -3.700000000000000E-002    0.000000000000000E+000
 -3.690000000000000E-002    0.000000000000000E+000
 -3.680000000000000E-002    0.000000000000000E+000
 -3.670000000000000E-002    0.000000000000000E+000
 -3.660000000000000E-002    0.000000000000000E+000
 -3.650000000000000E-002    0.000000000000000E+000
 -3.640000000000000E-002    0.000000000000000E+000
 -3.630000000000000E-002    0.000000000000000E+000
 -3.620000000000000E-002    0.000000000000000E+000
 -3.610000000000000E-002    0.000000000000000E+000
 -3.600000000000000E-002    0.000000000000000E+000
 -3.590000000000000E-002    0.000000000000000E+000
 -3.580000000000000E-002    0.000000000000000E+000
 -3.570000000000000E-002    0.000000000000000E+000
 -3.560000000000000E-002    0.000000000000000E+000
 -3.550000000000000E-002    0.000000000000000E+000
 -3.540000000000000E-002    0.000000000000000E+000
 -3.530000000000000E-002    0.000000000000000E+000
 -3.520000000000000E-002    0.000000000000000E+000
 -3.510000000000000E-002    0.000000000000000E+000
 -3.500000000000000E-002    0.000000000000000E+000
 -3.490000000000000E-002    0.000000000000000E+000
 -3.480000000000000E-002    0.000000000000000E+000
 -3.470000000000000E-002    0.000000000000000E+000
 -3.460000000000000E-002    0.000000000000000E+000
 -3.450000000000000E-002    0.000000000000000E+000
 -3.440000000000000E-002    0.000000000000000E+000
 -3.430000000000000E-002    0.000000000000000E+000
 -3.420000000000000E-002    0.000000000000000E+000
 -3.410000000000000E-002    0.000000000000000E+000
 -3.400000000000000E-002    0.000000000000000E+000
 -3.390000000000000E-002    9.935551701912279E-048
 -3.380000000000000E-002   -1.469773564059227E-047
 -3.370000000000000E-002   -3.278259112345595E-047
 -3.360000000000000E-002   -4.093189490440735E-047
 -3.350000000000000E-002   -2.582297543926278E-047
 -3.340000000000000E-002    6.458587233635480E-047
 -3.330000000000000E-002    2.924247513054479E-046
 -3.320000000000000E-002    8.931619705375600E-046
 -3.310000000000000E-002    2.002237371910612E-045
 -3.300000000000000E-002    3.938808276536179E-045
 -3.290000000000000E-002    6.710615347963256E-045
 -3.280000000000000E-002    1.109646832560137E-044
 -3.270000000000000E-002    1.658750845253413E-044
 -3.260000000000000E-002    2.196822344531294E-044
 -3.250000000000000E-002    2.653530410881667E-044
 -3.240000000000000E-002    2.422707060468157E-044
 -3.230000000000000E-002    7.397911127497088E-045
 -3.220000000000000E-002   -3.988907695802826E-044
 -3.210000000000000E-002   -1.379266858751030E-043
 -3.200000000000000E-002   -3.177036085166145E-043
 -3.190000000000000E-002   -6.159170776054689E-043
 -3.180000000000000E-002   -1.072309580143310E-042
 -3.170000000000000E-002   -1.714560536555868E-042
 -3.160000000000000E-002   -2.530877719510132E-042
 -3.150000000000000E-002   -3.428315349112376E-042
 -3.140000000000000E-002   -4.170839256923848E-042
 -3.130000000000000E-002   -4.290808118602866E-042
 -3.120000000000000E-002   -2.985520395019990E-042
 -3.110000000000000E-002    9.885474962100052E-043
 -3.100000000000000E-002    9.384609979224436E-042
 -3.090000000000000E-002    2.444150979017252E-041
 -3.080000000000000E-002    4.867349668174493E-041
 -3.070000000000000E-002    8.434560834091422E-041
 -3.060000000000000E-002    1.324840347119975E-040
 -3.050000000000000E-002    1.912601690941977E-040
 -3.040000000000000E-002    2.536270284074759E-040
 -3.030000000000000E-002    3.041919941005877E-040
 -3.020000000000000E-002    3.155280586154331E-040
 -3.010000000000000E-002    2.444680410659896E-040
 -3.000000000000000E-002    2.945165227131027E-041
 -2.990000000000000E-002   -4.093764854388088E-040
 -2.980000000000000E-002   -1.164848116596843E-039
 -2.970000000000000E-002   -2.329060692278060E-039
 -2.960000000000000E-002   -3.967656899309591E-039
 -2.950000000000000E-002   -6.078623813402753E-039
 -2.940000000000000E-002   -8.533313113527371E-039
 -2.930000000000000E-002   -1.100014097860485E-038
 -2.920000000000000E-002   -1.285620408153390E-038
 -2.910000000000000E-002   -1.309929702376693E-038
 -2.900000000000000E-002   -1.028253645757974E-038
 -2.890000000000000E-002   -2.505393665079163E-039
 -2.880000000000000E-002    1.249285590048941E-038
 -2.870000000000000E-002    3.708109511191527E-038
 -2.860000000000000E-002    7.326526527091259E-038
 -2.850000000000000E-002    1.219443437801871E-037
 -2.840000000000000E-002    1.818630152503675E-037
 -2.830000000000000E-002    2.482776697442986E-037
 -2.820000000000000E-002    3.114272660643378E-037
 -2.810000000000000E-002    3.550067387583095E-037
 -2.800000000000000E-002    3.549740662334106E-037
 -2.790000000000000E-002    2.791727337676789E-037
 -2.780000000000000E-002    8.839851355285019E-038
 -2.770000000000000E-002   -2.603504530085044E-037
 -2.760000000000000E-002   -8.076723794624152E-037
 -2.750000000000000E-002   -1.581948410872697E-036
 -2.740000000000000E-002   -2.585559251842911E-036
 -2.730000000000000E-002   -3.777334701913064E-036
 -2.720000000000000E-002   -5.052282598552185E-036
 -2.710000000000000E-002   -6.220804057415000E-036
 -2.700000000000000E-002   -6.990997099494984E-036
 -2.690000000000000E-002   -6.959216918244045E-036
 -2.680000000000000E-002   -5.615537258094143E-036
 -2.670000000000000E-002   -2.371899851038584E-036
 -2.660000000000000E-002    3.378882636380843E-036
 -2.650000000000000E-002    1.216592721953218E-035
 -2.640000000000000E-002    2.430015194632754E-035
 -2.630000000000000E-002    3.969124095086839E-035
 -2.620000000000000E-002    5.762914487323158E-035
 -2.610000000000000E-002    7.654767630988844E-035
 -2.600000000000000E-002    9.380049903335583E-035
 -2.590000000000000E-002    1.054941067813751E-034
 -2.580000000000000E-002    1.064372945445247E-034
 -2.570000000000000E-002    9.027945391849384E-035
 -2.560000000000000E-002    4.991785689491248E-035
 -2.550000000000000E-002   -2.174707784159131E-035
 -2.540000000000000E-002   -1.306446433044885E-034
 -2.530000000000000E-002   -2.799242227764863E-034
 -2.520000000000000E-002   -4.679301992129506E-034
 -2.510000000000000E-002   -6.858710982236790E-034
 -2.500000000000000E-002   -9.154037607766022E-034
 -2.490000000000000E-002   -1.126485267972338E-033
 -2.480000000000000E-002   -1.275990959497974E-033
 -2.470000000000000E-002   -1.307734687129422E-033
 -2.460000000000000E-002   -1.154629880139418E-033
 -2.450000000000000E-002   -7.437619417546752E-034
 -2.440000000000000E-002   -5.052770057543571E-036
 -2.430000000000000E-002    1.116054135543374E-033
 -2.420000000000000E-002    2.641926807613254E-033
 -2.410000000000000E-002    4.542839261962306E-033
 -2.400000000000000E-002    6.715515637366829E-033
 -2.390000000000000E-002    8.962952703517848E-033
 -2.380000000000000E-002    1.097956415437484E-032
 -2.370000000000000E-002    1.234681742114188E-032
 -2.360000000000000E-002    1.254529461197869E-032
 -2.350000000000000E-002    1.098918067245093E-032
 -2.340000000000000E-002    7.088218196902115E-033
 -2.330000000000000E-002    3.398074668173796E-034
 -2.320000000000000E-002   -9.550071211156865E-033
 -2.310000000000000E-002   -2.252411314038575E-032
 -2.300000000000000E-002   -3.802327982738442E-032
 -2.290000000000000E-002   -5.485079518403528E-032
 -2.280000000000000E-002   -7.108031827155435E-032
 -2.270000000000000E-002   -8.404376926229490E-032
 -2.260000000000000E-002   -9.043633990640285E-032
 -2.250000000000000E-002   -8.657223869922005E-032
 -2.240000000000000E-002   -6.881291525735131E-032
 -2.230000000000000E-002   -3.416848552624840E-032
 -2.220000000000000E-002    1.895704134693692E-032
 -2.210000000000000E-002    8.994443936110310E-032
 -2.200000000000000E-002    1.751714467361347E-031
 -2.190000000000000E-002    2.674079096811928E-031
 -2.180000000000000E-002    3.555730656749393E-031
 -2.170000000000000E-002    4.250431866020099E-031
 -2.160000000000000E-002    4.586762722871018E-031
 -2.150000000000000E-002    4.386603346446635E-031
 -2.140000000000000E-002    3.491872604672739E-031
 -2.130000000000000E-002    1.798073748433572E-031
 -2.120000000000000E-002   -7.085839643817315E-032
 -2.110000000000000E-002   -3.915626863903050E-031
 -2.100000000000000E-002   -7.557169621625432E-031
 -2.090000000000000E-002   -1.120317026793320E-030
 -2.080000000000000E-002   -1.427319473551738E-030
 -2.070000000000000E-002   -1.608147228777606E-030
 -2.060000000000000E-002   -1.591701971001611E-030
 -2.050000000000000E-002   -1.315771458295018E-030
 -2.040000000000000E-002   -7.410703016612925E-031
 -2.030000000000000E-002    1.336000694336667E-031
 -2.020000000000000E-002    1.257347131549295E-030
 -2.010000000000000E-002    2.517244296217754E-030
 -2.000000000000000E-002    3.735694391553012E-030
 -1.990000000000000E-002    4.678234260344401E-030
 -1.980000000000000E-002    5.074189261622949E-030
 -1.970000000000000E-002    4.651208910909016E-030
 -1.960000000000000E-002    3.182627892163225E-030
 -1.950000000000000E-002    5.440091653626606E-031
 -1.940000000000000E-002   -3.227660012575936E-030
 -1.930000000000000E-002   -7.881360643277312E-030
 -1.920000000000000E-002   -1.291734291110157E-029
 -1.910000000000000E-002   -1.758243579590941E-029
 -1.900000000000000E-002   -2.090650747521632E-029
 -1.890000000000000E-002   -2.178803765864980E-029
 -1.880000000000000E-002   -1.913113677970263E-029
 -1.870000000000000E-002   -1.202872638336375E-029
 -1.860000000000000E-002    2.286620682229928E-032
 -1.850000000000000E-002    1.690235769954822E-029
 -1.840000000000000E-002    3.766837633062295E-029
 -1.830000000000000E-002    6.043031361017706E-029
 -1.820000000000000E-002    8.232643199282534E-029
 -1.810000000000000E-002    9.964612721223831E-029
 -1.800000000000000E-002    1.081219453455553E-028
 -1.790000000000000E-002    1.033982290254994E-028
 -1.780000000000000E-002    8.165807534252928E-029
 -1.770000000000000E-002    4.036147773395262E-029
 -1.760000000000000E-002   -2.098314483500905E-029
 -1.750000000000000E-002   -1.001180327942085E-028
 -1.740000000000000E-002   -1.915285577765549E-028
 -1.730000000000000E-002   -2.862572524107827E-028
 -1.720000000000000E-002   -3.721555499507489E-028
 -1.710000000000000E-002   -4.346590493537018E-028
 -1.700000000000000E-002   -4.581203780498579E-028
 -1.690000000000000E-002   -4.276666303456910E-028
 -1.680000000000000E-002   -3.314672955531316E-028
 -1.670000000000000E-002   -1.632153451435689E-028
 -1.660000000000000E-002    7.545539897197702E-029
 -1.650000000000000E-002    3.729538716431886E-028
 -1.640000000000000E-002    7.064878461908677E-028
 -1.630000000000000E-002    1.041959342794981E-027
 -1.620000000000000E-002    1.335316508653284E-027
 -1.610000000000000E-002    1.535580831523119E-027
 -1.600000000000000E-002    1.589619912085745E-027
 -1.590000000000000E-002    1.448545320599930E-027
 -1.580000000000000E-002    1.075390649061203E-027
 -1.570000000000000E-002    4.534752531598886E-028
 -1.560000000000000E-002   -4.053824086940805E-028
 -1.550000000000000E-002   -1.453866638837995E-027
 -1.540000000000000E-002   -2.604610570467186E-027
 -1.530000000000000E-002   -3.729411730445291E-027
 -1.520000000000000E-002   -4.663499002797121E-027
 -1.510000000000000E-002   -5.215943703125222E-027
 -1.500000000000000E-002   -5.186909184109549E-027
 -1.490000000000000E-002   -4.391822375504337E-027
 -1.480000000000000E-002   -2.691678966647665E-027
 -1.470000000000000E-002   -2.762884879907165E-029
 -1.460000000000000E-002    3.543284307439090E-027
 -1.450000000000000E-002    7.815652421016138E-027
 -1.440000000000000E-002    1.241216473728722E-026
 -1.430000000000000E-002    1.677553027989270E-026
 -1.420000000000000E-002    2.018272232757751E-026
 -1.410000000000000E-002    2.178781773576156E-026
 -1.400000000000000E-002    2.069790700372893E-026
 -1.390000000000000E-002    1.608353503388077E-026
 -1.380000000000000E-002    7.320504690972847E-027
 -1.370000000000000E-002   -5.845890250607191E-027
 -1.360000000000000E-002   -2.312986065099485E-026
 -1.350000000000000E-002   -4.354975638195193E-026
 -1.340000000000000E-002   -6.531685086059925E-026
 -1.330000000000000E-002   -8.580045707214145E-026
 -1.320000000000000E-002   -1.016019528530160E-025
 -1.310000000000000E-002   -1.087657203288717E-025
 -1.300000000000000E-002   -1.031446446028030E-025
 -1.290000000000000E-002   -8.092101186572685E-026
 -1.280000000000000E-002   -3.926106975522732E-026
 -1.270000000000000E-002    2.294554435750722E-026
 -1.260000000000000E-002    1.043394041496513E-025
 -1.250000000000000E-002    2.004424511886011E-025
 -1.240000000000000E-002    3.032316327824095E-025
 -1.230000000000000E-002    4.010684748390098E-025
 -1.220000000000000E-002    4.791091928116222E-025
 -1.210000000000000E-002    5.202911643998862E-025
 -1.200000000000000E-002    5.069390683028663E-025
 -1.190000000000000E-002    4.229600809934775E-025
 -1.180000000000000E-002    2.565057046735043E-025
 -1.170000000000000E-002    2.875717402121058E-027
 -1.160000000000000E-002   -3.326590501766147E-025
 -1.150000000000000E-002   -7.325226497467865E-025
 -1.140000000000000E-002   -1.165444612736623E-024
 -1.130000000000000E-002   -1.586472742450926E-024
 -1.120000000000000E-002   -1.938784861035219E-024
 -1.110000000000000E-002   -2.157563148764056E-024
 -1.100000000000000E-002   -2.175995647015782E-024
 -1.090000000000000E-002   -1.933202604704098E-024
 -1.080000000000000E-002   -1.383586195912613E-024
 -1.070000000000000E-002   -5.067818017819117E-025
 -1.060000000000000E-002    6.828929118536649E-025
 -1.050000000000000E-002    2.128812628786520E-024
 -1.040000000000000E-002    3.727665145789106E-024
 -1.030000000000000E-002    5.329680834078728E-024
 -1.020000000000000E-002    6.744598081936214E-024
 -1.010000000000000E-002    7.754046387349107E-024
 -1.000000000000000E-002    8.130434588550798E-024
 -9.899999999999999E-003    7.661633294696209E-024
 -9.800000000000000E-003    6.179925505849792E-024
 -9.699999999999999E-003    3.592804944217918E-024
 -9.599999999999999E-003   -8.751194478004607E-026
 -9.500000000000000E-003   -4.719600539914090E-024
 -9.399999999999999E-003   -1.001731991538262E-023
 -9.299999999999999E-003   -1.554711617781233E-023
 -9.200000000000000E-003   -2.074136042338606E-023
 -9.099999999999999E-003   -2.492986299405626E-023
 -8.999999999999999E-003   -2.739020441822196E-023
 -8.900000000000000E-003   -2.741559215859761E-023
 -8.799999999999999E-003   -2.439678232962887E-023
 -8.699999999999999E-003   -1.791241478466856E-023
 -8.600000000000000E-003   -7.819922184027023E-024
 -8.499999999999999E-003    5.662494903084474E-024
 -8.399999999999999E-003    2.189357399871495E-023
 -8.300000000000000E-003    3.977737520473227E-023
 -8.199999999999999E-003    5.777266495561449E-023
 -8.100000000000000E-003    7.395174022829363E-023
 -8.000000000000000E-003    8.611397045037704E-023
 -7.899999999999999E-003    9.195508661660013E-023
 -7.800000000000000E-003    8.928761061528733E-023
 -7.699999999999999E-003    7.630173841413212E-023
 -7.599999999999999E-003    5.184931200113410E-023
 -7.499999999999999E-003    1.572679040250444E-023
 -7.399999999999999E-003   -3.107243891135023E-023
 -7.299999999999999E-003   -8.617032606109771E-023
 -7.199999999999999E-003   -1.457165573633776E-022
 -7.100000000000000E-003   -2.044352682890017E-022
 -6.999999999999999E-003   -2.558347839936711E-022
 -6.899999999999999E-003   -2.925988850653526E-022
 -6.800000000000000E-003   -3.071638666621464E-022
 -6.699999999999999E-003   -2.924666316886041E-022
 -6.599999999999999E-003   -2.428264642234166E-022
 -6.499999999999999E-003   -1.548995023393813E-022
 -6.399999999999999E-003   -2.862026374030146E-023
 -6.299999999999999E-003    1.319754047323678E-022
 -6.199999999999999E-003    3.181662094963691E-022
 -6.100000000000000E-003    5.163249942089052E-022
 -5.999999999999999E-003    7.081780314612211E-022
 -5.899999999999999E-003    8.716366640810078E-022
 -5.800000000000000E-003    9.822520905910790E-022
 -5.699999999999999E-003    1.015288667262675E-021
 -5.599999999999999E-003    9.483381144240619E-022
 -5.499999999999999E-003    7.643188030444809E-022
 -5.399999999999999E-003    4.546200116908548E-022
 -5.299999999999999E-003    2.207819175977424E-023
 -5.199999999999999E-003   -5.165858473702441E-022
 -5.099999999999999E-003   -1.129269955049981E-021
 -4.999999999999999E-003   -1.768321375130076E-021
 -4.899999999999999E-003   -2.372028242185687E-021
 -4.799999999999999E-003   -2.867994117884892E-021
 -4.699999999999999E-003   -3.178460287996013E-021
 -4.599999999999999E-003   -3.227436346636234E-021
 -4.499999999999999E-003   -2.949269003187748E-021
 -4.399999999999999E-003   -2.298032093895173E-021
 -4.299999999999999E-003   -1.256901308938596E-021
 -4.199999999999999E-003    1.535152202139116E-022
 -4.099999999999999E-003    1.869016327433876E-021
 -3.999999999999999E-003    3.778960180410837E-021
 -3.899999999999999E-003    5.727743994555352E-021
 -3.799999999999999E-003    7.521382675138904E-021
 -3.699999999999999E-003    8.939552904495775E-021
 -3.599999999999999E-003    9.752981814273599E-021
 -3.499999999999999E-003    9.745450852152662E-021
 -3.399999999999999E-003    8.739038096525432E-021
 -3.299999999999999E-003    6.620649781834384E-021
 -3.199999999999999E-003    3.367302108128304E-021
 -3.099999999999999E-003   -9.326890489682845E-022
 -2.999999999999999E-003   -6.065631285121210E-021
 -2.899999999999999E-003   -1.168834927469441E-020
 -2.799999999999999E-003   -1.733642586508591E-020
 -2.699999999999999E-003   -2.244639360191760E-020
 -2.599999999999999E-003   -2.639237786594262E-020
 -2.499999999999999E-003   -2.853627003107914E-020
 -2.399999999999999E-003   -2.828909001999375E-020
 -2.299999999999999E-003   -2.517957601023846E-020
 -2.199999999999999E-003   -1.892459039885905E-020
 -2.099999999999999E-003   -9.494755658313260E-021
 -1.999999999999999E-003    2.832029989951876E-021
 -1.899999999999999E-003    1.743672764535186E-020
 -1.799999999999999E-003    3.335204182883069E-020
 -1.699999999999999E-003    4.928779467871353E-020
 -1.599999999999999E-003    6.369261760394345E-020
 -1.499999999999999E-003    7.485287625773752E-020
 -1.399999999999999E-003    8.102660175176194E-020
 -1.299999999999999E-003    8.060616172220582E-020
 -1.199999999999999E-003    7.229978438133305E-020
 -1.099999999999999E-003    5.531813256205200E-020
 -9.999999999999989E-004    2.954928653012310E-020
 -8.999999999999990E-004   -4.296852146363129E-021
 -7.999999999999990E-004   -4.459432500667307E-020
 -6.999999999999989E-004   -8.877581213071981E-020
 -5.999999999999990E-004   -1.333919692597513E-019
 -4.999999999999989E-004   -1.742664120828445E-019
 -3.999999999999989E-004   -2.067502511417671E-019
 -2.999999999999989E-004   -2.260716359098039E-019
 -1.999999999999989E-004   -2.277657395205201E-019
 -9.999999999999892E-005   -2.081598849059107E-019
  1.084202172485504E-018   -1.648789419884294E-019
  1.000000000000011E-004   -9.732649932353051E-020
  2.000000000000011E-004   -7.091415177002058E-021
  3.000000000000011E-004    1.017738691602031E-019
  4.000000000000011E-004    2.226548043750768E-019
  5.000000000000011E-004    3.465009083288037E-019
  6.000000000000011E-004    4.622083510686360E-019
  7.000000000000011E-004    5.572726252498831E-019
  8.000000000000011E-004    6.187015904453756E-019
  9.000000000000012E-004    6.341514014606147E-019
  1.000000000000001E-003    5.932209424699508E-019
  1.100000000000001E-003    4.888097695511238E-019
  1.200000000000001E-003    3.184232990064414E-019
  1.300000000000001E-003    8.528939720690785E-020
  1.400000000000001E-003   -2.008562619355495E-019
  1.500000000000001E-003   -5.234529619160789E-019
  1.600000000000001E-003   -8.593847854758045E-019
  1.700000000000001E-003   -1.179920977326835E-018
  1.800000000000001E-003   -1.452361995945954E-018
  1.900000000000001E-003   -1.642364266354470E-018
  2.000000000000001E-003   -1.716847946179312E-018
  2.100000000000001E-003   -1.647318514783668E-018
  2.200000000000001E-003   -1.413362135586182E-018
  2.300000000000001E-003   -1.006018004820388E-018
  2.400000000000001E-003   -4.306872268061139E-019
  2.500000000000001E-003    2.907748937725216E-019
  2.600000000000001E-003    1.119123101512482E-018
  2.700000000000001E-003    1.998231096854250E-018
  2.800000000000001E-003    2.857249235941593E-018
  2.900000000000001E-003    3.614491669621130E-018
  3.000000000000001E-003    4.182995149141740E-018
  3.100000000000001E-003    4.477516837632312E-018
  3.200000000000001E-003    4.422575996187089E-018
  3.300000000000001E-003    3.960979526131089E-018
  3.400000000000001E-003    3.062138292731482E-018
  3.500000000000001E-003    1.729385465141009E-018
  3.600000000000001E-003    5.474161144571219E-021
  3.700000000000001E-003   -2.024542161343972E-018
  3.800000000000001E-003   -4.233726350901967E-018
  3.900000000000001E-003   -6.457476302253479E-018
  4.000000000000001E-003   -8.501780263940086E-018
  4.100000000000001E-003   -1.015543742004857E-017
  4.200000000000001E-003   -1.120580168440367E-017
  4.300000000000001E-003   -1.145722483098040E-017
  4.400000000000001E-003   -1.075103262786568E-017
  4.500000000000001E-003   -8.985516355330838E-018
  4.600000000000002E-003   -6.134219845409001E-018
  4.700000000000001E-003   -2.260655206854689E-018
  4.800000000000001E-003    2.472392625561812E-018
  4.900000000000002E-003    7.800637738729017E-018
  5.000000000000001E-003    1.336445507388274E-017
  5.100000000000001E-003    1.872424425743643E-017
  5.200000000000001E-003    2.338514295051524E-017
  5.300000000000002E-003    2.683045838382481E-017
  5.400000000000001E-003    2.856236475697323E-017
  5.500000000000001E-003    2.814753309490914E-017
  5.600000000000002E-003    2.526461624405902E-017
  5.700000000000001E-003    1.974983050061218E-017
  5.800000000000001E-003    1.163645964015113E-017
  5.900000000000002E-003    1.183955498027462E-018
  6.000000000000001E-003   -1.110747946923609E-017
  6.100000000000001E-003   -2.450040753316889E-017
  6.200000000000002E-003   -3.804431717015333E-017
  6.300000000000002E-003   -5.062174081360638E-017
  6.400000000000001E-003   -6.101578461041772E-017
  6.500000000000001E-003   -6.799694460526981E-017
  6.600000000000002E-003   -7.042470221979577E-017
  6.700000000000001E-003   -6.735784917595204E-017
  6.800000000000001E-003   -5.816540385885521E-017
  6.900000000000002E-003   -4.262896561033764E-017
  7.000000000000001E-003   -2.102642566232444E-017
  7.100000000000001E-003    5.812929000403299E-018
  7.200000000000002E-003    3.649106909734669E-017
  7.300000000000002E-003    6.906891253440217E-017
  7.400000000000001E-003    1.011438109016796E-016
  7.500000000000001E-003    1.299778423659828E-016
  7.600000000000002E-003    1.526740984145581E-016
  7.700000000000001E-003    1.663932284666302E-016
  7.800000000000001E-003    1.685984960206307E-016
  7.900000000000001E-003    1.573127839795730E-016
  8.000000000000002E-003    1.313680525521329E-016
  8.100000000000001E-003    9.062512332661813E-017
  8.200000000000001E-003    3.614111131390600E-017
  8.300000000000002E-003   -2.973733287867194E-017
  8.400000000000001E-003   -1.033736136282691E-016
  8.500000000000002E-003   -1.799471826230120E-016
  8.600000000000002E-003   -2.536727798465063E-016
  8.700000000000001E-003   -3.181311831134500E-016
  8.800000000000002E-003   -3.667002413284234E-016
  8.900000000000002E-003   -3.930650996988292E-016
  9.000000000000001E-003   -3.917770882018576E-016
  9.100000000000002E-003   -3.588223875717209E-016
  9.200000000000002E-003   -2.921552889420426E-016
  9.300000000000001E-003   -1.921477903552006E-016
  9.400000000000002E-003   -6.190724741076881E-017
  9.500000000000001E-003    9.258214729260085E-017
  9.600000000000001E-003    2.625299196878112E-016
  9.700000000000002E-003    4.366453029492115E-016
  9.800000000000001E-003    6.016866592113484E-016
  9.900000000000001E-003    7.432434579763297E-016
  1.000000000000000E-002    8.467203294013369E-016
  1.010000000000000E-002    8.984715093484840E-016
  1.020000000000000E-002    8.870159756636423E-016
  1.030000000000000E-002    8.042479025449514E-016
  1.040000000000000E-002    6.465456846325126E-016
  1.050000000000000E-002    4.156772999132959E-016
  1.060000000000000E-002    1.194042457714762E-016
  1.070000000000000E-002   -2.283047028387412E-016
  1.080000000000000E-002   -6.075188382989277E-016
  1.090000000000000E-002   -9.930915362872122E-016
  1.100000000000000E-002   -1.355916113694861E-015
  1.110000000000000E-002   -1.664659013221669E-015
  1.120000000000000E-002   -1.887901193071504E-015
  1.130000000000000E-002   -1.996570631631533E-015
  1.140000000000000E-002   -1.966518054509374E-015
  1.150000000000000E-002   -1.781051560164314E-015
  1.160000000000000E-002   -1.433229833488872E-015
  1.170000000000000E-002   -9.277004090061759E-016
  1.180000000000000E-002   -2.818848128094894E-016
  1.190000000000000E-002    4.736705627357940E-016
  1.200000000000000E-002    1.295911775129869E-015
  1.210000000000000E-002    2.130940688943885E-015
  1.220000000000000E-002    2.916731523237357E-015
  1.230000000000000E-002    3.586829046920878E-015
  1.240000000000000E-002    4.074863247890278E-015
  1.250000000000000E-002    4.319643153101434E-015
  1.260000000000000E-002    4.270506882047138E-015
  1.270000000000000E-002    3.892549359749869E-015
  1.280000000000000E-002    3.171310432171319E-015
  1.290000000000000E-002    2.116495383607212E-015
  1.300000000000000E-002    7.643181993830222E-016
  1.310000000000000E-002   -8.218812616688984E-016
  1.320000000000000E-002   -2.553009483600999E-015
  1.330000000000000E-002   -4.317723725239039E-015
  1.340000000000000E-002   -5.988060737810290E-015
  1.350000000000000E-002   -7.427021228600627E-015
  1.360000000000000E-002   -8.497774058629253E-015
  1.370000000000000E-002   -9.073973266536869E-015
  1.380000000000000E-002   -9.050540997843668E-015
  1.390000000000000E-002   -8.354151083651242E-015
  1.400000000000000E-002   -6.952592626389331E-015
  1.410000000000000E-002   -4.862168140666857E-015
  1.420000000000000E-002   -2.152337126210035E-015
  1.430000000000000E-002    1.053062979523541E-015
  1.440000000000000E-002    4.578514634743066E-015
  1.450000000000000E-002    8.203684902888095E-015
  1.460000000000000E-002    1.167442782272473E-014
  1.470000000000000E-002    1.471757769946829E-014
  1.480000000000000E-002    1.705886880385894E-014
  1.490000000000000E-002    1.844300653514655E-014
  1.500000000000000E-002    1.865463589447996E-014
  1.510000000000000E-002    1.753878018383248E-014
  1.520000000000000E-002    1.501916539615665E-014
  1.530000000000000E-002    1.111284823510481E-014
  1.540000000000000E-002    5.939674847023175E-015
  1.550000000000000E-002   -2.747188019649215E-016
  1.560000000000000E-002   -7.203274251814900E-015
  1.570000000000000E-002   -1.442975241342746E-014
  1.580000000000000E-002   -2.146881276049185E-014
  1.590000000000000E-002   -2.779334308369541E-014
  1.600000000000000E-002   -3.286780989073625E-014
  1.610000000000000E-002   -3.618592376280409E-014
  1.620000000000000E-002   -3.731029290177664E-014
  1.630000000000000E-002   -3.591149483837488E-014
  1.640000000000000E-002   -3.180361118791967E-014
  1.650000000000000E-002   -2.497334165608698E-014
  1.660000000000000E-002   -1.559989429818086E-014
  1.670000000000000E-002   -4.063240644014899E-015
  1.680000000000000E-002    9.061087229568931E-015
  1.690000000000000E-002    2.302173122143068E-014
  1.700000000000000E-002    3.692587209357895E-014
  1.710000000000000E-002    4.978734288017695E-014
  1.720000000000000E-002    6.058650961558462E-014
  1.730000000000000E-002    6.833884524176113E-014
  1.740000000000000E-002    7.216827155474158E-014
  1.750000000000000E-002    7.138054435239121E-014
  1.760000000000000E-002    6.553145159611513E-014
  1.770000000000000E-002    5.448447184514796E-014
  1.780000000000000E-002    3.845269581761832E-014
  1.790000000000000E-002    1.802046181092651E-014
  1.800000000000000E-002   -5.858931189030134E-015
  1.810000000000000E-002   -3.189170006985310E-014
  1.820000000000000E-002   -5.849887952932174E-014
  1.830000000000000E-002   -8.389729109191010E-014
  1.840000000000000E-002   -1.062030747652113E-013
  1.850000000000000E-002   -1.235526720154064E-013
  1.860000000000000E-002   -1.342345785727522E-013
  1.870000000000000E-002   -1.368237289430655E-013