 -4.000000000000000E-002    0.000000000000000E+000
 -3.990000000000000E-002    0.000000000000000E+000
 -3.980000000000000E-002    0.000000000000000E+000
 -3.970000000000000E-002    0.000000000000000E+000
 -3.960000000000000E-002    0.000000000000000E+000
 -3.950000000000000E-002    0.000000000000000E+000
 -3.940000000000000E-002    0.000000000000000E+000
 -3.930000000000000E-002    0.000000000000000E+000
 -3.920000000000000E-002    0.000000000000000E+000
 -3.910000000000000E-002    0.000000000000000E+000
 -3.900000000000000E-002    0.000000000000000E+000
 -3.890000000000000E-002    0.000000000000000E+000
 -3.880000000000000E-002    0.000000000000000E+000
 -3.870000000000000E-002    0.000000000000000E+000
 -3.860000000000000E-002    0.000000000000000E+000
 -3.850000000000000E-002    0.000000000000000E+000
 -3.840000000000000E-002    0.000000000000000E+000
 -3.830000000000000E-002    0.000000000000000E+000
 -3.820000000000000E-002    0.000000000000000E+000
 -3.810000000000000E-002    0.000000000000000E+000
 -3.800000000000000E-002    0.000000000000000E+000
 -3.790000000000000E-002    0.000000000000000E+000
 -3.780000000000000E-002    0.000000000000000E+000
 -3.770000000000000E-002    0.000000000000000E+000
 -3.760000000000000E-002    0.000000000000000E+000
 -3.750000000000000E-002    0.000000000000000E+000
 -3.740000000000000E-002    0.000000000000000E+000
 -3.730000000000000E-002    0.000000000000000E+000
 -3.720000000000000E-002    0.000000000000000E+000
 -3.710000000000000E-002    0.000000000000000E+000
 -3.700000000000000E-002    0.000000000000000E+000
 -3.690000000000000E-002    0.000000000000000E+000
 -3.680000000000000E-002    0.000000000000000E+000
 -3.670000000000000E-002    0.000000000000000E+000
 -3.660000000000000E-002    0.000000000000000E+000
 -3.650000000000000E-002    0.000000000000000E+000
 -3.640000000000000E-002    0.000000000000000E+000
 -3.630000000000000E-002    0.000000000000000E+000
 -3.620000000000000E-002    0.000000000000000E+000
 -3.610000000000000E-002    0.000000000000000E+000
 -3.600000000000000E-002    0.000000000000000E+000
 -3.590000000000000E-002    0.000000000000000E+000
 -3.580000000000000E-002    0.000000000000000E+000
 -3.570000000000000E-002    0.000000000000000E+000
 -3.560000000000000E-002    0.000000000000000E+000
 -3.550000000000000E-002    0.000000000000000E+000
 -3.540000000000000E-002    0.000000000000000E+000
 -3.530000000000000E-002    0.000000000000000E+000
 -3.520000000000000E-002    0.000000000000000E+000
 -3.510000000000000E-002    0.000000000000000E+000
 -3.500000000000000E-002    0.000000000000000E+000
 -3.490000000000000E-002    0.000000000000000E+000
 -3.480000000000000E-002    0.000000000000000E+000
 -3.470000000000000E-002   -1.753312867907251E-047
 -3.460000000000000E-002   -4.104346021790714E-047
 -3.450000000000000E-002   -1.000185290151006E-046
 -3.440000000000000E-002   -3.636370829226151E-046
 -3.430000000000000E-002   -7.657813412028268E-046
 -3.420000000000000E-002   -1.439217207250780E-045
 -3.410000000000000E-002   -2.466832054476298E-045
 -3.400000000000000E-002   -4.207882202572615E-045
 -3.390000000000000E-002   -6.433775374104526E-045
 -3.380000000000000E-002   -9.310913569199401E-045
 -3.370000000000000E-002   -1.151075952519267E-044
 -3.360000000000000E-002   -1.208754743881342E-044
 -3.350000000000000E-002   -8.772758595757746E-045
 -3.340000000000000E-002    4.545079919672629E-045
 -3.330000000000000E-002    3.563946984244607E-044
 -3.320000000000000E-002    9.331306355170750E-044
 -3.310000000000000E-002    1.904562936087024E-043
 -3.300000000000000E-002    3.403790012006261E-043
 -3.290000000000000E-002    5.499850939142994E-043
 -3.280000000000000E-002    8.171981911753001E-043
 -3.270000000000000E-002    1.118728529972492E-042
 -3.260000000000000E-002    1.395160321008833E-042
 -3.250000000000000E-002    1.540655439310301E-042
 -3.240000000000000E-002    1.387902590185907E-042
 -3.230000000000000E-002    7.055779510016029E-043
 -3.220000000000000E-002   -7.945276257641539E-043
 -3.210000000000000E-002   -3.426173449827078E-042
 -3.200000000000000E-002   -7.477469069064516E-042
 -3.190000000000000E-002   -1.312632817700163E-041
 -3.180000000000000E-002   -2.034541513245149E-041
 -3.170000000000000E-002   -2.880089667698993E-041
 -3.160000000000000E-002   -3.777500980124318E-041
 -3.150000000000000E-002   -4.613831806734457E-041
 -3.140000000000000E-002   -5.239372841246042E-041
 -3.130000000000000E-002   -5.479370189552651E-041
 -3.120000000000000E-002   -5.151589932034272E-041
 -3.110000000000000E-002   -4.085649382752231E-041
 -3.100000000000000E-002   -2.142448799824227E-041
 -3.090000000000000E-002    7.561726170966391E-042
 -3.080000000000000E-002    4.560952636121872E-041
 -3.070000000000000E-002    8.928273976939244E-041
 -3.060000000000000E-002    1.285626822252727E-040
 -3.050000000000000E-002    1.400773004340212E-040
 -3.040000000000000E-002    7.646349545029871E-041
 -3.030000000000000E-002   -1.472146937892639E-040
 -3.020000000000000E-002   -6.653073445678447E-040
 -3.010000000000000E-002   -1.660394267369370E-039
 -3.000000000000000E-002   -3.327987999592136E-039
 -2.990000000000000E-002   -5.773977158458045E-039
 -2.980000000000000E-002   -8.800405512460949E-039
 -2.970000000000000E-002   -1.153094527148563E-038
 -2.960000000000000E-002   -1.184082750295872E-038
 -2.950000000000000E-002   -5.601721683978840E-039
 -2.940000000000000E-002    1.415321626925533E-038
 -2.930000000000000E-002    5.787943668472430E-038
 -2.920000000000000E-002    1.394892530128537E-037
 -2.910000000000000E-002    2.748558462803410E-037
 -2.900000000000000E-002    4.777758041405518E-037
 -2.890000000000000E-002    7.521169011962510E-037
 -2.880000000000000E-002    1.078943165006071E-036
 -2.870000000000000E-002    1.397964094264970E-036
 -2.860000000000000E-002    1.583985861656945E-036
 -2.850000000000000E-002    1.421387979088690E-036
 -2.840000000000000E-002    5.832094993762198E-037
 -2.830000000000000E-002   -1.373903559280310E-036
 -2.820000000000000E-002   -4.982375519327498E-036
 -2.810000000000000E-002   -1.078266717636660E-035
 -2.800000000000000E-002   -1.916484649712497E-035
 -2.790000000000000E-002   -3.011168689379619E-035
 -2.780000000000000E-002   -4.283333128769905E-035
 -2.770000000000000E-002   -5.530656906835246E-035
 -2.760000000000000E-002   -6.376955308308712E-035
 -2.750000000000000E-002   -6.227610482475699E-035
 -2.740000000000000E-002   -4.247992282509293E-035
 -2.730000000000000E-002    6.110966440613452E-036
 -2.720000000000000E-002    9.511039828047315E-035
 -2.710000000000000E-002    2.351388212073085E-034
 -2.700000000000000E-002    4.323385795160421E-034
 -2.690000000000000E-002    6.833874511648106E-034
 -2.680000000000000E-002    9.691616724291345E-034
 -2.670000000000000E-002    1.247638724814284E-033
 -2.660000000000000E-002    1.447225411756799E-033
 -2.650000000000000E-002    1.462400136565645E-033
 -2.640000000000000E-002    1.154274174803124E-033
 -2.630000000000000E-002    3.592381930501058E-034
 -2.620000000000000E-002   -1.090958440219861E-033
 -2.610000000000000E-002   -3.334827708104072E-033
 -2.600000000000000E-002   -6.431029325826002E-033
 -2.590000000000000E-002   -1.029371295611709E-032
 -2.580000000000000E-002   -1.461844375980614E-032
 -2.570000000000000E-002   -1.880895789279442E-032
 -2.560000000000000E-002   -2.192085956818905E-032
 -2.550000000000000E-002   -2.264407426318180E-032
 -2.540000000000000E-002   -1.935013813443632E-032
 -2.530000000000000E-002   -1.023152413320244E-032
 -2.520000000000000E-002    6.443837919430846E-033
 -2.510000000000000E-002    3.195062321613058E-032
 -2.500000000000000E-002    6.660376341498759E-032
 -2.490000000000000E-002    1.091705526002586E-031
 -2.480000000000000E-002    1.562668168041738E-031
 -2.470000000000000E-002    2.018453887499381E-031
 -2.460000000000000E-002    2.369208808444734E-031
 -2.450000000000000E-002    2.496998807205406E-031
 -2.440000000000000E-002    2.262894120433779E-031
 -2.430000000000000E-002    1.521289467113020E-031
 -2.420000000000000E-002    1.422265155025619E-032
 -2.410000000000000E-002   -1.958650338019432E-031
 -2.400000000000000E-002   -4.784446023599269E-031
 -2.390000000000000E-002   -8.219506164647536E-031
 -2.380000000000000E-002   -1.199585415700486E-030
 -2.370000000000000E-002   -1.567110767721378E-030
 -2.360000000000000E-002   -1.862643527955231E-030
 -2.350000000000000E-002   -2.009301029158372E-030
 -2.340000000000000E-002   -1.921366474394661E-030
 -2.330000000000000E-002   -1.514286464387333E-030
 -2.320000000000000E-002   -7.182550376631891E-031
 -2.310000000000000E-002    5.055743343687595E-031
 -2.300000000000000E-002    2.148012262874270E-030
 -2.290000000000000E-002    4.136411885882276E-030
 -2.280000000000000E-002    6.323994788010700E-030
 -2.270000000000000E-002    8.487209059574638E-030
 -2.260000000000000E-002    1.033404679615522E-029
 -2.250000000000000E-002    1.152525021062793E-029
 -2.240000000000000E-002    1.170862825552492E-029
 -2.230000000000000E-002    1.056442483777152E-029
 -2.220000000000000E-002    7.857061600275242E-030
 -2.210000000000000E-002    3.486074017920404E-030
 -2.200000000000000E-002   -2.472811875728407E-030
 -2.190000000000000E-002   -9.746135314723133E-030
 -2.180000000000000E-002   -1.786916837659251E-029
 -2.170000000000000E-002   -2.622542555272242E-029
 -2.160000000000000E-002   -3.411868549515046E-029
 -2.150000000000000E-002   -4.086949429814686E-029
 -2.140000000000000E-002   -4.591996970346244E-029
 -2.130000000000000E-002   -4.892314148086567E-029
 -2.120000000000000E-002   -4.978846612199619E-029
 -2.110000000000000E-002   -4.865508605535203E-029
 -2.100000000000000E-002   -4.577148444753468E-029
 -2.090000000000000E-002   -4.127499389440555E-029
 -2.080000000000000E-002   -3.488727914257261E-029
 -2.070000000000000E-002   -2.557079212239854E-029
 -2.060000000000000E-002   -1.122194151888642E-029
 -2.050000000000000E-002    1.149618961345129E-029
 -2.040000000000000E-002    4.706260220262063E-029
 -2.030000000000000E-002    1.006332846801811E-028
 -2.020000000000000E-002    1.771159462723772E-028
 -2.010000000000000E-002    2.797593609276777E-028
 -2.000000000000000E-002    4.083231109144168E-028
 -1.990000000000000E-002    5.570099814825556E-028
 -1.980000000000000E-002    7.124714736985454E-028
 -1.970000000000000E-002    8.523155561376579E-028
 -1.960000000000000E-002    9.446294635546940E-028
 -1.950000000000000E-002    9.490502086521425E-028
 -1.940000000000000E-002    8.198421314618597E-028
 -1.930000000000000E-002    5.112578614804036E-028
 -1.920000000000000E-002   -1.484336165222205E-029
 -1.910000000000000E-002   -7.795497724308301E-028
 -1.900000000000000E-002   -1.776527354302120E-027
 -1.890000000000000E-002   -2.962105059987648E-027
 -1.880000000000000E-002   -4.247597266692549E-027
 -1.870000000000000E-002   -5.495874964821029E-027
 -1.860000000000000E-002   -6.524164282250528E-027
 -1.850000000000000E-002   -7.114677346491723E-027
 -1.840000000000000E-002   -7.033929630029500E-027
 -1.830000000000000E-002   -6.060480595535055E-027
 -1.820000000000000E-002   -4.019436603580125E-027
 -1.810000000000000E-002   -8.205321844639433E-028
 -1.800000000000000E-002    3.504838988162143E-027
 -1.790000000000000E-002    8.773352632587499E-027
 -1.780000000000000E-002    1.463241729758041E-026
 -1.770000000000000E-002    2.056156442882694E-026
 -1.760000000000000E-002    2.589693652122501E-026
 -1.750000000000000E-002    2.988084387207161E-026
 -1.740000000000000E-002    3.173501781535997E-026
 -1.730000000000000E-002    3.075238711114201E-026
 -1.720000000000000E-002    2.639828318898529E-026
 -1.710000000000000E-002    1.840874266701683E-026
 -1.700000000000000E-002    6.871536776362487E-027
 -1.690000000000000E-002   -7.724565045133420E-027
 -1.680000000000000E-002   -2.448461228591270E-026
 -1.670000000000000E-002   -4.215412476974550E-026
 -1.660000000000000E-002   -5.921866309984706E-026
 -1.650000000000000E-002   -7.404927067040336E-026
 -1.640000000000000E-002   -8.507843274816582E-026
 -1.630000000000000E-002   -9.098383962362080E-026
 -1.620000000000000E-002   -9.085267549171051E-026
 -1.610000000000000E-002   -8.429839919320830E-026
 -1.600000000000000E-002   -7.150614187680998E-026
 -1.590000000000000E-002   -5.319196510216172E-026
 -1.580000000000000E-002   -3.047478255411581E-026
 -1.570000000000000E-002   -4.675827305171006E-027
 -1.560000000000000E-002    2.292309787991216E-026
 -1.550000000000000E-002    5.131782284028217E-026
 -1.540000000000000E-002    7.996467442095951E-026
 -1.530000000000000E-002    1.088573137475425E-025
 -1.520000000000000E-002    1.384589137741570E-025
 -1.510000000000000E-002    1.694731780680086E-025
 -1.500000000000000E-002    2.024678414702519E-025
 -1.490000000000000E-002    2.373984556530010E-025
 -1.480000000000000E-002    2.731130928191868E-025
 -1.470000000000000E-002    3.069413430639216E-025
 -1.460000000000000E-002    3.344796347006661E-025
 -1.450000000000000E-002    3.496716245162203E-025
 -1.440000000000000E-002    3.452472361264750E-025
 -1.430000000000000E-002    3.135263391517397E-025
 -1.420000000000000E-002    2.475231045779894E-025
 -1.410000000000000E-002    1.422109045840972E-025
 -1.400000000000000E-002   -4.254951649738661E-027
 -1.390000000000000E-002   -1.895966007072451E-025
 -1.380000000000000E-002   -4.069905521583332E-025
 -1.370000000000000E-002   -6.453432815504075E-025
 -1.360000000000000E-002   -8.903381472587964E-025
 -1.350000000000000E-002   -1.126178655611692E-024
 -1.340000000000000E-002   -1.337778534140354E-024
 -1.330000000000000E-002   -1.512985539951746E-024
 -1.320000000000000E-002   -1.644303315269605E-024
 -1.310000000000000E-002   -1.729544637953675E-024
 -1.300000000000000E-002   -1.770920752883569E-024
 -1.290000000000000E-002   -1.772291885134911E-024
 -1.280000000000000E-002   -1.734640533115804E-024
 -1.270000000000000E-002   -1.650273866175374E-024
 -1.260000000000000E-002   -1.496734166296701E-024
 -1.250000000000000E-002   -1.231834710620729E-024
 -1.240000000000000E-002   -7.915153000966847E-025
 -1.230000000000000E-002   -9.224406473907954E-026
 -1.220000000000000E-002    9.605991702126833E-025
 -1.210000000000000E-002    2.457617907264336E-024
 -1.200000000000000E-002    4.463864631806870E-024
 -1.190000000000000E-002    6.992502530930013E-024
 -1.180000000000000E-002    9.976742680891561E-024
 -1.170000000000000E-002    1.324447803510131E-023
 -1.160000000000000E-002    1.650102600321625E-023
 -1.150000000000000E-002    1.932570401499038E-023
 -1.140000000000000E-002    2.118743122869911E-023
 -1.130000000000000E-002    2.148294600654286E-023
 -1.120000000000000E-002    1.959861452368928E-023
 -1.110000000000000E-002    1.499329948020335E-023
 -1.100000000000000E-002    7.295748234238979E-024
 -1.090000000000000E-002   -3.594065126836167E-024
 -1.080000000000000E-002   -1.741355210476852E-023
 -1.070000000000000E-002   -3.347196990201343E-023
 -1.060000000000000E-002   -5.062663613764835E-023
 -1.050000000000000E-002   -6.731432263111130E-023
 -1.040000000000000E-002   -8.164614849145481E-023
 -1.030000000000000E-002   -9.156687317295254E-023
 -1.020000000000000E-002   -9.507014024332420E-023
 -1.010000000000000E-002   -9.045145659393346E-023
 -1.000000000000000E-002   -7.657139091407175E-023
 -9.899999999999999E-003   -5.309478357730052E-023
 -9.800000000000000E-003   -2.066859581466455E-023
 -9.699999999999999E-003    1.899682044185408E-023
 -9.599999999999999E-003    6.317052349628039E-023
 -9.500000000000000E-003    1.082820143205695E-022
 -9.399999999999999E-003    1.502369224081908E-022
 -9.299999999999999E-003    1.848431547217594E-022
 -9.200000000000000E-003    2.083033671881780E-022
 -9.099999999999999E-003    2.177126662460510E-022
 -8.999999999999999E-003    2.114904046260340E-022
 -8.900000000000000E-003    1.896741320208843E-022
 -8.799999999999999E-003    1.540142510115678E-022
 -8.699999999999999E-003    1.078296782063735E-022
 -8.600000000000000E-003    5.561643637666232E-023
 -8.499999999999999E-003    2.439246007161455E-024
 -8.399999999999999E-003   -4.682494939147271E-023
 -8.300000000000000E-003   -8.828760655063676E-023
 -8.199999999999999E-003   -1.197671210959723E-022
 -8.100000000000000E-003   -1.412924076753800E-022
 -8.000000000000000E-003   -1.552741374358703E-022
 -7.899999999999999E-003   -1.662628277843574E-022
 -7.800000000000000E-003   -1.802699517187916E-022
 -7.699999999999999E-003   -2.036977181306385E-022
 -7.599999999999999E-003   -2.419982390830376E-022
 -7.499999999999999E-003   -2.982484637155991E-022
 -7.399999999999999E-003   -3.718753361593224E-022
 -7.299999999999999E-003   -4.577789689049456E-022
 -7.199999999999999E-003   -5.460788395293503E-022
 -7.100000000000000E-003   -6.226410223225688E-022
 -6.999999999999999E-003   -6.704398013395661E-022
 -6.899999999999999E-003   -6.716736975374972E-022
 -6.800000000000000E-003   -6.104154448922927E-022
 -6.699999999999999E-003   -4.754451241065113E-022
 -6.599999999999999E-003   -2.628222019157591E-022
 -6.499999999999999E-003    2.227879697166946E-023
 -6.399999999999999E-003    3.649027540167300E-022
 -6.299999999999999E-003    7.411273215890632E-022
 -6.199999999999999E-003    1.120459552350928E-021
 -6.100000000000000E-003    1.469665503619251E-021
 -5.999999999999999E-003    1.757599022248875E-021
 -5.899999999999999E-003    1.960339634056452E-021
 -5.800000000000000E-003    2.065758430867077E-021
 -5.699999999999999E-003    2.076558032067388E-021
 -5.599999999999999E-003    2.010917153453661E-021
 -5.499999999999999E-003    1.900113386791740E-021
 -5.399999999999999E-003    1.782907221171393E-021
 -5.299999999999999E-003    1.697011742114404E-021
 -5.199999999999999E-003    1.668561120801797E-021
 -5.099999999999999E-003    1.701066673156835E-021
 -4.999999999999999E-003    1.765788242731875E-021
 -4.899999999999999E-003    1.795681937216290E-021
 -4.799999999999999E-003    1.684980623432847E-021
 -4.699999999999999E-003    1.296040303915753E-021
 -4.599999999999999E-003    4.742670906345939E-022
 -4.499999999999999E-003   -9.291644060214084E-022
 -4.399999999999999E-003   -3.028400670481704E-021
 -4.299999999999999E-003   -5.870759731766829E-021
 -4.199999999999999E-003   -9.405472245177239E-021
 -4.099999999999999E-003   -1.345826594627968E-020
 -3.999999999999999E-003   -1.771699887648849E-020
 -3.899999999999999E-003   -2.173309447011981E-020
 -3.799999999999999E-003   -2.494230828043350E-020
 -3.699999999999999E-003   -2.670638600339967E-020
 -3.599999999999999E-003   -2.637464055041745E-020
 -3.499999999999999E-003   -2.336156579893014E-020
 -3.399999999999999E-003   -1.723373350089760E-020
 -3.299999999999999E-003   -7.796771563518815E-021
 -3.199999999999999E-003    4.828484294356692E-021
 -3.099999999999999E-003    2.015203238464598E-020
 -2.999999999999999E-003    3.729346411887668E-020
 -2.899999999999999E-003    5.500152186526173E-020
 -2.799999999999999E-003    7.171886012979605E-020
 -2.699999999999999E-003    8.569148345383000E-020
 -2.599999999999999E-003    9.511703500361321E-020
 -2.499999999999999E-003    9.832059246219649E-020
 -2.399999999999999E-003    9.394210034656896E-020
 -2.299999999999999E-003    8.111621107010139E-020
 -2.199999999999999E-003    5.962411312408095E-020
 -2.099999999999999E-003    2.999789780882434E-020
 -1.999999999999999E-003   -6.438462386070438E-021
 -1.899999999999999E-003   -4.760189430211851E-020
 -1.799999999999999E-003   -9.075970894279879E-020
 -1.699999999999999E-003   -1.327106563122825E-019
 -1.599999999999999E-003   -1.700241755659728E-019
 -1.499999999999999E-003   -1.993176993468136E-019
 -1.399999999999999E-003   -2.175466379084993E-019
 -1.299999999999999E-003   -2.222796848699117E-019
 -1.199999999999999E-003   -2.119329628726481E-019
 -1.099999999999999E-003   -1.859404929941979E-019
 -9.999999999999989E-004   -1.448453016400909E-019
 -8.999999999999990E-004   -9.030372020997646E-020
 -7.999999999999990E-004   -2.500480144825757E-020
 -6.999999999999989E-004    4.748515926745799E-020
 -5.999999999999990E-004    1.229358210510779E-019
 -4.999999999999989E-004    1.967032376920526E-019
 -3.999999999999989E-004    2.639959547201031E-019
 -2.999999999999989E-004    3.201381222905976E-019
 -1.999999999999989E-004    3.608163370424117E-019
 -9.999999999999892E-005    3.823031928486249E-019
  1.084202172485504E-018    3.816581496767503E-019
  1.000000000000011E-004    3.569109675484616E-019
  2.000000000000011E-004    3.072353644799563E-019
  3.000000000000011E-004    2.331191533692306E-019
  4.000000000000011E-004    1.365301004976147E-019
  5.000000000000011E-004    2.106771004967029E-020
  6.000000000000011E-004   -1.079219910145109E-019
  7.000000000000011E-004   -2.433034802842398E-019
  8.000000000000011E-004   -3.762256745815467E-019
  9.000000000000012E-004   -4.963614902494060E-019
  1.000000000000001E-003   -5.923580603850655E-019
  1.100000000000001E-003   -6.525282411653656E-019
  1.200000000000001E-003   -6.657893913465717E-019
  1.300000000000001E-003   -6.228219062026298E-019
  1.400000000000001E-003   -5.173791025680207E-019
  1.500000000000001E-003   -3.476384231306979E-019
  1.600000000000001E-003   -1.174458096362511E-019
  1.700000000000001E-003    1.627221211911339E-019
  1.800000000000001E-003    4.752646739764270E-019
  1.900000000000001E-003    7.956063594602886E-019
  2.000000000000001E-003    1.093128083227440E-018
  2.100000000000001E-003    1.332956645169248E-018
  2.200000000000001E-003    1.478604233732004E-018
  2.300000000000001E-003    1.495352492508194E-018
  2.400000000000001E-003    1.354165193679840E-018
  2.500000000000001E-003    1.035816522802949E-018
  2.600000000000001E-003    5.348372941674438E-019
  2.700000000000001E-003   -1.371724066474074E-019
  2.800000000000001E-003   -9.493226850920349E-019
  2.900000000000001E-003   -1.850729095584974E-018
  3.000000000000001E-003   -2.771658994396787E-018
  3.100000000000001E-003   -3.626724557059989E-018
  3.200000000000001E-003   -4.320145757272751E-018
  3.300000000000001E-003   -4.752902439618499E-018
  3.400000000000001E-003   -4.831382458402911E-018
  3.500000000000001E-003   -4.476941620920192E-018
  3.600000000000001E-003   -3.635622497594295E-018
  3.700000000000001E-003   -2.287168097205321E-018
  3.800000000000001E-003   -4.524268512414411E-019
  3.900000000000001E-003    1.801724970721363E-018
  4.000000000000001E-003    4.360696983797662E-018
  4.100000000000001E-003    7.064307535404780E-018
  4.200000000000001E-003    9.713017972869238E-018
  4.300000000000001E-003    1.207829056631806E-017
  4.400000000000001E-003    1.391674811762872E-017
  4.500000000000001E-003    1.498748087527740E-017
  4.600000000000002E-003    1.507154426601625E-017
  4.700000000000001E-003    1.399242385273115E-017
  4.800000000000001E-003    1.163605623781979E-017
  4.900000000000002E-003    7.968867597046193E-018
  5.000000000000001E-003    3.052284321030731E-018
  5.100000000000001E-003   -2.947774852693202E-018
  5.200000000000001E-003   -9.757723548951773E-018
  5.300000000000002E-003   -1.700049476211152E-017
  5.400000000000001E-003   -2.420777559347813E-017
  5.500000000000001E-003   -3.084054763880557E-017
  5.600000000000002E-003   -3.631765795171172E-017
  5.700000000000001E-003   -4.005163981002013E-017
  5.800000000000001E-003   -4.149034138778205E-017
  5.900000000000002E-003   -4.016241563201261E-017
  6.000000000000001E-003   -3.572405205860306E-017
  6.100000000000001E-003   -2.800392025469581E-017
  6.200000000000002E-003   -1.704286210997080E-017
  6.300000000000002E-003   -3.124599040132073E-018
  6.400000000000001E-003    1.320617665903825E-017
  6.500000000000001E-003    3.114183233185643E-017
  6.600000000000002E-003    4.962877491657621E-017
  6.700000000000001E-003    6.740539960849946E-017
  6.800000000000001E-003    8.306173576398859E-017
  6.900000000000002E-003    9.512009976087153E-017
  7.000000000000001E-003    1.021341405882953E-016
  7.100000000000001E-003    1.028019642391057E-016
  7.200000000000002E-003    9.608701823421263E-017
  7.300000000000002E-003    8.133872462552326E-017
  7.400000000000001E-003    5.840354864660886E-017
  7.500000000000001E-003    2.771619124251829E-017
  7.600000000000002E-003   -9.639382001942343E-018
  7.700000000000001E-003   -5.190885931332022E-017
  7.800000000000001E-003   -9.669450408798258E-017
  7.900000000000001E-003   -1.410358133723322E-016
  8.000000000000002E-003   -1.815460474326829E-016
  8.100000000000001E-003   -2.146030001691647E-016
  8.200000000000001E-003   -2.365874925626080E-016
  8.300000000000002E-003   -2.441586233288539E-016
  8.400000000000001E-003   -2.345500733747486E-016
  8.500000000000002E-003   -2.058679303546486E-016
  8.600000000000002E-003   -1.573672089639603E-016
  8.700000000000001E-003   -8.968308998304636E-017
  8.800000000000002E-003   -4.992071810962883E-018
  8.900000000000002E-003    9.291876384763544E-017
  9.000000000000001E-003    1.986937746778905E-016
  9.100000000000002E-003    3.055745263684846E-016
  9.200000000000002E-003    4.056950382779769E-016
  9.300000000000001E-003    4.905029355484453E-016
  9.400000000000002E-003    5.512935990579976E-016
  9.500000000000001E-003    5.798337740119415E-016
  9.600000000000001E-003    5.690417425030830E-016
  9.700000000000002E-003    5.136822945119621E-016
  9.800000000000001E-003    4.110278950461053E-016
  9.900000000000001E-003    2.614331665186022E-016
  1.000000000000000E-002    6.876853342185316E-017
  1.010000000000000E-002   -1.593380600556265E-016
  1.020000000000000E-002   -4.114966307614483E-016
  1.030000000000000E-002   -6.728223710433430E-016
  1.040000000000000E-002   -9.254942077328852E-016
  1.050000000000000E-002   -1.149606991936574E-015
  1.060000000000000E-002   -1.324299776205176E-015
  1.070000000000000E-002   -1.429118667494038E-015
  1.080000000000000E-002   -1.445552097139078E-015
  1.090000000000000E-002   -1.358654439381696E-015
  1.100000000000000E-002   -1.158655380527578E-015
  1.110000000000000E-002   -8.424382394439819E-016
  1.120000000000000E-002   -4.147628907545627E-016
  1.130000000000000E-002    1.108901666316273E-016
  1.140000000000000E-002    7.119726004964244E-016
  1.150000000000000E-002    1.357112714129936E-015
  1.160000000000000E-002    2.007025539287462E-015
  1.170000000000000E-002    2.616117547209582E-015
  1.180000000000000E-002    3.134778822186994E-015
  1.190000000000000E-002    3.512298174926706E-015
  1.200000000000000E-002    3.700287921013719E-015
  1.210000000000000E-002    3.656448777127061E-015
  1.220000000000000E-002    3.348458935481504E-015
  1.230000000000000E-002    2.757730870378918E-015
  1.240000000000000E-002    1.882748331895518E-015
  1.250000000000000E-002    7.416889896329267E-016
  1.260000000000000E-002   -6.259551851401408E-016
  1.270000000000000E-002   -2.159022146162852E-015
  1.280000000000000E-002   -3.775791027144523E-015
  1.290000000000000E-002   -5.376695229627841E-015
  1.300000000000000E-002   -6.848673039389005E-015
  1.310000000000000E-002   -8.071084772448750E-015
  1.320000000000000E-002   -8.923002678689131E-015
  1.330000000000000E-002   -9.291557425348276E-015
  1.340000000000000E-002   -9.080905942845526E-015
  1.350000000000000E-002   -8.221282077236074E-015
  1.360000000000000E-002   -6.677512915134274E-015
  1.370000000000000E-002   -4.456332165498738E-015
  1.380000000000000E-002   -1.611815863781879E-015
  1.390000000000000E-002    1.751695313015458E-015
  1.400000000000000E-002    5.479730834828071E-015
  1.410000000000000E-002    9.371301445287185E-015
  1.420000000000000E-002    1.318620277634945E-014
  1.430000000000000E-002    1.665601579087458E-014
  1.440000000000000E-002    1.949854997424897E-014
  1.450000000000000E-002    2.143519279092625E-014
  1.460000000000000E-002    2.221037067382971E-014
  1.470000000000000E-002    2.161206771563677E-014
  1.480000000000000E-002    1.949213653534072E-014
  1.490000000000000E-002    1.578497380647768E-014
  1.500000000000000E-002    1.052306825421719E-014
  1.510000000000000E-002    3.847942014782594E-015
  1.520000000000000E-002   -3.984878917224241E-015
  1.530000000000000E-002   -1.260798533931946E-014
  1.540000000000000E-002   -2.155209584157705E-014
  1.550000000000000E-002   -3.026428180856125E-014
  1.560000000000000E-002   -3.813426246176602E-014
  1.570000000000000E-002   -4.452801761141589E-014
  1.580000000000000E-002   -4.882736051883656E-014
  1.590000000000000E-002   -5.047354737511811E-014
  1.600000000000000E-002   -4.901250472840999E-014
  1.610000000000000E-002   -4.413875651303059E-014
  1.620000000000000E-002   -3.573494825668238E-014
  1.630000000000000E-002   -2.390371125813626E-014
  1.640000000000000E-002   -8.988724744705980E-015
  1.650000000000000E-002    8.417791219724581E-015
  1.660000000000000E-002    2.748334037767130E-014
  1.670000000000000E-002    4.716059116030202E-014
  1.680000000000000E-002    6.623042288831999E-014
  1.690000000000000E-002    8.336180817129702E-014
  1.700000000000000E-002    9.718656221531840E-014
  1.710000000000000E-002    1.063858181840479E-013
  1.720000000000000E-002    1.097837181846862E-013
  1.730000000000000E-002    1.064429975046805E-013
  1.740000000000000E-002    9.575624776092359E-014
  1.750000000000000E-002    7.752622490449587E-014
  1.760000000000000E-002    5.202846925303355E-014
  1.770000000000000E-002    2.005001093027594E-014
  1.780000000000000E-002   -1.710133241739862E-014
  1.790000000000000E-002   -5.762118386446564E-014
  1.800000000000000E-002   -9.926860886429917E-014
  1.810000000000000E-002   -1.394621958184570E-013
  1.820000000000000E-002   -1.754100123965800E-013
  1.830000000000000E-002   -2.042687723189913E-013
  1.840000000000000E-002   -2.233249401520757E-013
  1.850000000000000E-002   -2.301884122586042E-013
  1.860000000000000E-002   -2.229871911557196E-013
  1.870000000000000E-002   -2.005504762635468E-013