 -4.000000000000000E-002    0.000000000000000E+000
 -3.990000000000000E-002    0.000000000000000E+000
 -3.980000000000000E-002    0.000000000000000E+000
 -3.970000000000000E-002    0.000000000000000E+000
 -3.960000000000000E-002    0.000000000000000E+000
 -3.950000000000000E-002    0.000000000000000E+000
 -3.940000000000000E-002    6.712594616856405E-025
 -3.930000000000000E-002    8.827572245663790E-024
 -3.920000000000000E-002    6.043694307485706E-023
 -3.910000000000000E-002    2.830178566071894E-022
 -3.900000000000000E-002    1.000897369948826E-021
 -3.890000000000000E-002    2.768201441832037E-021
 -3.880000000000000E-002    5.865949315604500E-021
 -3.870000000000000E-002    8.057740159925765E-021
 -3.860000000000000E-002   -1.851555789974258E-021
 -3.850000000000000E-002   -5.876945590756895E-020
 -3.840000000000000E-002   -2.500613356481495E-019
 -3.830000000000000E-002   -7.642924170162637E-019
 -3.820000000000000E-002   -1.963278975376924E-018
 -3.810000000000000E-002   -4.472790089442787E-018
 -3.800000000000000E-002   -9.271940253937142E-018
 -3.790000000000000E-002   -1.773785732146542E-017
 -3.780000000000000E-002   -3.157243698094839E-017
 -3.770000000000000E-002   -5.250774808177066E-017
 -3.760000000000000E-002   -8.166670918469251E-017
 -3.750000000000000E-002   -1.184615753625269E-016
 -3.740000000000000E-002   -1.589625304784339E-016
 -3.730000000000000E-002   -1.937796019476261E-016
 -3.720000000000000E-002   -2.056825025360019E-016
 -3.710000000000000E-002   -1.674301854030301E-016
 -3.700000000000000E-002   -4.056876490464267E-017
 -3.690000000000000E-002    2.237693434333330E-016
 -3.680000000000000E-002    6.808494788600185E-016
 -3.670000000000000E-002    1.383891580968898E-015
 -3.660000000000000E-002    2.370287202014209E-015
 -3.650000000000000E-002    3.642237125476565E-015
 -3.640000000000000E-002    5.142657118779315E-015
 -3.630000000000000E-002    6.728668830633462E-015
 -3.620000000000000E-002    8.146703385971443E-015
 -3.610000000000000E-002    9.014961110344422E-015
 -3.600000000000000E-002    8.820341798683116E-015
 -3.590000000000000E-002    6.937571298115617E-015
 -3.580000000000000E-002    2.677675688585317E-015
 -3.570000000000000E-002   -4.629146506255880E-015
 -3.560000000000000E-002   -1.551507207506633E-014
 -3.550000000000000E-002   -3.022493581637317E-014
 -3.540000000000000E-002   -4.854642471356433E-014
 -3.530000000000000E-002   -6.963870217644116E-014
 -3.520000000000000E-002   -9.188492531256452E-014
 -3.510000000000000E-002   -1.127992227373219E-013
 -3.500000000000000E-002   -1.290207296347651E-013
 -3.490000000000000E-002   -1.364248916594434E-013
 -3.480000000000000E-002   -1.303747882621029E-013
 -3.470000000000000E-002   -1.061223278902976E-013
 -3.460000000000000E-002   -5.935150354424357E-014
 -3.450000000000000E-002    1.316499753781648E-014
 -3.440000000000000E-002    1.128466824030921E-013
 -3.430000000000000E-002    2.385945272435653E-013
 -3.420000000000000E-002    3.861744702870935E-013
 -3.410000000000000E-002    5.477880279662833E-013
 -3.400000000000000E-002    7.119189375885437E-013
 -3.390000000000000E-002    8.635300895683942E-013
 -3.380000000000000E-002    9.846571232574361E-013
 -3.370000000000000E-002    1.055410089886968E-012
 -3.360000000000000E-002    1.055351726675172E-012
 -3.350000000000000E-002    9.651780522530005E-013
 -3.340000000000000E-002    7.685891863898339E-013
 -3.330000000000000E-002    4.542086881385068E-013
 -3.320000000000000E-002    1.739585964406529E-014
 -3.310000000000000E-002   -5.382020819648801E-013
 -3.300000000000000E-002   -1.199494086480276E-012
 -3.290000000000000E-002   -1.943288605948043E-012
 -3.280000000000000E-002   -2.736199004927156E-012
 -3.270000000000000E-002   -3.535132671405328E-012
 -3.260000000000000E-002   -4.288347810382319E-012
 -3.250000000000000E-002   -4.937040570445914E-012
 -3.240000000000000E-002   -5.417413463119978E-012
 -3.230000000000000E-002   -5.663190689870946E-012
 -3.220000000000000E-002   -5.608564110768286E-012
 -3.210000000000000E-002   -5.191585157939106E-012
 -3.200000000000000E-002   -4.358033655246482E-012
 -3.190000000000000E-002   -3.065803611310661E-012
 -3.180000000000000E-002   -1.289807206255449E-012
 -3.170000000000000E-002    9.726682025375160E-013
 -3.160000000000000E-002    3.696335179759164E-012
 -3.150000000000000E-002    6.822349719057704E-012
 -3.140000000000000E-002    1.025333539362509E-011
 -3.130000000000000E-002    1.384968046046328E-011
 -3.120000000000000E-002    1.742792406730656E-011
 -3.110000000000000E-002    2.076213839007278E-011
 -3.100000000000000E-002    2.358915062420053E-011
 -3.090000000000000E-002    2.561831296330373E-011
 -3.080000000000000E-002    2.654618598123407E-011
 -3.070000000000000E-002    2.607608717789387E-011
 -3.060000000000000E-002    2.394187195741129E-011
 -3.050000000000000E-002    1.993471238558625E-011
 -3.040000000000000E-002    1.393101018192951E-011
 -3.030000000000000E-002    5.919083078781312E-012
 -3.020000000000000E-002   -3.978145118151327E-012
 -3.010000000000000E-002   -1.548729241790269E-011
 -3.000000000000000E-002   -2.817817803132313E-011
 -2.990000000000000E-002   -4.146917559937528E-011
 -2.980000000000000E-002   -5.464558535069515E-011
 -2.970000000000000E-002   -6.689129986138804E-011
 -2.960000000000000E-002   -7.733272394385481E-011
 -2.950000000000000E-002   -8.509269667865439E-011
 -2.940000000000000E-002   -8.935084629512476E-011
 -2.930000000000000E-002   -8.940591757101717E-011
 -2.920000000000000E-002   -8.473501540074394E-011
 -2.910000000000000E-002   -7.504455622869354E-011
 -2.900000000000000E-002   -6.030818714738075E-011
 -2.890000000000000E-002   -4.078783199395497E-011
 -2.880000000000000E-002   -1.703539105560372E-011
 -2.870000000000000E-002    1.012565884983984E-011
 -2.860000000000000E-002    3.963769817324699E-011
 -2.850000000000000E-002    7.026261545540026E-011
 -2.840000000000000E-002    1.006473793837054E-010
 -2.830000000000000E-002    1.293960980297145E-010
 -2.820000000000000E-002    1.551427480179318E-010
 -2.810000000000000E-002    1.766189634714112E-010
 -2.800000000000000E-002    1.927118310712176E-010
 -2.790000000000000E-002    2.025083029284750E-010
 -2.780000000000000E-002    2.053242079574705E-010
 -2.770000000000000E-002    2.007178208830525E-010
 -2.760000000000000E-002    1.884897681568879E-010
 -2.750000000000000E-002    1.686723128631588E-010
 -2.740000000000000E-002    1.415121563099900E-010
 -2.730000000000000E-002    1.074510131155679E-010
 -2.720000000000000E-002    6.710815605288539E-011
 -2.710000000000000E-002    2.126782516273325E-011
 -2.700000000000000E-002   -2.912681833914763E-011
 -2.690000000000000E-002   -8.297333844999860E-011
 -2.680000000000000E-002   -1.390051128553441E-010
 -2.670000000000000E-002   -1.957852462367148E-010
 -2.660000000000000E-002   -2.517038975324140E-010
 -2.650000000000000E-002   -3.049837477679631E-010
 -2.640000000000000E-002   -3.536985594989425E-010
 -2.630000000000000E-002   -3.958084293319616E-010
 -2.620000000000000E-002   -4.292140215229196E-010
 -2.610000000000000E-002   -4.518302514488333E-010
 -2.600000000000000E-002   -4.616774364499098E-010
 -2.590000000000000E-002   -4.569859522380958E-010
 -2.580000000000000E-002   -4.363090660021559E-010
 -2.570000000000000E-002   -3.986364167198831E-010
 -2.560000000000000E-002   -3.435009477666486E-010
 -2.550000000000000E-002   -2.710710016332266E-010
 -2.540000000000000E-002   -1.822207707849385E-010
 -2.530000000000000E-002   -7.857272503296320E-011
 -2.520000000000000E-002    3.749272345973173E-011
 -2.510000000000000E-002    1.628631582473988E-010
 -2.500000000000000E-002    2.937570016652318E-010
 -2.490000000000000E-002    4.258229076504748E-010
 -2.480000000000000E-002    5.542732460166032E-010
 -2.470000000000000E-002    6.740483524399017E-010
 -2.460000000000000E-002    7.800060955890301E-010
 -2.450000000000000E-002    8.671308617683687E-010
 -2.440000000000000E-002    9.307536931906540E-010
 -2.430000000000000E-002    9.667750246028701E-010
 -2.420000000000000E-002    9.718802460195381E-010
 -2.410000000000000E-002    9.437365487370050E-010
 -2.400000000000000E-002    8.811610327481219E-010
 -2.390000000000000E-002    7.842479782828381E-010
 -2.380000000000000E-002    6.544460663044461E-010
 -2.370000000000000E-002    4.945772884606427E-010
 -2.360000000000000E-002    3.087924802667982E-010
 -2.350000000000000E-002    1.024622878041254E-010
 -2.340000000000000E-002   -1.179935054934313E-010
 -2.330000000000000E-002   -3.453303505066309E-010
 -2.320000000000000E-002   -5.717454421349753E-010
 -2.310000000000000E-002   -7.891700618479845E-010
 -2.300000000000000E-002   -9.895713931597114E-010
 -2.290000000000000E-002   -1.165244986959159E-009
 -2.280000000000000E-002   -1.309082072690617E-009
 -2.270000000000000E-002   -1.414800038984895E-009
 -2.260000000000000E-002   -1.477127936170535E-009
 -2.250000000000000E-002   -1.491947812029791E-009
 -2.240000000000000E-002   -1.456395879319163E-009
 -2.230000000000000E-002   -1.368936707896696E-009
 -2.220000000000000E-002   -1.229424345101602E-009
 -2.210000000000000E-002   -1.039165619762084E-009
 -2.200000000000000E-002   -8.009997315835880E-010
 -2.190000000000000E-002   -5.194006883535212E-010
 -2.180000000000000E-002   -2.006008202570893E-010
 -2.170000000000000E-002    1.472785670362369E-010
 -2.160000000000000E-002    5.141126526926443E-010
 -2.150000000000000E-002    8.877135507108370E-010
 -2.140000000000000E-002    1.253865230713269E-009
 -2.130000000000000E-002    1.596503434248422E-009
 -2.120000000000000E-002    1.898081199946148E-009
 -2.110000000000000E-002    2.140154415036380E-009
 -2.100000000000000E-002    2.304202877208937E-009
 -2.090000000000000E-002    2.372679321272137E-009
 -2.080000000000000E-002    2.330253577764728E-009
 -2.070000000000000E-002    2.165184879631015E-009
 -2.060000000000000E-002    1.870735655068763E-009
 -2.050000000000000E-002    1.446510872647840E-009
 -2.040000000000000E-002    8.995992852792641E-010
 -2.030000000000000E-002    2.453833659153170E-010
 -2.020000000000000E-002   -4.920978753351430E-010
 -2.010000000000000E-002   -1.280335080852964E-009
 -2.000000000000000E-002   -2.079139992748103E-009
 -1.990000000000000E-002   -2.842067611396138E-009
 -1.980000000000000E-002   -3.518428889185939E-009
 -1.970000000000000E-002   -4.055815620050941E-009
 -1.960000000000000E-002   -4.402998644346494E-009
 -1.950000000000000E-002   -4.513028483113625E-009
 -1.940000000000000E-002   -4.346331300341551E-009
 -1.930000000000000E-002   -3.873594840173929E-009
 -1.920000000000000E-002   -3.078225531731008E-009
 -1.910000000000000E-002   -1.958203932113041E-009
 -1.900000000000000E-002   -5.271882397485359E-010
 -1.890000000000000E-002    1.185215717836248E-009
 -1.880000000000000E-002    3.134045012660985E-009
 -1.870000000000000E-002    5.260391500445035E-009
 -1.860000000000000E-002    7.493525123310621E-009
 -1.850000000000000E-002    9.753576725072263E-009
 -1.840000000000000E-002    1.195458441145639E-008
 -1.830000000000000E-002    1.400767505919410E-008
 -1.820000000000000E-002    1.582418373157824E-008
 -1.810000000000000E-002    1.731849922709884E-008
 -1.800000000000000E-002    1.841049220515156E-008
 -1.790000000000000E-002    1.902743211895513E-008
 -1.780000000000000E-002    1.910536879359648E-008
 -1.770000000000000E-002    1.859003558621019E-008
 -1.760000000000000E-002    1.743740308239057E-008
 -1.750000000000000E-002    1.561408179077774E-008
 -1.740000000000000E-002    1.309782890567071E-008
 -1.730000000000000E-002    9.878423814482048E-009
 -1.720000000000000E-002    5.959215609185147E-009
 -1.710000000000000E-002    1.359590491469188E-009
 -1.700000000000000E-002   -3.881436980356410E-009
 -1.690000000000000E-002   -9.700375243932588E-009
 -1.680000000000000E-002   -1.600315465973139E-008
 -1.670000000000000E-002   -2.265785682729354E-008
 -1.660000000000000E-002   -2.948654509986086E-008
 -1.650000000000000E-002   -3.625654181426758E-008
 -1.640000000000000E-002   -4.267165958915171E-008
 -1.630000000000000E-002   -4.836394629563212E-008
 -1.620000000000000E-002   -5.288660846364979E-008
 -1.610000000000000E-002   -5.570870152653073E-008
 -1.600000000000000E-002   -5.621222461782062E-008
 -1.590000000000000E-002   -5.369209044581279E-008
 -1.580000000000000E-002   -4.735927968124938E-008
 -1.570000000000000E-002   -3.634740422721119E-008
 -1.560000000000000E-002   -1.972243928397330E-008
 -1.550000000000000E-002    3.504610795947322E-009
 -1.540000000000000E-002    3.436274241474113E-008
 -1.530000000000000E-002    7.390457058350676E-008
 -1.520000000000000E-002    1.231892357729078E-007
 -1.510000000000000E-002    1.832662013811720E-007
 -1.500000000000000E-002    2.551604609770317E-007
 -1.490000000000000E-002    3.398604332988593E-007
 -1.480000000000000E-002    4.383095647460712E-007
 -1.470000000000000E-002    5.514018687550332E-007
 -1.460000000000000E-002    6.799816382630048E-007
 -1.450000000000000E-002    8.248476766324656E-007
 -1.440000000000000E-002    9.867607348282846E-007
 -1.430000000000000E-002    1.166454525849909E-006
 -1.420000000000000E-002    1.364647549074707E-006
 -1.410000000000000E-002    1.582055971829073E-006
 -1.400000000000000E-002    1.819405394088471E-006
 -1.390000000000000E-002    2.077440389267613E-006
 -1.380000000000000E-002    2.356931186042550E-006
 -1.370000000000000E-002    2.658675517057029E-006
 -1.360000000000000E-002    2.983497250021160E-006
 -1.350000000000000E-002    3.332240576243124E-006
 -1.340000000000000E-002    3.705761824164539E-006
 -1.330000000000000E-002    4.104917936573330E-006
 -1.320000000000000E-002    4.530556696089165E-006
 -1.310000000000000E-002    4.983506635118247E-006
 -1.300000000000000E-002    5.464570637358690E-006
 -1.290000000000000E-002    5.974526770684131E-006
 -1.280000000000000E-002    6.514132048294040E-006
 -1.270000000000000E-002    7.084137694213521E-006
 -1.260000000000000E-002    7.685306540939327E-006
 -1.250000000000000E-002    8.318444787846288E-006
 -1.240000000000000E-002    8.984433264252189E-006
 -1.230000000000000E-002    9.684266035750987E-006
 -1.220000000000000E-002    1.041909151718175E-005
 -1.210000000000000E-002    1.119025228770397E-005
 -1.200000000000000E-002    1.199932132672099E-005
 -1.190000000000000E-002    1.284813100195065E-005
 -1.180000000000000E-002    1.373879808426954E-005
 -1.170000000000000E-002    1.467373534149845E-005
 -1.160000000000000E-002    1.565565915810049E-005
 -1.150000000000000E-002    1.668757682312036E-005
 -1.140000000000000E-002    1.777277424947822E-005
 -1.130000000000000E-002    1.891479338329848E-005
 -1.120000000000000E-002    2.011740107048592E-005
 -1.110000000000000E-002    2.138456209686851E-005
 -1.100000000000000E-002    2.272041137997216E-005
 -1.090000000000000E-002    2.412922528688587E-005
 -1.080000000000000E-002    2.561540424539384E-005
 -1.070000000000000E-002    2.718346832719716E-005
 -1.060000000000000E-002    2.883805531666550E-005
 -1.050000000000000E-002    3.058393430668131E-005
 -1.040000000000000E-002    3.242602787881666E-005
 -1.030000000000000E-002    3.436944418498061E-005
 -1.020000000000000E-002    3.641951522447338E-005
 -1.010000000000000E-002    3.858184602477203E-005
 -1.000000000000000E-002    4.086235573660776E-005
 -9.899999999999999E-003    4.326732323298020E-005
 -9.800000000000000E-003    4.580342691959494E-005
 -9.699999999999999E-003    4.847777425565487E-005
 -9.599999999999999E-003    5.129793033338545E-005
 -9.500000000000000E-003    5.427192046005747E-005
 -9.399999999999999E-003    5.740824842632375E-005
 -9.299999999999999E-003    6.071587208523786E-005
 -9.200000000000000E-003    6.420419276578414E-005
 -9.099999999999999E-003    6.788303306195809E-005
 -8.999999999999999E-003    7.176260900525230E-005
 -8.900000000000000E-003    7.585349495831268E-005
 -8.799999999999999E-003    8.016660859876166E-005
 -8.699999999999999E-003    8.471317628326921E-005
 -8.600000000000000E-003    8.950474253133335E-005
 -8.499999999999999E-003    9.455314223315641E-005
 -8.399999999999999E-003    9.987054732494153E-005
 -8.300000000000000E-003    1.054694667150335E-004
 -8.199999999999999E-003    1.113628020152974E-004
 -8.100000000000000E-003    1.175638903189071E-004
 -8.000000000000000E-003    1.240865961493775E-004
 -7.899999999999999E-003    1.309453482869239E-004
 -7.800000000000000E-003    1.381552564605157E-004
 -7.699999999999999E-003    1.457321796137238E-004
 -7.599999999999999E-003    1.536927835973142E-004
 -7.499999999999999E-003    1.620546611911745E-004
 -7.399999999999999E-003    1.708363397742882E-004
 -7.299999999999999E-003    1.800573768695970E-004
 -7.199999999999999E-003    1.897383605075332E-004
 -7.100000000000000E-003    1.999009350242772E-004
 -6.999999999999999E-003    2.105678238875917E-004
 -6.899999999999999E-003    2.217627592149818E-004
 -6.800000000000000E-003    2.335105189721292E-004
 -6.699999999999999E-003    2.458368385531446E-004
 -6.599999999999999E-003    2.587683787376983E-004
 -6.499999999999999E-003    2.723326472392643E-004
 -6.399999999999999E-003    2.865580647011348E-004
 -6.299999999999999E-003    3.014737953335202E-004
 -6.199999999999999E-003    3.171098242976170E-004
 -6.100000000000000E-003    3.334969078365537E-004
 -5.999999999999999E-003    3.506666526177156E-004
 -5.899999999999999E-003    3.686515234072785E-004
 -5.800000000000000E-003    3.874849033395847E-004
 -5.699999999999999E-003    4.072012121118067E-004
 -5.599999999999999E-003    4.278359910881088E-004
 -5.499999999999999E-003    4.494260348154834E-004
 -5.399999999999999E-003    4.720094648044494E-004
 -5.299999999999999E-003    4.956259457536806E-004
 -5.199999999999999E-003    5.203166946502930E-004
 -5.099999999999999E-003    5.461246041114314E-004
 -4.999999999999999E-003    5.730943053454779E-004
 -4.899999999999999E-003    6.012723059477883E-004
 -4.799999999999999E-003    6.307069249053574E-004
 -4.699999999999999E-003    6.614483081554542E-004
 -4.599999999999999E-003    6.935484082665423E-004
 -4.499999999999999E-003    7.270608998822282E-004
 -4.399999999999999E-003    7.620412361698638E-004
 -4.299999999999999E-003    7.985464145822067E-004
 -4.199999999999999E-003    8.366349792011886E-004
 -4.099999999999999E-003    8.763669924241408E-004
 -3.999999999999999E-003    9.178037818927419E-004
 -3.899999999999999E-003    9.610082970616723E-004
 -3.799999999999999E-003    1.006044664239256E-003
 -3.699999999999999E-003    1.052978478974141E-003
 -3.599999999999999E-003    1.101876739259521E-003
 -3.499999999999999E-003    1.152807855695914E-003
 -3.399999999999999E-003    1.205842061478854E-003
 -3.299999999999999E-003    1.261051226448344E-003
 -3.199999999999999E-003    1.318508965764902E-003
 -3.099999999999999E-003    1.378291020782713E-003
 -2.999999999999999E-003    1.440475193536536E-003
 -2.899999999999999E-003    1.505141532623339E-003
 -2.799999999999999E-003    1.572372349125506E-003
 -2.699999999999999E-003    1.642252297587274E-003
 -2.599999999999999E-003    1.714868610263409E-003
 -2.499999999999999E-003    1.790310703447409E-003
 -2.399999999999999E-003    1.868670262292159E-003
 -2.299999999999999E-003    1.950041285150189E-003
 -2.199999999999999E-003    2.034520128069414E-003
 -2.099999999999999E-003    2.122204758903386E-003
 -1.999999999999999E-003    2.213195349989159E-003
 -1.899999999999999E-003    2.307593825126452E-003
 -1.799999999999999E-003    2.405503771932061E-003
 -1.699999999999999E-003    2.507030069686248E-003
 -1.599999999999999E-003    2.612279398707225E-003
 -1.499999999999999E-003    2.721359801629686E-003
 -1.399999999999999E-003    2.834380544226143E-003
 -1.299999999999999E-003    2.951452366936664E-003
 -1.199999999999999E-003    3.072688058586581E-003
 -1.099999999999999E-003    3.198201043283102E-003
 -9.999999999999989E-004    3.328107131294377E-003
 -8.999999999999990E-004    3.462523286192709E-003
 -7.999999999999990E-004    3.601568410830092E-003
 -6.999999999999989E-004    3.745363327653121E-003
 -5.999999999999990E-004    3.894030167220877E-003
 -4.999999999999989E-004    4.047692979305353E-003
 -3.999999999999989E-004    4.206477845386510E-003
 -2.999999999999989E-004    4.370512280488369E-003
 -1.999999999999989E-004    4.539924846687181E-003
 -9.999999999999892E-005    4.714845948525212E-003
  1.084202172485504E-018    4.895407077910314E-003
  1.000000000000011E-004    5.081740229243007E-003
  2.000000000000011E-004    5.273978201420786E-003
  3.000000000000011E-004    5.472254008717157E-003
  4.000000000000011E-004    5.676700949280611E-003
  5.000000000000011E-004    5.887452226175994E-003
  6.000000000000011E-004    6.104640706795881E-003
  7.000000000000011E-004    6.328399062983952E-003
  8.000000000000011E-004    6.558858867816948E-003
  9.000000000000012E-004    6.796150650840243E-003
  1.000000000000001E-003    7.040404847677978E-003
  1.100000000000001E-003    7.291750300614640E-003
  1.200000000000001E-003    7.550314236713851E-003
  1.300000000000001E-003    7.816222762942741E-003
  1.400000000000001E-003    8.089601060351847E-003
  1.500000000000001E-003    8.370571740304788E-003
  1.600000000000001E-003    8.659256221471361E-003
  1.700000000000001E-003    8.955773722373354E-003
  1.800000000000001E-003    9.260240996223306E-003
  1.900000000000001E-003    9.572772321063724E-003
  2.000000000000001E-003    9.893478951207742E-003
  2.100000000000001E-003    1.022246961647858E-002
  2.200000000000001E-003    1.055984943336962E-002
  2.300000000000001E-003    1.090572001124207E-002
  2.400000000000001E-003    1.126017829704747E-002
  2.500000000000001E-003    1.162331740819533E-002
  2.600000000000001E-003    1.199522556696913E-002
  2.700000000000001E-003    1.237598450827160E-002
  2.800000000000001E-003    1.276567176003511E-002
  2.900000000000001E-003    1.316435829989580E-002
  3.000000000000001E-003    1.357210803176956E-002
  3.100000000000001E-003    1.398897866858971E-002
  3.200000000000001E-003    1.441501983236420E-002
  3.300000000000001E-003    1.485027629322028E-002
  3.400000000000001E-003    1.529478035624058E-002
  3.500000000000001E-003    1.574855926165843E-002
  3.600000000000001E-003    1.621162919317776E-002
  3.700000000000001E-003    1.668399862908725E-002
  3.800000000000001E-003    1.716566654471911E-002
  3.900000000000001E-003    1.765662130775125E-002
  4.000000000000001E-003    1.815684092551405E-002
  4.100000000000001E-003    1.866629242408461E-002
  4.200000000000001E-003    1.918492993415261E-002
  4.300000000000001E-003    1.971269897643519E-002
  4.400000000000001E-003    2.024952957658418E-002
  4.500000000000001E-003    2.079533857212509E-002
  4.600000000000002E-003    2.135003183760418E-002
  4.700000000000001E-003    2.191349965739416E-002
  4.800000000000001E-003    2.248561748716759E-002
  4.900000000000002E-003    2.306624501102064E-002
  5.000000000000001E-003    2.365522751681894E-002
  5.100000000000001E-003    2.425239521604547E-002
  5.200000000000001E-003    2.485755966327788E-002
  5.300000000000002E-003    2.547051770958288E-002
  5.400000000000001E-003    2.609104755059335E-002
  5.500000000000001E-003    2.671890995488573E-002
  5.600000000000002E-003    2.735384775985952E-002
  5.700000000000001E-003    2.799558336734623E-002
  5.800000000000001E-003    2.864382229754158E-002
  5.900000000000002E-003    2.929824964528933E-002
  6.000000000000001E-003    2.995853066256219E-002
  6.100000000000001E-003    3.062430621656693E-002
  6.200000000000002E-003    3.129520042358113E-002
  6.300000000000002E-003    3.197081480827738E-002
  6.400000000000001E-003    3.265072451515370E-002
  6.500000000000001E-003    3.333448558805895E-002
  6.600000000000002E-003    3.402162965772942E-002
  6.700000000000001E-003    3.471166181001124E-002
  6.800000000000001E-003    3.540406400129455E-002
  6.900000000000002E-003    3.609829325354709E-002
  7.000000000000001E-003    3.679377883645173E-002
  7.100000000000001E-003    3.748992896433861E-002
  7.200000000000002E-003    3.818612168910995E-002
  7.300000000000002E-003    3.888170916983194E-002
  7.400000000000001E-003    3.957601717862588E-002
  7.500000000000001E-003    4.026834315748818E-002
  7.600000000000002E-003    4.095796361139977E-002
  7.700000000000001E-003    4.164411879994276E-002
  7.800000000000001E-003    4.232603100346762E-002
  7.900000000000001E-003    4.300288743725812E-002
  8.000000000000002E-003    4.367385208320303E-002
  8.100000000000001E-003    4.433806170646862E-002
  8.200000000000001E-003    4.499462124759215E-002
  8.300000000000002E-003    4.564261138583264E-002
  8.400000000000001E-003    4.628107946049700E-002
  8.500000000000002E-003    4.690905053350047E-002
  8.600000000000002E-003    4.752551635308585E-002
  8.700000000000001E-003    4.812944041078605E-002
  8.800000000000002E-003    4.871975897057246E-002
  8.900000000000002E-003    4.929537635731443E-002
  9.000000000000001E-003    4.985516952585377E-002
  9.100000000000002E-003    5.039798513306323E-002
  9.200000000000002E-003    5.092263834128326E-002
  9.300000000000001E-003    5.142791832911382E-002
  9.400000000000002E-003    5.191258766211190E-002
  9.500000000000001E-003    5.237537596047593E-002
  9.600000000000001E-003    5.281499075468927E-002
  9.700000000000002E-003    5.323010863424175E-002
  9.800000000000001E-003    5.361938282335232E-002
  9.900000000000001E-003    5.398143859440193E-002
  1.000000000000000E-002    5.431487696987358E-002
  1.010000000000000E-002    5.461827727452941E-002
  1.020000000000000E-002    5.489019341614879E-002
  1.030000000000000E-002    5.512915602833536E-002
  1.040000000000000E-002    5.533367626195575E-002
  1.050000000000000E-002    5.550223993644966E-002
  1.060000000000000E-002    5.563331583864933E-002
  1.070000000000000E-002    5.572534994158196E-002
  1.080000000000000E-002    5.577677097063068E-002
  1.090000000000000E-002    5.578598852142485E-002
  1.100000000000000E-002    5.575139341814110E-002
  1.110000000000000E-002    5.567136183354277E-002
  1.120000000000000E-002    5.554425552664491E-002
  1.130000000000000E-002    5.536841411438827E-002
  1.140000000000000E-002    5.514217359275165E-002
  1.150000000000000E-002    5.486384826680783E-002
  1.160000000000000E-002    5.453175245134916E-002
  1.170000000000000E-002    5.414417955264813E-002
  1.180000000000000E-002    5.369942275459035E-002
  1.190000000000000E-002    5.319576594580437E-002
  1.200000000000000E-002    5.263148565592601E-002
  1.210000000000000E-002    5.200485899505021E-002
  1.220000000000000E-002    5.131415784561891E-002
  1.230000000000000E-002    5.055766142013576E-002
  1.240000000000000E-002    4.973364068100540E-002
  1.250000000000000E-002    4.884037914507072E-002
  1.260000000000000E-002    4.787615385556245E-002
  1.270000000000000E-002    4.683926542706231E-002
  1.280000000000000E-002    4.572801050686291E-002
  1.290000000000000E-002    4.454070058807884E-002
  1.300000000000000E-002    4.327566133834183E-002
  1.310000000000000E-002    4.193123634659184E-002
  1.320000000000000E-002    4.050577788106204E-002
  1.330000000000000E-002    3.899766640326529E-002
  1.340000000000000E-002    3.740529408316488E-002
  1.350000000000000E-002    3.572708135719379E-002
  1.360000000000000E-002    3.396147385460346E-002
  1.370000000000000E-002    3.210694154485070E-002
  1.380000000000000E-002    3.016198296691974E-002
  1.390000000000000E-002    2.812512739694175E-002
  1.400000000000000E-002    2.599493983870983E-002
  1.410000000000000E-002    2.377001819251060E-002
  1.420000000000000E-002    2.144899649644372E-002
  1.430000000000000E-002    1.903055192758386E-002
  1.440000000000000E-002    1.651339866799133E-002
  1.450000000000000E-002    1.389629623410511E-002
  1.460000000000000E-002    1.117805167147171E-002
  1.470000000000000E-002    8.357518868279059E-003
  1.480000000000000E-002    5.433603395209826E-003
  1.490000000000000E-002    2.405263578244980E-003
  1.500000000000000E-002   -7.284867356817601E-004
  1.510000000000000E-002   -3.968577965306704E-003
  1.520000000000000E-002   -7.315878056433725E-003
  1.530000000000000E-002   -1.077119633992093E-002
  1.540000000000000E-002   -1.433527556586954E-002
  1.550000000000000E-002   -1.800878967599601E-002
  1.560000000000000E-002   -2.179234962068896E-002
  1.570000000000000E-002   -2.568649263319035E-002
  1.580000000000000E-002   -2.969168350062199E-002
  1.590000000000000E-002   -3.380831390407798E-002
  1.600000000000000E-002   -3.803669953633065E-002
  1.610000000000000E-002   -4.237707865756386E-002
  1.620000000000000E-002   -4.682961067783133E-002
  1.630000000000000E-002   -5.139437107586941E-002
  1.640000000000000E-002   -5.607135025297662E-002
  1.650000000000000E-002   -6.086045630532496E-002
  1.660000000000000E-002   -6.576151324538528E-002
  1.670000000000000E-002   -7.077425609056534E-002
  1.680000000000000E-002   -7.589832524007374E-002
  1.690000000000000E-002   -8.113328008883630E-002
  1.700000000000000E-002   -8.647858231798669E-002
  1.710000000000000E-002   -9.193360006935439E-002
  1.720000000000000E-002   -9.749760113150248E-002
  1.730000000000000E-002   -0.103169771490412     
  1.740000000000000E-002   -0.108949194443160     
  1.750000000000000E-002   -0.114834849837083     
  1.760000000000000E-002   -0.120825625324691     
  1.770000000000000E-002   -0.126920315833127     
  1.780000000000000E-002   -0.133117596527524     
  1.790000000000000E-002   -0.139416055450527     
  1.800000000000000E-002   -0.145814169962018     
  1.810000000000000E-002   -0.152310330991537     
  1.820000000000000E-002   -0.158902803788635     
  1.830000000000000E-002   -0.165589783389530     
  1.840000000000000E-002   -0.172369338774258     
  1.850000000000000E-002   -0.179239444441451     
  1.860000000000000E-002   -0.186197967042891     
  1.870000000000000E-002   -0.193242668823141     