 -4.000000000000000E-002    0.000000000000000E+000
 -3.990000000000000E-002    0.000000000000000E+000
 -3.980000000000000E-002   -3.456079722477739E-013
 -3.970000000000000E-002   -1.338351643434010E-012
 -3.960000000000000E-002   -2.583083562542058E-012
 -3.950000000000000E-002   -2.359327150593912E-012
 -3.940000000000000E-002    2.638408914606535E-012
 -3.930000000000000E-002    1.689229505106813E-011
 -3.920000000000000E-002    4.483399032856792E-011
 -3.910000000000000E-002    8.887034222745835E-011
 -3.900000000000000E-002    1.469814922693785E-010
 -3.890000000000000E-002    2.104245267092774E-010
 -3.880000000000000E-002    2.621937254953223E-010
 -3.870000000000000E-002    2.768702792057459E-010
 -3.860000000000000E-002    2.223235165718572E-010
 -3.850000000000000E-002    6.341539929652229E-011
 -3.840000000000000E-002   -2.325333828510877E-010
 -3.830000000000000E-002   -6.891689921702492E-010
 -3.820000000000000E-002   -1.314415284661559E-009
 -3.810000000000000E-002   -2.094843550421581E-009
 -3.800000000000000E-002   -2.992253348351304E-009
 -3.790000000000000E-002   -3.943362815766030E-009
 -3.780000000000000E-002   -4.863038222007546E-009
 -3.770000000000000E-002   -5.650894168197747E-009
 -3.760000000000000E-002   -6.200464325216310E-009
 -3.750000000000000E-002   -6.409587514323563E-009
 -3.740000000000000E-002   -6.190326873498661E-009
 -3.730000000000000E-002   -5.476692713651429E-009
 -3.720000000000000E-002   -4.228744986473363E-009
 -3.710000000000000E-002   -2.432275693862657E-009
 -3.700000000000000E-002   -9.413083750658854E-011
 -3.690000000000000E-002    2.765806657309021E-009
 -3.680000000000000E-002    6.124091621300134E-009
 -3.670000000000000E-002    9.962136202723766E-009
 -3.660000000000000E-002    1.427090232433240E-008
 -3.650000000000000E-002    1.904950085603987E-008
 -3.640000000000000E-002    2.429621632167179E-008
 -3.630000000000000E-002    2.999178288950121E-008
 -3.620000000000000E-002    3.607634654444784E-008
 -3.610000000000000E-002    4.242315694565917E-008
 -3.600000000000000E-002    4.881338205612824E-008
 -3.590000000000000E-002    5.491731593105439E-008
 -3.580000000000000E-002    6.028725360422878E-008
 -3.570000000000000E-002    6.436652883596940E-008
 -3.560000000000000E-002    6.651748212440549E-008
 -3.550000000000000E-002    6.606873503313041E-008
 -3.540000000000000E-002    6.237922195314826E-008
 -3.530000000000000E-002    5.491357539560819E-008
 -3.520000000000000E-002    4.332084319972778E-008
 -3.510000000000000E-002    2.750691364464103E-008
 -3.500000000000000E-002    7.690371606762478E-009
 -3.490000000000000E-002   -1.556753213076952E-008
 -3.480000000000000E-002   -4.136600894559021E-008
 -3.470000000000000E-002   -6.850454136252031E-008
 -3.460000000000000E-002   -9.555878892377460E-008
 -3.450000000000000E-002   -1.209872618741329E-007
 -3.440000000000000E-002   -1.432591342592698E-007
 -3.430000000000000E-002   -1.609902623004855E-007
 -3.420000000000000E-002   -1.730723281158087E-007
 -3.410000000000000E-002   -1.787799829157832E-007
 -3.400000000000000E-002   -1.778429105620649E-007
 -3.390000000000000E-002   -1.704729233449544E-007
 -3.380000000000000E-002   -1.573417487854969E-007
 -3.370000000000000E-002   -1.395107782450919E-007
 -3.360000000000000E-002   -1.183201411800795E-007
 -3.350000000000000E-002   -9.524970572073702E-008
 -3.340000000000000E-002   -7.176834753199254E-008
 -3.330000000000000E-002   -4.918966827098299E-008
 -3.320000000000000E-002   -2.855179587543151E-008
 -3.310000000000000E-002   -1.053603583566195E-008
 -3.300000000000000E-002    4.565605188120522E-009
 -3.290000000000000E-002    1.683026993661396E-008
 -3.280000000000000E-002    2.663440526411249E-008
 -3.270000000000000E-002    3.454369307225783E-008
 -3.260000000000000E-002    4.117744015915257E-008
 -3.250000000000000E-002    4.706546620544471E-008
 -3.240000000000000E-002    5.251662227552925E-008
 -3.230000000000000E-002    5.751645968140533E-008
 -3.220000000000000E-002    6.166784039625782E-008
 -3.210000000000000E-002    6.418269384933341E-008
 -3.200000000000000E-002    6.392636114168483E-008
 -3.190000000000000E-002    5.950933103269507E-008
 -3.180000000000000E-002    4.941512598574249E-008
 -3.170000000000000E-002    3.214856511368088E-008
 -3.160000000000000E-002    6.386486856650940E-009
 -3.150000000000000E-002   -2.888705262785881E-008
 -3.140000000000000E-002   -7.427702351093884E-008
 -3.130000000000000E-002   -1.299156504386780E-007
 -3.120000000000000E-002   -1.954494147122484E-007
 -3.110000000000000E-002   -2.700742601010346E-007
 -3.100000000000000E-002   -3.526135193745184E-007
 -3.090000000000000E-002   -4.416286225473554E-007
 -3.080000000000000E-002   -5.355502790503557E-007
 -3.070000000000000E-002   -6.328166658779468E-007
 -3.060000000000000E-002   -7.320067228795705E-007
 -3.050000000000000E-002   -8.319603358520167E-007
 -3.040000000000000E-002   -9.318773913765731E-007
 -3.030000000000000E-002   -1.031397192865311E-006
 -3.020000000000000E-002   -1.130657400246377E-006
 -3.010000000000000E-002   -1.230338438071281E-006
 -3.000000000000000E-002   -1.331696016879677E-006
 -2.990000000000000E-002   -1.436588707437042E-006
 -2.980000000000000E-002   -1.547498275793080E-006
 -2.970000000000000E-002   -1.667545384092259E-006
 -2.960000000000000E-002   -1.800492139754216E-006
 -2.950000000000000E-002   -1.950727427101596E-006
 -2.940000000000000E-002   -2.123224043139445E-006
 -2.930000000000000E-002   -2.323459580297529E-006
 -2.920000000000000E-002   -2.557296749961096E-006
 -2.910000000000000E-002   -2.830819432880117E-006
 -2.900000000000000E-002   -3.150131660584127E-006
 -2.890000000000000E-002   -3.521128840824197E-006
 -2.880000000000000E-002   -3.949259734737842E-006
 -2.870000000000000E-002   -4.439302494304514E-006
 -2.860000000000000E-002   -4.995177431830750E-006
 -2.850000000000000E-002   -5.619824437452200E-006
 -2.840000000000000E-002   -6.315162735030120E-006
 -2.830000000000000E-002   -7.082147516077431E-006
 -2.820000000000000E-002   -7.920926183010369E-006
 -2.810000000000000E-002   -8.831095794970200E-006
 -2.800000000000000E-002   -9.812022501661916E-006
 -2.790000000000000E-002   -1.086322426005388E-005
 -2.780000000000000E-002   -1.198475790177959E-005
 -2.770000000000000E-002   -1.317757780583336E-005
 -2.760000000000000E-002   -1.444384292930310E-005
 -2.750000000000000E-002   -1.578712005183084E-005
 -2.740000000000000E-002   -1.721247251126874E-005
 -2.730000000000000E-002   -1.872643329437340E-005
 -2.720000000000000E-002   -2.033684651886133E-005
 -2.710000000000000E-002   -2.205260843104243E-005
 -2.700000000000000E-002   -2.388334354499999E-005
 -2.690000000000000E-002   -2.583903574620667E-005
 -2.680000000000000E-002   -2.792968091502125E-005
 -2.670000000000000E-002   -3.016497025367100E-005
 -2.660000000000000E-002   -3.255406492747290E-005
 -2.650000000000000E-002   -3.510548388974877E-005
 -2.640000000000000E-002   -3.782708540769988E-005
 -2.630000000000000E-002   -4.072618292950286E-005
 -2.620000000000000E-002   -4.380976648547470E-005
 -2.610000000000000E-002   -4.708474862766917E-005
 -2.600000000000000E-002   -5.055831644429420E-005
 -2.590000000000000E-002   -5.423821800007609E-005
 -2.580000000000000E-002   -5.813307459006702E-005
 -2.570000000000000E-002   -6.225258621747894E-005
 -2.560000000000000E-002   -6.660771703720097E-005
 -2.550000000000000E-002   -7.121073942288652E-005
 -2.540000000000000E-002   -7.607524066162720E-005
 -2.530000000000000E-002   -8.121606126192976E-005
 -2.520000000000000E-002   -8.664920890743657E-005
 -2.510000000000000E-002   -9.239171292390450E-005
 -2.500000000000000E-002   -9.846154908378439E-005
 -2.490000000000000E-002   -1.048775660864674E-004
 -2.480000000000000E-002   -1.116594683379983E-004
 -2.470000000000000E-002   -1.188278372922477E-004
 -2.460000000000000E-002   -1.264042246240092E-004
 -2.450000000000000E-002   -1.344112400690033E-004
 -2.440000000000000E-002   -1.428726704212508E-004
 -2.430000000000000E-002   -1.518136212672572E-004
 -2.420000000000000E-002   -1.612605909570875E-004
 -2.410000000000000E-002   -1.712415081551614E-004
 -2.400000000000000E-002   -1.817857428427962E-004
 -2.390000000000000E-002   -1.929240812142980E-004
 -2.380000000000000E-002   -2.046886656551641E-004
 -2.370000000000000E-002   -2.171128672936594E-004
 -2.360000000000000E-002   -2.302312614379124E-004
 -2.350000000000000E-002   -2.440795054124845E-004
 -2.340000000000000E-002   -2.586944521548654E-004
 -2.330000000000000E-002   -2.741140930318986E-004
 -2.320000000000000E-002   -2.903777844200563E-004
 -2.310000000000000E-002   -3.075263671911565E-004
 -2.300000000000000E-002   -3.256024421224037E-004
 -2.290000000000000E-002   -3.446507442624761E-004
 -2.280000000000000E-002   -3.647182906915240E-004
 -2.270000000000000E-002   -3.858547398286575E-004
 -2.260000000000000E-002   -4.081125640484505E-004
 -2.250000000000000E-002   -4.315473074584274E-004
 -2.240000000000000E-002   -4.562175296934500E-004
 -2.230000000000000E-002   -4.821849875100235E-004
 -2.220000000000000E-002   -5.095144392237798E-004
 -2.210000000000000E-002   -5.382737434226038E-004
 -2.200000000000000E-002   -5.685336411355696E-004
 -2.190000000000000E-002   -6.003677768700638E-004
 -2.180000000000000E-002   -6.338525087942861E-004
 -2.170000000000000E-002   -6.690671936795418E-004
 -2.160000000000000E-002   -7.060941218889371E-004
 -2.150000000000000E-002   -7.450186313051887E-004
 -2.140000000000000E-002   -7.859295319087711E-004
 -2.130000000000000E-002   -8.289191512551020E-004
 -2.120000000000000E-002   -8.740838215995676E-004
 -2.110000000000000E-002   -9.215240790563887E-004
 -2.100000000000000E-002   -9.713450595467387E-004
 -2.090000000000000E-002   -1.023656546787078E-003
 -2.080000000000000E-002   -1.078573217056619E-003
 -2.070000000000000E-002   -1.136214715733002E-003
 -2.060000000000000E-002   -1.196705828800776E-003
 -2.050000000000000E-002   -1.260176145045906E-003
 -2.040000000000000E-002   -1.326760593549861E-003
 -2.030000000000000E-002   -1.396598982723247E-003
 -2.020000000000000E-002   -1.469836080168176E-003
 -2.010000000000000E-002   -1.546621747283152E-003
 -2.000000000000000E-002   -1.627111179306421E-003
 -1.990000000000000E-002   -1.711465157779184E-003
 -1.980000000000000E-002   -1.799849974948801E-003
 -1.970000000000000E-002   -1.892438217348860E-003
 -1.960000000000000E-002   -1.989408991818514E-003
 -1.950000000000000E-002   -2.090947950263717E-003
 -1.940000000000000E-002   -2.197248380264355E-003
 -1.930000000000000E-002   -2.308511220882906E-003
 -1.920000000000000E-002   -2.424945180543442E-003
 -1.910000000000000E-002   -2.546767459061707E-003
 -1.900000000000000E-002   -2.674203450305928E-003
 -1.890000000000000E-002   -2.807487409107385E-003
 -1.880000000000000E-002   -2.946862615445038E-003
 -1.870000000000000E-002   -3.092581309394979E-003
 -1.860000000000000E-002   -3.244904807521912E-003
 -1.850000000000000E-002   -3.404103792099488E-003
 -1.840000000000000E-002   -3.570458190682311E-003
 -1.830000000000000E-002   -3.744257404978551E-003
 -1.820000000000000E-002   -3.925800386688561E-003
 -1.810000000000000E-002   -4.115396330570843E-003
 -1.800000000000000E-002   -4.313364161735550E-003
 -1.790000000000000E-002   -4.520032458931613E-003
 -1.780000000000000E-002   -4.735740422833960E-003
 -1.770000000000000E-002   -4.960837426781569E-003
 -1.760000000000000E-002   -5.195682716634422E-003
 -1.750000000000000E-002   -5.440646873447361E-003
 -1.740000000000000E-002   -5.696110881134291E-003
 -1.730000000000000E-002   -5.962466546075747E-003
 -1.720000000000000E-002   -6.240117176255933E-003
 -1.710000000000000E-002   -6.529477105946425E-003
 -1.700000000000000E-002   -6.830973989536086E-003
 -1.690000000000000E-002   -7.145048307398188E-003
 -1.680000000000000E-002   -7.472152772066379E-003
 -1.670000000000000E-002   -7.812754878332141E-003
 -1.660000000000000E-002   -8.167336459940517E-003
 -1.650000000000000E-002   -8.536395205152199E-003
 -1.640000000000000E-002   -8.920443525751089E-003
 -1.630000000000000E-002   -9.320010795464767E-003
 -1.620000000000000E-002   -9.735641914774088E-003
 -1.610000000000000E-002   -1.016789636476480E-002
 -1.600000000000000E-002   -1.061735090902054E-002
 -1.590000000000000E-002   -1.108459712630380E-002
 -1.580000000000000E-002   -1.157024173779116E-002
 -1.570000000000000E-002   -1.207490539776688E-002
 -1.560000000000000E-002   -1.259922580273121E-002
 -1.550000000000000E-002   -1.314385257627840E-002
 -1.540000000000000E-002   -1.370944991208528E-002
 -1.530000000000000E-002   -1.429669788165048E-002
 -1.520000000000000E-002   -1.490629106481689E-002
 -1.510000000000000E-002   -1.553893945032432E-002
 -1.500000000000000E-002   -1.619537001617475E-002
 -1.490000000000000E-002   -1.687632573394185E-002
 -1.480000000000000E-002   -1.758256561560741E-002
 -1.470000000000000E-002   -1.831487064733342E-002
 -1.460000000000000E-002   -1.907403596106521E-002
 -1.450000000000000E-002   -1.986087715475944E-002
 -1.440000000000000E-002   -2.067622655244595E-002
 -1.430000000000000E-002   -2.152093607339307E-002
 -1.420000000000000E-002   -2.239587640278218E-002
 -1.410000000000000E-002   -2.330193600491344E-002
 -1.400000000000000E-002   -2.424001631934732E-002
 -1.390000000000000E-002   -2.521103931315279E-002
 -1.380000000000000E-002   -2.621593875155291E-002
 -1.370000000000000E-002   -2.725566539956661E-002
 -1.360000000000000E-002   -2.833118821510195E-002
 -1.350000000000000E-002   -2.944348874876744E-002
 -1.340000000000000E-002   -3.059356491037218E-002
 -1.330000000000000E-002   -3.178242928490338E-002
 -1.320000000000000E-002   -3.301111100201989E-002
 -1.310000000000000E-002   -3.428065482112720E-002
 -1.300000000000000E-002   -3.559212217078298E-002
 -1.290000000000000E-002   -3.694659028487959E-002
 -1.280000000000000E-002   -3.834515089445759E-002
 -1.270000000000000E-002   -3.978891079803476E-002
 -1.260000000000000E-002   -4.127899346750286E-002
 -1.250000000000000E-002   -4.281653728415982E-002
 -1.240000000000000E-002   -4.440268998143999E-002
 -1.230000000000000E-002   -4.603861103832713E-002
 -1.220000000000000E-002   -4.772547410775133E-002
 -1.210000000000000E-002   -4.946446483911123E-002
 -1.200000000000000E-002   -5.125676889808676E-002
 -1.190000000000000E-002   -5.310359088900497E-002
 -1.180000000000000E-002   -5.500614088295488E-002
 -1.170000000000000E-002   -5.696562821191189E-002
 -1.160000000000000E-002   -5.898328286230509E-002
 -1.150000000000000E-002   -6.106032793063526E-002
 -1.140000000000000E-002   -6.319800571062366E-002
 -1.130000000000000E-002   -6.539754607733264E-002
 -1.120000000000000E-002   -6.766019930080343E-002
 -1.110000000000000E-002   -6.998721030414165E-002
 -1.100000000000000E-002   -7.237982701117852E-002
 -1.090000000000000E-002   -7.483930559999061E-002
 -1.080000000000000E-002   -7.736689212649069E-002
 -1.070000000000000E-002   -7.996383400715557E-002
 -1.060000000000000E-002   -8.263137654354734E-002
 -1.050000000000000E-002   -8.537076109168273E-002
 -1.040000000000000E-002   -8.818321957145389E-002
 -1.030000000000000E-002   -9.106998247202405E-002
 -1.020000000000000E-002   -9.403226323158792E-002
 -1.010000000000000E-002   -9.707125972330666E-002
 -1.000000000000000E-002   -0.100188180499861     
 -9.899999999999999E-003   -0.103384198334419     
 -9.800000000000000E-003   -0.106660474130761     
 -9.699999999999999E-003   -0.110018161613642     
 -9.599999999999999E-003   -0.113458386028307     
 -9.500000000000000E-003   -0.116982264432745     
 -9.399999999999999E-003   -0.120590882180531     
 -9.299999999999999E-003   -0.124285301592355     
 -9.200000000000000E-003   -0.128066558735354     
 -9.099999999999999E-003   -0.131935656768579     
 -8.999999999999999E-003   -0.135893582789093     
 -8.900000000000000E-003   -0.139941278759474     
 -8.799999999999999E-003   -0.144079656462275     
 -8.699999999999999E-003   -0.148309589470019     
 -8.600000000000000E-003   -0.152631913223055     
 -8.499999999999999E-003   -0.157047428891515     
 -8.399999999999999E-003   -0.161556868424053     
 -8.300000000000000E-003   -0.166160950541138     
 -8.199999999999999E-003   -0.170860319597952     
 -8.100000000000000E-003   -0.175655589573952     
 -8.000000000000000E-003   -0.180547311141603     
 -7.899999999999999E-003   -0.185535981504109     
 -7.800000000000000E-003   -0.190622031555829     
 -7.699999999999999E-003   -0.195805850249935     
 -7.599999999999999E-003   -0.201087757696512     
 -7.499999999999999E-003   -0.206467993557868     
 -7.399999999999999E-003   -0.211946767557915     
 -7.299999999999999E-003   -0.217524177352069     
 -7.199999999999999E-003   -0.223200235276864     
 -7.100000000000000E-003   -0.228974929482082     
 -6.999999999999999E-003   -0.234848134972694     
 -6.899999999999999E-003   -0.240819669126523     
 -6.800000000000000E-003   -0.246889220373440     
 -6.699999999999999E-003   -0.253056448953643     
 -6.599999999999999E-003   -0.259320900943017     
 -6.499999999999999E-003   -0.265682027716918     
 -6.399999999999999E-003   -0.272139189309227     
 -6.299999999999999E-003   -0.278691635319011     
 -6.199999999999999E-003   -0.285338541182271     
 -6.100000000000000E-003   -0.292078992370655     
 -5.999999999999999E-003   -0.298911943271874     
 -5.899999999999999E-003   -0.305836256955426     
 -5.800000000000000E-003   -0.312850676344457     
 -5.699999999999999E-003   -0.319953825009393     
 -5.599999999999999E-003   -0.327144228578037     
 -5.499999999999999E-003   -0.334420279936076     
 -5.399999999999999E-003   -0.341780277546081     
 -5.299999999999999E-003   -0.349222379859634     
 -5.199999999999999E-003   -0.356744616801841     
 -5.099999999999999E-003   -0.364344947113304     
 -4.999999999999999E-003   -0.372021129828103     
 -4.899999999999999E-003   -0.379770851934507     
 -4.799999999999999E-003   -0.387591645936386     
 -4.699999999999999E-003   -0.395480911430777     
 -4.599999999999999E-003   -0.403435979690442     
 -4.499999999999999E-003   -0.411453943987748     
 -4.399999999999999E-003   -0.419531855359392     
 -4.299999999999999E-003   -0.427666559470043     
 -4.199999999999999E-003   -0.435854805855905     
 -4.099999999999999E-003   -0.444093196613975     
 -3.999999999999999E-003   -0.452378206685821     
 -3.899999999999999E-003   -0.460706133014683     
 -3.799999999999999E-003   -0.469073172570133     
 -3.699999999999999E-003   -0.477475351331646     
 -3.599999999999999E-003   -0.485908576546086     
 -3.499999999999999E-003   -0.494368583980742     
 -3.399999999999999E-003   -0.502850984002400     
 -3.299999999999999E-003   -0.511351262090240     
 -3.199999999999999E-003   -0.519864725852154     
 -3.099999999999999E-003   -0.528386603991271     
 -2.999999999999999E-003   -0.536911959674334     
 -2.899999999999999E-003   -0.545435730990777     
 -2.799999999999999E-003   -0.553952657590187     
 -2.699999999999999E-003   -0.562457397097779     
 -2.599999999999999E-003   -0.570944452508284     
 -2.499999999999999E-003   -0.579408241816657     
 -2.399999999999999E-003   -0.587842952085483     
 -2.299999999999999E-003   -0.596242768800461     
 -2.199999999999999E-003   -0.604601608961550     
 -2.099999999999999E-003   -0.612913378422701     
 -1.999999999999999E-003   -0.621171800279979     
 -1.899999999999999E-003   -0.629370519215903     
 -1.799999999999999E-003   -0.637503021026200     
 -1.699999999999999E-003   -0.645562714801437     
 -1.599999999999999E-003   -0.653542887663146     
 -1.499999999999999E-003   -0.661436754643966     
 -1.399999999999999E-003   -0.669237389350389     
 -1.299999999999999E-003   -0.676937710975436     
 -1.199999999999999E-003   -0.684530670057744     
 -1.099999999999999E-003   -0.692009078026210     
 -9.999999999999989E-004   -0.699365616877897     
 -8.999999999999990E-004   -0.706592938924661     
 -7.999999999999990E-004   -0.713683589041801     
 -6.999999999999989E-004   -0.720630043492142     
 -5.999999999999990E-004   -0.727424746124419     
 -4.999999999999989E-004   -0.734060066169733     
 -3.999999999999989E-004   -0.740528356695310     
 -2.999999999999989E-004   -0.746821845231696     
 -1.999999999999989E-004   -0.752932801126468     
 -9.999999999999892E-005   -0.758853413957269     
  1.084202172485504E-018   -0.764575860049752     
  1.000000000000011E-004   -0.770092330684693     
  2.000000000000011E-004   -0.775394957428059     
  3.000000000000011E-004   -0.780475921897166     
  4.000000000000011E-004   -0.785327350544095     
  5.000000000000011E-004   -0.789941365271894     
  6.000000000000011E-004   -0.794310190927205     
  7.000000000000011E-004   -0.798425992725815     
  8.000000000000011E-004   -0.802281012413501     
  9.000000000000012E-004   -0.805867507618043     
  1.000000000000001E-003   -0.809177867281210     
  1.100000000000001E-003   -0.812204437685659     
  1.200000000000001E-003   -0.814939633994468     
  1.300000000000001E-003   -0.817376035455653     
  1.400000000000001E-003   -0.819506244464194     
  1.500000000000001E-003   -0.821323018138199     
  1.600000000000001E-003   -0.822819137534860     
  1.700000000000001E-003   -0.823987559748976     
  1.800000000000001E-003   -0.824821310551608     
  1.900000000000001E-003   -0.825313619994053     
  2.000000000000001E-003   -0.825457764409989     
  2.100000000000001E-003   -0.825247218748144     
  2.200000000000001E-003   -0.824675570925502     
  2.300000000000001E-003   -0.823736658722626     
  2.400000000000001E-003   -0.822424428453242     
  2.500000000000001E-003   -0.820732998380617     
  2.600000000000001E-003   -0.818656675627165     
  2.700000000000001E-003   -0.816190013499110     
  2.800000000000001E-003   -0.813327743690450     
  2.900000000000001E-003   -0.810064880824462     
  3.000000000000001E-003   -0.806396557546839     
  3.100000000000001E-003   -0.802318219177144     
  3.200000000000001E-003   -0.797825556511581     
  3.300000000000001E-003   -0.792914523451757     
  3.400000000000001E-003   -0.787581244569968     
  3.500000000000001E-003   -0.781822293398051     
  3.600000000000001E-003   -0.775634358363210     
  3.700000000000001E-003   -0.769014437877034     
  3.800000000000001E-003   -0.761959916053604     
  3.900000000000001E-003   -0.754468344298117     
  4.000000000000001E-003   -0.746537730268718     
  4.100000000000001E-003   -0.738166282035846     
  4.200000000000001E-003   -0.729352530651963     
  4.300000000000001E-003   -0.720095351185622     
  4.400000000000001E-003   -0.710394016309396     
  4.500000000000001E-003   -0.700248016474299     
  4.600000000000002E-003   -0.689657264506386     
  4.700000000000001E-003   -0.678622021135888     
  4.800000000000001E-003   -0.667142909774754     
  4.900000000000002E-003   -0.655220862003034     
  5.000000000000001E-003   -0.642857185221127     
  5.100000000000001E-003   -0.630053607285013     
  5.200000000000001E-003   -0.616812209812772     
  5.300000000000002E-003   -0.603135391858424     
  5.400000000000001E-003   -0.589025984225802     
  5.500000000000001E-003   -0.574487221481236     
  5.600000000000002E-003   -0.559522604234331     
  5.700000000000001E-003   -0.544136145546247     
  5.800000000000001E-003   -0.528332193442585     
  5.900000000000002E-003   -0.512115430602271     
  6.000000000000001E-003   -0.495490989202025     
  6.100000000000001E-003   -0.478464335056133     
  6.200000000000002E-003   -0.461041374922292     
  6.300000000000002E-003   -0.443228311858373     
  6.400000000000001E-003   -0.425031813333348     
  6.500000000000001E-003   -0.406458891277302     
  6.600000000000002E-003   -0.387516932055146     
  6.700000000000001E-003   -0.368213667972731     
  6.800000000000001E-003   -0.348557251163373     
  6.900000000000002E-003   -0.328556208630087     
  7.000000000000001E-003   -0.308219390035793     
  7.100000000000001E-003   -0.287556047659072     
  7.200000000000002E-003   -0.266575719869988     
  7.300000000000002E-003   -0.245288364169383     
  7.400000000000001E-003   -0.223704238471649     
  7.500000000000001E-003   -0.201833957220689     
  7.600000000000002E-003   -0.179688463008130     
  7.700000000000001E-003   -0.157278993280940     
  7.800000000000001E-003   -0.134617128568934     
  7.900000000000001E-003   -0.111714722027244     
  8.000000000000002E-003   -8.858394140978171E-002
  8.100000000000001E-003   -6.523725977725636E-002
  8.200000000000001E-003   -4.168738595079990E-002
  8.300000000000002E-003   -1.794731224852186E-002
  8.400000000000001E-003    5.969695096994199E-003
  8.500000000000002E-003    3.005013490213869E-002
  8.600000000000002E-003    5.428027203330733E-002
  8.700000000000001E-003    7.864615067396387E-002
  8.800000000000002E-003    0.103133553964404     
  8.900000000000002E-003    0.127728158059053     
  9.000000000000001E-003    0.152415361332530     
  9.100000000000002E-003    0.177180413607131     
  9.200000000000002E-003    0.202008447120777     
  9.300000000000001E-003    0.226884342127664     
  9.400000000000002E-003    0.251792923209591     
  9.500000000000001E-003    0.276718847915384     
  9.600000000000001E-003    0.301646677857857     
  9.700000000000002E-003    0.326560929304804     
  9.800000000000001E-003    0.351445933754358     
  9.900000000000001E-003    0.376286018403667     
  1.000000000000000E-002    0.401065497761749     
  1.010000000000000E-002    0.425768611753999     
  1.020000000000000E-002    0.450379568991460     
  1.030000000000000E-002    0.474882575081095     
  1.040000000000000E-002    0.499261895739604     
  1.050000000000000E-002    0.523501727768150     
  1.060000000000000E-002    0.547586398254586     
  1.070000000000000E-002    0.571500227234078     
  1.080000000000000E-002    0.595227662819342     
  1.090000000000000E-002    0.618753183318223     
  1.100000000000000E-002    0.642061389580055     
  1.110000000000000E-002    0.665137015196057     
  1.120000000000000E-002    0.687964868165659     
  1.130000000000000E-002    0.710529940522349     
  1.140000000000000E-002    0.732817406329609     
  1.150000000000000E-002    0.754812637732274     
  1.160000000000000E-002    0.776501112800143     
  1.170000000000000E-002    0.797868527473900     
  1.180000000000000E-002    0.818900876879643     
  1.190000000000000E-002    0.839584350370531     
  1.200000000000000E-002    0.859905376738468     
  1.210000000000000E-002    0.879850581597547     
  1.220000000000000E-002    0.899407010396500     
  1.230000000000000E-002    0.918561995981818     
  1.240000000000000E-002    0.937303074579841     
  1.250000000000000E-002    0.955618100047679     
  1.260000000000000E-002    0.973495244006216     
  1.270000000000000E-002    0.990923121880172     
  1.280000000000000E-002     1.00789059623073     
  1.290000000000000E-002     1.02438694459782     
  1.300000000000000E-002     1.04040174980457     
  1.310000000000000E-002     1.05592502784175     
  1.320000000000000E-002     1.07094724602266     
  1.330000000000000E-002     1.08545913390972     
  1.340000000000000E-002     1.09945197488258     
  1.350000000000000E-002     1.11291734350528     
  1.360000000000000E-002     1.12584732396181     
  1.370000000000000E-002     1.13823447139176     
  1.380000000000000E-002     1.15007162967094     
  1.390000000000000E-002     1.16135233922156     
  1.400000000000000E-002     1.17207041105518     
  1.410000000000000E-002     1.18222018039920     
  1.420000000000000E-002     1.19179640017259     
  1.430000000000000E-002     1.20079436546770     
  1.440000000000000E-002     1.20920989243988     
  1.450000000000000E-002     1.21703912585546     
  1.460000000000000E-002     1.22427876610536     
  1.470000000000000E-002     1.23092594992890     
  1.480000000000000E-002     1.23697837829667     
  1.490000000000000E-002     1.24243411475970     
  1.500000000000000E-002     1.24729192526356     
  1.510000000000000E-002     1.25155083280493     
  1.520000000000000E-002     1.25521045695990     
  1.530000000000000E-002     1.25827090283474     
  1.540000000000000E-002     1.26073284006977     
  1.550000000000000E-002     1.26259728839288     
  1.560000000000000E-002     1.26386573657370     
  1.570000000000000E-002     1.26454030590473     
  1.580000000000000E-002     1.26462346986787     
  1.590000000000000E-002     1.26411819436751     
  1.600000000000000E-002     1.26302803807990     
  1.610000000000000E-002     1.26135669513451     
  1.620000000000000E-002     1.25910868607001     
  1.630000000000000E-002     1.25628874037823     
  1.640000000000000E-002     1.25290210898110     
  1.650000000000000E-002     1.24895447223079     
  1.660000000000000E-002     1.24445194419489     
  1.670000000000000E-002     1.23940098267109     
  1.680000000000000E-002     1.23380855568862     
  1.690000000000000E-002     1.22768193672865     
  1.700000000000000E-002     1.22102884662082     
  1.710000000000000E-002     1.21385746515855     
  1.720000000000000E-002     1.20617616090838     
  1.730000000000000E-002     1.19799383279289     
  1.740000000000000E-002     1.18931966316406     
  1.750000000000000E-002     1.18016321740736     
  1.760000000000000E-002     1.17053423509075     
  1.770000000000000E-002     1.16044299949994     
  1.780000000000000E-002     1.14990000855999     
  1.790000000000000E-002     1.13891599677408     
  1.800000000000000E-002     1.12750197187628     
  1.810000000000000E-002     1.11566926154842     
  1.820000000000000E-002     1.10342943178417     
  1.830000000000000E-002     1.09079426214691     
  1.840000000000000E-002     1.07777580936727     
  1.850000000000000E-002     1.06438633217754     
  1.860000000000000E-002     1.05063815510162     
  1.870000000000000E-002     1.03654395118462     