 -4.000000000000000E-002    0.000000000000000E+000
 -3.990000000000000E-002    0.000000000000000E+000
 -3.980000000000000E-002    0.000000000000000E+000
 -3.970000000000000E-002    0.000000000000000E+000
 -3.960000000000000E-002    0.000000000000000E+000
 -3.950000000000000E-002    0.000000000000000E+000
 -3.940000000000000E-002    0.000000000000000E+000
 -3.930000000000000E-002    0.000000000000000E+000
 -3.920000000000000E-002    0.000000000000000E+000
 -3.910000000000000E-002    0.000000000000000E+000
 -3.900000000000000E-002    0.000000000000000E+000
 -3.890000000000000E-002    8.884849223529105E-039
 -3.880000000000000E-002    1.456473115935163E-037
 -3.870000000000000E-002    1.121012008051817E-036
 -3.860000000000000E-002    4.875305856175047E-036
 -3.850000000000000E-002    8.046274234756210E-036
 -3.840000000000000E-002   -5.388595849984338E-035
 -3.830000000000000E-002   -5.644165504717294E-034
 -3.820000000000000E-002   -3.074054996814577E-033
 -3.810000000000000E-002   -1.235496524494588E-032
 -3.800000000000000E-002   -3.956581821877749E-032
 -3.790000000000000E-002   -1.015210539431110E-031
 -3.780000000000000E-002   -1.933466916336765E-031
 -3.770000000000000E-002   -1.624881778275790E-031
 -3.760000000000000E-002    7.039027384116191E-031
 -3.750000000000000E-002    4.803964457626520E-030
 -3.740000000000000E-002    1.891452958094811E-029
 -3.730000000000000E-002    5.999175696488676E-029
 -3.720000000000000E-002    1.665394434946661E-028
 -3.710000000000000E-002    4.189620034303717E-028
 -3.700000000000000E-002    9.727388917260155E-028
 -3.690000000000000E-002    2.106987396129707E-027
 -3.680000000000000E-002    4.286089964244432E-027
 -3.670000000000000E-002    8.220815987683640E-027
 -3.660000000000000E-002    1.489455904044664E-026
 -3.650000000000000E-002    2.548720193714842E-026
 -3.640000000000000E-002    4.108329043145458E-026
 -3.630000000000000E-002    6.199736753060897E-026
 -3.620000000000000E-002    8.650105414098588E-026
 -3.610000000000000E-002    1.087200980658154E-025
 -3.600000000000000E-002    1.155266318839060E-025
 -3.590000000000000E-002    8.243981282464022E-026
 -3.580000000000000E-002   -3.106825850268365E-026
 -3.570000000000000E-002   -2.858243923388433E-025
 -3.560000000000000E-002   -7.648026164536495E-025
 -3.550000000000000E-002   -1.569439596460912E-024
 -3.540000000000000E-002   -2.806026357387756E-024
 -3.530000000000000E-002   -4.556745137956502E-024
 -3.520000000000000E-002   -6.829593624294228E-024
 -3.510000000000000E-002   -9.482521281101641E-024
 -3.500000000000000E-002   -1.212040797878560E-023
 -3.490000000000000E-002   -1.396987673440160E-023
 -3.480000000000000E-002   -1.374696912088853E-023
 -3.470000000000000E-002   -9.546519359823742E-024
 -3.460000000000000E-002    1.201174841851782E-024
 -3.450000000000000E-002    2.164306232174773E-023
 -3.440000000000000E-002    5.520719944355005E-023
 -3.430000000000000E-002    1.050125469779794E-022
 -3.420000000000000E-002    1.729075880084428E-022
 -3.410000000000000E-002    2.580910392461655E-022
 -3.400000000000000E-002    3.553281566142962E-022
 -3.390000000000000E-002    4.528711627661985E-022
 -3.380000000000000E-002    5.303224283811688E-022
 -3.370000000000000E-002    5.568390112748643E-022
 -3.360000000000000E-002    4.902500319021775E-022
 -3.350000000000000E-002    2.778187057897047E-022
 -3.340000000000000E-002   -1.405063574325642E-022
 -3.330000000000000E-002   -8.254930241061232E-022
 -3.320000000000000E-002   -1.827954766121507E-021
 -3.310000000000000E-002   -3.173612372853022E-021
 -3.300000000000000E-002   -4.843663196636606E-021
 -3.290000000000000E-002   -6.752054255526949E-021
 -3.280000000000000E-002   -8.721518805626178E-021
 -3.270000000000000E-002   -1.046166180034330E-020
 -3.260000000000000E-002   -1.155367884894826E-020
 -3.250000000000000E-002   -1.144745242765121E-020
 -3.240000000000000E-002   -9.477587651933532E-021
 -3.230000000000000E-002   -4.905155855588528E-021
 -3.220000000000000E-002    3.008816766815200E-021
 -3.210000000000000E-002    1.489394989842515E-020
 -3.200000000000000E-002    3.112434396392852E-020
 -3.190000000000000E-002    5.163961764179951E-020
 -3.180000000000000E-002    7.574335333681811E-020
 -3.170000000000000E-002    1.018966552597651E-019
 -3.160000000000000E-002    1.275327747333890E-019
 -3.150000000000000E-002    1.489267855757805E-019
 -3.140000000000000E-002    1.611614263658567E-019
 -3.130000000000000E-002    1.582346594402932E-019
 -3.120000000000000E-002    1.333550912024565E-019
 -3.110000000000000E-002    7.946641197222267E-020
 -3.100000000000000E-002   -9.970477659107924E-021
 -3.090000000000000E-002   -1.399294996189239E-019
 -3.080000000000000E-002   -3.125277774789757E-019
 -3.070000000000000E-002   -5.255517981819643E-019
 -3.060000000000000E-002   -7.709101446790271E-019
 -3.050000000000000E-002   -1.033174069750769E-018
 -3.040000000000000E-002   -1.288420548793014E-018
 -3.030000000000000E-002   -1.503639671660072E-018
 -3.020000000000000E-002   -1.637000863956878E-018
 -3.010000000000000E-002   -1.639282046011514E-018
 -3.000000000000000E-002   -1.456739005019742E-018
 -2.990000000000000E-002   -1.035620949743408E-018
 -2.980000000000000E-002   -3.284151519315597E-019
 -2.970000000000000E-002    6.982819528888538E-019
 -2.960000000000000E-002    2.054602862980521E-018
 -2.950000000000000E-002    3.717581273764076E-018
 -2.940000000000000E-002    5.621583947842817E-018
 -2.930000000000000E-002    7.650237251800854E-018
 -2.920000000000000E-002    9.631328956780875E-018
 -2.910000000000000E-002    1.133632631256196E-017
 -2.900000000000000E-002    1.248614974444453E-017
 -2.890000000000000E-002    1.276463754407058E-017
 -2.880000000000000E-002    1.184069031053292E-017
 -2.870000000000000E-002    9.399350721498408E-018
 -2.860000000000000E-002    5.181106219370648E-018
 -2.850000000000000E-002   -9.725166067772330E-019
 -2.840000000000000E-002   -9.070330081884697E-018
 -2.830000000000000E-002   -1.892443006373190E-017
 -2.820000000000000E-002   -3.011047978409901E-017
 -2.810000000000000E-002   -4.194190873105636E-017
 -2.800000000000000E-002   -5.346482779805658E-017
 -2.790000000000000E-002   -6.347994230438033E-017
 -2.780000000000000E-002   -7.059633547838306E-017
 -2.770000000000000E-002   -7.331960068892222E-017
 -2.760000000000000E-002   -7.017359914858214E-017
 -2.750000000000000E-002   -5.985107326178981E-017
 -2.740000000000000E-002   -4.138403635671068E-017
 -2.730000000000000E-002   -1.432049591059259E-017
 -2.720000000000000E-002    2.110960811960863E-017
 -2.710000000000000E-002    6.385898792287119E-017
 -2.700000000000000E-002    1.119785818777542E-016
 -2.690000000000000E-002    1.626032653027806E-016
 -2.680000000000000E-002    2.120229450643057E-016
 -2.670000000000000E-002    2.558480089833239E-016
 -2.660000000000000E-002    2.892695695799516E-016
 -2.650000000000000E-002    3.074049077958954E-016
 -2.640000000000000E-002    3.057079801539776E-016
 -2.630000000000000E-002    2.804148517576963E-016
 -2.620000000000000E-002    2.289859666225313E-016
 -2.610000000000000E-002    1.505021613169411E-016
 -2.600000000000000E-002    4.597101391396626E-017
 -2.590000000000000E-002   -8.149562852661285E-017
 -2.580000000000000E-002   -2.266625775137713E-016
 -2.570000000000000E-002   -3.823265308819622E-016
 -2.560000000000000E-002   -5.396444243937403E-016
 -2.550000000000000E-002   -6.886146731922453E-016
 -2.540000000000000E-002   -8.186743353499185E-016
 -2.530000000000000E-002   -9.193602251151624E-016
 -2.520000000000000E-002   -9.809740477735846E-016
 -2.510000000000000E-002   -9.951903622143466E-016
 -2.500000000000000E-002   -9.555536269638099E-016
 -2.490000000000000E-002   -8.578258497663149E-016
 -2.480000000000000E-002   -7.001689013951597E-016
 -2.470000000000000E-002   -4.831710469848701E-016
 -2.460000000000000E-002   -2.097535036690810E-016
 -2.450000000000000E-002    1.149854767951234E-016
 -2.440000000000000E-002    4.839191818306174E-016
 -2.430000000000000E-002    8.879620957601229E-016
 -2.420000000000000E-002    1.316004568316877E-015
 -2.410000000000000E-002    1.754684954164320E-015
 -2.400000000000000E-002    2.188012957130572E-015
 -2.390000000000000E-002    2.596909412073174E-015
 -2.380000000000000E-002    2.958777097335688E-015
 -2.370000000000000E-002    3.247262372188262E-015
 -2.360000000000000E-002    3.432394215306936E-015
 -2.350000000000000E-002    3.481289365624048E-015
 -2.340000000000000E-002    3.359584469104834E-015
 -2.330000000000000E-002    3.033693713733963E-015
 -2.320000000000000E-002    2.473894608124271E-015
 -2.310000000000000E-002    1.658127250247423E-015
 -2.300000000000000E-002    5.762565448532501E-016
 -2.290000000000000E-002   -7.655812928477796E-016
 -2.280000000000000E-002   -2.341034974023152E-015
 -2.270000000000000E-002   -4.100557366137631E-015
 -2.260000000000000E-002   -5.969947874127815E-015
 -2.250000000000000E-002   -7.850929546678552E-015
 -2.240000000000000E-002   -9.624131831867819E-015
 -2.230000000000000E-002   -1.115464325405335E-014
 -2.220000000000000E-002   -1.230004295211187E-014
 -2.210000000000000E-002   -1.292052298773539E-014
 -2.200000000000000E-002   -1.289041566945026E-014
 -2.190000000000000E-002   -1.211019864547142E-014
 -2.180000000000000E-002   -1.051784372362483E-014
 -2.170000000000000E-002   -8.098319259192192E-015
 -2.160000000000000E-002   -4.890099802667414E-015
 -2.150000000000000E-002   -9.877265242720427E-016
 -2.140000000000000E-002    3.460205625698815E-015
 -2.130000000000000E-002    8.257817056214985E-015
 -2.120000000000000E-002    1.317316122978525E-014
 -2.110000000000000E-002    1.795305426408657E-014
 -2.100000000000000E-002    2.234019898660495E-014
 -2.090000000000000E-002    2.609096603803269E-014
 -2.080000000000000E-002    2.899196245643805E-014
 -2.070000000000000E-002    3.087357938961576E-014
 -2.060000000000000E-002    3.161895046090466E-014
 -2.050000000000000E-002    3.116724650939403E-014
 -2.040000000000000E-002    2.951087710905882E-014
 -2.030000000000000E-002    2.668697213843701E-014
 -2.020000000000000E-002    2.276431882999645E-014
 -2.010000000000000E-002    1.782768194988533E-014
 -2.000000000000000E-002    1.196199578548880E-014
 -1.990000000000000E-002    5.239184953357462E-015
 -1.980000000000000E-002   -2.289644116579285E-015
 -1.970000000000000E-002   -1.059437063030927E-014
 -1.960000000000000E-002   -1.965691478365799E-014
 -1.950000000000000E-002   -2.945283645387337E-014
 -1.940000000000000E-002   -3.992448210169314E-014
 -1.930000000000000E-002   -5.094813314523546E-014
 -1.920000000000000E-002   -6.229890314314505E-014
 -1.910000000000000E-002   -7.361822852131293E-014
 -1.900000000000000E-002   -8.438942262507008E-014
 -1.890000000000000E-002   -9.392681223174214E-014
 -1.880000000000000E-002   -1.013833749285426E-013
 -1.870000000000000E-002   -1.057804956422576E-013
 -1.860000000000000E-002   -1.060615485266303E-013
 -1.850000000000000E-002   -1.011686289046577E-013
 -1.840000000000000E-002   -9.013897575385346E-014
 -1.830000000000000E-002   -7.221489126113811E-014
 -1.820000000000000E-002   -4.695860007385877E-014
 -1.810000000000000E-002   -1.436130517731074E-014
 -1.800000000000000E-002    2.506511988489685E-014
 -1.790000000000000E-002    7.022563984845752E-014
 -1.780000000000000E-002    1.194192762429105E-013
 -1.770000000000000E-002    1.703643290454195E-013
 -1.760000000000000E-002    2.202763611884760E-013
 -1.750000000000000E-002    2.659992312773190E-013
 -1.740000000000000E-002    3.041848779785241E-013
 -1.730000000000000E-002    3.315119732097961E-013
 -1.720000000000000E-002    3.449294985297042E-013
 -1.710000000000000E-002    3.419069604612712E-013
 -1.700000000000000E-002    3.206708224277447E-013
 -1.690000000000000E-002    2.804058474305018E-013
 -1.680000000000000E-002    2.214012353305768E-013
 -1.670000000000000E-002    1.451246194481016E-013
 -1.660000000000000E-002    5.421223073529637E-014
 -1.650000000000000E-002   -4.762991786700254E-014
 -1.640000000000000E-002   -1.558112201834534E-013
 -1.630000000000000E-002   -2.651174244300803E-013
 -1.620000000000000E-002   -3.700289096328382E-013
 -1.610000000000000E-002   -4.650719254581319E-013
 -1.600000000000000E-002   -5.451736775143851E-013
 -1.590000000000000E-002   -6.059905459771336E-013
 -1.580000000000000E-002   -6.441801629491604E-013
 -1.570000000000000E-002   -6.575923982775768E-013
 -1.560000000000000E-002   -6.453615256587055E-013
 -1.550000000000000E-002   -6.078914523323937E-013
 -1.540000000000000E-002   -5.467373604644622E-013
 -1.530000000000000E-002   -4.643978109434422E-013
 -1.520000000000000E-002   -3.640419647645693E-013
 -1.510000000000000E-002   -2.492051936573696E-013
 -1.500000000000000E-002   -1.234901570436426E-013
 -1.490000000000000E-002    9.688176359500693E-015
 -1.480000000000000E-002    1.472798342027441E-013
 -1.470000000000000E-002    2.866741591210014E-013
 -1.460000000000000E-002    4.256586578337351E-013
 -1.450000000000000E-002    5.622657857031266E-013
 -1.440000000000000E-002    6.945263182456453E-013
 -1.430000000000000E-002    8.201654237900858E-013
 -1.420000000000000E-002    9.362891205929444E-013
 -1.410000000000000E-002    1.039116655087887E-012
 -1.400000000000000E-002    1.123816719476620E-012
 -1.390000000000000E-002    1.184498551229300E-012
 -1.380000000000000E-002    1.214395891195463E-012
 -1.370000000000000E-002    1.206261778623853E-012
 -1.360000000000000E-002    1.152966289867057E-012
 -1.350000000000000E-002    1.048263077051358E-012
 -1.340000000000000E-002    8.876606291144543E-013
 -1.330000000000000E-002    6.693141102075128E-013
 -1.320000000000000E-002    3.948351776977781E-013
 -1.310000000000000E-002    6.991259044429256E-014
 -1.300000000000000E-002   -2.953579897276821E-013
 -1.290000000000000E-002   -6.865188289440476E-013
 -1.280000000000000E-002   -1.085221270209917E-012
 -1.270000000000000E-002   -1.470136082697423E-012
 -1.260000000000000E-002   -1.818269221807778E-012
 -1.250000000000000E-002   -2.106601190189673E-012
 -1.240000000000000E-002   -2.313926453791011E-012
 -1.230000000000000E-002   -2.422731028138845E-012
 -1.220000000000000E-002   -2.420929327731240E-012
 -1.210000000000000E-002   -2.303277075662763E-012
 -1.200000000000000E-002   -2.072292462454783E-012
 -1.190000000000000E-002   -1.738555441178972E-012
 -1.180000000000000E-002   -1.320305397256581E-012
 -1.170000000000000E-002   -8.423250517832274E-013
 -1.160000000000000E-002   -3.341674686329983E-013
 -1.150000000000000E-002    1.721455157118681E-013
 -1.140000000000000E-002    6.447619750493936E-013
 -1.130000000000000E-002    1.054742453480656E-012
 -1.120000000000000E-002    1.378644740324574E-012
 -1.110000000000000E-002    1.600695600326546E-012
 -1.100000000000000E-002    1.714319290651212E-012
 -1.090000000000000E-002    1.722849320699856E-012
 -1.080000000000000E-002    1.639324198143682E-012
 -1.070000000000000E-002    1.485352454316908E-012
 -1.060000000000000E-002    1.289129511314462E-012
 -1.050000000000000E-002    1.082772157535131E-012
 -1.040000000000000E-002    8.992118131446621E-013
 -1.030000000000000E-002    7.689343857582720E-013
 -1.020000000000000E-002    7.168762803563264E-013
 -1.010000000000000E-002    7.597763648663215E-013
 -1.000000000000000E-002    9.042436299400253E-013
 -9.899999999999999E-003    1.145722922574580E-012
 -9.800000000000000E-003    1.468463555801952E-012
 -9.699999999999999E-003    1.846493246708223E-012
 -9.599999999999999E-003    2.245493853816485E-012
 -9.500000000000000E-003    2.625399884011328E-012
 -9.399999999999999E-003    2.943466119240019E-012
 -9.299999999999999E-003    3.157513413230374E-012
 -9.200000000000000E-003    3.229056650403512E-012
 -9.099999999999999E-003    3.126042876950365E-012
 -8.999999999999999E-003    2.824981610642758E-012
 -8.900000000000000E-003    2.312330738076577E-012
 -8.799999999999999E-003    1.585081503909729E-012
 -8.699999999999999E-003    6.505970881937974E-013
 -8.600000000000000E-003   -4.741830857109785E-013
 -8.499999999999999E-003   -1.763964243072422E-012
 -8.399999999999999E-003   -3.186523443435101E-012
 -8.300000000000000E-003   -4.704094846585447E-012
 -8.199999999999999E-003   -6.274500744398948E-012
 -8.100000000000000E-003   -7.851863535560700E-012
 -8.000000000000000E-003   -9.386824069996007E-012
 -7.899999999999999E-003   -1.082626498577049E-011
 -7.800000000000000E-003   -1.211266025608786E-011
 -7.699999999999999E-003   -1.318324589081035E-011
 -7.599999999999999E-003   -1.396929631450039E-011
 -7.499999999999999E-003   -1.439582960945234E-011
 -7.399999999999999E-003   -1.438209006174213E-011
 -7.299999999999999E-003   -1.384313144441442E-011
 -7.199999999999999E-003   -1.269276120692146E-011
 -7.100000000000000E-003   -1.084801889876487E-011
 -6.999999999999999E-003   -8.235228177418735E-012
 -6.899999999999999E-003   -4.797503665372449E-012
 -6.800000000000000E-003   -5.034485817269573E-013
 -6.699999999999999E-003    4.643414458216541E-012
 -6.599999999999999E-003    1.059506983615922E-011
 -6.499999999999999E-003    1.725004753498324E-011
 -6.399999999999999E-003    2.444590194473262E-011
 -6.299999999999999E-003    3.195403011650813E-011
 -6.199999999999999E-003    3.947772051732681E-011
 -6.100000000000000E-003    4.665425087911782E-011
 -5.999999999999999E-003    5.306170884624788E-011
 -5.899999999999999E-003    5.823098111049459E-011
 -5.800000000000000E-003    6.166310276869551E-011
 -5.699999999999999E-003    6.285178577477104E-011
 -5.599999999999999E-003    6.131055719913504E-011
 -5.499999999999999E-003    5.660353318326388E-011
 -5.399999999999999E-003    4.837848895985264E-011
 -5.299999999999999E-003    3.640045351609127E-011
 -5.199999999999999E-003    2.058387072163402E-011
 -5.099999999999999E-003    1.021106616662451E-012
 -4.999999999999999E-003   -2.199487492184600E-011
 -4.899999999999999E-003   -4.795576700800317E-011
 -4.799999999999999E-003   -7.613288874327423E-011
 -4.699999999999999E-003   -1.055832297578502E-010
 -4.599999999999999E-003   -1.351672419986710E-010
 -4.499999999999999E-003   -1.635785964479104E-010
 -4.399999999999999E-003   -1.893850355046698E-010
 -4.299999999999999E-003   -2.110790314954037E-010
 -4.199999999999999E-003   -2.271362567634793E-010
 -4.099999999999999E-003   -2.360791755536641E-010
 -3.999999999999999E-003   -2.365429478927966E-010
 -3.899999999999999E-003   -2.273407114158186E-010
 -3.799999999999999E-003   -2.075254042910879E-010
 -3.699999999999999E-003   -1.764455479067118E-010
 -3.599999999999999E-003   -1.337932537905232E-010
 -3.499999999999999E-003   -7.964294488822742E-011
 -3.399999999999999E-003   -1.448043988926989E-011
 -3.299999999999999E-003    6.077772186092479E-011
 -3.199999999999999E-003    1.447743078191651E-010
 -3.099999999999999E-003    2.357097840711375E-010
 -2.999999999999999E-003    3.313486535308191E-010
 -2.899999999999999E-003    4.290330943434480E-010
 -2.799999999999999E-003    5.257042521345738E-010
 -2.699999999999999E-003    6.179323273359545E-010
 -2.599999999999999E-003    7.019568400775479E-010
 -2.499999999999999E-003    7.737401655595108E-010
 -2.399999999999999E-003    8.290377508953858E-010
 -2.299999999999999E-003    8.634879822175316E-010
 -2.199999999999999E-003    8.727255529852801E-010
 -2.099999999999999E-003    8.525209431796229E-010
 -1.999999999999999E-003    7.989471090537577E-010
 -1.899999999999999E-003    7.085724796801164E-010
 -1.799999999999999E-003    5.786776252572690E-010
 -1.699999999999999E-003    4.074892476698353E-010
 -1.599999999999999E-003    1.944234480364604E-010
 -1.499999999999999E-003   -5.967379704479756E-011
 -1.399999999999999E-003   -3.523015391893729E-010
 -1.299999999999999E-003   -6.791094176454232E-010
 -1.199999999999999E-003   -1.033749574979718E-009
 -1.099999999999999E-003   -1.407789811709984E-009
 -9.999999999999989E-004   -1.790701867444426E-009
 -8.999999999999990E-004   -2.169935826133794E-009
 -7.999999999999990E-004   -2.531088001696775E-009
 -6.999999999999989E-004   -2.858166175910316E-009
 -5.999999999999990E-004   -3.133952187745270E-009
 -4.999999999999989E-004   -3.340453679845296E-009
 -3.999999999999989E-004   -3.459438599829231E-009
 -2.999999999999989E-004   -3.473037939885982E-009
 -1.999999999999989E-004   -3.364398168463784E-009
 -9.999999999999892E-005   -3.118367972542046E-009
  1.084202172485504E-018   -2.722198477178898E-009
  1.000000000000011E-004   -2.166236816509173E-009
  2.000000000000011E-004   -1.444595401141046E-009
  3.000000000000011E-004   -5.557776219848645E-010
  4.000000000000011E-004    4.967562554342141E-010
  5.000000000000011E-004    1.704098369373243E-009
  6.000000000000011E-004    3.051492451737437E-009
  7.000000000000011E-004    4.518034793239682E-009
  8.000000000000011E-004    6.076495998193754E-009
  9.000000000000012E-004    7.693273220175588E-009
  1.000000000000001E-003    9.328488062550845E-009
  1.100000000000001E-003    1.093625017792906E-008
  1.200000000000001E-003    1.246510507550317E-008
  1.300000000000001E-003    1.385867478314636E-008
  1.400000000000001E-003    1.505652012359634E-008
  1.500000000000001E-003    1.599523095061652E-008
  1.600000000000001E-003    1.660976605546681E-008
  1.700000000000001E-003    1.683504270195448E-008
  1.800000000000001E-003    1.660778563725366E-008
  1.900000000000001E-003    1.586862656791126E-008
  2.000000000000001E-003    1.456445231999421E-008
  2.100000000000001E-003    1.265097356268851E-008
  2.200000000000001E-003    1.009549928971558E-008
  2.300000000000001E-003    6.879880217597222E-009
  2.400000000000001E-003    3.003588093529652E-009
  2.500000000000001E-003   -1.513114830682035E-009
  2.600000000000001E-003   -6.625941956622356E-009
  2.700000000000001E-003   -1.226334705861992E-008
  2.800000000000001E-003   -1.832331971777903E-008
  2.900000000000001E-003   -2.467023904845353E-008
  3.000000000000001E-003   -3.113184236001583E-008
  3.100000000000001E-003   -3.749633297640118E-008
  3.200000000000001E-003   -4.350965193664337E-008
  3.300000000000001E-003   -4.887295442554687E-008
  3.400000000000001E-003   -5.324030176330595E-008
  3.500000000000001E-003   -5.621662661606469E-008
  3.600000000000001E-003   -5.735595396645013E-008
  3.700000000000001E-003   -5.615994252125962E-008
  3.800000000000001E-003   -5.207676167351946E-008
  3.900000000000001E-003   -4.450034460339892E-008
  4.000000000000001E-003   -3.277003688981772E-008
  4.100000000000001E-003   -1.617068395357376E-008
  4.200000000000001E-003    6.066850609838722E-009
  4.300000000000001E-003    3.476468113295196E-008
  4.400000000000001E-003    7.079639622775726E-008
  4.500000000000001E-003    1.150851541322149E-007
  4.600000000000002E-003    1.686011861577894E-007
  4.700000000000001E-003    2.323589700852162E-007
  4.800000000000001E-003    3.074139370927546E-007
  4.900000000000002E-003    3.948589696702278E-007
  5.000000000000001E-003    4.958205149872914E-007
  5.100000000000001E-003    6.114545529671879E-007
  5.200000000000001E-003    7.429427120373707E-007
  5.300000000000002E-003    8.914879361352713E-007
  5.400000000000001E-003    1.058310914937385E-006
  5.500000000000001E-003    1.244646333220882E-006
  5.600000000000002E-003    1.451739375386821E-006
  5.700000000000001E-003    1.680842897458374E-006
  5.800000000000001E-003    1.933215547193528E-006
  5.900000000000002E-003    2.210119202897592E-006
  6.000000000000001E-003    2.512818679494290E-006
  6.100000000000001E-003    2.842581156613588E-006
  6.200000000000002E-003    3.200676142083858E-006
  6.300000000000002E-003    3.588377384556602E-006
  6.400000000000001E-003    4.006965345995551E-006
  6.500000000000001E-003    4.457730024796504E-006
  6.600000000000002E-003    4.941974864785210E-006
  6.700000000000001E-003    5.461023521008405E-006
  6.800000000000001E-003    6.016224433217317E-006
  6.900000000000002E-003    6.608960284545366E-006
  7.000000000000001E-003    7.240656655360703E-006
  7.100000000000001E-003    7.912790705207501E-006
  7.200000000000002E-003    8.626904139134153E-006
  7.300000000000002E-003    9.384615443532285E-006
  7.400000000000001E-003    1.018763195714116E-005
  7.500000000000001E-003    1.103776720841277E-005
  7.600000000000002E-003    1.193695463075825E-005
  7.700000000000001E-003    1.288726195826167E-005
  7.800000000000001E-003    1.389091238688302E-005
  7.900000000000001E-003    1.495029566655811E-005
  8.000000000000002E-003    1.606799068776394E-005
  8.100000000000001E-003    1.724677646815196E-005
  8.200000000000001E-003    1.848965181041187E-005
  8.300000000000002E-003    1.979985134027239E-005
  8.400000000000001E-003    2.118085758307448E-005
  8.500000000000002E-003    2.263641453029615E-005
  8.600000000000002E-003    2.417054701511963E-005
  8.700000000000001E-003    2.578756301549755E-005
  8.800000000000002E-003    2.749207345823665E-005
  8.900000000000002E-003    2.928899753281490E-005
  9.000000000000001E-003    3.118357717717595E-005
  9.100000000000002E-003    3.318138333519966E-005
  9.200000000000002E-003    3.528833258490871E-005
  9.300000000000001E-003    3.751068881544491E-005
  9.400000000000002E-003    3.985507593111023E-005
  9.500000000000001E-003    4.232849493823737E-005
  9.600000000000001E-003    4.493833079948363E-005
  9.700000000000002E-003    4.769236045776198E-005
  9.800000000000001E-003    5.059877193815442E-005
  9.900000000000001E-003    5.366618130824600E-005
  1.000000000000000E-002    5.690363624361272E-005
  1.010000000000000E-002    6.032063792434951E-005
  1.020000000000000E-002    6.392715285609659E-005
  1.030000000000000E-002    6.773362195827925E-005
  1.040000000000000E-002    7.175098278462528E-005
  1.050000000000000E-002    7.599068630452864E-005
  1.060000000000000E-002    8.046470142623280E-005
  1.070000000000000E-002    8.518554475463247E-005
  1.080000000000000E-002    9.016627590576719E-005
  1.090000000000000E-002    9.542052841111711E-005
  1.100000000000000E-002    1.009625273464023E-004
  1.110000000000000E-002    1.068070984475861E-004
  1.120000000000000E-002    1.129696970623866E-004
  1.130000000000000E-002    1.194664231256662E-004
  1.140000000000000E-002    1.263140600187840E-004
  1.150000000000000E-002    1.335300801114097E-004
  1.160000000000000E-002    1.411326967417556E-004
  1.170000000000000E-002    1.491408919035980E-004
  1.180000000000000E-002    1.575744427510235E-004
  1.190000000000000E-002    1.664539591013667E-004
  1.200000000000000E-002    1.758009343545509E-004
  1.210000000000000E-002    1.856377813145394E-004
  1.220000000000000E-002    1.959878499569053E-004
  1.230000000000000E-002    2.068755217097193E-004
  1.240000000000000E-002    2.183262061290265E-004
  1.250000000000000E-002    2.303663936631034E-004
  1.260000000000000E-002    2.430237223208062E-004
  1.270000000000000E-002    2.563269419996848E-004
  1.280000000000000E-002    2.703060599046869E-004
  1.290000000000000E-002    2.849922821906904E-004
  1.300000000000000E-002    3.004181165337687E-004
  1.310000000000000E-002    3.166174064753577E-004
  1.320000000000000E-002    3.336253227467688E-004
  1.330000000000000E-002    3.514784423383738E-004
  1.340000000000000E-002    3.702147961550255E-004
  1.350000000000000E-002    3.898738951043385E-004
  1.360000000000000E-002    4.104967740813278E-004
  1.370000000000000E-002    4.321260324873126E-004
  1.380000000000000E-002    4.548059620193432E-004
  1.390000000000000E-002    4.785825042418434E-004
  1.400000000000000E-002    5.035033257706893E-004
  1.410000000000000E-002    5.296179246385256E-004
  1.420000000000000E-002    5.569776873450540E-004
  1.430000000000000E-002    5.856358393218390E-004
  1.440000000000000E-002    6.156476527720383E-004
  1.450000000000000E-002    6.470704417841676E-004
  1.460000000000000E-002    6.799635061383957E-004
  1.470000000000000E-002    7.143883758772995E-004
  1.480000000000000E-002    7.504087205706643E-004
  1.490000000000000E-002    7.880905381370683E-004
  1.500000000000000E-002    8.275019879502279E-004
  1.510000000000000E-002    8.687136268011360E-004
  1.520000000000000E-002    9.117984408305898E-004
  1.530000000000000E-002    9.568317279859470E-004
  1.540000000000000E-002    1.003891452056192E-003
  1.550000000000000E-002    1.053057905638955E-003
  1.560000000000000E-002    1.104414083903958E-003
  1.570000000000000E-002    1.158045630216683E-003
  1.580000000000000E-002    1.214040774352822E-003
  1.590000000000000E-002    1.272490634076304E-003
  1.600000000000000E-002    1.333489105879455E-003
  1.610000000000000E-002    1.397132938127573E-003
  1.620000000000000E-002    1.463521898004679E-003
  1.630000000000000E-002    1.532758727933100E-003
  1.640000000000000E-002    1.604949442501651E-003
  1.650000000000000E-002    1.680203057333329E-003
  1.660000000000000E-002    1.758631791027865E-003
  1.670000000000000E-002    1.840351173840598E-003
  1.680000000000000E-002    1.925480249483269E-003
  1.690000000000000E-002    2.014141275290347E-003
  1.700000000000000E-002    2.106460087294311E-003
  1.710000000000000E-002    2.202565829364122E-003
  1.720000000000000E-002    2.302591251477161E-003
  1.730000000000000E-002    2.406672572176366E-003
  1.740000000000000E-002    2.514949640835196E-003
  1.750000000000000E-002    2.627565903723211E-003
  1.760000000000000E-002    2.744668267560706E-003
  1.770000000000000E-002    2.866407260561800E-003
  1.780000000000000E-002    2.992937126214161E-003
  1.790000000000000E-002    3.124415619125735E-003
  1.800000000000000E-002    3.261004491999776E-003
  1.810000000000000E-002    3.402868634719638E-003
  1.820000000000000E-002    3.550177030576122E-003
  1.830000000000000E-002    3.703102589218299E-003
  1.840000000000000E-002    3.861821822364691E-003
  1.850000000000000E-002    4.026515055668696E-003
  1.860000000000000E-002    4.197365944587745E-003
  1.870000000000000E-002    4.374562528822992E-003