 -4.000000000000000E-002    0.000000000000000E+000
 -3.990000000000000E-002    0.000000000000000E+000
 -3.980000000000000E-002    6.896831181982538E-013
 -3.970000000000000E-002    3.433228187003393E-012
 -3.960000000000000E-002    1.021262266884689E-011
 -3.950000000000000E-002    2.355475548729740E-011
 -3.940000000000000E-002    4.646416712735886E-011
 -3.930000000000000E-002    8.236867624111510E-011
 -3.920000000000000E-002    1.350626944208471E-010
 -3.910000000000000E-002    2.086087056947011E-010
 -3.900000000000000E-002    3.071385834697362E-010
 -3.890000000000000E-002    4.344908164866078E-010
 -3.880000000000000E-002    5.936315250737158E-010
 -3.870000000000000E-002    7.858395224689492E-010
 -3.860000000000000E-002    1.009682682252516E-009
 -3.850000000000000E-002    1.259872466305282E-009
 -3.840000000000000E-002    1.526138183636958E-009
 -3.830000000000000E-002    1.792308552010383E-009
 -3.820000000000000E-002    2.035806110438721E-009
 -3.810000000000000E-002    2.227749411866743E-009
 -3.800000000000000E-002    2.333812073449422E-009
 -3.790000000000000E-002    2.315909161346950E-009
 -3.780000000000000E-002    2.134682054969754E-009
 -3.770000000000000E-002    1.752647015113915E-009
 -3.760000000000000E-002    1.137770525438731E-009
 -3.750000000000000E-002    2.671618871739567E-010
 -3.740000000000000E-002   -8.694622975831278E-010
 -3.730000000000000E-002   -2.266887396537407E-009
 -3.720000000000000E-002   -3.902374687258272E-009
 -3.710000000000000E-002   -5.734704863629453E-009
 -3.700000000000000E-002   -7.704392338883947E-009
 -3.690000000000000E-002   -9.735059274891688E-009
 -3.680000000000000E-002   -1.173585086114674E-008
 -3.670000000000000E-002   -1.360471440646875E-008
 -3.660000000000000E-002   -1.523231668313922E-008
 -3.650000000000000E-002   -1.650638358030241E-008
 -3.640000000000000E-002   -1.731626640748103E-008
 -3.630000000000000E-002   -1.755759569709660E-008
 -3.620000000000000E-002   -1.713691890867732E-008
 -3.610000000000000E-002   -1.597624732221142E-008
 -3.600000000000000E-002   -1.401744372674938E-008
 -3.590000000000000E-002   -1.122632265766475E-008
 -3.580000000000000E-002   -7.596306706403403E-009
 -3.570000000000000E-002   -3.151354417699483E-009
 -3.560000000000000E-002    2.052138317008866E-009
 -3.550000000000000E-002    7.924822130169721E-009
 -3.540000000000000E-002    1.434559559390323E-008
 -3.530000000000000E-002    2.116472428782537E-008
 -3.520000000000000E-002    2.820892508986337E-008
 -3.510000000000000E-002    3.528819025002433E-008
 -3.500000000000000E-002    4.220387682134318E-008
 -3.490000000000000E-002    4.875731260560198E-008
 -3.480000000000000E-002    5.475799142341217E-008
 -3.470000000000000E-002    6.003035305172053E-008
 -3.460000000000000E-002    6.441819259717240E-008
 -3.450000000000000E-002    6.778607490522776E-008
 -3.440000000000000E-002    7.001744370150368E-008
 -3.430000000000000E-002    7.100970599922596E-008
 -3.420000000000000E-002    7.066712022827581E-008
 -3.410000000000000E-002    6.889285414637844E-008
 -3.400000000000000E-002    6.558196704821066E-008
 -3.390000000000000E-002    6.061718600548173E-008
 -3.380000000000000E-002    5.386932663587434E-008
 -3.370000000000000E-002    4.520360966418419E-008
 -3.360000000000000E-002    3.449250582088872E-008
 -3.350000000000000E-002    2.163468692243751E-008
 -3.340000000000000E-002    6.578701683164049E-009
 -3.330000000000000E-002   -1.065109303221996E-008
 -3.320000000000000E-002   -2.992961038657491E-008
 -3.310000000000000E-002   -5.101064475193869E-008
 -3.300000000000000E-002   -7.351468282531644E-008
 -3.290000000000000E-002   -9.692783001338387E-008
 -3.280000000000000E-002   -1.206136346589149E-007
 -3.270000000000000E-002   -1.438382787230567E-007
 -3.260000000000000E-002   -1.658075716120633E-007
 -3.250000000000000E-002   -1.857127032386265E-007
 -3.240000000000000E-002   -2.027800720116429E-007
 -3.230000000000000E-002   -2.163196283499457E-007
 -3.220000000000000E-002   -2.257658799966066E-007
 -3.210000000000000E-002   -2.307061256135784E-007
 -3.200000000000000E-002   -2.308919320631657E-007
 -3.190000000000000E-002   -2.262316876962472E-007
 -3.180000000000000E-002   -2.167648078470770E-007
 -3.170000000000000E-002   -2.026202907971159E-007
 -3.160000000000000E-002   -1.839651603698887E-007
 -3.150000000000000E-002   -1.609498086029370E-007
 -3.140000000000000E-002   -1.336582613645937E-007
 -3.130000000000000E-002   -1.020714224907956E-007
 -3.120000000000000E-002   -6.604962978081086E-008
 -3.110000000000000E-002   -2.533947319517928E-008
 -3.100000000000000E-002    2.039449716397357E-008
 -3.090000000000000E-002    7.151472926381842E-008
 -3.080000000000000E-002    1.283381196837049E-007
 -3.070000000000000E-002    1.910541869117427E-007
 -3.060000000000000E-002    2.596443674759411E-007
 -3.050000000000000E-002    3.338133285437176E-007
 -3.040000000000000E-002    4.129422128745413E-007
 -3.030000000000000E-002    4.960721887522875E-007
 -3.020000000000000E-002    5.819223894106880E-007
 -3.010000000000000E-002    6.689432112775970E-007
 -3.000000000000000E-002    7.554007334688201E-007
 -2.990000000000000E-002    8.394847702356379E-007
 -2.980000000000000E-002    9.194294445962665E-007
 -2.970000000000000E-002    9.936337580849879E-007
 -2.960000000000000E-002    1.060769367429131E-006
 -2.950000000000000E-002    1.119863987698875E-006
 -2.940000000000000E-002    1.170352691648684E-006
 -2.930000000000000E-002    1.212092269810872E-006
 -2.920000000000000E-002    1.245339580353761E-006
 -2.910000000000000E-002    1.270698275183834E-006
 -2.900000000000000E-002    1.289043704407184E-006
 -2.890000000000000E-002    1.301436227009696E-006
 -2.880000000000000E-002    1.309035589585975E-006
 -2.870000000000000E-002    1.313029322991124E-006
 -2.860000000000000E-002    1.314581928474349E-006
 -2.850000000000000E-002    1.314812932805007E-006
 -2.840000000000000E-002    1.314802769807578E-006
 -2.830000000000000E-002    1.315625533375104E-006
 -2.820000000000000E-002    1.318400121561560E-006
 -2.810000000000000E-002    1.324350906551932E-006
 -2.800000000000000E-002    1.334866636998072E-006
 -2.790000000000000E-002    1.351549671705831E-006
 -2.780000000000000E-002    1.376245699288906E-006
 -2.770000000000000E-002    1.411052687806511E-006
 -2.760000000000000E-002    1.458308598185442E-006
 -2.750000000000000E-002    1.520561817488745E-006
 -2.740000000000000E-002    1.600535746645347E-006
 -2.730000000000000E-002    1.701093428092733E-006
 -2.720000000000000E-002    1.825218772761094E-006
 -2.710000000000000E-002    1.976019210769731E-006
 -2.700000000000000E-002    2.156755640027402E-006
 -2.690000000000000E-002    2.370902265891080E-006
 -2.680000000000000E-002    2.622231031825192E-006
 -2.670000000000000E-002    2.914907314930056E-006
 -2.660000000000000E-002    3.253587402660036E-006
 -2.650000000000000E-002    3.643497151906888E-006
 -2.640000000000000E-002    4.090477939587119E-006
 -2.630000000000000E-002    4.600981924336849E-006
 -2.620000000000000E-002    5.182013522223632E-006
 -2.610000000000000E-002    5.841008199397977E-006
 -2.600000000000000E-002    6.585662361499059E-006
 -2.590000000000000E-002    7.423720269142980E-006
 -2.580000000000000E-002    8.362744887199393E-006
 -2.570000000000000E-002    9.409890241562032E-006
 -2.560000000000000E-002    1.057171183056863E-005
 -2.550000000000000E-002    1.185402570845095E-005
 -2.540000000000000E-002    1.326185069315107E-005
 -2.530000000000000E-002    1.479942847239183E-005
 -2.520000000000000E-002    1.647033945798523E-005
 -2.510000000000000E-002    1.827768628032944E-005
 -2.500000000000000E-002    2.022434207264328E-005
 -2.490000000000000E-002    2.231322719146038E-005
 -2.480000000000000E-002    2.454758502821142E-005
 -2.470000000000000E-002    2.693122346792412E-005
 -2.460000000000000E-002    2.946870361348358E-005
 -2.450000000000000E-002    3.216542921010500E-005
 -2.440000000000000E-002    3.502765526253590E-005
 -2.430000000000000E-002    3.806239706089859E-005
 -2.420000000000000E-002    4.127726338988559E-005
 -2.410000000000000E-002    4.468021592879111E-005
 -2.400000000000000E-002    4.827931738246908E-005
 -2.390000000000000E-002    5.208248306692653E-005
 -2.380000000000000E-002    5.609726895735972E-005
 -2.370000000000000E-002    6.033073814045659E-005
 -2.360000000000000E-002    6.478941038392243E-005
 -2.350000000000000E-002    6.947932816827476E-005
 -2.340000000000000E-002    7.440622755797141E-005
 -2.330000000000000E-002    7.957576225033877E-005
 -2.320000000000000E-002    8.499383227214547E-005
 -2.310000000000000E-002    9.066693491210165E-005
 -2.300000000000000E-002    9.660246138404013E-005
 -2.290000000000000E-002    1.028090374070606E-004
 -2.280000000000000E-002    1.092967307494781E-004
 -2.270000000000000E-002    1.160771910636913E-004
 -2.260000000000000E-002    1.231637274056840E-004
 -2.250000000000000E-002    1.305712364388115E-004
 -2.240000000000000E-002    1.383161384742625E-004
 -2.230000000000000E-002    1.464161754019727E-004
 -2.220000000000000E-002    1.548902602736341E-004
 -2.210000000000000E-002    1.637583022544756E-004
 -2.200000000000000E-002    1.730410899302333E-004
 -2.190000000000000E-002    1.827601938541841E-004
 -2.180000000000000E-002    1.929380354679837E-004
 -2.170000000000000E-002    2.035978985842301E-004
 -2.160000000000000E-002    2.147641273581560E-004
 -2.150000000000000E-002    2.264623449307626E-004
 -2.140000000000000E-002    2.387196218769534E-004
 -2.130000000000000E-002    2.515647977127911E-004
 -2.120000000000000E-002    2.650286084618026E-004
 -2.110000000000000E-002    2.791438871897650E-004
 -2.100000000000000E-002    2.939457103340095E-004
 -2.090000000000000E-002    3.094713572705321E-004
 -2.080000000000000E-002    3.257603164913844E-004
 -2.070000000000000E-002    3.428542486754771E-004
 -2.060000000000000E-002    3.607967936814051E-004
 -2.050000000000000E-002    3.796335307880675E-004
 -2.040000000000000E-002    3.994118481152479E-004
 -2.030000000000000E-002    4.201808505558931E-004
 -2.020000000000000E-002    4.419913904528010E-004
 -2.010000000000000E-002    4.648960341299843E-004
 -2.000000000000000E-002    4.889492449011237E-004
 -1.990000000000000E-002    5.142074830866429E-004
 -1.980000000000000E-002    5.407294570198877E-004
 -1.970000000000000E-002    5.685761913624299E-004
 -1.960000000000000E-002    5.978114514642225E-004
 -1.950000000000000E-002    6.285017518758791E-004
 -1.940000000000000E-002    6.607165815822551E-004
 -1.930000000000000E-002    6.945284817175089E-004
 -1.920000000000000E-002    7.300131075165682E-004
 -1.910000000000000E-002    7.672491603153694E-004
 -1.900000000000000E-002    8.063182339806444E-004
 -1.890000000000000E-002    8.473049871559269E-004
 -1.880000000000000E-002    8.902966323737750E-004
 -1.870000000000000E-002    9.353831443141420E-004
 -1.860000000000000E-002    9.826569139473925E-004
 -1.850000000000000E-002    1.032212756301989E-003
 -1.840000000000000E-002    1.084147927926803E-003
 -1.830000000000000E-002    1.138562186674309E-003
 -1.820000000000000E-002    1.195557839934393E-003
 -1.810000000000000E-002    1.255239765440423E-003
 -1.800000000000000E-002    1.317715838728845E-003
 -1.790000000000000E-002    1.383097138214791E-003
 -1.780000000000000E-002    1.451498075743341E-003
 -1.770000000000000E-002    1.523036819720098E-003
 -1.760000000000000E-002    1.597835422306750E-003
 -1.750000000000000E-002    1.676020045516768E-003
 -1.740000000000000E-002    1.757721133987291E-003
 -1.730000000000000E-002    1.843073733787496E-003
 -1.720000000000000E-002    1.932217284692030E-003
 -1.710000000000000E-002    2.025295923775332E-003
 -1.700000000000000E-002    2.122458198265709E-003
 -1.690000000000000E-002    2.223857238665489E-003
 -1.680000000000000E-002    2.329650532102881E-003
 -1.670000000000000E-002    2.440000203795207E-003
 -1.660000000000000E-002    2.555072330913042E-003
 -1.650000000000000E-002    2.675037631276781E-003
 -1.640000000000000E-002    2.800071199044654E-003
 -1.630000000000000E-002    2.930352807162956E-003
 -1.620000000000000E-002    3.066066656082464E-003
 -1.610000000000000E-002    3.207402187622394E-003
 -1.600000000000000E-002    3.354553752330751E-003
 -1.590000000000000E-002    3.507721374945648E-003
 -1.580000000000000E-002    3.667110660859074E-003
 -1.570000000000000E-002    3.832933305875140E-003
 -1.560000000000000E-002    4.005407056687934E-003
 -1.550000000000000E-002    4.184755903323446E-003
 -1.540000000000000E-002    4.371210234704614E-003
 -1.530000000000000E-002    4.565005987795203E-003
 -1.520000000000000E-002    4.766385299627324E-003
 -1.510000000000000E-002    4.975595617805491E-003
 -1.500000000000000E-002    5.192889823535357E-003
 -1.490000000000000E-002    5.418524899293315E-003
 -1.480000000000000E-002    5.652762485757214E-003
 -1.470000000000000E-002    5.895868247625129E-003
 -1.460000000000000E-002    6.148111127060723E-003
 -1.450000000000000E-002    6.409764373833260E-003
 -1.440000000000000E-002    6.681104246494835E-003
 -1.430000000000000E-002    6.962411752815884E-003
 -1.420000000000000E-002    7.253971166827876E-003
 -1.410000000000000E-002    7.556072268827831E-003
 -1.400000000000000E-002    7.869008810747829E-003
 -1.390000000000000E-002    8.193080612207217E-003
 -1.380000000000000E-002    8.528592353655969E-003
 -1.370000000000000E-002    8.875854212944427E-003
 -1.360000000000000E-002    9.235181570619628E-003
 -1.350000000000000E-002    9.606894043073482E-003
 -1.340000000000000E-002    9.991315841353755E-003
 -1.330000000000000E-002    1.038877406544786E-002
 -1.320000000000000E-002    1.079959811666995E-002
 -1.310000000000000E-002    1.122411949242380E-002
 -1.300000000000000E-002    1.166266981800157E-002
 -1.290000000000000E-002    1.211557995536440E-002
 -1.280000000000000E-002    1.258317914377777E-002
 -1.270000000000000E-002    1.306579567462511E-002
 -1.260000000000000E-002    1.356375628062659E-002
 -1.250000000000000E-002    1.407738535896419E-002
 -1.240000000000000E-002    1.460700450759765E-002
 -1.230000000000000E-002    1.515293546621633E-002
 -1.220000000000000E-002    1.571549839618975E-002
 -1.210000000000000E-002    1.629501121064237E-002
 -1.200000000000000E-002    1.689179230383956E-002
 -1.190000000000000E-002    1.750615682195141E-002
 -1.180000000000000E-002    1.813841916294989E-002
 -1.170000000000000E-002    1.878889039132395E-002
 -1.160000000000000E-002    1.945787558705496E-002
 -1.150000000000000E-002    2.014567578378552E-002
 -1.140000000000000E-002    2.085258474613906E-002
 -1.130000000000000E-002    2.157888563137153E-002
 -1.120000000000000E-002    2.232485208228086E-002
 -1.110000000000000E-002    2.309074481688071E-002
 -1.100000000000000E-002    2.387681093772764E-002
 -1.090000000000000E-002    2.468328610316634E-002
 -1.080000000000000E-002    2.551038575886450E-002
 -1.070000000000000E-002    2.635831657790295E-002
 -1.060000000000000E-002    2.722726440294179E-002
 -1.050000000000000E-002    2.811740145820728E-002
 -1.040000000000000E-002    2.902888282082236E-002
 -1.030000000000000E-002    2.996185055924552E-002
 -1.020000000000000E-002    3.091642563817698E-002
 -1.010000000000000E-002    3.189271459210405E-002
 -1.000000000000000E-002    3.289080150893769E-002
 -9.899999999999999E-003    3.391075324987502E-002
 -9.800000000000000E-003    3.495261347082172E-002
 -9.699999999999999E-003    3.601639889651166E-002
 -9.599999999999999E-003    3.710209806997251E-002
 -9.500000000000000E-003    3.820967224305596E-002
 -9.399999999999999E-003    3.933904980732488E-002
 -9.299999999999999E-003    4.049012368136606E-002
 -9.200000000000000E-003    4.166275345478548E-002
 -9.099999999999999E-003    4.285675786619643E-002
 -8.999999999999999E-003    4.407191789128023E-002
 -8.900000000000000E-003    4.530797983960851E-002
 -8.799999999999999E-003    4.656464363382756E-002
 -8.699999999999999E-003    4.784157088702687E-002
 -8.600000000000000E-003    4.913838063702553E-002
 -8.499999999999999E-003    5.045464723840954E-002
 -8.399999999999999E-003    5.178990814288831E-002
 -8.300000000000000E-003    5.314364688435558E-002
 -8.199999999999999E-003    5.451530352544316E-002
 -8.100000000000000E-003    5.590426313956736E-002
 -8.000000000000000E-003    5.730986633002420E-002
 -7.899999999999999E-003    5.873138775711950E-002
 -7.800000000000000E-003    6.016805285880530E-002
 -7.699999999999999E-003    6.161901589229772E-002
 -7.599999999999999E-003    6.308337429925005E-002
 -7.499999999999999E-003    6.456015893717529E-002
 -7.399999999999999E-003    6.604832601877811E-002
 -7.299999999999999E-003    6.754676958879689E-002
 -7.199999999999999E-003    6.905430614865368E-002
 -7.100000000000000E-003    7.056968354321926E-002
 -6.999999999999999E-003    7.209158170389507E-002
 -6.899999999999999E-003    7.361860000579576E-002
 -6.800000000000000E-003    7.514925762276808E-002
 -6.699999999999999E-003    7.668201535473804E-002
 -6.599999999999999E-003    7.821524101315452E-002
 -6.499999999999999E-003    7.974723196053499E-002
 -6.399999999999999E-003    8.127619945140473E-002
 -6.299999999999999E-003    8.280027874448405E-002
 -6.199999999999999E-003    8.431751352121755E-002
 -6.100000000000000E-003    8.582586001867845E-002
 -5.999999999999999E-003    8.732318535260934E-002
 -5.899999999999999E-003    8.880725831735323E-002
 -5.800000000000000E-003    9.027576362517323E-002
 -5.699999999999999E-003    9.172627379410275E-002
 -5.599999999999999E-003    9.315627774254612E-002
 -5.499999999999999E-003    9.456315487265644E-002
 -5.399999999999999E-003    9.594419001976447E-002
 -5.299999999999999E-003    9.729657261718686E-002
 -5.199999999999999E-003    9.861738955832490E-002
 -5.099999999999999E-003    9.990363256108853E-002
 -4.999999999999999E-003    0.101152189501672     
 -4.899999999999999E-003    0.102359849818703     
 -4.799999999999999E-003    0.103523312911691     
 -4.699999999999999E-003    0.104639172469468     
 -4.599999999999999E-003    0.105703917585311     
 -4.499999999999999E-003    0.106713952133187     
 -4.399999999999999E-003    0.107665563520070     
 -4.299999999999999E-003    0.108554943166242     
 -4.199999999999999E-003    0.109378183917140     
 -4.099999999999999E-003    0.110131270193437     
 -3.999999999999999E-003    0.110810090696991     
 -3.899999999999999E-003    0.111410416545321     
 -3.799999999999999E-003    0.111927931714607     
 -3.699999999999999E-003    0.112358221633505     
 -3.599999999999999E-003    0.112696766232685     
 -3.499999999999999E-003    0.112938946035954     
 -3.399999999999999E-003    0.113080061394883     
 -3.299999999999999E-003    0.113115314650764     
 -3.199999999999999E-003    0.113039827095528     
 -3.099999999999999E-003    0.112848635239819     
 -2.999999999999999E-003    0.112536699203407     
 -2.899999999999999E-003    0.112098890756412     
 -2.799999999999999E-003    0.111530023248090     
 -2.699999999999999E-003    0.110824821984211     
 -2.599999999999999E-003    0.109977959541646     
 -2.499999999999999E-003    0.108984038443724     
 -2.399999999999999E-003    0.107837582777082     
 -2.299999999999999E-003    0.106533076414097     
 -2.199999999999999E-003    0.105064940005760     
 -2.099999999999999E-003    0.103427531056677     
 -1.999999999999999E-003    0.101615176421189     
 -1.899999999999999E-003    9.962214747372318E-002
 -1.799999999999999E-003    9.744268826106467E-002
 -1.699999999999999E-003    9.507100856656812E-002
 -1.599999999999999E-003    9.250130086089503E-002
 -1.499999999999999E-003    8.972773118945307E-002
 -1.399999999999999E-003    8.674446439027124E-002
 -1.299999999999999E-003    8.354566457947374E-002
 -1.199999999999999E-003    8.012549966131073E-002
 -1.099999999999999E-003    7.647816143626952E-002
 -9.999999999999989E-004    7.259785542412955E-002
 -8.999999999999990E-004    6.847881978816760E-002
 -7.999999999999990E-004    6.411532591357284E-002
 -6.999999999999989E-004    5.950168835868883E-002
 -5.999999999999990E-004    5.463227610561168E-002
 -4.999999999999989E-004    4.950151863503656E-002
 -3.999999999999989E-004    4.410390466743608E-002
 -2.999999999999989E-004    3.843400211586595E-002
 -1.999999999999989E-004    3.248646490047247E-002
 -9.999999999999892E-005    2.625602387982395E-002
  1.084202172485504E-018    1.973752516431700E-002
  1.000000000000011E-004    1.292593109550537E-002
  2.000000000000011E-004    5.816320992799073E-003
  3.000000000000011E-004   -1.596097809434263E-003
  4.000000000000011E-004   -9.315951202601806E-003
  5.000000000000011E-004   -1.734772621550192E-002
  6.000000000000011E-004   -2.569572691592663E-002
  7.000000000000011E-004   -3.436408804842529E-002
  8.000000000000011E-004   -4.335674003847605E-002
  9.000000000000012E-004   -5.267742343336960E-002
  1.000000000000001E-003   -6.232965359539638E-002
  1.100000000000001E-003   -7.231673668913000E-002
  1.200000000000001E-003   -8.264172808095473E-002
  1.300000000000001E-003   -9.330745025310282E-002
  1.400000000000001E-003   -0.104316490877891     
  1.500000000000001E-003   -0.115671147164923     
  1.600000000000001E-003   -0.127373463308774     
  1.700000000000001E-003   -0.139425206767515     
  1.800000000000001E-003   -0.151827815962090     
  1.900000000000001E-003   -0.164582460378683     
  2.000000000000001E-003   -0.177689973718834     
  2.100000000000001E-003   -0.191150870239409     
  2.200000000000001E-003   -0.204965320043867     
  2.300000000000001E-003   -0.219133117529848     
  2.400000000000001E-003   -0.233653734677795     
  2.500000000000001E-003   -0.248526224863977     
  2.600000000000001E-003   -0.263749279509481     
  2.700000000000001E-003   -0.279321189601416     
  2.800000000000001E-003   -0.295239831007574     
  2.900000000000001E-003   -0.311502680219366     
  3.000000000000001E-003   -0.328106781202382     
  3.100000000000001E-003   -0.345048746411444     
  3.200000000000001E-003   -0.362324793261376     
  3.300000000000001E-003   -0.379930624255248     
  3.400000000000001E-003   -0.397861579032535     
  3.500000000000001E-003   -0.416112503433073     
  3.600000000000001E-003   -0.434677781413878     
  3.700000000000001E-003   -0.453551315262538     
  3.800000000000001E-003   -0.472726557266606     
  3.900000000000001E-003   -0.492196488713705     
  4.000000000000001E-003   -0.511953553304340     
  4.100000000000001E-003   -0.531989750792626     
  4.200000000000001E-003   -0.552296553618212     
  4.300000000000001E-003   -0.572864915302105     
  4.400000000000001E-003   -0.593685339524012     
  4.500000000000001E-003   -0.614747762421169     
  4.600000000000002E-003   -0.636041640180478     
  4.700000000000001E-003   -0.657555951117545     
  4.800000000000001E-003   -0.679279076263891     
  4.900000000000002E-003   -0.701198959464313     
  5.000000000000001E-003   -0.723303112531423     
  5.100000000000001E-003   -0.745578415961076     
  5.200000000000001E-003   -0.768011283896960     
  5.300000000000002E-003   -0.790587686673147     
  5.400000000000001E-003   -0.813293128625327     
  5.500000000000001E-003   -0.836112544209576     
  5.600000000000002E-003   -0.859030401887063     
  5.700000000000001E-003   -0.882030825587320     
  5.800000000000001E-003   -0.905097297472310     
  5.900000000000002E-003   -0.928212947993652     
  6.000000000000001E-003   -0.951360407013109     
  6.100000000000001E-003   -0.974521961853281     
  6.200000000000002E-003   -0.997679342278608     
  6.300000000000002E-003    -1.02081383324280     
  6.400000000000001E-003    -1.04390644078700     
  6.500000000000001E-003    -1.06693766113617     
  6.600000000000002E-003    -1.08988767564984     
  6.700000000000001E-003    -1.11273627779298     
  6.800000000000001E-003    -1.13546295400851     
  6.900000000000002E-003    -1.15804678524116     
  7.000000000000001E-003    -1.18046653703148     
  7.100000000000001E-003    -1.20270077734333     
  7.200000000000002E-003    -1.22472770828728     
  7.300000000000002E-003    -1.24652528946377     
  7.400000000000001E-003    -1.26807121923362     
  7.500000000000001E-003    -1.28934316803349     
  7.600000000000002E-003    -1.31031828651001     
  7.700000000000001E-003    -1.33097379104490     
  7.800000000000001E-003    -1.35128653331330     
  7.900000000000001E-003    -1.37123349925572     
  8.000000000000002E-003    -1.39079128371191     
  8.100000000000001E-003    -1.40993658010808     
  8.200000000000001E-003    -1.42864603961761     
  8.300000000000002E-003    -1.44689607893911     
  8.400000000000001E-003    -1.46466331105148     
  8.500000000000002E-003    -1.48192434287450     
  8.600000000000002E-003    -1.49865564254173     
  8.700000000000001E-003    -1.51483396283890     
  8.800000000000002E-003    -1.53043608539278     
  8.900000000000002E-003    -1.54543891943177     
  9.000000000000001E-003    -1.55981947723889     
  9.100000000000002E-003    -1.57355518022992     
  9.200000000000002E-003    -1.58662343548776     
  9.300000000000001E-003    -1.59900194528282     
  9.400000000000002E-003    -1.61066870428235     
  9.500000000000001E-003    -1.62160210886298     
  9.600000000000001E-003    -1.63178072015757     
  9.700000000000002E-003    -1.64118362131819     
  9.800000000000001E-003    -1.64979030324897     
  9.900000000000001E-003    -1.65758049041580     
  1.000000000000000E-002    -1.66453447744795     
  1.010000000000000E-002    -1.67063307420522     
  1.020000000000000E-002    -1.67585754361401     
  1.030000000000000E-002    -1.68018971816557     
  1.040000000000000E-002    -1.68361200714451     
  1.050000000000000E-002    -1.68610746942322     
  1.060000000000000E-002    -1.68765958338631     
  1.070000000000000E-002    -1.68825268767655     
  1.080000000000000E-002    -1.68787180530378     
  1.090000000000000E-002    -1.68650255554498     
  1.100000000000000E-002    -1.68413133450627     
  1.110000000000000E-002    -1.68074536662929     
  1.120000000000000E-002    -1.67633257956252     
  1.130000000000000E-002    -1.67088184827942     
  1.140000000000000E-002    -1.66438278290400     
  1.150000000000000E-002    -1.65682583768496     
  1.160000000000000E-002    -1.64820226280077     
  1.170000000000000E-002    -1.63850446127607     
  1.180000000000000E-002    -1.62772550586238     
  1.190000000000000E-002    -1.61585959734406     
  1.200000000000000E-002    -1.60290171233666     
  1.210000000000000E-002    -1.58884797880554     
  1.220000000000000E-002    -1.57369537164667     
  1.230000000000000E-002    -1.55744192815079     
  1.240000000000000E-002    -1.54008667182630     
  1.250000000000000E-002    -1.52162968839639     
  1.260000000000000E-002    -1.50207211131018     
  1.270000000000000E-002    -1.48141617138968     
  1.280000000000000E-002    -1.45966502131941     
  1.290000000000000E-002    -1.43682313325073     
  1.300000000000000E-002    -1.41289579676258     
  1.310000000000000E-002    -1.38788958184065     
  1.320000000000000E-002    -1.36181205350452     
  1.330000000000000E-002    -1.33467189026119     
  1.340000000000000E-002    -1.30647886310187     
  1.350000000000000E-002    -1.27724390998596     
  1.360000000000000E-002    -1.24697881281779     
  1.370000000000000E-002    -1.21569666770707     
  1.380000000000000E-002    -1.18341149838906     
  1.390000000000000E-002    -1.15013850522508     
  1.400000000000000E-002    -1.11589400909876     
  1.410000000000000E-002    -1.08069515360083     
  1.420000000000000E-002    -1.04456023667030     
  1.430000000000000E-002    -1.00750869818884     
  1.440000000000000E-002   -0.969560821035389     
  1.450000000000000E-002   -0.930738063952269     
  1.460000000000000E-002   -0.891062770519179     
  1.470000000000000E-002   -0.850558262756706     
  1.480000000000000E-002   -0.809248783809882     
  1.490000000000000E-002   -0.767159631619059     
  1.500000000000000E-002   -0.724317002712511     
  1.510000000000000E-002   -0.680747881942204     
  1.520000000000000E-002   -0.636480176978709     
  1.530000000000000E-002   -0.591542619095441     
  1.540000000000000E-002   -0.545964744616214     
  1.550000000000000E-002   -0.499776880519030     
  1.560000000000000E-002   -0.453010091133648     
  1.570000000000000E-002   -0.405696140596514     
  1.580000000000000E-002   -0.357867476569879     
  1.590000000000000E-002   -0.309557228716917     
  1.600000000000000E-002   -0.260799083564873     
  1.610000000000000E-002   -0.211627403211550     
  1.620000000000000E-002   -0.162077061848495     
  1.630000000000000E-002   -0.112183433546802     
  1.640000000000000E-002   -6.198240380773129E-002
  1.650000000000000E-002   -1.151029529135044E-002
  1.660000000000000E-002    3.919615214861146E-002
  1.670000000000000E-002    9.009982490925825E-002
  1.680000000000000E-002    0.141163349179751     
  1.690000000000000E-002    0.192349011020963     
  1.700000000000000E-002    0.243618844976007     
  1.710000000000000E-002    0.294934717197428     
  1.720000000000000E-002    0.346258344284563     
  1.730000000000000E-002    0.397551296756148     
  1.740000000000000E-002    0.448775129178496     
  1.750000000000000E-002    0.499891340293296     
  1.760000000000000E-002    0.550861437108263     
  1.770000000000000E-002    0.601647033269934     
  1.780000000000000E-002    0.652209754899134     
  1.790000000000000E-002    0.702511475076157     
  1.800000000000000E-002    0.752514219804338     
  1.810000000000000E-002    0.802180170177592     
  1.820000000000000E-002    0.851471842231620     
  1.830000000000000E-002    0.900352047273718     
  1.840000000000000E-002    0.948783961114267     
  1.850000000000000E-002    0.996731091625378     
  1.860000000000000E-002     1.04415746914527     
  1.870000000000000E-002     1.09102753861965     