 -4.000000000000000E-002    0.000000000000000E+000
 -3.990000000000000E-002    0.000000000000000E+000
 -3.980000000000000E-002    0.000000000000000E+000
 -3.970000000000000E-002    0.000000000000000E+000
 -3.960000000000000E-002    0.000000000000000E+000
 -3.950000000000000E-002    0.000000000000000E+000
 -3.940000000000000E-002    0.000000000000000E+000
 -3.930000000000000E-002    0.000000000000000E+000
 -3.920000000000000E-002    0.000000000000000E+000
 -3.910000000000000E-002    0.000000000000000E+000
 -3.900000000000000E-002    0.000000000000000E+000
 -3.890000000000000E-002    0.000000000000000E+000
 -3.880000000000000E-002    0.000000000000000E+000
 -3.870000000000000E-002    0.000000000000000E+000
 -3.860000000000000E-002    0.000000000000000E+000
 -3.850000000000000E-002    0.000000000000000E+000
 -3.840000000000000E-002    0.000000000000000E+000
 -3.830000000000000E-002    0.000000000000000E+000
 -3.820000000000000E-002    0.000000000000000E+000
 -3.810000000000000E-002    0.000000000000000E+000
 -3.800000000000000E-002    2.090994931067145E-047
 -3.790000000000000E-002   -4.315385554011507E-047
 -3.780000000000000E-002   -6.470334153927248E-047
 -3.770000000000000E-002   -2.323158400982437E-046
 -3.760000000000000E-002    5.573715396154690E-046
 -3.750000000000000E-002    5.731426553401816E-045
 -3.740000000000000E-002    3.213865255876068E-044
 -3.730000000000000E-002    1.443521268284998E-043
 -3.720000000000000E-002    5.498278403645506E-043
 -3.710000000000000E-002    1.827422034886718E-042
 -3.700000000000000E-002    5.348678631876657E-042
 -3.690000000000000E-002    1.378657814241219E-041
 -3.680000000000000E-002    3.067256790148500E-041
 -3.670000000000000E-002    5.505931955033193E-041
 -3.660000000000000E-002    5.945675518703248E-041
 -3.650000000000000E-002   -7.972416002890581E-041
 -3.640000000000000E-002   -7.707759514360389E-040
 -3.630000000000000E-002   -3.166246724142094E-039
 -3.620000000000000E-002   -1.018971385920602E-038
 -3.610000000000000E-002   -2.866086204577339E-038
 -3.600000000000000E-002   -7.338745220864295E-038
 -3.590000000000000E-002   -1.744951483530866E-037
 -3.580000000000000E-002   -3.895773180275088E-037
 -3.570000000000000E-002   -8.220850125991601E-037
 -3.560000000000000E-002   -1.645982741696416E-036
 -3.550000000000000E-002   -3.132762410592472E-036
 -3.540000000000000E-002   -5.668447769127553E-036
 -3.530000000000000E-002   -9.732627951581431E-036
 -3.520000000000000E-002   -1.578599059537876E-035
 -3.510000000000000E-002   -2.397537981323421E-035
 -3.500000000000000E-002   -3.351721014397190E-035
 -3.490000000000000E-002   -4.156891083422984E-035
 -3.480000000000000E-002   -4.136337972869539E-035
 -3.470000000000000E-002   -1.940035932617631E-035
 -3.460000000000000E-002    4.837725899223538E-035
 -3.450000000000000E-002    2.011569942226502E-034
 -3.440000000000000E-002    4.976607704694414E-034
 -3.430000000000000E-002    1.018369847417899E-033
 -3.420000000000000E-002    1.861939306120254E-033
 -3.410000000000000E-002    3.130020554529495E-033
 -3.400000000000000E-002    4.892211760142441E-033
 -3.390000000000000E-002    7.120513164618811E-033
 -3.380000000000000E-002    9.581433944242090E-033
 -3.370000000000000E-002    1.167535448695476E-032
 -3.360000000000000E-002    1.221908003246140E-032
 -3.350000000000000E-002    9.181649960921870E-033
 -3.340000000000000E-002   -5.915164879348504E-034
 -3.330000000000000E-002   -2.159231401792207E-032
 -3.320000000000000E-002   -5.967372144046683E-032
 -3.310000000000000E-002   -1.216887518665487E-031
 -3.300000000000000E-002   -2.144760133138124E-031
 -3.290000000000000E-002   -3.428584126120132E-031
 -3.280000000000000E-002   -5.062904015799389E-031
 -3.270000000000000E-002   -6.938292375105100E-031
 -3.260000000000000E-002   -8.772672361562430E-031
 -3.250000000000000E-002   -1.002603257531876E-030
 -3.240000000000000E-002   -9.806150974910433E-031
 -3.230000000000000E-002   -6.781689870464665E-031
 -3.220000000000000E-002    8.691788090966082E-032
 -3.210000000000000E-002    1.543200590858110E-030
 -3.200000000000000E-002    3.949299527199930E-030
 -3.190000000000000E-002    7.556751051531858E-030
 -3.180000000000000E-002    1.254403918012124E-029
 -3.170000000000000E-002    1.891433415231172E-029
 -3.160000000000000E-002    2.635208385626703E-029
 -3.150000000000000E-002    3.403931236260841E-029
 -3.140000000000000E-002    4.044220616237029E-029
 -3.130000000000000E-002    4.309310983068896E-029
 -3.120000000000000E-002    3.841256132425666E-029
 -3.110000000000000E-002    2.163973055602717E-029
 -3.100000000000000E-002   -1.303474330634776E-029
 -3.090000000000000E-002   -7.201602568245305E-029
 -3.080000000000000E-002   -1.614004313321553E-028
 -3.070000000000000E-002   -2.854901172539620E-028
 -3.060000000000000E-002   -4.446313166054041E-028
 -3.050000000000000E-002   -6.323545056207205E-028
 -3.040000000000000E-002   -8.319240551831759E-028
 -3.030000000000000E-002   -1.012594969365967E-027
 -3.020000000000000E-002   -1.126127625942421E-027
 -3.010000000000000E-002   -1.104416918417289E-027
 -3.000000000000000E-002   -8.594158649457889E-028
 -2.990000000000000E-002   -2.868307458249820E-028
 -2.980000000000000E-002    7.247528367547026E-028
 -2.970000000000000E-002    2.277672899298481E-027
 -2.960000000000000E-002    4.440641503597764E-027
 -2.950000000000000E-002    7.215367874358162E-027
 -2.940000000000000E-002    1.049525037663394E-026
 -2.930000000000000E-002    1.401902166916861E-026
 -2.920000000000000E-002    1.732481401837204E-026
 -2.910000000000000E-002    1.971311690654119E-026
 -2.900000000000000E-002    2.023023667497411E-026
 -2.890000000000000E-002    1.768656464644415E-026
 -2.880000000000000E-002    1.072557959031431E-026
 -2.870000000000000E-002   -2.040890760240142E-027
 -2.860000000000000E-002   -2.181896474324064E-026
 -2.850000000000000E-002   -4.933552727194031E-026
 -2.840000000000000E-002   -8.446420167852745E-026
 -2.830000000000000E-002   -1.257974312003695E-025
 -2.820000000000000E-002   -1.702079515289148E-025
 -2.810000000000000E-002   -2.124658893709114E-025
 -2.800000000000000E-002   -2.450003537393991E-025
 -2.790000000000000E-002   -2.579128548600206E-025
 -2.780000000000000E-002   -2.393595412460076E-025
 -2.770000000000000E-002   -1.764136050247752E-025
 -2.760000000000000E-002   -5.649399834632645E-026
 -2.750000000000000E-002    1.306041492042797E-025
 -2.740000000000000E-002    3.901195199735194E-025
 -2.730000000000000E-002    7.193211070915184E-025
 -2.720000000000000E-002    1.104361479421303E-024
 -2.710000000000000E-002    1.517390177327169E-024
 -2.700000000000000E-002    1.914455587562415E-024
 -2.690000000000000E-002    2.234818782409025E-024
 -2.680000000000000E-002    2.402338615385717E-024
 -2.670000000000000E-002    2.329545235409869E-024
 -2.660000000000000E-002    1.924861943154176E-024
 -2.650000000000000E-002    1.103164942276555E-024
 -2.640000000000000E-002   -2.005302803565651E-025
 -2.630000000000000E-002   -2.014974420517186E-024
 -2.620000000000000E-002   -4.315479700830042E-024
 -2.610000000000000E-002   -7.007487398147059E-024
 -2.600000000000000E-002   -9.913315383909017E-024
 -2.590000000000000E-002   -1.276484794566040E-023
 -2.580000000000000E-002   -1.520501889490297E-023
 -2.570000000000000E-002   -1.680068606793389E-023
 -2.560000000000000E-002   -1.706880526853681E-023
 -2.550000000000000E-002   -1.551670800191511E-023
 -2.540000000000000E-002   -1.169573927959719E-023
 -2.530000000000000E-002   -5.265694900059056E-024
 -2.520000000000000E-002    3.934503263870123E-024
 -2.510000000000000E-002    1.581635321246496E-023
 -2.500000000000000E-002    2.997954932553132E-023
 -2.490000000000000E-002    4.566693482855823E-023
 -2.480000000000000E-002    6.174564158014567E-023
 -2.470000000000000E-002    7.672245123319548E-023
 -2.460000000000000E-002    8.879928936964501E-023
 -2.450000000000000E-002    9.597162914822361E-023
 -2.440000000000000E-002    9.616860966880313E-023
 -2.430000000000000E-002    8.742925358067372E-023
 -2.420000000000000E-002    6.810482724024503E-023
 -2.410000000000000E-002    3.707351765623670E-023
 -2.400000000000000E-002   -6.049012323475489E-024
 -2.390000000000000E-002   -6.072091863777493E-023
 -2.380000000000000E-002   -1.253244365893936E-022
 -2.370000000000000E-002   -1.970702924269274E-022
 -2.360000000000000E-002   -2.719677763980295E-022
 -2.350000000000000E-002   -3.448682730876313E-022
 -2.340000000000000E-002   -4.095855743379228E-022
 -2.330000000000000E-002   -4.590938897602525E-022
 -2.320000000000000E-002   -4.858025078091420E-022
 -2.310000000000000E-002   -4.819067934427997E-022
 -2.300000000000000E-002   -4.398175663447346E-022
 -2.290000000000000E-002   -3.526733785354760E-022
 -2.280000000000000E-002   -2.149431024627949E-022
 -2.270000000000000E-002   -2.312509428988908E-023
 -2.260000000000000E-002    2.234560603900751E-022
 -2.250000000000000E-002    5.217675717829275E-022
 -2.240000000000000E-002    8.641349411878143E-022
 -2.230000000000000E-002    1.237321643459819E-021
 -2.220000000000000E-002    1.621723453159250E-021
 -2.210000000000000E-002    1.990820014030992E-021
 -2.200000000000000E-002    2.311063143069747E-021
 -2.190000000000000E-002    2.542406548269053E-021
 -2.180000000000000E-002    2.639687778788813E-021
 -2.170000000000000E-002    2.555045418962485E-021
 -2.160000000000000E-002    2.241493052163397E-021
 -2.150000000000000E-002    1.657662938481356E-021
 -2.140000000000000E-002    7.735881543536649E-022
 -2.130000000000000E-002   -4.227919666986117E-022
 -2.120000000000000E-002   -1.918915401888513E-021
 -2.110000000000000E-002   -3.671379069271897E-021
 -2.100000000000000E-002   -5.601086539063603E-021
 -2.090000000000000E-002   -7.590729878786740E-021
 -2.080000000000000E-002   -9.485568520620688E-021
 -2.070000000000000E-002   -1.109834440700633E-020
 -2.060000000000000E-002   -1.221890568743727E-020
 -2.050000000000000E-002   -1.262869880902320E-020
 -2.040000000000000E-002   -1.211975591739950E-020
 -2.030000000000000E-002   -1.051717923762081E-020
 -2.020000000000000E-002   -7.703479220177644E-021
 -2.010000000000000E-002   -3.642517058696309E-021
 -2.000000000000000E-002    1.599647033047770E-021
 -1.990000000000000E-002    7.839928068932066E-021
 -1.980000000000000E-002    1.477226154111943E-020
 -1.970000000000000E-002    2.197291904496472E-020
 -1.960000000000000E-002    2.891863967769431E-020
 -1.950000000000000E-002    3.501795817396158E-020
 -1.940000000000000E-002    3.965458698733028E-020
 -1.930000000000000E-002    4.224012478525971E-020
 -1.920000000000000E-002    4.227175965821888E-020
 -1.910000000000000E-002    3.938928323058085E-020
 -1.900000000000000E-002    3.342486802116933E-020
 -1.890000000000000E-002    2.443888713135871E-020
 -1.880000000000000E-002    1.273569162081720E-020
 -1.870000000000000E-002   -1.145201552500851E-021
 -1.860000000000000E-002   -1.646455228884888E-020
 -1.850000000000000E-002   -3.234444606431588E-020
 -1.840000000000000E-002   -4.785018607313935E-020
 -1.830000000000000E-002   -6.208477381616248E-020
 -1.820000000000000E-002   -7.428449348677531E-020
 -1.810000000000000E-002   -8.390200401018827E-020
 -1.800000000000000E-002   -9.066272174065541E-020
 -1.790000000000000E-002   -9.458164102470924E-020
 -1.780000000000000E-002   -9.593114319940461E-020
 -1.770000000000000E-002   -9.515608579142718E-020
 -1.760000000000000E-002   -9.273978887370772E-020
 -1.750000000000000E-002   -8.903304969571536E-020
 -1.740000000000000E-002   -8.406720573178038E-020
 -1.730000000000000E-002   -7.737958260217047E-020
 -1.720000000000000E-002   -6.788515916524758E-020
 -1.710000000000000E-002   -5.382954041900205E-020
 -1.700000000000000E-002   -3.285501447658058E-020
 -1.690000000000000E-002   -2.202709264166853E-021
 -1.680000000000000E-002    4.094065335024735E-020
 -1.670000000000000E-002    9.896196077383323E-020
 -1.660000000000000E-002    1.732397584525308E-019
 -1.650000000000000E-002    2.635171259061455E-019
 -1.640000000000000E-002    3.673063546228429E-019
 -1.630000000000000E-002    4.794173953103458E-019
 -1.620000000000000E-002    5.917080199098604E-019
 -1.610000000000000E-002    6.931480866909131E-019
 -1.600000000000000E-002    7.702700752012355E-019
 -1.590000000000000E-002    8.080439994219355E-019
 -1.580000000000000E-002    7.911681386772426E-019
 -1.570000000000000E-002    7.057120881133491E-019
 -1.560000000000000E-002    5.409877049951915E-019
 -1.550000000000000E-002    2.914704123997005E-019
 -1.540000000000000E-002   -4.145113375495993E-020
 -1.530000000000000E-002   -4.481406940595995E-019
 -1.520000000000000E-002   -9.100342414463939E-019
 -1.510000000000000E-002   -1.399815920898244E-018
 -1.500000000000000E-002   -1.882580431037892E-018
 -1.490000000000000E-002   -2.318014289988900E-018
 -1.480000000000000E-002   -2.663503183855002E-018
 -1.470000000000000E-002   -2.877943399786970E-018
 -1.460000000000000E-002   -2.925912509629651E-018
 -1.450000000000000E-002   -2.781753173838169E-018
 -1.440000000000000E-002   -2.433073128278079E-018
 -1.430000000000000E-002   -1.883166607044890E-018
 -1.420000000000000E-002   -1.151934676202534E-018
 -1.410000000000000E-002   -2.750251549710833E-019
 -1.400000000000000E-002    6.988870020388727E-019
 -1.390000000000000E-002    1.712513026641363E-018
 -1.380000000000000E-002    2.705633625633025E-018
 -1.370000000000000E-002    3.621393002666581E-018
 -1.360000000000000E-002    4.412370161057233E-018
 -1.350000000000000E-002    5.045508358358181E-018
 -1.340000000000000E-002    5.505035368431108E-018
 -1.330000000000000E-002    5.792678871798513E-018
 -1.320000000000000E-002    5.924809121067451E-018
 -1.310000000000000E-002    5.926563505454233E-018
 -1.300000000000000E-002    5.823501465563869E-018
 -1.290000000000000E-002    5.631839808598020E-018
 -1.280000000000000E-002    5.348746628811955E-018
 -1.270000000000000E-002    4.944442283501352E-018
 -1.260000000000000E-002    4.357929488143510E-018
 -1.250000000000000E-002    3.497957968761557E-018
 -1.240000000000000E-002    2.250349362484211E-018
 -1.230000000000000E-002    4.920486003269067E-019
 -1.220000000000000E-002   -1.888681760870638E-018
 -1.210000000000000E-002   -4.967561797581173E-018
 -1.200000000000000E-002   -8.757747425017743E-018
 -1.190000000000000E-002   -1.318490073663263E-017
 -1.180000000000000E-002   -1.806785933630511E-017
 -1.170000000000000E-002   -2.310886645860813E-017
 -1.160000000000000E-002   -2.789680162008089E-017
 -1.150000000000000E-002   -3.192574827397285E-017
 -1.140000000000000E-002   -3.462962582761566E-017
 -1.130000000000000E-002   -3.543159342792037E-017
 -1.120000000000000E-002   -3.380484307755265E-017
 -1.110000000000000E-002   -2.933935200101676E-017
 -1.100000000000000E-002   -2.180753348278124E-017
 -1.090000000000000E-002   -1.122080691138727E-017
 -1.080000000000000E-002    2.130936183915960E-018
 -1.070000000000000E-002    1.766400480939471E-017
 -1.060000000000000E-002    3.451472082148304E-017
 -1.050000000000000E-002    5.158444798970932E-017
 -1.040000000000000E-002    6.761436683171354E-017
 -1.030000000000000E-002    8.128479191924128E-017
 -1.020000000000000E-002    9.133026946856203E-017
 -1.010000000000000E-002    9.665898924417211E-017
 -1.000000000000000E-002    9.646347167792680E-017
 -9.899999999999999E-003    9.030945607854339E-017
 -9.800000000000000E-003    7.819161707503717E-017
 -9.699999999999999E-003    6.054804010297477E-017
 -9.599999999999999E-003    3.822997968598124E-017
 -9.500000000000000E-003    1.242894713381152E-017
 -9.399999999999999E-003   -1.543126995245165E-017
 -9.299999999999999E-003   -4.382508864707271E-017
 -9.200000000000000E-003   -7.126195663459844E-017
 -9.099999999999999E-003   -9.641181739087341E-017
 -8.999999999999999E-003   -1.182023848672776E-016
 -8.900000000000000E-003   -1.358747800771149E-016
 -8.799999999999999E-003   -1.489896820062880E-016
 -8.699999999999999E-003   -1.573833923015397E-016
 -8.600000000000000E-003   -1.610811776042327E-016
 -8.499999999999999E-003   -1.601826444090311E-016
 -8.399999999999999E-003   -1.547397390484469E-016
 -8.300000000000000E-003   -1.446512170002473E-016
 -8.199999999999999E-003   -1.295970576192886E-016
 -8.100000000000000E-003   -1.090322389135849E-016
 -8.000000000000000E-003   -8.225171430060326E-017
 -7.899999999999999E-003   -4.852784059110398E-017
 -7.800000000000000E-003   -7.309585940116101E-018
 -7.699999999999999E-003    4.153901616776719E-017
 -7.599999999999999E-003    9.749403056609320E-017
 -7.499999999999999E-003    1.591591564734758E-016
 -7.399999999999999E-003    2.241263292582739E-016
 -7.299999999999999E-003    2.889450711546421E-016
 -7.199999999999999E-003    3.492266944237459E-016
 -7.100000000000000E-003    3.998934853035882E-016
 -6.999999999999999E-003    4.355650479472291E-016
 -6.899999999999999E-003    4.510535668628268E-016
 -6.800000000000000E-003    4.419223175227179E-016
 -6.699999999999999E-003    4.050474535592799E-016
 -6.599999999999999E-003    3.391162382358125E-016
 -6.499999999999999E-003    2.449958119367999E-016
 -6.399999999999999E-003    1.259167936550418E-016
 -6.299999999999999E-003   -1.256634303217761E-017
 -6.199999999999999E-003   -1.628510214832946E-016
 -6.100000000000000E-003   -3.157842249493673E-016
 -5.999999999999999E-003   -4.613401235941022E-016
 -5.899999999999999E-003   -5.894116225033577E-016
 -5.800000000000000E-003   -6.906349540286438E-016
 -5.699999999999999E-003   -7.571602930570149E-016
 -5.599999999999999E-003   -7.832868908721131E-016
 -5.499999999999999E-003   -7.658993559974695E-016
 -5.399999999999999E-003   -7.046660693690095E-016
 -5.299999999999999E-003   -6.019949982432522E-016
 -5.199999999999999E-003   -4.627712898236608E-016
 -5.099999999999999E-003   -2.939313935777536E-016
 -4.999999999999999E-003   -1.039466326470666E-016
 -4.899999999999999E-003    9.770475303930610E-017
 -4.799999999999999E-003    3.010060064598620E-016
 -4.699999999999999E-003    4.957606251493731E-016
 -4.599999999999999E-003    6.718244734190438E-016
 -4.499999999999999E-003    8.192324917450900E-016
 -4.399999999999999E-003    9.282749027106812E-016
 -4.299999999999999E-003    9.896107813495854E-016
 -4.199999999999999E-003    9.945124156027241E-016
 -4.099999999999999E-003    9.353328805736504E-016
 -3.999999999999999E-003    8.062530944478181E-016
 -3.899999999999999E-003    6.043170214381016E-016
 -3.799999999999999E-003    3.306959729501296E-016
 -3.699999999999999E-003   -7.950509616743085E-018
 -3.599999999999999E-003   -3.982172044474969E-016
 -3.499999999999999E-003   -8.190482407997362E-016
 -3.399999999999999E-003   -1.241454404652795E-015
 -3.299999999999999E-003   -1.629105968226908E-015
 -3.199999999999999E-003   -1.939984667029149E-015
 -3.099999999999999E-003   -2.129180219282626E-015
 -2.999999999999999E-003   -2.152773582708654E-015
 -2.899999999999999E-003   -1.972583028283391E-015
 -2.799999999999999E-003   -1.561397990595722E-015
 -2.699999999999999E-003   -9.081715835124624E-016
 -2.599999999999999E-003   -2.255651083098387E-017
 -2.499999999999999E-003    1.061870478747902E-015
 -2.399999999999999E-003    2.286302566748452E-015
 -2.299999999999999E-003    3.567793542456629E-015
 -2.199999999999999E-003    4.803017114725315E-015
 -2.099999999999999E-003    5.874699784095983E-015
 -1.999999999999999E-003    6.660426899346182E-015
 -1.899999999999999E-003    7.043219272481266E-015
 -1.799999999999999E-003    6.923001949358492E-015
 -1.699999999999999E-003    6.227899019348801E-015
 -1.599999999999999E-003    4.924190458647742E-015
 -1.499999999999999E-003    3.023801233181375E-015
 -1.399999999999999E-003    5.883556171563458E-016
 -1.299999999999999E-003   -2.270883649018414E-015
 -1.199999999999999E-003   -5.397486355064370E-015
 -1.099999999999999E-003   -8.598595495626137E-015
 -9.999999999999989E-004   -1.165734621012622E-014
 -8.999999999999990E-004   -1.434796811791697E-014
 -7.999999999999990E-004   -1.645227022004107E-014
 -6.999999999999989E-004   -1.777603967574737E-014
 -5.999999999999990E-004   -1.816387497801941E-014
 -4.999999999999989E-004   -1.751113786559151E-014
 -3.999999999999989E-004   -1.577202884247019E-014
 -2.999999999999989E-004   -1.296320178382930E-014
 -1.999999999999989E-004   -9.162856700674016E-015
 -9.999999999999892E-005   -4.505706619881479E-015
  1.084202172485504E-018    8.253345357872975E-016
  1.000000000000011E-004    6.609612187517953E-015
  2.000000000000011E-004    1.260008052482762E-014
  3.000000000000011E-004    1.853434283947569E-014
  4.000000000000011E-004    2.414443143904876E-014
  5.000000000000011E-004    2.916476109177299E-014
  6.000000000000011E-004    3.333819364486007E-014
  7.000000000000011E-004    3.642063385930452E-014
  8.000000000000011E-004    3.818500188268698E-014
  9.000000000000012E-004    3.842573239093546E-014
  1.000000000000001E-003    3.696496609217496E-014
  1.100000000000001E-003    3.366148967380811E-014
  1.200000000000001E-003    2.842298722328013E-014
  1.300000000000001E-003    2.122154857930154E-014
  1.400000000000001E-003    1.211158839139527E-014
  1.500000000000001E-003    1.248563401715925E-015
  1.600000000000001E-003   -1.109395864307885E-014
  1.700000000000001E-003   -2.451173295940823E-014
  1.800000000000001E-003   -3.846491313355695E-014
  1.900000000000001E-003   -5.228368533698563E-014
  2.000000000000001E-003   -6.518670997757380E-014
  2.100000000000001E-003   -7.631374484007743E-014
  2.200000000000001E-003   -8.477212902914969E-014
  2.300000000000001E-003   -8.969563179964779E-014
  2.400000000000001E-003   -9.031216820704552E-014
  2.500000000000001E-003   -8.601560250770337E-014
  2.600000000000001E-003   -7.643554676736250E-014
  2.700000000000001E-003   -6.149859898943773E-014
  2.800000000000001E-003   -4.147420114114084E-014
  2.900000000000001E-003   -1.699908537979020E-014
  3.000000000000001E-003    1.092437903305581E-014
  3.100000000000001E-003    4.095875848652917E-014
  3.200000000000001E-003    7.149137147726113E-014
  3.300000000000001E-003    1.007212130822149E-013
  3.400000000000001E-003    1.267680314126517E-013
  3.500000000000001E-003    1.477965183053352E-013
  3.600000000000001E-003    1.621465187842134E-013
  3.700000000000001E-003    1.684593658096949E-013
  3.800000000000001E-003    1.657901300008145E-013
  3.900000000000001E-003    1.536960888410865E-013
  4.000000000000001E-003    1.322936331022265E-013
  4.100000000000001E-003    1.022779602357175E-013
  4.200000000000001E-003    6.490275962748351E-014
  4.300000000000001E-003    2.192042931878476E-014
  4.400000000000001E-003   -2.451362887852973E-014
  4.500000000000001E-003   -7.196600555105966E-014
  4.600000000000002E-003   -1.178707344157256E-013
  4.700000000000001E-003   -1.596845623294424E-013
  4.800000000000001E-003   -1.950408017411369E-013
  4.900000000000002E-003   -2.218905915671235E-013
  5.000000000000001E-003   -2.386215090241907E-013
  5.100000000000001E-003   -2.441457095164608E-013
  5.200000000000001E-003   -2.379517455359114E-013
  5.300000000000002E-003   -2.201177983177162E-013
  5.400000000000001E-003   -1.912867712284129E-013
  5.500000000000001E-003   -1.526071188663390E-013
  5.600000000000002E-003   -1.056456467370516E-013
  5.700000000000001E-003   -5.228103776632439E-014
  5.800000000000001E-003    5.411982179256120E-015
  5.900000000000002E-003    6.527708524193805E-014
  6.000000000000001E-003    1.251792833740973E-013
  6.100000000000001E-003    1.830872418841848E-013
  6.200000000000002E-003    2.371281586509477E-013
  6.300000000000002E-003    2.856113562332919E-013
  6.400000000000001E-003    3.270197621966199E-013
  6.500000000000001E-003    3.599729109879308E-013
  6.600000000000002E-003    3.831681339988517E-013
  6.700000000000001E-003    3.953108680655878E-013
  6.800000000000001E-003    3.950471413824518E-013
  6.900000000000002E-003    3.809136287604019E-013
  7.000000000000001E-003    3.513213812895229E-013
  7.100000000000001E-003    3.045876760520446E-013
  7.200000000000002E-003    2.390283839190482E-013
  7.300000000000002E-003    1.531186168688175E-013
  7.400000000000001E-003    4.572262332743803E-014
  7.500000000000001E-003   -8.361259377185463E-014
  7.600000000000002E-003   -2.343150623553834E-013
  7.700000000000001E-003   -4.044199992817987E-013
  7.800000000000001E-003   -5.902080487271488E-013
  7.900000000000001E-003   -7.858887341172759E-013
  8.000000000000002E-003   -9.833709089075419E-013
  8.100000000000001E-003   -1.172167266471536E-012
  8.200000000000001E-003   -1.339473636859160E-012
  8.300000000000002E-003   -1.470461563971975E-012
  8.400000000000001E-003   -1.548808568965956E-012
  8.500000000000002E-003   -1.557478554394586E-012
  8.600000000000002E-003   -1.479745121164361E-012
  8.700000000000001E-003   -1.300429694059801E-012
  8.800000000000002E-003   -1.007306665859416E-012
  8.900000000000002E-003   -5.926025201271965E-013
  9.000000000000001E-003   -5.449914900111996E-014
  9.100000000000002E-003    6.014642086226398E-013
  9.200000000000002E-003    1.361210078238961E-012
  9.300000000000001E-003    2.201278839924734E-012
  9.400000000000002E-003    3.088440843073691E-012
  9.500000000000001E-003    3.979868441114882E-012
  9.600000000000001E-003    4.823948714086348E-012
  9.700000000000002E-003    5.561789942157958E-012
  9.800000000000001E-003    6.129443286994545E-012
  9.900000000000001E-003    6.460810826743732E-012
  1.000000000000000E-002    6.491180001097377E-012
  1.010000000000000E-002    6.161263832797486E-012
  1.020000000000000E-002    5.421591928174604E-012
  1.030000000000000E-002    4.237054131137595E-012
  1.040000000000000E-002    2.591360314705830E-012
  1.050000000000000E-002    4.911577083091572E-013
  1.060000000000000E-002   -2.030475425729996E-012
  1.070000000000000E-002   -4.911441790772523E-012
  1.080000000000000E-002   -8.059211976394860E-012
  1.090000000000000E-002   -1.135084339457691E-011
  1.100000000000000E-002   -1.463463961175381E-011
  1.110000000000000E-002   -1.773360090075842E-011
  1.120000000000000E-002   -2.045075180728445E-011
  1.130000000000000E-002   -2.257636369123110E-011
  1.140000000000000E-002   -2.389694761796507E-011
  1.150000000000000E-002   -2.420584199619852E-011
  1.160000000000000E-002   -2.331506421906799E-011
  1.170000000000000E-002   -2.106800781341201E-011
  1.180000000000000E-002   -1.735245837606269E-011
  1.190000000000000E-002   -1.211328266230677E-011
  1.200000000000000E-002   -5.364106720226294E-012
  1.210000000000000E-002    2.802794289143110E-012
  1.220000000000000E-002    1.220913953645684E-011
  1.230000000000000E-002    2.258660153331316E-011
  1.240000000000000E-002    3.357674632585885E-011
  1.250000000000000E-002    4.473549921633236E-011
  1.260000000000000E-002    5.554259718758215E-011
  1.270000000000000E-002    6.541619578791772E-011
  1.280000000000000E-002    7.373259424930487E-011
  1.290000000000000E-002    7.985075286600776E-011
  1.300000000000000E-002    8.314099823271972E-011
  1.310000000000000E-002    8.301702266665417E-011
  1.320000000000000E-002    7.896999410862219E-011
  1.330000000000000E-002    7.060328444798683E-011
  1.340000000000000E-002    5.766627723933447E-011
  1.350000000000000E-002    4.008540526849524E-011
  1.360000000000000E-002    1.799060846425671E-011
  1.370000000000000E-002   -8.264525506751021E-012
  1.380000000000000E-002   -3.809067763838058E-011
  1.390000000000000E-002   -7.066011081465858E-011
  1.400000000000000E-002   -1.049145797542767E-010
  1.410000000000000E-002   -1.395844564729640E-010
  1.420000000000000E-002   -1.732193106597579E-010
  1.430000000000000E-002   -2.042298019204753E-010
  1.440000000000000E-002   -2.309398809325634E-010
  1.450000000000000E-002   -2.516480450069752E-010
  1.460000000000000E-002   -2.646957955854337E-010
  1.470000000000000E-002   -2.685410380510419E-010
  1.480000000000000E-002   -2.618336787712521E-010
  1.490000000000000E-002   -2.434905304997890E-010
  1.500000000000000E-002   -2.127665756878433E-010
  1.510000000000000E-002   -1.693192433872397E-010
  1.520000000000000E-002   -1.132629701017378E-010
  1.530000000000000E-002   -4.521115566675077E-011
  1.540000000000000E-002    3.369692837660483E-011
  1.550000000000000E-002    1.217861011216371E-010
  1.560000000000000E-002    2.168537387696508E-010
  1.570000000000000E-002    3.161972532823621E-010
  1.580000000000000E-002    4.166611839839862E-010
  1.590000000000000E-002    5.147032334271248E-010
  1.600000000000000E-002    6.064781480176505E-010
  1.610000000000000E-002    6.879380152435825E-010
  1.620000000000000E-002    7.549464091268069E-010
  1.630000000000000E-002    8.034041739115805E-010
  1.640000000000000E-002    8.293834944018495E-010
  1.650000000000000E-002    8.292671263258184E-010
  1.660000000000000E-002    7.998890399022447E-010
  1.670000000000000E-002    7.386730202494633E-010
  1.680000000000000E-002    6.437655549281650E-010
  1.690000000000000E-002    5.141598592348504E-010
  1.700000000000000E-002    3.498064616552478E-010
  1.710000000000000E-002    1.517085034590479E-010
  1.720000000000000E-002   -7.800228782537711E-011
  1.730000000000000E-002   -3.360109439139363E-010
  1.740000000000000E-002   -6.177890377503734E-010
  1.750000000000000E-002   -9.175914152294520E-010
  1.760000000000000E-002   -1.228479947788009E-009
  1.770000000000000E-002   -1.542378947224313E-009
  1.780000000000000E-002   -1.850160767741879E-009
  1.790000000000000E-002   -2.141764754170552E-009
  1.800000000000000E-002   -2.406349643934008E-009
  1.810000000000000E-002   -2.632479502241943E-009
  1.820000000000000E-002   -2.808344274800407E-009
  1.830000000000000E-002   -2.922014779107114E-009
  1.840000000000000E-002   -2.961729719033961E-009
  1.850000000000000E-002   -2.916215033985834E-009
  1.860000000000000E-002   -2.775032690695580E-009
  1.870000000000000E-002   -2.528955384479538E-009