 -4.000000000000000E-002    0.000000000000000E+000
 -3.990000000000000E-002    0.000000000000000E+000
 -3.980000000000000E-002    0.000000000000000E+000
 -3.970000000000000E-002    0.000000000000000E+000
 -3.960000000000000E-002    0.000000000000000E+000
 -3.950000000000000E-002    0.000000000000000E+000
 -3.940000000000000E-002    0.000000000000000E+000
 -3.930000000000000E-002    4.133883415381139E-027
 -3.920000000000000E-002    7.484989418517313E-026
 -3.910000000000000E-002    6.950209885911696E-025
 -3.900000000000000E-002    4.421651303957096E-024
 -3.890000000000000E-002    2.169549300207561E-023
 -3.880000000000000E-002    8.755466783689189E-023
 -3.870000000000000E-002    3.024871109680289E-022
 -3.860000000000000E-002    9.191577021797751E-022
 -3.850000000000000E-002    2.504181406370497E-021
 -3.840000000000000E-002    6.203717464519241E-021
 -3.830000000000000E-002    1.412276769054471E-020
 -3.820000000000000E-002    2.977784281674155E-020
 -3.810000000000000E-002    5.849079296346004E-020
 -3.800000000000000E-002    1.074575141172009E-019
 -3.790000000000000E-002    1.850670478318770E-019
 -3.780000000000000E-002    2.989088487108127E-019
 -3.770000000000000E-002    4.518606893817675E-019
 -3.760000000000000E-002    6.357900640341268E-019
 -3.750000000000000E-002    8.228191916581762E-019
 -3.740000000000000E-002    9.548546774731464E-019
 -3.730000000000000E-002    9.331497981779226E-019
 -3.720000000000000E-002    6.109124172385487E-019
 -3.710000000000000E-002   -2.068749702853270E-019
 -3.700000000000000E-002   -1.751584401282093E-018
 -3.690000000000000E-002   -4.262464205141712E-018
 -3.680000000000000E-002   -7.938625913608927E-018
 -3.670000000000000E-002   -1.287177783231957E-017
 -3.660000000000000E-002   -1.896463231512347E-017
 -3.650000000000000E-002   -2.584537399116373E-017
 -3.640000000000000E-002   -3.279372325231463E-017
 -3.630000000000000E-002   -3.869742564129444E-017
 -3.620000000000000E-002   -4.205776849457123E-017
 -3.610000000000000E-002   -4.105752359072729E-017
 -3.600000000000000E-002   -3.369426168991142E-017
 -3.590000000000000E-002   -1.796665608934635E-017
 -3.580000000000000E-002    7.915731312309814E-018
 -3.570000000000000E-002    4.534348293298233E-017
 -3.560000000000000E-002    9.519014366243454E-017
 -3.550000000000000E-002    1.578106710408906E-016
 -3.540000000000000E-002    2.331729005063862E-016
 -3.530000000000000E-002    3.210930117120012E-016
 -3.520000000000000E-002    4.214823974449676E-016
 -3.510000000000000E-002    5.344422937130034E-016
 -3.500000000000000E-002    6.599811623583505E-016
 -3.490000000000000E-002    7.970991898502072E-016
 -3.480000000000000E-002    9.420092887469759E-016
 -3.470000000000000E-002    1.085365523474658E-015
 -3.460000000000000E-002    1.208563571838922E-015
 -3.450000000000000E-002    1.279457825881200E-015
 -3.440000000000000E-002    1.248183035638301E-015
 -3.430000000000000E-002    1.044137922197744E-015
 -3.420000000000000E-002    5.754929556412224E-016
 -3.410000000000000E-002   -2.672373832354093E-016
 -3.400000000000000E-002   -1.602083075264995E-015
 -3.390000000000000E-002   -3.539860540669904E-015
 -3.380000000000000E-002   -6.161395799631963E-015
 -3.370000000000000E-002   -9.488450708132587E-015
 -3.360000000000000E-002   -1.345046084561042E-014
 -3.350000000000000E-002   -1.785070381226800E-014
 -3.340000000000000E-002   -2.233698062576841E-014
 -3.330000000000000E-002   -2.638299208599391E-014
 -3.320000000000000E-002   -2.928705727225654E-014
 -3.310000000000000E-002   -3.019437900728564E-014
 -3.300000000000000E-002   -2.814754627708076E-014
 -3.290000000000000E-002   -2.216730920810087E-014
 -3.280000000000000E-002   -1.136199245233360E-014
 -3.270000000000000E-002    4.940474265800579E-015
 -3.260000000000000E-002    2.704835902646294E-014
 -3.250000000000000E-002    5.476450521279948E-014
 -3.240000000000000E-002    8.726457945555594E-014
 -3.230000000000000E-002    1.230138859782134E-013
 -3.220000000000000E-002    1.597396923939540E-013
 -3.210000000000000E-002    1.944724941901409E-013
 -3.200000000000000E-002    2.236629311138958E-013
 -3.190000000000000E-002    2.433730085877302E-013
 -3.180000000000000E-002    2.495314188329482E-013
 -3.170000000000000E-002    2.382339378717031E-013
 -3.160000000000000E-002    2.060632395332038E-013
 -3.150000000000000E-002    1.503992914083680E-013
 -3.140000000000000E-002    6.969207504650806E-014
 -3.130000000000000E-002   -3.632588528881706E-014
 -3.120000000000000E-002   -1.665005179884073E-013
 -3.110000000000000E-002   -3.181905941682746E-013
 -3.100000000000000E-002   -4.872628669606077E-013
 -3.090000000000000E-002   -6.681226424306679E-013
 -3.080000000000000E-002   -8.537488597542829E-013
 -3.070000000000000E-002   -1.035701822956915E-012
 -3.060000000000000E-002   -1.204082485967022E-012
 -3.050000000000000E-002   -1.347440621017367E-012
 -3.040000000000000E-002   -1.452656609247259E-012
 -3.030000000000000E-002   -1.504854291156337E-012
 -3.020000000000000E-002   -1.487432401736299E-012
 -3.010000000000000E-002   -1.382329988439991E-012
 -3.000000000000000E-002   -1.170648646631643E-012
 -2.990000000000000E-002   -8.337507456821897E-013
 -2.980000000000000E-002   -3.549138827064863E-013
 -2.970000000000000E-002    2.784324145544307E-013
 -2.960000000000000E-002    1.071950192376323E-012
 -2.950000000000000E-002    2.021275009227566E-012
 -2.940000000000000E-002    3.108808889461514E-012
 -2.930000000000000E-002    4.300785075989848E-012
 -2.920000000000000E-002    5.545054133148675E-012
 -2.910000000000000E-002    6.770059039380182E-012
 -2.900000000000000E-002    7.885458618847178E-012
 -2.890000000000000E-002    8.784766013464848E-012
 -2.880000000000000E-002    9.350216987924588E-012
 -2.870000000000000E-002    9.459885800372911E-012
 -2.860000000000000E-002    8.996805468258255E-012
 -2.850000000000000E-002    7.859587776617091E-012
 -2.840000000000000E-002    5.973788822918837E-012
 -2.830000000000000E-002    3.303060540229568E-012
 -2.820000000000000E-002   -1.409926712553494E-013
 -2.810000000000000E-002   -4.291349885520361E-012
 -2.800000000000000E-002   -9.021507102578439E-012
 -2.790000000000000E-002   -1.414556658441885E-011
 -2.780000000000000E-002   -1.942292336072530E-011
 -2.770000000000000E-002   -2.456757134616503E-011
 -2.760000000000000E-002   -2.926162122142916E-011
 -2.750000000000000E-002   -3.317217448319134E-011
 -2.740000000000000E-002   -3.597036001413617E-011
 -2.730000000000000E-002   -3.735110804668046E-011
 -2.720000000000000E-002   -3.705215611148714E-011
 -2.710000000000000E-002   -3.487086846059329E-011
 -2.700000000000000E-002   -3.067773911104982E-011
 -2.690000000000000E-002   -2.442582747572369E-011
 -2.680000000000000E-002   -1.615585095515473E-011
 -2.670000000000000E-002   -5.997187261075450E-012
 -2.660000000000000E-002    5.834574916152875E-012
 -2.650000000000000E-002    1.904256122082174E-011
 -2.640000000000000E-002    3.325493119475482E-011
 -2.630000000000000E-002    4.803164105334733E-011
 -2.620000000000000E-002    6.287096698639507E-011
 -2.610000000000000E-002    7.721566912235501E-011
 -2.600000000000000E-002    9.045919994883356E-011
 -2.590000000000000E-002    1.019529875974053E-010
 -2.580000000000000E-002    1.110163545720344E-010
 -2.570000000000000E-002    1.169507747331479E-010
 -2.560000000000000E-002    1.190602832579433E-010
 -2.550000000000000E-002    1.166793191722798E-010
 -2.540000000000000E-002    1.092085624936282E-010
 -2.530000000000000E-002    9.615830545893538E-011
 -2.520000000000000E-002    7.719755005638312E-011
 -2.510000000000000E-002    5.220573953228118E-011
 -2.500000000000000E-002    2.132288549525079E-011
 -2.490000000000000E-002   -1.500699679902373E-011
 -2.480000000000000E-002   -5.600458817356951E-011
 -2.470000000000000E-002   -1.005413380728859E-010
 -2.460000000000000E-002   -1.471470536065014E-010
 -2.450000000000000E-002   -1.940419002367556E-010
 -2.440000000000000E-002   -2.391933907475357E-010
 -2.430000000000000E-002   -2.803967632229569E-010
 -2.420000000000000E-002   -3.153750578989935E-010
 -2.410000000000000E-002   -3.418924653848586E-010
 -2.400000000000000E-002   -3.578737183390687E-010
 -2.390000000000000E-002   -3.615208702789076E-010
 -2.380000000000000E-002   -3.514193017862524E-010
 -2.370000000000000E-002   -3.266254266817658E-010
 -2.360000000000000E-002   -2.867304880364645E-010
 -2.350000000000000E-002   -2.318972539451044E-010
 -2.340000000000000E-002   -1.628689127390683E-010
 -2.330000000000000E-002   -8.095222483701842E-011
 -2.320000000000000E-002    1.202082852277018E-011
 -2.310000000000000E-002    1.137472993942932E-010
 -2.300000000000000E-002    2.215173000586673E-010
 -2.290000000000000E-002    3.322815352407797E-010
 -2.280000000000000E-002    4.427187590506011E-010
 -2.270000000000000E-002    5.493003559499717E-010
 -2.260000000000000E-002    6.483523618108504E-010
 -2.250000000000000E-002    7.361181862149414E-010
 -2.240000000000000E-002    8.088258059139526E-010
 -2.230000000000000E-002    8.627662304182169E-010
 -2.220000000000000E-002    8.943878808995916E-010
 -2.210000000000000E-002    9.004117658152281E-010
 -2.200000000000000E-002    8.779685915311437E-010
 -2.190000000000000E-002    8.247560339487183E-010
 -2.180000000000000E-002    7.392096122922052E-010
 -2.170000000000000E-002    6.206774356235270E-010
 -2.160000000000000E-002    4.695849623221913E-010
 -2.150000000000000E-002    2.875744643377610E-010
 -2.140000000000000E-002    7.760275039868083E-011
 -2.130000000000000E-002   -1.560168379662845E-010
 -2.120000000000000E-002   -4.076398815713910E-010
 -2.110000000000000E-002   -6.703896937928001E-010
 -2.100000000000000E-002   -9.363301136490137E-010
 -2.090000000000000E-002   -1.196705663918859E-009
 -2.080000000000000E-002   -1.442238074172847E-009
 -2.070000000000000E-002   -1.663461758373914E-009
 -2.060000000000000E-002   -1.851079050884635E-009
 -2.050000000000000E-002   -1.996315301016503E-009
 -2.040000000000000E-002   -2.091254603801576E-009
 -2.030000000000000E-002   -2.129141619522406E-009
 -2.020000000000000E-002   -2.104637833085997E-009
 -2.010000000000000E-002   -2.014028879498096E-009
 -2.000000000000000E-002   -1.855381794132503E-009
 -1.990000000000000E-002   -1.628656458875957E-009
 -1.980000000000000E-002   -1.335778598036691E-009
 -1.970000000000000E-002   -9.806795971587839E-010
 -1.960000000000000E-002   -5.693074826912946E-010
 -1.950000000000000E-002   -1.096096809819684E-010
 -1.940000000000000E-002    3.885179503834230E-010
 -1.930000000000000E-002    9.133259844722959E-010
 -1.920000000000000E-002    1.451362914732170E-009
 -1.910000000000000E-002    1.987700116076262E-009
 -1.900000000000000E-002    2.506244317909036E-009
 -1.890000000000000E-002    2.990144757150890E-009
 -1.880000000000000E-002    3.422299607606527E-009
 -1.870000000000000E-002    3.785949815667843E-009
 -1.860000000000000E-002    4.065339129922839E-009
 -1.850000000000000E-002    4.246408621287031E-009
 -1.840000000000000E-002    4.317479826159345E-009
 -1.830000000000000E-002    4.269880646951420E-009
 -1.820000000000000E-002    4.098463543932589E-009
 -1.810000000000000E-002    3.801969994079196E-009
 -1.800000000000000E-002    3.383208063036651E-009
 -1.790000000000000E-002    2.849026184032508E-009
 -1.780000000000000E-002    2.210080381228688E-009
 -1.770000000000000E-002    1.480418447061209E-009
 -1.760000000000000E-002    6.769179388709896E-010
 -1.750000000000000E-002   -1.813692349602752E-010
 -1.740000000000000E-002   -1.073904793655052E-009
 -1.730000000000000E-002   -1.979325249082711E-009
 -1.720000000000000E-002   -2.876024261313409E-009
 -1.710000000000000E-002   -3.742619707861390E-009
 -1.700000000000000E-002   -4.558290704438665E-009
 -1.690000000000000E-002   -5.302993623832532E-009
 -1.680000000000000E-002   -5.957589670231818E-009
 -1.670000000000000E-002   -6.503933464256042E-009
 -1.660000000000000E-002   -6.924982995336961E-009
 -1.650000000000000E-002   -7.204995830649216E-009
 -1.640000000000000E-002   -7.329861751849241E-009
 -1.630000000000000E-002   -7.287599753897404E-009
 -1.620000000000000E-002   -7.069026637971036E-009
 -1.610000000000000E-002   -6.668558135356699E-009
 -1.600000000000000E-002   -6.085079380812766E-009
 -1.590000000000000E-002   -5.322787445311970E-009
 -1.580000000000000E-002   -4.391887564335487E-009
 -1.570000000000000E-002   -3.309025890737375E-009
 -1.560000000000000E-002   -2.097343875631173E-009
 -1.550000000000000E-002   -7.860743077087528E-010
 -1.540000000000000E-002    5.903614732259876E-010
 -1.530000000000000E-002    1.993744219556907E-009
 -1.520000000000000E-002    3.383861068844732E-009
 -1.510000000000000E-002    4.720598558140404E-009
 -1.500000000000000E-002    5.966152063634258E-009
 -1.490000000000000E-002    7.087148053245456E-009
 -1.480000000000000E-002    8.056467314275989E-009
 -1.470000000000000E-002    8.854582373453411E-009
 -1.460000000000000E-002    9.470246990796017E-009
 -1.450000000000000E-002    9.900454352649839E-009
 -1.440000000000000E-002    1.014964405720582E-008
 -1.430000000000000E-002    1.022823430978858E-008
 -1.420000000000000E-002    1.015061946851273E-008
 -1.410000000000000E-002    9.932856341298594E-009
 -1.400000000000000E-002    9.590302133573817E-009
 -1.390000000000000E-002    9.135474348049629E-009
 -1.380000000000000E-002    8.576409840815998E-009
 -1.370000000000000E-002    7.915736007542783E-009
 -1.360000000000000E-002    7.150601642350761E-009
 -1.350000000000000E-002    6.273529573582888E-009
 -1.340000000000000E-002    5.274138295526212E-009
 -1.330000000000000E-002    4.141596903806581E-009
 -1.320000000000000E-002    2.867582543370780E-009
 -1.310000000000000E-002    1.449453713955314E-009
 -1.300000000000000E-002   -1.066731711413027E-010
 -1.290000000000000E-002   -1.783249810885107E-009
 -1.280000000000000E-002   -3.549286998153622E-009
 -1.270000000000000E-002   -5.359197177399992E-009
 -1.260000000000000E-002   -7.152571141142981E-009
 -1.250000000000000E-002   -8.854881333821025E-009
 -1.240000000000000E-002   -1.037896752649770E-008
 -1.230000000000000E-002   -1.162709409740437E-008
 -1.220000000000000E-002   -1.249328408374101E-008
 -1.210000000000000E-002   -1.286560217578420E-008
 -1.200000000000000E-002   -1.262806166958750E-008
 -1.190000000000000E-002   -1.166187448091261E-008
 -1.180000000000000E-002   -9.845813720066088E-009
 -1.170000000000000E-002   -7.055598314331811E-009
 -1.160000000000000E-002   -3.162257579528077E-009
 -1.150000000000000E-002    1.970389695008540E-009
 -1.140000000000000E-002    8.488960812796317E-009
 -1.130000000000000E-002    1.655414417459398E-008
 -1.120000000000000E-002    2.634442973891213E-008
 -1.110000000000000E-002    3.805956095272053E-008
 -1.100000000000000E-002    5.192337896082597E-008
 -1.090000000000000E-002    6.818583572622499E-008
 -1.080000000000000E-002    8.712384962008639E-008
 -1.070000000000000E-002    1.090410698376116E-007
 -1.060000000000000E-002    1.342662671690626E-007
 -1.050000000000000E-002    1.631507354155728E-007
 -1.040000000000000E-002    1.960645452574732E-007
 -1.030000000000000E-002    2.333920552251060E-007
 -1.020000000000000E-002    2.755269380113680E-007
 -1.010000000000000E-002    3.228668421907915E-007
 -1.000000000000000E-002    3.758081997770957E-007
 -9.899999999999999E-003    4.347412159505536E-007
 -9.800000000000000E-003    5.000454461014051E-007
 -9.699999999999999E-003    5.720862517100602E-007
 -9.599999999999999E-003    6.512120769934381E-007
 -9.500000000000000E-003    7.377527459483661E-007
 -9.399999999999999E-003    8.320193848451442E-007
 -9.299999999999999E-003    9.343050940777133E-007
 -9.200000000000000E-003    1.044887646025513E-006
 -9.099999999999999E-003    1.164032872600228E-006
 -8.999999999999999E-003    1.292000101170653E-006
 -8.900000000000000E-003    1.429047972814704E-006
 -8.799999999999999E-003    1.575442560163921E-006
 -8.699999999999999E-003    1.731464715116510E-006
 -8.600000000000000E-003    1.897419267074630E-006
 -8.499999999999999E-003    2.073643983559057E-006
 -8.399999999999999E-003    2.260517927697586E-006
 -8.300000000000000E-003    2.458469906804013E-006
 -8.199999999999999E-003    2.667985571496373E-006
 -8.100000000000000E-003    2.889612629752874E-006
 -8.000000000000000E-003    3.123965638292931E-006
 -7.899999999999999E-003    3.371728536924690E-006
 -7.800000000000000E-003    3.633655121529677E-006
 -7.699999999999999E-003    3.910568331173067E-006
 -7.599999999999999E-003    4.203358663302486E-006
 -7.499999999999999E-003    4.512981590229642E-006
 -7.399999999999999E-003    4.840454457025409E-006
 -7.299999999999999E-003    5.186853806768319E-006
 -7.199999999999999E-003    5.553314274724264E-006
 -7.100000000000000E-003    5.941027598525360E-006
 -6.999999999999999E-003    6.351244653933265E-006
 -6.899999999999999E-003    6.785278359629351E-006
 -6.800000000000000E-003    7.244510070603033E-006
 -6.699999999999999E-003    7.730396517841853E-006
 -6.599999999999999E-003    8.244478325053388E-006
 -6.499999999999999E-003    8.788389760001613E-006
 -6.399999999999999E-003    9.363870233505221E-006
 -6.299999999999999E-003    9.972772570020953E-006
 -6.199999999999999E-003    1.061707242004964E-005
 -6.100000000000000E-003    1.129887515069957E-005
 -5.999999999999999E-003    1.202041923041569E-005
 -5.899999999999999E-003    1.278407938104081E-005
 -5.800000000000000E-003    1.359236762136822E-005
 -5.699999999999999E-003    1.444792665666569E-005
 -5.599999999999999E-003    1.535352874856168E-005
 -5.499999999999999E-003    1.631206581516682E-005
 -5.399999999999999E-003    1.732654486574371E-005
 -5.299999999999999E-003    1.840008075160844E-005
 -5.199999999999999E-003    1.953589069071218E-005
 -5.099999999999999E-003    2.073729133482183E-005
 -4.999999999999999E-003    2.200769829098623E-005
 -4.899999999999999E-003    2.335062912905559E-005
 -4.799999999999999E-003    2.476970957576819E-005
 -4.699999999999999E-003    2.626868861632761E-005
 -4.599999999999999E-003    2.785144789056559E-005
 -4.499999999999999E-003    2.952202097303459E-005
 -4.399999999999999E-003    3.128461479185780E-005
 -4.299999999999999E-003    3.314363260447112E-005
 -4.199999999999999E-003    3.510369220400152E-005
 -4.099999999999999E-003    3.716964807422381E-005
 -3.999999999999999E-003    3.934661550566592E-005
 -3.899999999999999E-003    4.163998592442888E-005
 -3.799999999999999E-003    4.405543084621570E-005
 -3.699999999999999E-003    4.659892932780775E-005
 -3.599999999999999E-003    4.927676288051954E-005
 -3.499999999999999E-003    5.209551988687655E-005
 -3.399999999999999E-003    5.506209683629749E-005
 -3.299999999999999E-003    5.818370281467791E-005
 -3.199999999999999E-003    6.146784707342362E-005
 -3.099999999999999E-003    6.492234401355428E-005
 -2.999999999999999E-003    6.855531328999387E-005
 -2.899999999999999E-003    7.237518554487379E-005
 -2.799999999999999E-003    7.639069678985573E-005
 -2.699999999999999E-003    8.061091446548285E-005
 -2.599999999999999E-003    8.504526713470519E-005
 -2.499999999999999E-003    8.970354438416667E-005
 -2.399999999999999E-003    9.459595403735703E-005
 -2.299999999999999E-003    9.973314367803774E-005
 -2.199999999999999E-003    1.051262365830480E-004
 -2.099999999999999E-003    1.107869051338300E-004
 -1.999999999999999E-003    1.167273651675642E-004
 -1.899999999999999E-003    1.229604616023086E-004
 -1.799999999999999E-003    1.294996659923065E-004
 -1.699999999999999E-003    1.363591639462472E-004
 -1.599999999999999E-003    1.435538198083484E-004
 -1.499999999999999E-003    1.510992412949749E-004
 -1.399999999999999E-003    1.590117763552557E-004
 -1.299999999999999E-003    1.673084938357603E-004
 -1.199999999999999E-003    1.760072265128791E-004
 -1.099999999999999E-003    1.851265271553970E-004
 -9.999999999999989E-004    1.946856669863151E-004
 -8.999999999999990E-004    2.047046104752213E-004
 -7.999999999999990E-004    2.152040083752197E-004
 -6.999999999999989E-004    2.262052153322415E-004
 -5.999999999999990E-004    2.377302068166613E-004
 -4.999999999999989E-004    2.498016866747735E-004
 -3.999999999999989E-004    2.624429984174691E-004
 -2.999999999999989E-004    2.756781915465669E-004
 -1.999999999999989E-004    2.895320776343591E-004
 -9.999999999999892E-005    3.040302095125231E-004
  1.084202172485504E-018    3.191989306529235E-004
  1.000000000000011E-004    3.350654822625526E-004
  2.000000000000011E-004    3.516579889756336E-004
  3.000000000000011E-004    3.690055378168588E-004
  4.000000000000011E-004    3.871382590528218E-004
  5.000000000000011E-004    4.060873237768586E-004
  6.000000000000011E-004    4.258850236648929E-004
  7.000000000000011E-004    4.465647159753446E-004
  8.000000000000011E-004    4.681609500110164E-004
  9.000000000000012E-004    4.907094272684635E-004
  1.000000000000001E-003    5.142469255496234E-004
  1.100000000000001E-003    5.388113517068414E-004
  1.200000000000001E-003    5.644417693243691E-004
  1.300000000000001E-003    5.911782958285170E-004
  1.400000000000001E-003    6.190620828422934E-004
  1.500000000000001E-003    6.481353210898779E-004
  1.600000000000001E-003    6.784412612881236E-004
  1.700000000000001E-003    7.100241082038465E-004
  1.800000000000001E-003    7.429291986168302E-004
  1.900000000000001E-003    7.772029580003219E-004
  2.000000000000001E-003    8.128929066045494E-004
  2.100000000000001E-003    8.500476618491855E-004
  2.200000000000001E-003    8.887173840353121E-004
  2.300000000000001E-003    9.289533914335622E-004
  2.400000000000001E-003    9.708086622754894E-004
  2.500000000000001E-003    1.014337550280284E-003
  2.600000000000001E-003    1.059596306016937E-003
  2.700000000000001E-003    1.106642742422764E-003
  2.800000000000001E-003    1.155536676671171E-003
  2.900000000000001E-003    1.206339792941319E-003
  3.000000000000001E-003    1.259115686450457E-003
  3.100000000000001E-003    1.313929978498733E-003
  3.200000000000001E-003    1.370850187394539E-003
  3.300000000000001E-003    1.429945693944337E-003
  3.400000000000001E-003    1.491287939151214E-003
  3.500000000000001E-003    1.554950060167162E-003
  3.600000000000001E-003    1.621007085129618E-003
  3.700000000000001E-003    1.689535935870649E-003
  3.800000000000001E-003    1.760615046465517E-003
  3.900000000000001E-003    1.834324523143049E-003
  4.000000000000001E-003    1.910746450522182E-003
  4.100000000000001E-003    1.989964519673056E-003
  4.200000000000001E-003    2.072063960403266E-003
  4.300000000000001E-003    2.157132150312153E-003
  4.400000000000001E-003    2.245257997905723E-003
  4.500000000000001E-003    2.336532491286177E-003
  4.600000000000002E-003    2.431048652369518E-003
  4.700000000000001E-003    2.528901539870142E-003
  4.800000000000001E-003    2.630188275837378E-003
  4.900000000000002E-003    2.735008265935336E-003
  5.000000000000001E-003    2.843462972660450E-003
  5.100000000000001E-003    2.955656451162314E-003
  5.200000000000001E-003    3.071694614995943E-003
  5.300000000000002E-003    3.191685650628623E-003
  5.400000000000001E-003    3.315739661375900E-003
  5.500000000000001E-003    3.443969100354116E-003
  5.600000000000002E-003    3.576488323394038E-003
  5.700000000000001E-003    3.713413173559985E-003
  5.800000000000001E-003    3.854861609279476E-003
  5.900000000000002E-003    4.000953086446871E-003
  6.000000000000001E-003    4.151808386914787E-003
  6.100000000000001E-003    4.307549705076336E-003
  6.200000000000002E-003    4.468300161349808E-003
  6.300000000000002E-003    4.634184996646766E-003
  6.400000000000001E-003    4.805329588665378E-003
  6.500000000000001E-003    4.981861340582560E-003
  6.600000000000002E-003    5.163908256686291E-003
  6.700000000000001E-003    5.351599004387967E-003
  6.800000000000001E-003    5.545064047567744E-003
  6.900000000000002E-003    5.744434497470236E-003
  7.000000000000001E-003    5.949842179649684E-003
  7.100000000000001E-003    6.161420138805478E-003
  7.200000000000002E-003    6.379302068962841E-003
  7.300000000000002E-003    6.603622900212686E-003
  7.400000000000001E-003    6.834517602813058E-003
  7.500000000000001E-003    7.072122435686134E-003
  7.600000000000002E-003    7.316572899498116E-003
  7.700000000000001E-003    7.568007404848007E-003
  7.800000000000001E-003    7.826561952522659E-003
  7.900000000000001E-003    8.092374301460901E-003
  8.000000000000002E-003    8.365581016980358E-003
  8.100000000000001E-003    8.646319313568875E-003
  8.200000000000001E-003    8.934726372081911E-003
  8.300000000000002E-003    9.230938050816198E-003
  8.400000000000001E-003    9.535091106218455E-003
  8.500000000000002E-003    9.847319915902960E-003
  8.600000000000002E-003    1.016775845146562E-002
  8.700000000000001E-003    1.049654094456185E-002
  8.800000000000002E-003    1.083380025042119E-002
  8.900000000000002E-003    1.117966774674838E-002
  9.000000000000001E-003    1.153427455153469E-002
  9.100000000000002E-003    1.189774931943377E-002
  9.200000000000002E-003    1.227022142483663E-002
  9.300000000000001E-003    1.265181775859625E-002
  9.400000000000002E-003    1.304266527067821E-002
  9.500000000000001E-003    1.344288793624422E-002
  9.600000000000001E-003    1.385260850711326E-002
  9.700000000000002E-003    1.427195040863185E-002
  9.800000000000001E-003    1.470103107149091E-002
  9.900000000000001E-003    1.513997010361335E-002
  1.000000000000000E-002    1.558888216099321E-002
  1.010000000000000E-002    1.604788226700390E-002
  1.020000000000000E-002    1.651708219755445E-002
  1.030000000000000E-002    1.699658829225571E-002
  1.040000000000000E-002    1.748650831175176E-002
  1.050000000000000E-002    1.798694422511959E-002
  1.060000000000000E-002    1.849799589594685E-002
  1.070000000000000E-002    1.901976073692795E-002
  1.080000000000000E-002    1.955233182085646E-002
  1.090000000000000E-002    2.009579832036425E-002
  1.100000000000000E-002    2.065024807274607E-002
  1.110000000000000E-002    2.121576174988142E-002
  1.120000000000000E-002    2.179242005857906E-002
  1.130000000000000E-002    2.238029675930964E-002
  1.140000000000000E-002    2.297946427422292E-002
  1.150000000000000E-002    2.358998885439959E-002
  1.160000000000000E-002    2.421193251783946E-002
  1.170000000000000E-002    2.484535393754593E-002
  1.180000000000000E-002    2.549030516148443E-002
  1.190000000000000E-002    2.614683624851126E-002
  1.200000000000000E-002    2.681498814846841E-002
  1.210000000000000E-002    2.749480200292233E-002
  1.220000000000000E-002    2.818630775533227E-002
  1.230000000000000E-002    2.888953475227432E-002
  1.240000000000000E-002    2.960450348269085E-002
  1.250000000000000E-002    3.033122849526267E-002
  1.260000000000000E-002    3.106972178725933E-002
  1.270000000000000E-002    3.181998580416110E-002
  1.280000000000000E-002    3.258201646177233E-002
  1.290000000000000E-002    3.335580411549859E-002
  1.300000000000000E-002    3.414133681512974E-002
  1.310000000000000E-002    3.493859130043918E-002
  1.320000000000000E-002    3.574753907937663E-002
  1.330000000000000E-002    3.656814342400526E-002
  1.340000000000000E-002    3.740036619041306E-002
  1.350000000000000E-002    3.824415959142184E-002
  1.360000000000000E-002    3.909946884154464E-002
  1.370000000000000E-002    3.996622950407953E-002
  1.380000000000000E-002    4.084437568606412E-002
  1.390000000000000E-002    4.173383345672130E-002
  1.400000000000000E-002    4.263451932846848E-002
  1.410000000000000E-002    4.354634640822118E-002
  1.420000000000000E-002    4.446921856620271E-002
  1.430000000000000E-002    4.540303318497781E-002
  1.440000000000000E-002    4.634768206750160E-002
  1.450000000000000E-002    4.730304982299126E-002
  1.460000000000000E-002    4.826901179097388E-002
  1.470000000000000E-002    4.924543888357439E-002
  1.480000000000000E-002    5.023219679276442E-002
  1.490000000000000E-002    5.122914473411751E-002
  1.500000000000000E-002    5.223613482294038E-002
  1.510000000000000E-002    5.325301438886252E-002
  1.520000000000000E-002    5.427962176278334E-002
  1.530000000000000E-002    5.531579250644608E-002
  1.540000000000000E-002    5.636135528571807E-002
  1.550000000000000E-002    5.741613989841796E-002
  1.560000000000000E-002    5.847995649734999E-002
  1.570000000000000E-002    5.955263077911491E-002
  1.580000000000000E-002    6.063397113496768E-002
  1.590000000000000E-002    6.172378440104721E-002
  1.600000000000000E-002    6.282187771809619E-002
  1.610000000000000E-002    6.392805146043927E-002
  1.620000000000000E-002    6.504210423601502E-002
  1.630000000000000E-002    6.616382913946230E-002
  1.640000000000000E-002    6.729302324079595E-002
  1.650000000000000E-002    6.842947344802967E-002
  1.660000000000000E-002    6.957297228915393E-002
  1.670000000000000E-002    7.072330941566769E-002
  1.680000000000000E-002    7.188026806794973E-002
  1.690000000000000E-002    7.304363700803181E-002
  1.700000000000000E-002    7.421320122802583E-002
  1.710000000000000E-002    7.538874560649207E-002
  1.720000000000000E-002    7.657005368639785E-002
  1.730000000000000E-002    7.775691141607950E-002
  1.740000000000000E-002    7.894911091624815E-002
  1.750000000000000E-002    8.014643964978957E-002
  1.760000000000000E-002    8.134868689668900E-002
  1.770000000000000E-002    8.255564977829398E-002
  1.780000000000000E-002    8.376712395312115E-002
  1.790000000000000E-002    8.498291028481708E-002
  1.800000000000000E-002    8.620281517808566E-002
  1.810000000000000E-002    8.742664822783613E-002
  1.820000000000000E-002    8.865422753813018E-002
  1.830000000000000E-002    8.988537025907602E-002
  1.840000000000000E-002    9.111990539450451E-002
  1.850000000000000E-002    9.235767012945854E-002
  1.860000000000000E-002    9.359849811340579E-002
  1.870000000000000E-002    9.484223935454349E-002