 -4.000000000000000E-002    0.000000000000000E+000
 -3.990000000000000E-002    0.000000000000000E+000
 -3.980000000000000E-002    0.000000000000000E+000
 -3.970000000000000E-002    0.000000000000000E+000
 -3.960000000000000E-002    0.000000000000000E+000
 -3.950000000000000E-002    0.000000000000000E+000
 -3.940000000000000E-002    0.000000000000000E+000
 -3.930000000000000E-002    0.000000000000000E+000
 -3.920000000000000E-002    0.000000000000000E+000
 -3.910000000000000E-002    0.000000000000000E+000
 -3.900000000000000E-002    0.000000000000000E+000
 -3.890000000000000E-002    0.000000000000000E+000
 -3.880000000000000E-002    0.000000000000000E+000
 -3.870000000000000E-002    0.000000000000000E+000
 -3.860000000000000E-002    0.000000000000000E+000
 -3.850000000000000E-002    0.000000000000000E+000
 -3.840000000000000E-002    0.000000000000000E+000
 -3.830000000000000E-002    0.000000000000000E+000
 -3.820000000000000E-002    0.000000000000000E+000
 -3.810000000000000E-002    0.000000000000000E+000
 -3.800000000000000E-002    0.000000000000000E+000
 -3.790000000000000E-002    0.000000000000000E+000
 -3.780000000000000E-002    0.000000000000000E+000
 -3.770000000000000E-002    0.000000000000000E+000
 -3.760000000000000E-002    0.000000000000000E+000
 -3.750000000000000E-002    0.000000000000000E+000
 -3.740000000000000E-002    0.000000000000000E+000
 -3.730000000000000E-002    0.000000000000000E+000
 -3.720000000000000E-002    0.000000000000000E+000
 -3.710000000000000E-002    0.000000000000000E+000
 -3.700000000000000E-002    0.000000000000000E+000
 -3.690000000000000E-002    0.000000000000000E+000
 -3.680000000000000E-002    0.000000000000000E+000
 -3.670000000000000E-002    0.000000000000000E+000
 -3.660000000000000E-002    0.000000000000000E+000
 -3.650000000000000E-002    0.000000000000000E+000
 -3.640000000000000E-002    0.000000000000000E+000
 -3.630000000000000E-002    0.000000000000000E+000
 -3.620000000000000E-002    0.000000000000000E+000
 -3.610000000000000E-002    0.000000000000000E+000
 -3.600000000000000E-002    0.000000000000000E+000
 -3.590000000000000E-002    0.000000000000000E+000
 -3.580000000000000E-002    0.000000000000000E+000
 -3.570000000000000E-002    0.000000000000000E+000
 -3.560000000000000E-002    0.000000000000000E+000
 -3.550000000000000E-002    0.000000000000000E+000
 -3.540000000000000E-002    0.000000000000000E+000
 -3.530000000000000E-002    0.000000000000000E+000
 -3.520000000000000E-002    0.000000000000000E+000
 -3.510000000000000E-002    0.000000000000000E+000
 -3.500000000000000E-002    0.000000000000000E+000
 -3.490000000000000E-002    0.000000000000000E+000
 -3.480000000000000E-002    0.000000000000000E+000
 -3.470000000000000E-002    0.000000000000000E+000
 -3.460000000000000E-002    0.000000000000000E+000
 -3.450000000000000E-002    0.000000000000000E+000
 -3.440000000000000E-002    0.000000000000000E+000
 -3.430000000000000E-002    0.000000000000000E+000
 -3.420000000000000E-002    0.000000000000000E+000
 -3.410000000000000E-002    0.000000000000000E+000
 -3.400000000000000E-002    0.000000000000000E+000
 -3.390000000000000E-002    0.000000000000000E+000
 -3.380000000000000E-002    0.000000000000000E+000
 -3.370000000000000E-002    0.000000000000000E+000
 -3.360000000000000E-002    0.000000000000000E+000
 -3.350000000000000E-002    0.000000000000000E+000
 -3.340000000000000E-002    0.000000000000000E+000
 -3.330000000000000E-002    0.000000000000000E+000
 -3.320000000000000E-002    0.000000000000000E+000
 -3.310000000000000E-002    0.000000000000000E+000
 -3.300000000000000E-002    0.000000000000000E+000
 -3.290000000000000E-002    0.000000000000000E+000
 -3.280000000000000E-002    0.000000000000000E+000
 -3.270000000000000E-002    0.000000000000000E+000
 -3.260000000000000E-002    0.000000000000000E+000
 -3.250000000000000E-002    0.000000000000000E+000
 -3.240000000000000E-002    0.000000000000000E+000
 -3.230000000000000E-002    0.000000000000000E+000
 -3.220000000000000E-002    0.000000000000000E+000
 -3.210000000000000E-002    0.000000000000000E+000
 -3.200000000000000E-002    0.000000000000000E+000
 -3.190000000000000E-002    0.000000000000000E+000
 -3.180000000000000E-002    0.000000000000000E+000
 -3.170000000000000E-002    0.000000000000000E+000
 -3.160000000000000E-002    0.000000000000000E+000
 -3.150000000000000E-002    0.000000000000000E+000
 -3.140000000000000E-002    0.000000000000000E+000
 -3.130000000000000E-002    0.000000000000000E+000
 -3.120000000000000E-002    0.000000000000000E+000
 -3.110000000000000E-002    0.000000000000000E+000
 -3.100000000000000E-002    0.000000000000000E+000
 -3.090000000000000E-002    0.000000000000000E+000
 -3.080000000000000E-002    0.000000000000000E+000
 -3.070000000000000E-002    0.000000000000000E+000
 -3.060000000000000E-002    0.000000000000000E+000
 -3.050000000000000E-002    0.000000000000000E+000
 -3.040000000000000E-002    0.000000000000000E+000
 -3.030000000000000E-002    0.000000000000000E+000
 -3.020000000000000E-002    0.000000000000000E+000
 -3.010000000000000E-002    0.000000000000000E+000
 -3.000000000000000E-002    0.000000000000000E+000
 -2.990000000000000E-002    0.000000000000000E+000
 -2.980000000000000E-002    0.000000000000000E+000
 -2.970000000000000E-002    0.000000000000000E+000
 -2.960000000000000E-002    0.000000000000000E+000
 -2.950000000000000E-002    0.000000000000000E+000
 -2.940000000000000E-002    0.000000000000000E+000
 -2.930000000000000E-002    0.000000000000000E+000
 -2.920000000000000E-002    0.000000000000000E+000
 -2.910000000000000E-002    0.000000000000000E+000
 -2.900000000000000E-002    0.000000000000000E+000
 -2.890000000000000E-002    0.000000000000000E+000
 -2.880000000000000E-002    0.000000000000000E+000
 -2.870000000000000E-002    0.000000000000000E+000
 -2.860000000000000E-002    0.000000000000000E+000
 -2.850000000000000E-002    0.000000000000000E+000
 -2.840000000000000E-002    0.000000000000000E+000
 -2.830000000000000E-002    0.000000000000000E+000
 -2.820000000000000E-002    0.000000000000000E+000
 -2.810000000000000E-002    0.000000000000000E+000
 -2.800000000000000E-002    0.000000000000000E+000
 -2.790000000000000E-002    0.000000000000000E+000
 -2.780000000000000E-002    1.755873167480587E-048
 -2.770000000000000E-002    3.511746334961175E-048
 -2.760000000000000E-002    4.787849606683978E-047
 -2.750000000000000E-002    8.318736239567431E-047
 -2.740000000000000E-002    1.114088717119647E-046
 -2.730000000000000E-002    1.574144364854777E-046
 -2.720000000000000E-002    1.930893531154842E-046
 -2.710000000000000E-002    2.004257023033542E-046
 -2.700000000000000E-002    1.644844003870835E-046
 -2.690000000000000E-002   -3.603312217077226E-047
 -2.680000000000000E-002   -3.518373130767258E-046
 -2.670000000000000E-002   -8.570677136850497E-046
 -2.660000000000000E-002   -1.504084757742588E-045
 -2.650000000000000E-002   -2.304357642201320E-045
 -2.640000000000000E-002   -3.223407355866885E-045
 -2.630000000000000E-002   -4.117905081325892E-045
 -2.620000000000000E-002   -4.841941627164213E-045
 -2.610000000000000E-002   -4.981887172765593E-045
 -2.600000000000000E-002   -3.552578704102354E-045
 -2.590000000000000E-002   -2.347786783897373E-046
 -2.580000000000000E-002    6.476535698593353E-045
 -2.570000000000000E-002    1.609767365438602E-044
 -2.560000000000000E-002    3.010312154526208E-044
 -2.550000000000000E-002    4.852193157980524E-044
 -2.540000000000000E-002    7.000124316879331E-044
 -2.530000000000000E-002    9.194860872372359E-044
 -2.520000000000000E-002    1.101271406331166E-043
 -2.510000000000000E-002    1.182973247746922E-043
 -2.500000000000000E-002    1.085562288680676E-043
 -2.490000000000000E-002    6.870305344461749E-044
 -2.480000000000000E-002   -1.067912146660129E-044
 -2.470000000000000E-002   -1.439220151170483E-043
 -2.460000000000000E-002   -3.382843539593042E-043
 -2.450000000000000E-002   -5.992592324531844E-043
 -2.440000000000000E-002   -9.201684158182022E-043
 -2.430000000000000E-002   -1.278789847741500E-042
 -2.420000000000000E-002   -1.632882454338375E-042
 -2.410000000000000E-002   -1.914706861563259E-042
 -2.400000000000000E-002   -2.025646309937296E-042
 -2.390000000000000E-002   -1.840207055279604E-042
 -2.380000000000000E-002   -1.206371999734093E-042
 -2.370000000000000E-002    3.808578735380453E-044
 -2.360000000000000E-002    2.045408266579746E-042
 -2.350000000000000E-002    4.927629576425316E-042
 -2.340000000000000E-002    8.710177841140592E-042
 -2.330000000000000E-002    1.328031138308629E-041
 -2.320000000000000E-002    1.832869928248451E-041
 -2.310000000000000E-002    2.329245940283150E-041
 -2.300000000000000E-002    2.730843242783634E-041
 -2.290000000000000E-002    2.919521285801765E-041
 -2.280000000000000E-002    2.747163563319833E-041
 -2.270000000000000E-002    2.043864987240265E-041
 -2.260000000000000E-002    6.328345310339894E-042
 -2.250000000000000E-002   -1.646345256350041E-041
 -2.240000000000000E-002   -4.906382557705298E-041
 -2.230000000000000E-002   -9.173824231497099E-041
 -2.220000000000000E-002   -1.434684032052568E-040
 -2.210000000000000E-002   -2.015190458585377E-040
 -2.200000000000000E-002   -2.610574619117207E-040
 -2.190000000000000E-002   -3.148753573369323E-040
 -2.180000000000000E-002   -3.532564633373458E-040
 -2.170000000000000E-002   -3.640425488382107E-040
 -2.160000000000000E-002   -3.329029093651948E-040
 -2.150000000000000E-002   -2.438218844171116E-040
 -2.140000000000000E-002   -7.981420985618584E-041
 -2.130000000000000E-002    1.760949174449318E-040
 -2.120000000000000E-002    5.395131852777227E-040
 -2.110000000000000E-002    1.022688757413393E-039
 -2.100000000000000E-002    1.631491389944316E-039
 -2.090000000000000E-002    2.360787074742006E-039
 -2.080000000000000E-002    3.187546139330876E-039
 -2.070000000000000E-002    4.061114349245509E-039
 -2.060000000000000E-002    4.890463690503841E-039
 -2.050000000000000E-002    5.529092848129166E-039
 -2.040000000000000E-002    5.759621088635194E-039
 -2.030000000000000E-002    5.282031070226988E-039
 -2.020000000000000E-002    3.711808636247543E-039
 -2.010000000000000E-002    5.964669504021739E-040
 -2.000000000000000E-002   -4.539479458816160E-039
 -1.990000000000000E-002   -1.211108557025090E-038
 -1.980000000000000E-002   -2.234383753691950E-038
 -1.970000000000000E-002   -3.509800518174222E-038
 -1.960000000000000E-002   -4.965668841844101E-038
 -1.950000000000000E-002   -6.450310756876785E-038
 -1.940000000000000E-002   -7.713139924947168E-038
 -1.930000000000000E-002   -8.395436994122737E-038
 -1.920000000000000E-002   -8.038700305532927E-038
 -1.910000000000000E-002   -6.118989335745615E-038
 -1.900000000000000E-002   -2.114526614542299E-038
 -1.890000000000000E-002    4.389663153817059E-038
 -1.880000000000000E-002    1.356259383997326E-037
 -1.870000000000000E-002    2.516522951101100E-037
 -1.860000000000000E-002    3.838824006334144E-037
 -1.850000000000000E-002    5.172413339476497E-037
 -1.840000000000000E-002    6.291810499198949E-037
 -1.830000000000000E-002    6.904659073978604E-037
 -1.820000000000000E-002    6.676826119747153E-037
 -1.810000000000000E-002    5.277564986876114E-037
 -1.800000000000000E-002    2.444479434264335E-037
 -1.790000000000000E-002   -1.936480712632806E-037
 -1.780000000000000E-002   -7.746278638372428E-037
 -1.770000000000000E-002   -1.455935063315909E-036
 -1.760000000000000E-002   -2.160225229667328E-036
 -1.750000000000000E-002   -2.776731396202060E-036
 -1.740000000000000E-002   -3.170208358770841E-036
 -1.730000000000000E-002   -3.198739201255163E-036
 -1.720000000000000E-002   -2.740241355931614E-036
 -1.710000000000000E-002   -1.725444877273677E-036
 -1.700000000000000E-002   -1.726478852102884E-037
 -1.690000000000000E-002    1.782931971439821E-036
 -1.680000000000000E-002    3.874307254851914E-036
 -1.670000000000000E-002    5.712114405053084E-036
 -1.660000000000000E-002    6.826653915165203E-036
 -1.650000000000000E-002    6.747068639006397E-036
 -1.640000000000000E-002    5.115449631802372E-036
 -1.630000000000000E-002    1.824486015964870E-036
 -1.620000000000000E-002   -2.843317611072798E-036
 -1.610000000000000E-002   -8.107067696266153E-036
 -1.600000000000000E-002   -1.264901137597168E-035
 -1.590000000000000E-002   -1.468713525077833E-035
 -1.580000000000000E-002   -1.219246275388618E-035
 -1.570000000000000E-002   -3.266680739878658E-036
 -1.560000000000000E-002    1.333366348721270E-035
 -1.550000000000000E-002    3.757902840233886E-035
 -1.540000000000000E-002    6.755114965774143E-035
 -1.530000000000000E-002    9.896700695228134E-035
 -1.520000000000000E-002    1.250077218432706E-034
 -1.510000000000000E-002    1.366213995890089E-034
 -1.500000000000000E-002    1.234379884345412E-034
 -1.490000000000000E-002    7.536139453221600E-035
 -1.480000000000000E-002   -1.521121670541997E-035
 -1.470000000000000E-002   -1.507431170693863E-034
 -1.460000000000000E-002   -3.258506005558435E-034
 -1.450000000000000E-002   -5.250544261283372E-034
 -1.440000000000000E-002   -7.216141756180837E-034
 -1.430000000000000E-002   -8.780859555973041E-034
 -1.420000000000000E-002   -9.491366592041172E-034
 -1.410000000000000E-002   -8.868959846195740E-034
 -1.400000000000000E-002   -6.487317814687054E-034
 -1.390000000000000E-002   -2.068254559959040E-034
 -1.380000000000000E-002    4.416309218844038E-034
 -1.370000000000000E-002    1.265306188690963E-033
 -1.360000000000000E-002    2.192701224025765E-033
 -1.350000000000000E-002    3.111311888648372E-033
 -1.340000000000000E-002    3.873747101089328E-033
 -1.330000000000000E-002    4.311798102805102E-033
 -1.320000000000000E-002    4.258267125812022E-033
 -1.310000000000000E-002    3.574865723399740E-033
 -1.300000000000000E-002    2.182889798002682E-033
 -1.290000000000000E-002    9.196545430162283E-035
 -1.280000000000000E-002   -2.578752230511909E-033
 -1.270000000000000E-002   -5.592605341419264E-033
 -1.260000000000000E-002   -8.605365125773970E-033
 -1.250000000000000E-002   -1.119557942093661E-032
 -1.240000000000000E-002   -1.291466322100669E-032
 -1.230000000000000E-002   -1.335221008451307E-032
 -1.220000000000000E-002   -1.220812245538508E-032
 -1.210000000000000E-002   -9.360024170079462E-033
 -1.200000000000000E-002   -4.912825697516575E-033
 -1.190000000000000E-002    7.820318849854967E-034
 -1.180000000000000E-002    7.146736046506114E-033
 -1.170000000000000E-002    1.343987119842249E-032
 -1.160000000000000E-002    1.885712834412661E-032
 -1.150000000000000E-002    2.265672760285488E-032
 -1.140000000000000E-002    2.428871563409697E-032
 -1.130000000000000E-002    2.350271547426256E-032
 -1.120000000000000E-002    2.040860781600643E-032
 -1.110000000000000E-002    1.547034782005670E-032
 -1.100000000000000E-002    9.424634159024759E-033
 -1.090000000000000E-002    3.132102336300016E-033
 -1.080000000000000E-002   -2.613242054473816E-033
 -1.070000000000000E-002   -7.275007229553567E-033
 -1.060000000000000E-002   -1.071483042830832E-032
 -1.050000000000000E-002   -1.323253179028459E-032
 -1.040000000000000E-002   -1.547076420633808E-032
 -1.030000000000000E-002   -1.817675510102478E-032
 -1.020000000000000E-002   -2.185239321330783E-032
 -1.010000000000000E-002   -2.636646093477259E-032
 -1.000000000000000E-002   -3.063914579941142E-032
 -9.899999999999999E-003   -3.252912880265169E-032
 -9.800000000000000E-003   -2.904530974400554E-032
 -9.699999999999999E-003   -1.696170946931667E-032
 -9.599999999999999E-003    6.166139561890478E-033
 -9.500000000000000E-003    4.069446991989182E-032
 -9.399999999999999E-003    8.352842437589212E-032
 -9.299999999999999E-003    1.270486238898436E-031
 -9.200000000000000E-003    1.587391327170379E-031
 -9.099999999999999E-003    1.619235694615734E-031
 -8.999999999999999E-003    1.179090704889949E-031
 -8.900000000000000E-003    9.625011629489700E-033
 -8.799999999999999E-003   -1.734700819717809E-031
 -8.699999999999999E-003   -4.298128853870422E-031
 -8.600000000000000E-003   -7.404628353020964E-031
 -8.499999999999999E-003   -1.065396631783208E-030
 -8.399999999999999E-003   -1.342751972246630E-030
 -8.300000000000000E-003   -1.492274064031990E-030
 -8.199999999999999E-003   -1.423782598597699E-030
 -8.100000000000000E-003   -1.050742071831779E-030
 -8.000000000000000E-003   -3.080311254075198E-031
 -7.899999999999999E-003    8.280955648072695E-031
 -7.800000000000000E-003    2.320895061498243E-030
 -7.699999999999999E-003    4.058662977962960E-030
 -7.599999999999999E-003    5.848916062496494E-030
 -7.499999999999999E-003    7.424772966422306E-030
 -7.399999999999999E-003    8.465821135436218E-030
 -7.299999999999999E-003    8.633751060803625E-030
 -7.199999999999999E-003    7.620497648646539E-030
 -7.100000000000000E-003    5.203894713770482E-030
 -6.999999999999999E-003    1.303417071540211E-030
 -6.899999999999999E-003   -3.973039651555963E-030
 -6.800000000000000E-003   -1.030069792024250E-029
 -6.699999999999999E-003   -1.713581886460840E-029
 -6.599999999999999E-003   -2.374504184554827E-029
 -6.499999999999999E-003   -2.926673934600613E-029
 -6.399999999999999E-003   -3.279969462318842E-029
 -6.299999999999999E-003   -3.350915303764169E-029
 -6.199999999999999E-003   -3.073616488989138E-029
 -6.100000000000000E-003   -2.409418253107735E-029
 -5.999999999999999E-003   -1.353774360046020E-029
 -5.899999999999999E-003    6.077083558677180E-031
 -5.800000000000000E-003    1.765892375670404E-029
 -5.699999999999999E-003    3.662612040738322E-029
 -5.599999999999999E-003    5.628908118203971E-029
 -5.499999999999999E-003    7.527816421013326E-029
 -5.399999999999999E-003    9.213826786393973E-029
 -5.299999999999999E-003    1.053576253923086E-028
 -5.199999999999999E-003    1.133538632783301E-028
 -5.099999999999999E-003    1.144261548562326E-028
 -4.999999999999999E-003    1.067018909742281E-028
 -4.899999999999999E-003    8.812473832616576E-029
 -4.799999999999999E-003    5.654356117350102E-029
 -4.699999999999999E-003    9.961926958664420E-030
 -4.599999999999999E-003   -5.300797000806330E-029
 -4.499999999999999E-003   -1.324779737143932E-028
 -4.399999999999999E-003   -2.264466833581208E-028
 -4.299999999999999E-003   -3.299004509827612E-028
 -4.199999999999999E-003   -4.340273660528824E-028
 -4.099999999999999E-003   -5.257741690858373E-028
 -3.999999999999999E-003   -5.880027610154096E-028
 -3.899999999999999E-003   -6.004874616331767E-028
 -3.799999999999999E-003   -5.419225001175873E-028
 -3.699999999999999E-003   -3.929792756847069E-028
 -3.599999999999999E-003   -1.402684462187528E-028
 -3.499999999999999E-003    2.191577132078774E-028
 -3.399999999999999E-003    6.733547546765774E-028
 -3.299999999999999E-003    1.191871774140113E-027
 -3.199999999999999E-003    1.723874645344546E-027
 -3.099999999999999E-003    2.198901349820575E-027
 -2.999999999999999E-003    2.530986274541331E-027
 -2.899999999999999E-003    2.626556362684447E-027
 -2.799999999999999E-003    2.396014093040083E-027
 -2.699999999999999E-003    1.768303528240695E-027
 -2.599999999999999E-003    7.070878901682160E-028
 -2.499999999999999E-003   -7.734626331256308E-028
 -2.399999999999999E-003   -2.595756320073823E-027
 -2.299999999999999E-003   -4.611443989628963E-027
 -2.199999999999999E-003   -6.602232472946563E-027
 -2.099999999999999E-003   -8.290868059053469E-027
 -1.999999999999999E-003   -9.363339382381939E-027
 -1.899999999999999E-003   -9.501993621794144E-027
 -1.799999999999999E-003   -8.427654196502019E-027
 -1.699999999999999E-003   -5.947138532521879E-027
 -1.599999999999999E-003   -2.001027397626708E-027
 -1.499999999999999E-003    3.294634567037860E-027
 -1.399999999999999E-003    9.619576484779283E-027
 -1.299999999999999E-003    1.644010426528114E-026
 -1.199999999999999E-003    2.302494919355018E-026
 -1.099999999999999E-003    2.848957182909924E-026
 -9.999999999999989E-004    3.186946347484861E-026
 -8.999999999999990E-004    3.221954194729118E-026
 -7.999999999999990E-004    2.873303972506739E-026
 -6.999999999999989E-004    2.086971815456678E-026
 -5.999999999999990E-004    8.480306215888599E-027
 -4.999999999999989E-004   -8.087958827992404E-027
 -3.999999999999989E-004   -2.792036521230727E-026
 -2.999999999999989E-004   -4.951308516687575E-026
 -1.999999999999989E-004   -7.081288942330036E-026
 -9.999999999999892E-005   -8.932580919233128E-026
  1.084202172485504E-018   -1.022966075522620E-025
  1.000000000000011E-004   -1.069538284838725E-025
  2.000000000000011E-004   -1.008076828535649E-025
  3.000000000000011E-004   -8.198031487893321E-026
  4.000000000000011E-004   -4.954104089269811E-026
  5.000000000000011E-004   -3.813315411124421E-027
  6.000000000000011E-004    5.338340446301962E-026
  7.000000000000011E-004    1.185947959875940E-025
  8.000000000000011E-004    1.867313432564186E-025
  9.000000000000012E-004    2.512360945578785E-025
  1.000000000000001E-003    3.044397934158977E-025
  1.100000000000001E-003    3.381085701161274E-025
  1.200000000000001E-003    3.441712237883312E-025
  1.300000000000001E-003    3.155926425779605E-025
  1.400000000000001E-003    2.473369558370913E-025
  1.500000000000001E-003    1.373422743838745E-025
  1.600000000000001E-003   -1.259071565415919E-026
  1.700000000000001E-003   -1.961086236247783E-025
  1.800000000000001E-003   -4.019307924656390E-025
  1.900000000000001E-003   -6.139028527760194E-025
  2.000000000000001E-003   -8.115712458965964E-025
  2.100000000000001E-003   -9.713381481940741E-025
  2.200000000000001E-003   -1.068207779733857E-024
  2.300000000000001E-003   -1.078073319874075E-024
  2.400000000000001E-003   -9.804238537328668E-025
  2.500000000000001E-003   -7.612780081947335E-025
  2.600000000000001E-003   -4.160805822807141E-025
  2.700000000000001E-003    4.775361408788101E-026
  2.800000000000001E-003    6.089989105560603E-025
  2.900000000000001E-003    1.231828881773768E-024
  3.000000000000001E-003    1.866388308866924E-024
  3.100000000000001E-003    2.450954672987363E-024
  3.200000000000001E-003    2.915794926607235E-024
  3.300000000000001E-003    3.188661116602660E-024
  3.400000000000001E-003    3.201680544462214E-024
  3.500000000000001E-003    2.899202041564977E-024
  3.600000000000001E-003    2.245965268319885E-024
  3.700000000000001E-003    1.234805734690138E-024
  3.800000000000001E-003   -1.069923127748895E-025
  3.900000000000001E-003   -1.713615715718002E-024
  4.000000000000001E-003   -3.479764690563080E-024
  4.100000000000001E-003   -5.263504941554763E-024
  4.200000000000001E-003   -6.893344905676632E-024
  4.300000000000001E-003   -8.179599488428058E-024
  4.400000000000001E-003   -8.929672482933227E-024
  4.500000000000001E-003   -8.966433867381120E-024
  4.600000000000002E-003   -8.148410913114553E-024
  4.700000000000001E-003   -6.390121453516599E-024
  4.800000000000001E-003   -3.680577834395595E-024
  4.900000000000002E-003   -9.784531399670275E-026
  5.000000000000001E-003    4.182413031890363E-024
  5.100000000000001E-003    8.886233361729238E-024
  5.200000000000001E-003    1.364985480261334E-023
  5.300000000000002E-003    1.803812236053525E-023
  5.400000000000001E-003    2.157267259837054E-023
  5.500000000000001E-003    2.376884478843142E-023
  5.600000000000002E-003    2.417929841310947E-023
  5.700000000000001E-003    2.244139589547299E-023
  5.800000000000001E-003    1.832466413970201E-023
  5.900000000000002E-003    1.177403758753061E-023
  6.000000000000001E-003    2.944439356422843E-024
  6.100000000000001E-003   -7.777740699640302E-024
  6.200000000000002E-003   -1.977010295114756E-023
  6.300000000000002E-003   -3.218962377692018E-023
  6.400000000000001E-003   -4.400968743732230E-023
  6.500000000000001E-003   -5.407884961796131E-023
  6.600000000000002E-003   -6.119972596207763E-023
  6.700000000000001E-003   -6.422442840282321E-023
  6.800000000000001E-003   -6.216114350402209E-023
  6.900000000000002E-003   -5.428475588118794E-023
  7.000000000000001E-003   -4.024308423115321E-023
  7.100000000000001E-003   -2.014933609981015E-023
  7.200000000000002E-003    5.348878712647168E-024
  7.300000000000002E-003    3.503331192291768E-023
  7.400000000000001E-003    6.711980554605796E-023
  7.500000000000001E-003    9.931031601947221E-023
  7.600000000000002E-003    1.288957161618238E-022
  7.700000000000001E-003    1.529096653982761E-022
  7.800000000000001E-003    1.683296366816229E-022
  7.900000000000001E-003    1.723169629052196E-022
  8.000000000000002E-003    1.624831594183233E-022
  8.100000000000001E-003    1.371654624678775E-022
  8.200000000000001E-003    9.569097170624171E-023
  8.300000000000002E-003    3.860577202218750E-023
  8.400000000000001E-003   -3.215562358846201E-023
  8.500000000000002E-003   -1.131848080085805E-022
  8.600000000000002E-003   -1.996197068716502E-022
  8.700000000000001E-003   -2.852873706869813E-022
  8.800000000000002E-003   -3.629789548111740E-022
  8.900000000000002E-003   -4.248574409705826E-022
  9.000000000000001E-003   -4.629876637986897E-022
  9.100000000000002E-003   -4.699663953977322E-022
  9.200000000000002E-003   -4.396183395868514E-022
  9.300000000000001E-003   -3.677122898766106E-022
  9.400000000000002E-003   -2.526433980789110E-022
  9.500000000000001E-003   -9.602004725333878E-023
  9.600000000000001E-003    9.690708465126303E-023
  9.700000000000002E-003    3.170346840920381E-022
  9.800000000000001E-003    5.514674280790011E-022
  9.900000000000001E-003    7.838899981602747E-022
  1.000000000000000E-002    9.952716567322997E-022
  1.010000000000000E-002    1.164903429839579E-021
  1.020000000000000E-002    1.271741566243516E-021
  1.030000000000000E-002    1.296004756086601E-021
  1.040000000000000E-002    1.220944817925300E-021
  1.050000000000000E-002    1.034685321929946E-021
  1.060000000000000E-002    7.320005896261770E-022
  1.070000000000000E-002    3.158915967403955E-022
  1.080000000000000E-002   -2.011942132194769E-022
  1.090000000000000E-002   -7.966518204351828E-022
  1.100000000000000E-002   -1.437657955056654E-021
  1.110000000000000E-002   -2.081881366583185E-021
  1.120000000000000E-002   -2.679049141669194E-021
  1.130000000000000E-002   -3.173408147514240E-021
  1.140000000000000E-002   -3.507061032577906E-021
  1.150000000000000E-002   -3.624086778335960E-021
  1.160000000000000E-002   -3.475280601731137E-021
  1.170000000000000E-002   -3.023265687539521E-021
  1.180000000000000E-002   -2.247651573765372E-021
  1.190000000000000E-002   -1.149843850755759E-021
  1.200000000000000E-002    2.429444404613698E-022
  1.210000000000000E-002    1.874956878516376E-021
  1.220000000000000E-002    3.660907457937536E-021
  1.230000000000000E-002    5.487173198336585E-021
  1.240000000000000E-002    7.215501152217733E-021
  1.250000000000000E-002    8.689429704779793E-021
  1.260000000000000E-002    9.743435470843943E-021
  1.270000000000000E-002    1.021459124691581E-020
  1.280000000000000E-002    9.956262921448277E-021
  1.290000000000000E-002    8.853109608021132E-021
  1.300000000000000E-002    6.836395201613676E-021
  1.310000000000000E-002    3.898390691721489E-021
  1.320000000000000E-002    1.044960841725886E-022
  1.330000000000000E-002   -4.398365684535549E-021
  1.340000000000000E-002   -9.378492527903894E-021
  1.350000000000000E-002   -1.452252106220256E-020
  1.360000000000000E-002   -1.944585376252645E-020
  1.370000000000000E-002   -2.371088805859227E-020
  1.380000000000000E-002   -2.685297207787551E-020
  1.390000000000000E-002   -2.841335433266660E-020
  1.400000000000000E-002   -2.797768314289359E-020
  1.410000000000000E-002   -2.521786949319766E-020
  1.420000000000000E-002   -1.993448438665306E-020
  1.430000000000000E-002   -1.209628510816732E-020
  1.440000000000000E-002   -1.873102765550192E-021
  1.450000000000000E-002    1.034178498315295E-020
  1.460000000000000E-002    2.392351877766334E-020
  1.470000000000000E-002    3.802494973437150E-020
  1.480000000000000E-002    5.160570191541250E-020
  1.490000000000000E-002    6.348212612226640E-020
  1.500000000000000E-002    7.239776106356867E-020
  1.510000000000000E-002    7.711216094313355E-020
  1.520000000000000E-002    7.650409671053027E-020
  1.530000000000000E-002    6.968319976220633E-020
  1.540000000000000E-002    5.610247350234189E-020
  1.550000000000000E-002    3.566257825486117E-020
  1.560000000000000E-002    8.798011321456597E-021
  1.570000000000000E-002   -2.346506239200882E-020
  1.580000000000000E-002   -5.948891825598141E-020
  1.590000000000000E-002   -9.705055464351873E-020
  1.600000000000000E-002   -1.334199472996040E-019
  1.610000000000000E-002   -1.654928070753489E-019
  1.620000000000000E-002   -1.899763701007836E-019
  1.630000000000000E-002   -2.036220719955793E-019
  1.640000000000000E-002   -2.034940993225137E-019
  1.650000000000000E-002   -1.872580370440956E-019
  1.660000000000000E-002   -1.534693730951989E-019
  1.670000000000000E-002   -1.018386098322202E-019
  1.680000000000000E-002   -3.344734544096132E-020
  1.690000000000000E-002    4.911008895798764E-020
  1.700000000000000E-002    1.416832291548567E-019
  1.710000000000000E-002    2.386397449497074E-019
  1.720000000000000E-002    3.330704500938297E-019
  1.730000000000000E-002    4.171297139203560E-019
  1.740000000000000E-002    4.825055466865912E-019
  1.750000000000000E-002    5.210022258281220E-019
  1.760000000000000E-002    5.252070364134975E-019
  1.770000000000000E-002    4.892008577655186E-019
  1.780000000000000E-002    4.092632627815243E-019
  1.790000000000000E-002    2.845151208537355E-019
  1.800000000000000E-002    1.174382152726938E-019
  1.810000000000000E-002   -8.578810818069192E-020
  1.820000000000000E-002   -3.151879915783971E-019
  1.830000000000000E-002   -5.571719366399928E-019
  1.840000000000000E-002   -7.950303680488644E-019
  1.850000000000000E-002   -1.009746487682777E-018
  1.860000000000000E-002   -1.181113240186611E-018
  1.870000000000000E-002   -1.289114112997876E-018