 -4.000000000000000E-002    0.000000000000000E+000
 -3.990000000000000E-002    0.000000000000000E+000
 -3.980000000000000E-002    0.000000000000000E+000
 -3.970000000000000E-002    0.000000000000000E+000
 -3.960000000000000E-002    0.000000000000000E+000
 -3.950000000000000E-002    0.000000000000000E+000
 -3.940000000000000E-002    0.000000000000000E+000
 -3.930000000000000E-002    0.000000000000000E+000
 -3.920000000000000E-002    0.000000000000000E+000
 -3.910000000000000E-002    0.000000000000000E+000
 -3.900000000000000E-002    0.000000000000000E+000
 -3.890000000000000E-002    0.000000000000000E+000
 -3.880000000000000E-002    0.000000000000000E+000
 -3.870000000000000E-002    0.000000000000000E+000
 -3.860000000000000E-002    0.000000000000000E+000
 -3.850000000000000E-002    0.000000000000000E+000
 -3.840000000000000E-002    0.000000000000000E+000
 -3.830000000000000E-002    0.000000000000000E+000
 -3.820000000000000E-002    0.000000000000000E+000
 -3.810000000000000E-002    0.000000000000000E+000
 -3.800000000000000E-002    0.000000000000000E+000
 -3.790000000000000E-002    0.000000000000000E+000
 -3.780000000000000E-002    0.000000000000000E+000
 -3.770000000000000E-002    0.000000000000000E+000
 -3.760000000000000E-002    0.000000000000000E+000
 -3.750000000000000E-002    0.000000000000000E+000
 -3.740000000000000E-002    0.000000000000000E+000
 -3.730000000000000E-002    0.000000000000000E+000
 -3.720000000000000E-002    0.000000000000000E+000
 -3.710000000000000E-002    0.000000000000000E+000
 -3.700000000000000E-002    0.000000000000000E+000
 -3.690000000000000E-002    0.000000000000000E+000
 -3.680000000000000E-002    0.000000000000000E+000
 -3.670000000000000E-002    0.000000000000000E+000
 -3.660000000000000E-002    0.000000000000000E+000
 -3.650000000000000E-002    0.000000000000000E+000
 -3.640000000000000E-002    0.000000000000000E+000
 -3.630000000000000E-002    0.000000000000000E+000
 -3.620000000000000E-002    0.000000000000000E+000
 -3.610000000000000E-002    0.000000000000000E+000
 -3.600000000000000E-002    0.000000000000000E+000
 -3.590000000000000E-002    0.000000000000000E+000
 -3.580000000000000E-002    0.000000000000000E+000
 -3.570000000000000E-002    0.000000000000000E+000
 -3.560000000000000E-002    0.000000000000000E+000
 -3.550000000000000E-002    0.000000000000000E+000
 -3.540000000000000E-002    0.000000000000000E+000
 -3.530000000000000E-002    0.000000000000000E+000
 -3.520000000000000E-002    0.000000000000000E+000
 -3.510000000000000E-002    0.000000000000000E+000
 -3.500000000000000E-002    0.000000000000000E+000
 -3.490000000000000E-002    0.000000000000000E+000
 -3.480000000000000E-002    0.000000000000000E+000
 -3.470000000000000E-002    0.000000000000000E+000
 -3.460000000000000E-002    0.000000000000000E+000
 -3.450000000000000E-002    0.000000000000000E+000
 -3.440000000000000E-002    0.000000000000000E+000
 -3.430000000000000E-002    0.000000000000000E+000
 -3.420000000000000E-002    0.000000000000000E+000
 -3.410000000000000E-002    0.000000000000000E+000
 -3.400000000000000E-002    0.000000000000000E+000
 -3.390000000000000E-002    0.000000000000000E+000
 -3.380000000000000E-002    0.000000000000000E+000
 -3.370000000000000E-002    0.000000000000000E+000
 -3.360000000000000E-002    0.000000000000000E+000
 -3.350000000000000E-002    0.000000000000000E+000
 -3.340000000000000E-002    0.000000000000000E+000
 -3.330000000000000E-002    0.000000000000000E+000
 -3.320000000000000E-002    0.000000000000000E+000
 -3.310000000000000E-002    0.000000000000000E+000
 -3.300000000000000E-002    0.000000000000000E+000
 -3.290000000000000E-002    0.000000000000000E+000
 -3.280000000000000E-002    0.000000000000000E+000
 -3.270000000000000E-002    0.000000000000000E+000
 -3.260000000000000E-002    0.000000000000000E+000
 -3.250000000000000E-002    0.000000000000000E+000
 -3.240000000000000E-002    0.000000000000000E+000
 -3.230000000000000E-002    0.000000000000000E+000
 -3.220000000000000E-002    0.000000000000000E+000
 -3.210000000000000E-002    0.000000000000000E+000
 -3.200000000000000E-002    0.000000000000000E+000
 -3.190000000000000E-002    0.000000000000000E+000
 -3.180000000000000E-002    0.000000000000000E+000
 -3.170000000000000E-002    0.000000000000000E+000
 -3.160000000000000E-002    0.000000000000000E+000
 -3.150000000000000E-002    0.000000000000000E+000
 -3.140000000000000E-002    0.000000000000000E+000
 -3.130000000000000E-002    0.000000000000000E+000
 -3.120000000000000E-002    0.000000000000000E+000
 -3.110000000000000E-002    0.000000000000000E+000
 -3.100000000000000E-002    0.000000000000000E+000
 -3.090000000000000E-002    0.000000000000000E+000
 -3.080000000000000E-002    0.000000000000000E+000
 -3.070000000000000E-002    0.000000000000000E+000
 -3.060000000000000E-002    0.000000000000000E+000
 -3.050000000000000E-002    0.000000000000000E+000
 -3.040000000000000E-002    0.000000000000000E+000
 -3.030000000000000E-002    0.000000000000000E+000
 -3.020000000000000E-002    0.000000000000000E+000
 -3.010000000000000E-002    0.000000000000000E+000
 -3.000000000000000E-002    0.000000000000000E+000
 -2.990000000000000E-002    0.000000000000000E+000
 -2.980000000000000E-002    0.000000000000000E+000
 -2.970000000000000E-002    0.000000000000000E+000
 -2.960000000000000E-002    0.000000000000000E+000
 -2.950000000000000E-002    0.000000000000000E+000
 -2.940000000000000E-002    0.000000000000000E+000
 -2.930000000000000E-002    0.000000000000000E+000
 -2.920000000000000E-002    0.000000000000000E+000
 -2.910000000000000E-002    0.000000000000000E+000
 -2.900000000000000E-002    0.000000000000000E+000
 -2.890000000000000E-002    0.000000000000000E+000
 -2.880000000000000E-002    0.000000000000000E+000
 -2.870000000000000E-002    0.000000000000000E+000
 -2.860000000000000E-002    0.000000000000000E+000
 -2.850000000000000E-002    0.000000000000000E+000
 -2.840000000000000E-002    0.000000000000000E+000
 -2.830000000000000E-002    0.000000000000000E+000
 -2.820000000000000E-002    0.000000000000000E+000
 -2.810000000000000E-002    0.000000000000000E+000
 -2.800000000000000E-002    0.000000000000000E+000
 -2.790000000000000E-002    0.000000000000000E+000
 -2.780000000000000E-002    0.000000000000000E+000
 -2.770000000000000E-002    0.000000000000000E+000
 -2.760000000000000E-002    0.000000000000000E+000
 -2.750000000000000E-002    0.000000000000000E+000
 -2.740000000000000E-002    0.000000000000000E+000
 -2.730000000000000E-002    0.000000000000000E+000
 -2.720000000000000E-002    0.000000000000000E+000
 -2.710000000000000E-002    0.000000000000000E+000
 -2.700000000000000E-002    0.000000000000000E+000
 -2.690000000000000E-002    0.000000000000000E+000
 -2.680000000000000E-002    0.000000000000000E+000
 -2.670000000000000E-002    0.000000000000000E+000
 -2.660000000000000E-002    0.000000000000000E+000
 -2.650000000000000E-002    0.000000000000000E+000
 -2.640000000000000E-002    0.000000000000000E+000
 -2.630000000000000E-002    0.000000000000000E+000
 -2.620000000000000E-002    0.000000000000000E+000
 -2.610000000000000E-002    0.000000000000000E+000
 -2.600000000000000E-002    0.000000000000000E+000
 -2.590000000000000E-002    0.000000000000000E+000
 -2.580000000000000E-002    0.000000000000000E+000
 -2.570000000000000E-002    0.000000000000000E+000
 -2.560000000000000E-002    0.000000000000000E+000
 -2.550000000000000E-002    0.000000000000000E+000
 -2.540000000000000E-002    0.000000000000000E+000
 -2.530000000000000E-002    0.000000000000000E+000
 -2.520000000000000E-002    0.000000000000000E+000
 -2.510000000000000E-002    0.000000000000000E+000
 -2.500000000000000E-002    0.000000000000000E+000
 -2.490000000000000E-002    0.000000000000000E+000
 -2.480000000000000E-002    0.000000000000000E+000
 -2.470000000000000E-002    0.000000000000000E+000
 -2.460000000000000E-002    0.000000000000000E+000
 -2.450000000000000E-002    0.000000000000000E+000
 -2.440000000000000E-002    0.000000000000000E+000
 -2.430000000000000E-002    0.000000000000000E+000
 -2.420000000000000E-002    0.000000000000000E+000
 -2.410000000000000E-002    0.000000000000000E+000
 -2.400000000000000E-002    0.000000000000000E+000
 -2.390000000000000E-002    0.000000000000000E+000
 -2.380000000000000E-002    0.000000000000000E+000
 -2.370000000000000E-002    0.000000000000000E+000
 -2.360000000000000E-002    0.000000000000000E+000
 -2.350000000000000E-002    0.000000000000000E+000
 -2.340000000000000E-002    0.000000000000000E+000
 -2.330000000000000E-002    0.000000000000000E+000
 -2.320000000000000E-002    0.000000000000000E+000
 -2.310000000000000E-002    0.000000000000000E+000
 -2.300000000000000E-002    0.000000000000000E+000
 -2.290000000000000E-002    0.000000000000000E+000
 -2.280000000000000E-002    0.000000000000000E+000
 -2.270000000000000E-002    0.000000000000000E+000
 -2.260000000000000E-002    0.000000000000000E+000
 -2.250000000000000E-002    0.000000000000000E+000
 -2.240000000000000E-002    0.000000000000000E+000
 -2.230000000000000E-002    0.000000000000000E+000
 -2.220000000000000E-002    0.000000000000000E+000
 -2.210000000000000E-002    0.000000000000000E+000
 -2.200000000000000E-002    0.000000000000000E+000
 -2.190000000000000E-002    0.000000000000000E+000
 -2.180000000000000E-002    0.000000000000000E+000
 -2.170000000000000E-002    0.000000000000000E+000
 -2.160000000000000E-002    0.000000000000000E+000
 -2.150000000000000E-002    0.000000000000000E+000
 -2.140000000000000E-002    0.000000000000000E+000
 -2.130000000000000E-002    0.000000000000000E+000
 -2.120000000000000E-002    0.000000000000000E+000
 -2.110000000000000E-002    0.000000000000000E+000
 -2.100000000000000E-002    0.000000000000000E+000
 -2.090000000000000E-002    0.000000000000000E+000
 -2.080000000000000E-002    0.000000000000000E+000
 -2.070000000000000E-002    0.000000000000000E+000
 -2.060000000000000E-002    0.000000000000000E+000
 -2.050000000000000E-002    0.000000000000000E+000
 -2.040000000000000E-002    0.000000000000000E+000
 -2.030000000000000E-002    0.000000000000000E+000
 -2.020000000000000E-002    0.000000000000000E+000
 -2.010000000000000E-002    0.000000000000000E+000
 -2.000000000000000E-002    0.000000000000000E+000
 -1.990000000000000E-002    0.000000000000000E+000
 -1.980000000000000E-002    0.000000000000000E+000
 -1.970000000000000E-002    0.000000000000000E+000
 -1.960000000000000E-002    0.000000000000000E+000
 -1.950000000000000E-002    0.000000000000000E+000
 -1.940000000000000E-002    0.000000000000000E+000
 -1.930000000000000E-002    0.000000000000000E+000
 -1.920000000000000E-002    0.000000000000000E+000
 -1.910000000000000E-002    0.000000000000000E+000
 -1.900000000000000E-002    0.000000000000000E+000
 -1.890000000000000E-002    0.000000000000000E+000
 -1.880000000000000E-002    0.000000000000000E+000
 -1.870000000000000E-002    0.000000000000000E+000
 -1.860000000000000E-002    0.000000000000000E+000
 -1.850000000000000E-002    0.000000000000000E+000
 -1.840000000000000E-002    0.000000000000000E+000
 -1.830000000000000E-002    0.000000000000000E+000
 -1.820000000000000E-002    0.000000000000000E+000
 -1.810000000000000E-002    0.000000000000000E+000
 -1.800000000000000E-002    0.000000000000000E+000
 -1.790000000000000E-002    0.000000000000000E+000
 -1.780000000000000E-002    0.000000000000000E+000
 -1.770000000000000E-002    0.000000000000000E+000
 -1.760000000000000E-002    0.000000000000000E+000
 -1.750000000000000E-002    0.000000000000000E+000
 -1.740000000000000E-002    0.000000000000000E+000
 -1.730000000000000E-002    0.000000000000000E+000
 -1.720000000000000E-002    0.000000000000000E+000
 -1.710000000000000E-002    0.000000000000000E+000
 -1.700000000000000E-002    0.000000000000000E+000
 -1.690000000000000E-002    0.000000000000000E+000
 -1.680000000000000E-002    0.000000000000000E+000
 -1.670000000000000E-002    0.000000000000000E+000
 -1.660000000000000E-002    0.000000000000000E+000
 -1.650000000000000E-002    0.000000000000000E+000
 -1.640000000000000E-002    0.000000000000000E+000
 -1.630000000000000E-002    0.000000000000000E+000
 -1.620000000000000E-002    0.000000000000000E+000
 -1.610000000000000E-002    0.000000000000000E+000
 -1.600000000000000E-002    0.000000000000000E+000
 -1.590000000000000E-002    0.000000000000000E+000
 -1.580000000000000E-002    0.000000000000000E+000
 -1.570000000000000E-002    0.000000000000000E+000
 -1.560000000000000E-002    0.000000000000000E+000
 -1.550000000000000E-002    0.000000000000000E+000
 -1.540000000000000E-002    0.000000000000000E+000
 -1.530000000000000E-002    0.000000000000000E+000
 -1.520000000000000E-002    0.000000000000000E+000
 -1.510000000000000E-002    0.000000000000000E+000
 -1.500000000000000E-002    0.000000000000000E+000
 -1.490000000000000E-002    0.000000000000000E+000
 -1.480000000000000E-002    0.000000000000000E+000
 -1.470000000000000E-002    0.000000000000000E+000
 -1.460000000000000E-002    0.000000000000000E+000
 -1.450000000000000E-002    0.000000000000000E+000
 -1.440000000000000E-002    0.000000000000000E+000
 -1.430000000000000E-002    0.000000000000000E+000
 -1.420000000000000E-002    0.000000000000000E+000
 -1.410000000000000E-002    0.000000000000000E+000
 -1.400000000000000E-002    0.000000000000000E+000
 -1.390000000000000E-002    0.000000000000000E+000
 -1.380000000000000E-002    0.000000000000000E+000
 -1.370000000000000E-002    0.000000000000000E+000
 -1.360000000000000E-002    0.000000000000000E+000
 -1.350000000000000E-002    0.000000000000000E+000
 -1.340000000000000E-002    0.000000000000000E+000
 -1.330000000000000E-002    0.000000000000000E+000
 -1.320000000000000E-002    0.000000000000000E+000
 -1.310000000000000E-002    0.000000000000000E+000
 -1.300000000000000E-002    0.000000000000000E+000
 -1.290000000000000E-002    0.000000000000000E+000
 -1.280000000000000E-002    0.000000000000000E+000
 -1.270000000000000E-002    0.000000000000000E+000
 -1.260000000000000E-002    0.000000000000000E+000
 -1.250000000000000E-002    0.000000000000000E+000
 -1.240000000000000E-002    0.000000000000000E+000
 -1.230000000000000E-002    0.000000000000000E+000
 -1.220000000000000E-002    0.000000000000000E+000
 -1.210000000000000E-002    0.000000000000000E+000
 -1.200000000000000E-002    0.000000000000000E+000
 -1.190000000000000E-002    0.000000000000000E+000
 -1.180000000000000E-002    0.000000000000000E+000
 -1.170000000000000E-002    0.000000000000000E+000
 -1.160000000000000E-002    0.000000000000000E+000
 -1.150000000000000E-002    0.000000000000000E+000
 -1.140000000000000E-002    0.000000000000000E+000
 -1.130000000000000E-002    0.000000000000000E+000
 -1.120000000000000E-002    0.000000000000000E+000
 -1.110000000000000E-002    0.000000000000000E+000
 -1.100000000000000E-002    0.000000000000000E+000
 -1.090000000000000E-002    0.000000000000000E+000
 -1.080000000000000E-002    0.000000000000000E+000
 -1.070000000000000E-002    0.000000000000000E+000
 -1.060000000000000E-002    0.000000000000000E+000
 -1.050000000000000E-002    0.000000000000000E+000
 -1.040000000000000E-002    0.000000000000000E+000
 -1.030000000000000E-002    0.000000000000000E+000
 -1.020000000000000E-002    0.000000000000000E+000
 -1.010000000000000E-002    0.000000000000000E+000
 -1.000000000000000E-002    0.000000000000000E+000
 -9.899999999999999E-003    0.000000000000000E+000
 -9.800000000000000E-003    0.000000000000000E+000
 -9.699999999999999E-003    0.000000000000000E+000
 -9.599999999999999E-003    0.000000000000000E+000
 -9.500000000000000E-003    0.000000000000000E+000
 -9.399999999999999E-003    0.000000000000000E+000
 -9.299999999999999E-003    0.000000000000000E+000
 -9.200000000000000E-003    0.000000000000000E+000
 -9.099999999999999E-003    0.000000000000000E+000
 -8.999999999999999E-003    0.000000000000000E+000
 -8.900000000000000E-003    0.000000000000000E+000
 -8.799999999999999E-003    0.000000000000000E+000
 -8.699999999999999E-003    0.000000000000000E+000
 -8.600000000000000E-003    0.000000000000000E+000
 -8.499999999999999E-003    0.000000000000000E+000
 -8.399999999999999E-003    0.000000000000000E+000
 -8.300000000000000E-003    0.000000000000000E+000
 -8.199999999999999E-003    0.000000000000000E+000
 -8.100000000000000E-003    0.000000000000000E+000
 -8.000000000000000E-003    0.000000000000000E+000
 -7.899999999999999E-003    0.000000000000000E+000
 -7.800000000000000E-003    0.000000000000000E+000
 -7.699999999999999E-003    0.000000000000000E+000
 -7.599999999999999E-003    0.000000000000000E+000
 -7.499999999999999E-003    0.000000000000000E+000
 -7.399999999999999E-003    0.000000000000000E+000
 -7.299999999999999E-003    0.000000000000000E+000
 -7.199999999999999E-003    0.000000000000000E+000
 -7.100000000000000E-003    0.000000000000000E+000
 -6.999999999999999E-003    0.000000000000000E+000
 -6.899999999999999E-003    0.000000000000000E+000
 -6.800000000000000E-003    0.000000000000000E+000
 -6.699999999999999E-003    0.000000000000000E+000
 -6.599999999999999E-003    0.000000000000000E+000
 -6.499999999999999E-003    0.000000000000000E+000
 -6.399999999999999E-003    0.000000000000000E+000
 -6.299999999999999E-003    0.000000000000000E+000
 -6.199999999999999E-003    0.000000000000000E+000
 -6.100000000000000E-003    0.000000000000000E+000
 -5.999999999999999E-003    0.000000000000000E+000
 -5.899999999999999E-003    0.000000000000000E+000
 -5.800000000000000E-003    0.000000000000000E+000
 -5.699999999999999E-003    0.000000000000000E+000
 -5.599999999999999E-003    0.000000000000000E+000
 -5.499999999999999E-003    0.000000000000000E+000
 -5.399999999999999E-003    0.000000000000000E+000
 -5.299999999999999E-003    0.000000000000000E+000
 -5.199999999999999E-003    0.000000000000000E+000
 -5.099999999999999E-003    0.000000000000000E+000
 -4.999999999999999E-003    0.000000000000000E+000
 -4.899999999999999E-003    0.000000000000000E+000
 -4.799999999999999E-003    0.000000000000000E+000
 -4.699999999999999E-003    0.000000000000000E+000
 -4.599999999999999E-003    0.000000000000000E+000
 -4.499999999999999E-003    0.000000000000000E+000
 -4.399999999999999E-003    0.000000000000000E+000
 -4.299999999999999E-003    0.000000000000000E+000
 -4.199999999999999E-003    0.000000000000000E+000
 -4.099999999999999E-003    0.000000000000000E+000
 -3.999999999999999E-003    0.000000000000000E+000
 -3.899999999999999E-003    0.000000000000000E+000
 -3.799999999999999E-003    0.000000000000000E+000
 -3.699999999999999E-003    0.000000000000000E+000
 -3.599999999999999E-003    0.000000000000000E+000
 -3.499999999999999E-003    0.000000000000000E+000
 -3.399999999999999E-003    0.000000000000000E+000
 -3.299999999999999E-003    0.000000000000000E+000
 -3.199999999999999E-003    0.000000000000000E+000
 -3.099999999999999E-003    0.000000000000000E+000
 -2.999999999999999E-003    0.000000000000000E+000
 -2.899999999999999E-003    0.000000000000000E+000
 -2.799999999999999E-003    0.000000000000000E+000
 -2.699999999999999E-003    0.000000000000000E+000
 -2.599999999999999E-003    0.000000000000000E+000
 -2.499999999999999E-003    0.000000000000000E+000
 -2.399999999999999E-003    0.000000000000000E+000
 -2.299999999999999E-003    0.000000000000000E+000
 -2.199999999999999E-003    0.000000000000000E+000
 -2.099999999999999E-003    0.000000000000000E+000
 -1.999999999999999E-003    0.000000000000000E+000
 -1.899999999999999E-003    0.000000000000000E+000
 -1.799999999999999E-003    0.000000000000000E+000
 -1.699999999999999E-003    0.000000000000000E+000
 -1.599999999999999E-003    0.000000000000000E+000
 -1.499999999999999E-003    0.000000000000000E+000
 -1.399999999999999E-003    0.000000000000000E+000
 -1.299999999999999E-003    0.000000000000000E+000
 -1.199999999999999E-003    1.206984432005137E-049
 -1.099999999999999E-003    2.413968864010274E-049
 -9.999999999999989E-004    2.413968864010274E-049
 -8.999999999999990E-004    2.413968864010274E-049
 -7.999999999999990E-004    1.206984432005137E-049
 -6.999999999999989E-004   -1.206984432005137E-049
 -5.999999999999990E-004   -4.827937728020547E-049
 -4.999999999999989E-004   -8.448891024035958E-049
 -3.999999999999989E-004   -1.206984432005137E-048
 -2.999999999999989E-004   -1.569079761606678E-048
 -1.999999999999989E-004   -1.689778204807192E-048
 -9.999999999999892E-005   -1.004469545688911E-048
  1.084202172485504E-018    5.301182406213384E-049
  1.000000000000011E-004    3.170137269049192E-048
  2.000000000000011E-004    4.071982714874924E-048
  3.000000000000011E-004    7.358765984178520E-048
  4.000000000000011E-004    9.579000011449312E-048
  5.000000000000011E-004    8.573286548988050E-048
  6.000000000000011E-004    6.576505323090668E-047
  7.000000000000011E-004    1.212130643391786E-046
  8.000000000000011E-004    1.742397359524410E-046
  9.000000000000012E-004    2.819858256772134E-046
  1.000000000000001E-003    3.297578428214381E-046
  1.100000000000001E-003    3.743619274165578E-046
  1.200000000000001E-003    1.324168647234896E-046
  1.300000000000001E-003   -6.537996969340568E-047
  1.400000000000001E-003   -4.302461851147549E-046
  1.500000000000001E-003   -8.972709866224788E-046
  1.600000000000001E-003   -1.626090079458277E-045
  1.700000000000001E-003   -2.505659659093754E-045
  1.800000000000001E-003   -3.132988806236906E-045
  1.900000000000001E-003   -2.869669355906246E-045
  2.000000000000001E-003   -3.414243289213336E-045
  2.100000000000001E-003   -2.760628839193926E-045
  2.200000000000001E-003   -1.089489242646756E-045
  2.300000000000001E-003    1.504695914352460E-045
  2.400000000000001E-003    4.884299021395187E-045
  2.500000000000001E-003    9.407534516714750E-045
  2.600000000000001E-003    1.394971460186169E-044
  2.700000000000001E-003    1.899696143829815E-044
  2.800000000000001E-003    2.214881415401080E-044
  2.900000000000001E-003    2.231999907634456E-044
  3.000000000000001E-003    1.872536266576475E-044
  3.100000000000001E-003    9.194904690515880E-045
  3.200000000000001E-003   -5.531353152264378E-045
  3.300000000000001E-003   -2.538981593990019E-044
  3.400000000000001E-003   -4.833383660283093E-044
  3.500000000000001E-003   -7.151635999818457E-044
  3.600000000000001E-003   -8.939200266519357E-044
  3.700000000000001E-003   -9.836972664480207E-044
  3.800000000000001E-003   -9.292210570416009E-044
  3.900000000000001E-003   -6.726368984355304E-044
  4.000000000000001E-003   -1.871690355947237E-044
  4.100000000000001E-003    5.224262143555165E-044
  4.200000000000001E-003    1.410224627024868E-043
  4.300000000000001E-003    2.395969452734120E-043
  4.400000000000001E-003    3.335096842781172E-043
  4.500000000000001E-003    4.033108740708961E-043
  4.600000000000002E-003    4.287421717999944E-043
  4.700000000000001E-003    3.877249465167080E-043
  4.800000000000001E-003    2.650725649161258E-043
  4.900000000000002E-003    5.031106569945057E-044
  5.000000000000001E-003   -2.524483302951378E-043
  5.100000000000001E-003   -6.217620977570007E-043
  5.200000000000001E-003   -1.018105293923707E-042
  5.300000000000002E-003   -1.385697415498843E-042
  5.400000000000001E-003   -1.651604652107845E-042
  5.500000000000001E-003   -1.737406096512038E-042
  5.600000000000002E-003   -1.567607786349629E-042
  5.700000000000001E-003   -1.083221019169753E-042
  5.800000000000001E-003   -2.578225732336670E-043
  5.900000000000002E-003    8.911090979039286E-043
  6.000000000000001E-003    2.286845490508131E-042
  6.100000000000001E-003    3.789595367961178E-042
  6.200000000000002E-003    5.201037976146391E-042
  6.300000000000002E-003    6.275346936295103E-042
  6.400000000000001E-003    6.739098389174781E-042
  6.500000000000001E-003    6.331951968675313E-042
  6.600000000000002E-003    4.843197418823074E-042
  6.700000000000001E-003    2.159041270950897E-042
  6.800000000000001E-003   -1.692128358603077E-042
  6.900000000000002E-003   -6.505551782453747E-042
  7.000000000000001E-003   -1.187905815031564E-041
  7.100000000000001E-003   -1.721539122860925E-041
  7.200000000000002E-003   -2.175223425444754E-041
  7.300000000000002E-003   -2.462350286591011E-041
  7.400000000000001E-003   -2.494446606875190E-041
  7.500000000000001E-003   -2.192995048940892E-041
  7.600000000000002E-003   -1.502032200705683E-041
  7.700000000000001E-003   -4.013181176665615E-042
  7.800000000000001E-003    1.082031714820468E-041
  7.900000000000001E-003    2.864601820599907E-041
  8.000000000000002E-003    4.802380647997461E-041
  8.100000000000001E-003    6.692896925081973E-041
  8.200000000000001E-003    8.284234267046046E-041
  8.300000000000002E-003    9.291959044317047E-041
  8.400000000000001E-003    9.423584829855352E-041
  8.500000000000002E-003    8.409847460975672E-041
  8.600000000000002E-003    6.041343564752422E-041
  8.700000000000001E-003    2.208035541039076E-041
  8.800000000000002E-003   -3.061726892637308E-041
  8.900000000000002E-003   -9.565439189852768E-041
  9.000000000000001E-003   -1.689918054703487E-040
  9.100000000000002E-003   -2.444330290158578E-040
  9.200000000000002E-003   -3.136592819517221E-040
  9.300000000000001E-003   -3.665034734119728E-040
  9.400000000000002E-003   -3.915019953803231E-040
  9.500000000000001E-003   -3.767686043941350E-040
  9.600000000000001E-003   -3.112126148541191E-040
  9.700000000000002E-003   -1.860883572198707E-040
  9.800000000000001E-003    3.182584459610361E-042
  9.900000000000001E-003    2.550186300105192E-040
  1.000000000000000E-002    5.597020667300511E-040
  1.010000000000000E-002    8.976684516240569E-040
  1.020000000000000E-002    1.238386237766155E-039
  1.030000000000000E-002    1.540210777969991E-039
  1.040000000000000E-002    1.751608592093620E-039
  1.050000000000000E-002    1.814144852961128E-039
  1.060000000000000E-002    1.667499057810584E-039
  1.070000000000000E-002    1.256638637895706E-039
  1.080000000000000E-002    5.409985831492542E-040
  1.090000000000000E-002   -4.948252804875838E-040
  1.100000000000000E-002   -1.829771658616353E-039
  1.110000000000000E-002   -3.395718522821516E-039
  1.120000000000000E-002   -5.069359316497583E-039
  1.130000000000000E-002   -6.668604319196467E-039
  1.140000000000000E-002   -7.955714405042036E-039
  1.150000000000000E-002   -8.649237267524615E-039
  1.160000000000000E-002   -8.446345766510344E-039
  1.170000000000000E-002   -7.056309147696602E-039
  1.180000000000000E-002   -4.244489278390626E-039
  1.190000000000000E-002    1.154210702080504E-040
  1.200000000000000E-002    5.985239298790541E-039
  1.210000000000000E-002    1.310864934735734E-038
  1.220000000000000E-002    2.096849816768559E-038
  1.230000000000000E-002    2.876496067784825E-038
  1.240000000000000E-002    3.542514233229047E-038
  1.250000000000000E-002    3.965401617919577E-038
  1.260000000000000E-002    4.003432255361086E-038
  1.270000000000000E-002    3.517878750878640E-038
  1.280000000000000E-002    2.393185058385666E-038
  1.290000000000000E-002    5.610006302636448E-039
  1.300000000000000E-002   -1.973947976174571E-038
  1.310000000000000E-002   -5.109144595943570E-038
  1.320000000000000E-002   -8.624622949181189E-038
  1.330000000000000E-002   -1.217289210297822E-037
  1.340000000000000E-002   -1.528320028133179E-037
  1.350000000000000E-002   -1.738449665309260E-037
  1.360000000000000E-002   -1.785028879866673E-037
  1.370000000000000E-002   -1.606657960740533E-037
  1.380000000000000E-002   -1.152114948407655E-037
  1.390000000000000E-002   -3.908835617406575E-038
  1.400000000000000E-002    6.756675554950852E-038
  1.410000000000000E-002    2.003815188319438E-037
  1.420000000000000E-002    3.499441306647741E-037
  1.430000000000000E-002    5.014368455119381E-037
  1.440000000000000E-002    6.349043738263909E-037
  1.450000000000000E-002    7.263288328758859E-037
  1.460000000000000E-002    7.496247705298262E-037
  1.470000000000000E-002    6.795731497828790E-037
  1.480000000000000E-002    4.955866256572052E-037
  1.490000000000000E-002    1.860439946241379E-037
  1.500000000000000E-002   -2.472327138196493E-037
  1.510000000000000E-002   -7.849418704485167E-037
  1.520000000000000E-002   -1.387413556487849E-036
  1.530000000000000E-002   -1.993635738253008E-036
  1.540000000000000E-002   -2.522933628334841E-036
  1.550000000000000E-002   -2.879896270115456E-036
  1.560000000000000E-002   -2.962871966509467E-036
  1.570000000000000E-002   -2.675950686016797E-036
  1.580000000000000E-002   -1.943839361498477E-036
  1.590000000000000E-002   -7.284463121710229E-037
  1.600000000000000E-002    9.546014035328942E-037
  1.610000000000000E-002    3.021814741920195E-036
  1.620000000000000E-002    5.312737300140226E-036
  1.630000000000000E-002    7.588635707124161E-036
  1.640000000000000E-002    9.541481335779634E-036
  1.650000000000000E-002    1.081502713939908E-035
  1.660000000000000E-002    1.103864763006712E-035
  1.670000000000000E-002    9.873041997667405E-036
  1.680000000000000E-002    7.065016838727338E-036
  1.690000000000000E-002    2.506514727458324E-036
  1.700000000000000E-002   -3.708908109730361E-036
  1.710000000000000E-002   -1.124053754878895E-035
  1.720000000000000E-002   -1.947516853597240E-035
  1.730000000000000E-002   -2.753111838361758E-035
  1.740000000000000E-002   -3.429932341081630E-035
  1.750000000000000E-002   -3.852639047526525E-035
  1.760000000000000E-002   -3.894017468843199E-035
  1.770000000000000E-002   -3.441287631510799E-035
  1.780000000000000E-002   -2.415023696532354E-035
  1.790000000000000E-002   -7.888789056546017E-036
  1.800000000000000E-002    1.392290690253620E-035
  1.810000000000000E-002    3.998746731158619E-035
  1.820000000000000E-002    6.809658433302496E-035
  1.830000000000000E-002    9.517197420938333E-035
  1.840000000000000E-002    1.174317708724315E-034
  1.850000000000000E-002    1.306940095267128E-034
  1.860000000000000E-002    1.308138233972890E-034
  1.870000000000000E-002    1.142324697661645E-034