 -4.000000000000000E-002    0.000000000000000E+000
 -3.990000000000000E-002    0.000000000000000E+000
 -3.980000000000000E-002    0.000000000000000E+000
 -3.970000000000000E-002    0.000000000000000E+000
 -3.960000000000000E-002    0.000000000000000E+000
 -3.950000000000000E-002    0.000000000000000E+000
 -3.940000000000000E-002    0.000000000000000E+000
 -3.930000000000000E-002    0.000000000000000E+000
 -3.920000000000000E-002    0.000000000000000E+000
 -3.910000000000000E-002    0.000000000000000E+000
 -3.900000000000000E-002    0.000000000000000E+000
 -3.890000000000000E-002    0.000000000000000E+000
 -3.880000000000000E-002    0.000000000000000E+000
 -3.870000000000000E-002    0.000000000000000E+000
 -3.860000000000000E-002    0.000000000000000E+000
 -3.850000000000000E-002    0.000000000000000E+000
 -3.840000000000000E-002    0.000000000000000E+000
 -3.830000000000000E-002    0.000000000000000E+000
 -3.820000000000000E-002    0.000000000000000E+000
 -3.810000000000000E-002    0.000000000000000E+000
 -3.800000000000000E-002    0.000000000000000E+000
 -3.790000000000000E-002    0.000000000000000E+000
 -3.780000000000000E-002    0.000000000000000E+000
 -3.770000000000000E-002    0.000000000000000E+000
 -3.760000000000000E-002    0.000000000000000E+000
 -3.750000000000000E-002    0.000000000000000E+000
 -3.740000000000000E-002    0.000000000000000E+000
 -3.730000000000000E-002    0.000000000000000E+000
 -3.720000000000000E-002    0.000000000000000E+000
 -3.710000000000000E-002    0.000000000000000E+000
 -3.700000000000000E-002    0.000000000000000E+000
 -3.690000000000000E-002    0.000000000000000E+000
 -3.680000000000000E-002    0.000000000000000E+000
 -3.670000000000000E-002    0.000000000000000E+000
 -3.660000000000000E-002    0.000000000000000E+000
 -3.650000000000000E-002    0.000000000000000E+000
 -3.640000000000000E-002    0.000000000000000E+000
 -3.630000000000000E-002    0.000000000000000E+000
 -3.620000000000000E-002    0.000000000000000E+000
 -3.610000000000000E-002    0.000000000000000E+000
 -3.600000000000000E-002    0.000000000000000E+000
 -3.590000000000000E-002    0.000000000000000E+000
 -3.580000000000000E-002    0.000000000000000E+000
 -3.570000000000000E-002    0.000000000000000E+000
 -3.560000000000000E-002    0.000000000000000E+000
 -3.550000000000000E-002    0.000000000000000E+000
 -3.540000000000000E-002    0.000000000000000E+000
 -3.530000000000000E-002    0.000000000000000E+000
 -3.520000000000000E-002    0.000000000000000E+000
 -3.510000000000000E-002    0.000000000000000E+000
 -3.500000000000000E-002    0.000000000000000E+000
 -3.490000000000000E-002    0.000000000000000E+000
 -3.480000000000000E-002    0.000000000000000E+000
 -3.470000000000000E-002    0.000000000000000E+000
 -3.460000000000000E-002    0.000000000000000E+000
 -3.450000000000000E-002    0.000000000000000E+000
 -3.440000000000000E-002    0.000000000000000E+000
 -3.430000000000000E-002    0.000000000000000E+000
 -3.420000000000000E-002    0.000000000000000E+000
 -3.410000000000000E-002    0.000000000000000E+000
 -3.400000000000000E-002    0.000000000000000E+000
 -3.390000000000000E-002    0.000000000000000E+000
 -3.380000000000000E-002    0.000000000000000E+000
 -3.370000000000000E-002    0.000000000000000E+000
 -3.360000000000000E-002    0.000000000000000E+000
 -3.350000000000000E-002    0.000000000000000E+000
 -3.340000000000000E-002    0.000000000000000E+000
 -3.330000000000000E-002    0.000000000000000E+000
 -3.320000000000000E-002    0.000000000000000E+000
 -3.310000000000000E-002    0.000000000000000E+000
 -3.300000000000000E-002    0.000000000000000E+000
 -3.290000000000000E-002    0.000000000000000E+000
 -3.280000000000000E-002    0.000000000000000E+000
 -3.270000000000000E-002   -5.539541600902295E-048
 -3.260000000000000E-002   -1.107908320180459E-047
 -3.250000000000000E-002   -3.343873294106692E-047
 -3.240000000000000E-002   -3.954906038184517E-047
 -3.230000000000000E-002   -1.252326274667681E-046
 -3.220000000000000E-002   -8.944332088363672E-047
 -3.210000000000000E-002   -1.175438027659577E-047
 -3.200000000000000E-002    1.403609446795392E-046
 -3.190000000000000E-002    4.427837010614043E-046
 -3.180000000000000E-002    9.883495657661249E-046
 -3.170000000000000E-002    1.699257021386140E-045
 -3.160000000000000E-002    3.184157740486855E-045
 -3.150000000000000E-002    4.632707764168035E-045
 -3.140000000000000E-002    6.377264373438944E-045
 -3.130000000000000E-002    7.406103814027246E-045
 -3.120000000000000E-002    7.950735007863784E-045
 -3.110000000000000E-002    6.558745165631646E-045
 -3.100000000000000E-002    1.342287845988842E-045
 -3.090000000000000E-002   -1.026938247702617E-044
 -3.080000000000000E-002   -3.150968144118311E-044
 -3.070000000000000E-002   -6.616098554357448E-044
 -3.060000000000000E-002   -1.176078621556555E-043
 -3.050000000000000E-002   -1.859920611173778E-043
 -3.040000000000000E-002   -2.647040033287790E-043
 -3.030000000000000E-002   -3.367088246420900E-043
 -3.020000000000000E-002   -3.672195373281716E-043
 -3.010000000000000E-002   -2.920638522874092E-043
 -3.000000000000000E-002   -1.256130326382682E-044
 -2.990000000000000E-002    6.088445320731519E-043
 -2.980000000000000E-002    1.741789219543963E-042
 -2.970000000000000E-002    3.555999808349706E-042
 -2.960000000000000E-002    6.154119135964505E-042
 -2.950000000000000E-002    9.448925427903195E-042
 -2.940000000000000E-002    1.297398428489998E-041
 -2.930000000000000E-002    1.561759653427553E-041
 -2.920000000000000E-002    1.530633172863105E-041
 -2.910000000000000E-002    8.693712925434781E-042
 -2.900000000000000E-002   -9.017438912316952E-042
 -2.890000000000000E-002   -4.391850984249003E-041
 -2.880000000000000E-002   -1.025889300225593E-040
 -2.870000000000000E-002   -1.902629150560827E-040
 -2.860000000000000E-002   -3.075380614132574E-040
 -2.850000000000000E-002   -4.452971647698659E-040
 -2.840000000000000E-002   -5.777663811633890E-040
 -2.830000000000000E-002   -6.542144118021106E-040
 -2.820000000000000E-002   -5.907090577970467E-040
 -2.810000000000000E-002   -2.646716840396269E-040
 -2.800000000000000E-002    4.834020332472745E-040
 -2.790000000000000E-002    1.834926730990717E-039
 -2.780000000000000E-002    3.957465468162764E-039
 -2.770000000000000E-002    6.940467599085722E-039
 -2.760000000000000E-002    1.069666383105191E-038
 -2.750000000000000E-002    1.482841667542450E-038
 -2.740000000000000E-002    1.846808082814877E-038
 -2.730000000000000E-002    2.011642332606329E-038
 -2.720000000000000E-002    1.752354252204947E-038
 -2.710000000000000E-002    7.680622826682152E-039
 -2.700000000000000E-002   -1.298541639007680E-038
 -2.690000000000000E-002   -4.810564923181418E-038
 -2.680000000000000E-002   -1.004427792992898E-037
 -2.670000000000000E-002   -1.704656563571180E-037
 -2.660000000000000E-002   -2.544179822932808E-037
 -2.650000000000000E-002   -3.420012943305747E-037
 -2.640000000000000E-002   -4.139791156265220E-037
 -2.630000000000000E-002   -4.402499400918860E-037
 -2.620000000000000E-002   -3.792068756480065E-037
 -2.610000000000000E-002   -1.794534895276442E-037
 -2.600000000000000E-002    2.148957771245035E-037
 -2.590000000000000E-002    8.541392899295118E-037
 -2.580000000000000E-002    1.767290926315124E-036
 -2.570000000000000E-002    2.940694007196919E-036
 -2.560000000000000E-002    4.292161324957784E-036
 -2.550000000000000E-002    5.643675379249521E-036
 -2.540000000000000E-002    6.697909668821021E-036
 -2.530000000000000E-002    7.026238143446459E-036
 -2.520000000000000E-002    6.077994935988011E-036
 -2.510000000000000E-002    3.221905093523316E-036
 -2.500000000000000E-002   -2.169977165087869E-036
 -2.490000000000000E-002   -1.058871106418277E-035
 -2.480000000000000E-002   -2.220473709164709E-035
 -2.470000000000000E-002   -3.664378567751239E-035
 -2.460000000000000E-002   -5.274617235965822E-035
 -2.450000000000000E-002   -6.834967064190950E-035
 -2.440000000000000E-002   -8.015285093102657E-035
 -2.430000000000000E-002   -8.372938732622017E-035
 -2.420000000000000E-002   -7.376984399739926E-035
 -2.410000000000000E-002   -4.462085942856951E-035
 -2.400000000000000E-002    8.832495306120075E-036
 -2.390000000000000E-002    8.994047158018729E-035
 -2.380000000000000E-002    1.987847528629040E-034
 -2.370000000000000E-002    3.305483271283591E-034
 -2.360000000000000E-002    4.740053826186653E-034
 -2.350000000000000E-002    6.104666821797472E-034
 -2.340000000000000E-002    7.135799524970180E-034
 -2.330000000000000E-002    7.503982065193731E-034
 -2.320000000000000E-002    6.840691500771106E-034
 -2.310000000000000E-002    4.783451327913758E-034
 -2.300000000000000E-002    1.038573025920686E-034
 -2.290000000000000E-002   -4.542496592434117E-034
 -2.280000000000000E-002   -1.188135958175825E-033
 -2.270000000000000E-002   -2.059761475530585E-033
 -2.260000000000000E-002   -2.995613849036289E-033
 -2.250000000000000E-002   -3.885384954458879E-033
 -2.240000000000000E-002   -4.586185961501236E-033
 -2.230000000000000E-002   -4.933419615531478E-033
 -2.220000000000000E-002   -4.758563510780327E-033
 -2.210000000000000E-002   -3.912884907886638E-033
 -2.200000000000000E-002   -2.294660387957453E-033
 -2.190000000000000E-002    1.239913608184664E-034
 -2.180000000000000E-002    3.275717955370188E-033
 -2.170000000000000E-002    6.987494414899441E-033
 -2.160000000000000E-002    1.098609453171113E-032
 -2.150000000000000E-002    1.492252550003469E-032
 -2.140000000000000E-002    1.841515681452545E-032
 -2.130000000000000E-002    2.110678330819550E-032
 -2.120000000000000E-002    2.272567231503372E-032
 -2.110000000000000E-002    2.313576379381797E-032
 -2.100000000000000E-002    2.235796325908466E-032
 -2.090000000000000E-002    2.054421513381047E-032
 -2.080000000000000E-002    1.789030319411471E-032
 -2.070000000000000E-002    1.448313556919912E-032
 -2.060000000000000E-002    1.009356966182345E-032
 -2.050000000000000E-002    3.946004047762792E-033
 -2.040000000000000E-002   -5.481827081870617E-033
 -2.030000000000000E-002   -2.055518500190628E-032
 -2.020000000000000E-002   -4.438791648367697E-032
 -2.010000000000000E-002   -8.047124922040428E-032
 -2.000000000000000E-002   -1.319595763573024E-031
 -1.990000000000000E-002   -2.005913670424711E-031
 -1.980000000000000E-002   -2.852930452357876E-031
 -1.970000000000000E-002   -3.806049036525133E-031
 -1.960000000000000E-002   -4.751729566893967E-031
 -1.950000000000000E-002   -5.506527669384240E-031
 -1.940000000000000E-002   -5.814494418435755E-031
 -1.930000000000000E-002   -5.357467690136727E-031
 -1.920000000000000E-002   -3.782331441477440E-031
 -1.910000000000000E-002   -7.478944416322878E-032
 -1.900000000000000E-002    4.008448931153331E-031
 -1.890000000000000E-002    1.058766120963532E-030
 -1.880000000000000E-002    1.883729563987278E-030
 -1.870000000000000E-002    2.826336455582223E-030
 -1.860000000000000E-002    3.796236745020670E-030
 -1.850000000000000E-002    4.659297285552179E-030
 -1.840000000000000E-002    5.240743171479209E-030
 -1.830000000000000E-002    5.336027765023723E-030
 -1.820000000000000E-002    4.730549709431682E-030
 -1.810000000000000E-002    3.228282400687437E-030
 -1.800000000000000E-002    6.879675098998622E-031
 -1.790000000000000E-002   -2.936133898362477E-030
 -1.780000000000000E-002   -7.553674065965208E-030
 -1.770000000000000E-002   -1.290407614404553E-029
 -1.760000000000000E-002   -1.853605253242740E-029
 -1.750000000000000E-002   -2.380818813350310E-029
 -1.740000000000000E-002   -2.791699129507804E-029
 -1.730000000000000E-002   -2.995662503360984E-029
 -1.720000000000000E-002   -2.901091741714389E-029
 -1.710000000000000E-002   -2.427366006084632E-029
 -1.700000000000000E-002   -1.518781105109773E-029
 -1.690000000000000E-002   -1.588928405123370E-030
 -1.680000000000000E-002    1.616646172960597E-029
 -1.670000000000000E-002    3.710959894686682E-029
 -1.660000000000000E-002    5.962766612231690E-029
 -1.650000000000000E-002    8.151057637342079E-029
 -1.640000000000000E-002    1.000888750811523E-028
 -1.630000000000000E-002    1.124649463438380E-028
 -1.620000000000000E-002    1.158267546645779E-028
 -1.610000000000000E-002    1.078189358069135E-028
 -1.600000000000000E-002    8.693200169770024E-029
 -1.590000000000000E-002    5.285934029666647E-029
 -1.580000000000000E-002    6.765299486059409E-030
 -1.570000000000000E-002   -4.859114312903792E-029
 -1.560000000000000E-002   -1.089232911173650E-028
 -1.550000000000000E-002   -1.687018727868973E-028
 -1.540000000000000E-002   -2.216594546069324E-028
 -1.530000000000000E-002   -2.614831857997490E-028
 -1.520000000000000E-002   -2.826307010502953E-028
 -1.510000000000000E-002   -2.811729236849732E-028
 -1.500000000000000E-002   -2.555448739793320E-028
 -1.490000000000000E-002   -2.070755450234854E-028
 -1.480000000000000E-002   -1.401768740816882E-028
 -1.470000000000000E-002   -6.209888760136399E-029
 -1.460000000000000E-002    1.779453905126257E-029
 -1.450000000000000E-002    8.921169536120848E-029
 -1.440000000000000E-002    1.424912464128140E-028
 -1.430000000000000E-002    1.703699449922047E-028
 -1.420000000000000E-002    1.697348581805126E-028
 -1.410000000000000E-002    1.430931157070850E-028
 -1.400000000000000E-002    9.948096202070681E-029
 -1.390000000000000E-002    5.455924098585935E-029
 -1.380000000000000E-002    2.970606701938536E-029
 -1.370000000000000E-002    5.001652390320297E-029
 -1.360000000000000E-002    1.412447485045885E-028
 -1.350000000000000E-002    3.258629719278341E-028
 -1.340000000000000E-002    6.185486385261802E-028
 -1.330000000000000E-002    1.021528655281504E-027
 -1.320000000000000E-002    1.520295143770908E-027
 -1.310000000000000E-002    2.080245453489823E-027
 -1.300000000000000E-002    2.644794364637889E-027
 -1.290000000000000E-002    3.135453955637783E-027
 -1.280000000000000E-002    3.454282886772377E-027
 -1.270000000000000E-002    3.488990453493367E-027
 -1.260000000000000E-002    3.120839021095818E-027
 -1.250000000000000E-002    2.235340399219291E-027
 -1.240000000000000E-002    7.355670980881581E-028
 -1.230000000000000E-002   -1.442293522893490E-027
 -1.220000000000000E-002   -4.311768784351691E-027
 -1.210000000000000E-002   -7.818256701934996E-027
 -1.200000000000000E-002   -1.182186490437924E-026
 -1.190000000000000E-002   -1.608277484158326E-026
 -1.180000000000000E-002   -2.025154017413761E-026
 -1.170000000000000E-002   -2.386724258659523E-026
 -1.160000000000000E-002   -2.636683703868853E-026
 -1.150000000000000E-002   -2.710912195344446E-026
 -1.140000000000000E-002   -2.541638966631808E-026
 -1.130000000000000E-002   -2.063574758463644E-026
 -1.120000000000000E-002   -1.222028522181977E-026
 -1.110000000000000E-002    1.725166905568667E-028
 -1.100000000000000E-002    1.657118445846449E-026
 -1.090000000000000E-002    3.657955524824025E-026
 -1.080000000000000E-002    5.927913978437662E-026
 -1.070000000000000E-002    8.316217687551569E-026
 -1.060000000000000E-002    1.061150038931463E-025
 -1.050000000000000E-002    1.254712629443522E-025
 -1.040000000000000E-002    1.381511094266054E-025
 -1.030000000000000E-002    1.408958661534891E-025
 -1.020000000000000E-002    1.305971037182296E-025
 -1.010000000000000E-002    1.047054518640914E-025
 -1.000000000000000E-002    6.168863118675754E-026
 -9.899999999999999E-003    1.492217007495079E-027
 -9.800000000000000E-003   -7.405728715443692E-026
 -9.699999999999999E-003   -1.609765625428006E-025
 -9.599999999999999E-003   -2.530476958175545E-025
 -9.500000000000000E-003   -3.420007387361728E-025
 -9.399999999999999E-003   -4.179988026845889E-025
 -9.299999999999999E-003   -4.704368098327214E-025
 -9.200000000000000E-003   -4.890233374271452E-025
 -9.099999999999999E-003   -4.650689866727804E-025
 -8.999999999999999E-003   -3.928565895605218E-025
 -8.900000000000000E-003   -2.709290036810415E-025
 -8.799999999999999E-003   -1.031037803282606E-025
 -8.699999999999999E-003    1.009803712596466E-025
 -8.600000000000000E-003    3.259570327122251E-025
 -8.499999999999999E-003    5.515845354193017E-025
 -8.399999999999999E-003    7.543948021838153E-025
 -8.300000000000000E-003    9.100706623691038E-025
 -8.199999999999999E-003    9.963689646807916E-025
 -8.100000000000000E-003    9.962905591922133E-025
 -8.000000000000000E-003    9.011073378144747E-025
 -7.899999999999999E-003    7.127989726615677E-025
 -7.800000000000000E-003    4.454524245171719E-025
 -7.699999999999999E-003    1.252392706947202E-025
 -7.599999999999999E-003   -2.112819603850147E-025
 -7.499999999999999E-003   -5.206007916915241E-025
 -7.399999999999999E-003   -7.572522698569054E-025
 -7.299999999999999E-003   -8.799528302095859E-025
 -7.199999999999999E-003   -8.582118262175341E-025
 -7.100000000000000E-003   -6.785805383107418E-025
 -6.999999999999999E-003   -3.496065604881057E-025
 -6.899999999999999E-003    9.540672026326172E-026
 -6.800000000000000E-003    5.985774203913060E-025
 -6.699999999999999E-003    1.081008351110828E-024
 -6.599999999999999E-003    1.449793018349243E-024
 -6.499999999999999E-003    1.608059639599226E-024
 -6.399999999999999E-003    1.467186581713363E-024
 -6.299999999999999E-003    9.599192487340253E-025
 -6.199999999999999E-003    5.284743283720729E-026
 -6.100000000000000E-003   -1.243386723404354E-024
 -5.999999999999999E-003   -2.867662191447157E-024
 -5.899999999999999E-003   -4.706884734234066E-024
 -5.800000000000000E-003   -6.600058640669638E-024
 -5.699999999999999E-003   -8.347893451321916E-024
 -5.599999999999999E-003   -9.727231846788166E-024
 -5.499999999999999E-003   -1.050896967356083E-023
 -5.399999999999999E-003   -1.047772105801725E-023
 -5.299999999999999E-003   -9.451307081496432E-024
 -5.199999999999999E-003   -7.298289193120797E-024
 -5.099999999999999E-003   -3.952208921797423E-024
 -4.999999999999999E-003    5.781340545738577E-025
 -4.899999999999999E-003    6.202281568186100E-024
 -4.799999999999999E-003    1.274478612252458E-023
 -4.699999999999999E-003    1.994371361442887E-023
 -4.599999999999999E-003    2.744967655925695E-023
 -4.499999999999999E-003    3.482456539622244E-023
 -4.399999999999999E-003    4.154016060018122E-023
 -4.299999999999999E-003    4.697822373127174E-023
 -4.199999999999999E-003    5.043530105720726E-023
 -4.099999999999999E-003    5.113699319653952E-023
 -3.999999999999999E-003    4.826741153591916E-023
 -3.899999999999999E-003    4.101959173047043E-023
 -3.799999999999999E-003    2.867129528630300E-023
 -3.699999999999999E-003    1.068785657609740E-023
 -3.599999999999999E-003   -1.315060613164116E-023
 -3.499999999999999E-003   -4.260589346370559E-023
 -3.399999999999999E-003   -7.683681342368774E-023
 -3.299999999999999E-003   -1.142729920066279E-022
 -3.199999999999999E-003   -1.525326076731743E-022
 -3.099999999999999E-003   -1.884111853856734E-022
 -2.999999999999999E-003   -2.179674549921625E-022
 -2.899999999999999E-003   -2.367264448055817E-022
 -2.799999999999999E-003   -2.400098046029256E-022
 -2.699999999999999E-003   -2.233887260084033E-022
 -2.599999999999999E-003   -1.832369628734635E-022
 -2.499999999999999E-003   -1.173420908113644E-022
 -2.399999999999999E-003   -2.551477509034949E-023
 -2.299999999999999E-003    8.987924712287339E-023
 -2.199999999999999E-003    2.235476858105679E-022
 -2.099999999999999E-003    3.671431779996355E-022
 -1.999999999999999E-003    5.094490701697632E-022
 -1.899999999999999E-003    6.369263575789892E-022
 -1.799999999999999E-003    7.346359843781089E-022
 -1.699999999999999E-003    7.875070154936731E-022
 -1.599999999999999E-003    7.818748609231550E-022
 -1.499999999999999E-003    7.071670784237844E-022
 -1.399999999999999E-003    5.575742404605559E-022
 -1.299999999999999E-003    3.335166454387459E-022
 -1.199999999999999E-003    4.270811586656719E-023
 -1.099999999999999E-003   -2.993682605154477E-022
 -9.999999999999989E-004   -6.697215078346475E-022
 -8.999999999999990E-004   -1.038939703441554E-021
 -7.999999999999990E-004   -1.373113494364286E-021
 -6.999999999999989E-004   -1.636514928746765E-021
 -5.999999999999990E-004   -1.794858741333256E-021
 -4.999999999999989E-004   -1.818885457647872E-021
 -3.999999999999989E-004   -1.687937454520168E-021
 -2.999999999999989E-004   -1.393161548088635E-021
 -1.999999999999989E-004   -9.399645883995940E-022
 -9.999999999999892E-005   -3.493841681730813E-022
  1.084202172485504E-018    3.418891053319313E-022
  1.000000000000011E-004    1.082994785643384E-021
  2.000000000000011E-004    1.811914384506889E-021
  3.000000000000011E-004    2.459889419998774E-021
  4.000000000000011E-004    2.956979869750290E-021
  5.000000000000011E-004    3.238367538130386E-021
  6.000000000000011E-004    3.250912045078237E-021
  7.000000000000011E-004    2.959404729342432E-021
  8.000000000000011E-004    2.351955219492157E-021
  9.000000000000012E-004    1.443974964419273E-021
  1.000000000000001E-003    2.803030785921684E-022
  1.100000000000001E-003   -1.064875864127357E-021
  1.200000000000001E-003   -2.490523669351122E-021
  1.300000000000001E-003   -3.873706330405988E-021
  1.400000000000001E-003   -5.076912071481712E-021
  1.500000000000001E-003   -5.957468337637379E-021
  1.600000000000001E-003   -6.378646479278854E-021
  1.700000000000001E-003   -6.221915074200908E-021
  1.800000000000001E-003   -5.399661440750660E-021
  1.900000000000001E-003   -3.867591047636521E-021
  2.000000000000001E-003   -1.635915687072297E-021
  2.100000000000001E-003    1.221667359999587E-021
  2.200000000000001E-003    4.562250765395581E-021
  2.300000000000001E-003    8.172307268707393E-021
  2.400000000000001E-003    1.177162625976259E-020
  2.500000000000001E-003    1.502345737927509E-020
  2.600000000000001E-003    1.755146982708625E-020
  2.700000000000001E-003    1.896371978991344E-020
  2.800000000000001E-003    1.888327548818173E-020
  2.900000000000001E-003    1.698442810254582E-020
  3.000000000000001E-003    1.303265128595980E-020
  3.100000000000001E-003    6.925590383106208E-021
  3.200000000000001E-003   -1.268404338420970E-021
  3.300000000000001E-003   -1.127837001390350E-020
  3.400000000000001E-003   -2.261000869143932E-020
  3.500000000000001E-003   -3.454069132590174E-020
  3.600000000000001E-003   -4.613432785582952E-020
  3.700000000000001E-003   -5.627919014669266E-020
  3.800000000000001E-003   -6.375024609233814E-020
  3.900000000000001E-003   -6.729548122116331E-020
  4.000000000000001E-003   -6.574319985983894E-020
  4.100000000000001E-003   -5.812464277099103E-020
  4.200000000000001E-003   -4.380354310696617E-020
  4.300000000000001E-003   -2.260193288069557E-020
  4.400000000000001E-003    5.090305815526662E-021
  4.500000000000001E-003    3.823549613714368E-020
  4.600000000000002E-003    7.511092252368621E-020
  4.700000000000001E-003    1.133257415939534E-019
  4.800000000000001E-003    1.499007109820312E-019
  4.900000000000002E-003    1.814149679896473E-019
  5.000000000000001E-003    2.042189215005956E-019
  5.100000000000001E-003    2.147060551195446E-019
  5.200000000000001E-003    2.096300996636170E-019
  5.300000000000002E-003    1.864476778992900E-019
  5.400000000000001E-003    1.436612086968402E-019
  5.500000000000001E-003    8.113267615728675E-020
  5.600000000000002E-003    3.367636349698534E-022
  5.700000000000001E-003   -9.547797606523409E-020
  5.800000000000001E-003   -2.012483431239633E-019
  5.900000000000002E-003   -3.101991025816202E-019
  6.000000000000001E-003   -4.141036132528773E-019
  6.100000000000001E-003   -5.037064355967826E-019
  6.200000000000002E-003   -5.692996474394552E-019
  6.300000000000002E-003   -6.014309869734647E-019
  6.400000000000001E-003   -5.917079161537733E-019
  6.500000000000001E-003   -5.336493050438667E-019
  6.600000000000002E-003   -4.235242226116858E-019
  6.700000000000001E-003   -2.611101309714510E-019
  6.800000000000001E-003   -5.029793170874394E-020
  6.900000000000002E-003    2.005285345255472E-019
  7.000000000000001E-003    4.784042938018996E-019
  7.100000000000001E-003    7.660408354842886E-019
  7.200000000000002E-003    1.042465295754114E-018
  7.300000000000002E-003    1.284054514002345E-018
  7.400000000000001E-003    1.465948386799505E-018
  7.500000000000001E-003    1.563794399533763E-018
  7.600000000000002E-003    1.555743872813712E-018
  7.700000000000001E-003    1.424584480431483E-018
  7.800000000000001E-003    1.159867098061320E-018
  7.900000000000001E-003    7.598581105560174E-019
  8.000000000000002E-003    2.331367195393339E-019
  8.100000000000001E-003   -4.003486360748652E-019
  8.200000000000001E-003   -1.108937100144281E-018
  8.300000000000002E-003   -1.849774411891399E-018
  8.400000000000001E-003   -2.570295200410365E-018
  8.500000000000002E-003   -3.210714481921719E-018
  8.600000000000002E-003   -3.707500889143033E-018
  8.700000000000001E-003   -3.997721110162173E-018
  8.800000000000002E-003   -4.024057655044276E-018
  8.900000000000002E-003   -3.740216840682124E-018
  9.000000000000001E-003   -3.116365278054613E-018
  9.100000000000002E-003   -2.144171217549275E-018
  9.200000000000002E-003   -8.409918419198934E-019
  9.300000000000001E-003    7.472579241296511E-019
  9.400000000000002E-003    2.544997562941800E-018
  9.500000000000001E-003    4.447992762410903E-018
  9.600000000000001E-003    6.326754195139064E-018
  9.700000000000002E-003    8.032427833453794E-018
  9.800000000000001E-003    9.405115401053454E-018
  9.900000000000001E-003    1.028435961285508E-017
  1.000000000000000E-002    1.052132608788759E-017
  1.010000000000000E-002    9.992005621987659E-018
  1.020000000000000E-002    8.610588934128968E-018
  1.030000000000000E-002    6.342023889121604E-018
  1.040000000000000E-002    3.212677021323597E-018
  1.050000000000000E-002   -6.819799104499562E-019
  1.060000000000000E-002   -5.173692625876814E-018
  1.070000000000000E-002   -1.002262232882077E-017
  1.080000000000000E-002   -1.492405527371424E-017
  1.090000000000000E-002   -1.952095201473260E-017
  1.100000000000000E-002   -2.342226698668107E-017
  1.110000000000000E-002   -2.622654965638747E-017
  1.120000000000000E-002   -2.754988227753633E-017
  1.130000000000000E-002   -2.705674866910030E-017
  1.140000000000000E-002   -2.449203470337836E-017
  1.150000000000000E-002   -1.971199915548304E-017
  1.160000000000000E-002   -1.271183344270688E-017
  1.170000000000000E-002   -3.647315732199432E-018
  1.180000000000000E-002    7.151841108637476E-018
  1.190000000000000E-002    1.917917133864439E-017
  1.200000000000000E-002    3.176089939729279E-017
  1.210000000000000E-002    4.407877349181427E-017
  1.220000000000000E-002    5.520667265235312E-017
  1.230000000000000E-002    6.416042216778583E-017
  1.240000000000000E-002    6.995921422202549E-017
  1.250000000000000E-002    7.169601932325525E-017
  1.260000000000000E-002    6.861334168448123E-017
  1.270000000000000E-002    6.017970066305118E-017
  1.280000000000000E-002    4.616160590254444E-017
  1.290000000000000E-002    2.668518106998473E-017
  1.300000000000000E-002    2.281627748451378E-018
  1.310000000000000E-002   -2.608921804931882E-017
  1.320000000000000E-002   -5.704199709310979E-017
  1.330000000000000E-002   -8.879947311114496E-017
  1.340000000000000E-002   -1.192587894740129E-016
  1.350000000000000E-002   -1.460905678595015E-016
  1.360000000000000E-002   -1.668686369475365E-016
  1.370000000000000E-002   -1.792258714883812E-016
  1.380000000000000E-002   -1.810289256222156E-016
  1.390000000000000E-002   -1.705624058604604E-016
  1.400000000000000E-002   -1.467109358122069E-016
  1.410000000000000E-002   -1.091258897432429E-016
  1.420000000000000E-002   -5.836299246923702E-017
  1.430000000000000E-002    4.023254088802115E-018
  1.440000000000000E-002    7.544116320457901E-017
  1.450000000000000E-002    1.522904047868803E-016
  1.460000000000000E-002    2.300651681461443E-016
  1.470000000000000E-002    3.035355444345213E-016
  1.480000000000000E-002    3.670058690545230E-016
  1.490000000000000E-002    4.146428827757057E-016
  1.500000000000000E-002    4.408611060112996E-016
  1.510000000000000E-002    4.407464142785950E-016
  1.520000000000000E-002    4.104938979652301E-016
  1.530000000000000E-002    3.478315148926174E-016
  1.540000000000000E-002    2.523974650492171E-016
  1.550000000000000E-002    1.260388785763632E-016
  1.560000000000000E-002   -2.700092053538671E-017
  1.570000000000000E-002   -2.000350055884028E-016
  1.580000000000000E-002   -3.840491265946950E-016
  1.590000000000000E-002   -5.679962942711809E-016
  1.600000000000000E-002   -7.392745597887737E-016
  1.610000000000000E-002   -8.843804537201466E-016
  1.620000000000000E-002   -9.897170785859307E-016
  1.630000000000000E-002   -1.042522052339778E-015
  1.640000000000000E-002   -1.031867096595387E-015
  1.650000000000000E-002   -9.496690617097413E-016
  1.660000000000000E-002   -7.916434217499897E-016
  1.670000000000000E-002   -5.581252769348409E-016
  1.680000000000000E-002   -2.546817448968578E-016
  1.690000000000000E-002    1.075554679185814E-016
  1.700000000000000E-002    5.118995964219760E-016
  1.710000000000000E-002    9.365059737501909E-016
  1.720000000000000E-002    1.355181601229044E-015
  1.730000000000000E-002    1.738607502679062E-015
  1.740000000000000E-002    2.055941447703183E-015
  1.750000000000000E-002    2.276742333811568E-015
  1.760000000000000E-002    2.373122345474907E-015
  1.770000000000000E-002    2.322007435210913E-015
  1.780000000000000E-002    2.107362393626127E-015
  1.790000000000000E-002    1.722219766343338E-015
  1.800000000000000E-002    1.170345522432206E-015
  1.810000000000000E-002    4.673782282331741E-016
  1.820000000000000E-002   -3.587063097112228E-016
  1.830000000000000E-002   -1.267923043590384E-015
  1.840000000000000E-002   -2.209478215479168E-015
  1.850000000000000E-002   -3.123868100348401E-015
  1.860000000000000E-002   -3.945845185225613E-015
  1.870000000000000E-002   -4.608153627405705E-015