 -4.000000000000000E-002    0.000000000000000E+000
 -3.990000000000000E-002    0.000000000000000E+000
 -3.980000000000000E-002    5.028357408552236E-011
 -3.970000000000000E-002    1.905602450011856E-010
 -3.960000000000000E-002    4.110662023118957E-010
 -3.950000000000000E-002    6.524555436061157E-010
 -3.940000000000000E-002    8.529517326447700E-010
 -3.930000000000000E-002    1.042093079962608E-009
 -3.920000000000000E-002    1.471546208771465E-009
 -3.910000000000000E-002    2.765455016318306E-009
 -3.900000000000000E-002    6.067579953336367E-009
 -3.890000000000000E-002    1.315889447188118E-008
 -3.880000000000000E-002    2.652068768007946E-008
 -3.870000000000000E-002    4.932164192241651E-008
 -3.860000000000000E-002    8.531509616270125E-008
 -3.850000000000000E-002    1.386429667019864E-007
 -3.840000000000000E-002    2.135538255666731E-007
 -3.830000000000000E-002    3.140555929857420E-007
 -3.820000000000000E-002    4.435334822703041E-007
 -3.810000000000000E-002    6.043708227037800E-007
 -3.800000000000000E-002    7.976162875658383E-007
 -3.790000000000000E-002    1.022738103663042E-006
 -3.780000000000000E-002    1.277499917955105E-006
 -3.770000000000000E-002    1.557982621738164E-006
 -3.760000000000000E-002    1.858762456173570E-006
 -3.750000000000000E-002    2.173236038005686E-006
 -3.740000000000000E-002    2.494068835587931E-006
 -3.730000000000000E-002    2.813727958407109E-006
 -3.720000000000000E-002    3.125048518891157E-006
 -3.710000000000000E-002    3.421774108170006E-006
 -3.700000000000000E-002    3.699019785343216E-006
 -3.690000000000000E-002    3.953604206603206E-006
 -3.680000000000000E-002    4.184216707221485E-006
 -3.670000000000000E-002    4.391397154496222E-006
 -3.660000000000000E-002    4.577334401849768E-006
 -3.650000000000000E-002    4.745497085682214E-006
 -3.640000000000000E-002    4.900143088017410E-006
 -3.630000000000000E-002    5.045754516588525E-006
 -3.620000000000000E-002    5.186459200085727E-006
 -3.610000000000000E-002    5.325502306842175E-006
 -3.600000000000000E-002    5.464822188258269E-006
 -3.590000000000000E-002    5.604770325425713E-006
 -3.580000000000000E-002    5.744004991442435E-006
 -3.570000000000000E-002    5.879558131340857E-006
 -3.560000000000000E-002    6.007073678973320E-006
 -3.550000000000000E-002    6.121172593230826E-006
 -3.540000000000000E-002    6.215898556791928E-006
 -3.530000000000000E-002    6.285210101588095E-006
 -3.520000000000000E-002    6.323429883099861E-006
 -3.510000000000000E-002    6.325643781868763E-006
 -3.500000000000000E-002    6.287969178285370E-006
 -3.490000000000000E-002    6.207697030272065E-006
 -3.480000000000000E-002    6.083289881710240E-006
 -3.470000000000000E-002    5.914245287394281E-006
 -3.460000000000000E-002    5.700849229921409E-006
 -3.450000000000000E-002    5.443869325838882E-006
 -3.440000000000000E-002    5.144218623413505E-006
 -3.430000000000000E-002    4.802616792481230E-006
 -3.420000000000000E-002    4.419336918598697E-006
 -3.410000000000000E-002    3.994022622272525E-006
 -3.400000000000000E-002    3.525594947891501E-006
 -3.390000000000000E-002    3.012284825187278E-006
 -3.380000000000000E-002    2.451755265239107E-006
 -3.370000000000000E-002    1.841292074162255E-006
 -3.360000000000000E-002    1.177995708039474E-006
 -3.350000000000000E-002    4.590544999507781E-007
 -3.340000000000000E-002   -3.180803889602735E-007
 -3.330000000000000E-002   -1.155539997553421E-006
 -3.320000000000000E-002   -2.055000739089434E-006
 -3.310000000000000E-002   -3.017687455837004E-006
 -3.300000000000000E-002   -4.044501075170239E-006
 -3.290000000000000E-002   -5.136238498605388E-006
 -3.280000000000000E-002   -6.293819486445229E-006
 -3.270000000000000E-002   -7.518573502026569E-006
 -3.260000000000000E-002   -8.812542552905084E-006
 -3.250000000000000E-002   -1.017874180012842E-005
 -3.240000000000000E-002   -1.162137528679033E-005
 -3.230000000000000E-002   -1.314595618319018E-005
 -3.220000000000000E-002   -1.475938912598416E-005
 -3.210000000000000E-002   -1.646998881353392E-005
 -3.200000000000000E-002   -1.828739957782174E-005
 -3.190000000000000E-002   -2.022241425962911E-005
 -3.180000000000000E-002   -2.228691048256312E-005
 -3.170000000000000E-002   -2.449362442937094E-005
 -3.160000000000000E-002   -2.685597289806672E-005
 -3.150000000000000E-002   -2.938792260494290E-005
 -3.140000000000000E-002   -3.210384343396857E-005
 -3.130000000000000E-002   -3.501852836306053E-005
 -3.120000000000000E-002   -3.814703694066473E-005
 -3.110000000000000E-002   -4.150482373963869E-005
 -3.100000000000000E-002   -4.510771266007475E-005
 -3.090000000000000E-002   -4.897205387037716E-005
 -3.080000000000000E-002   -5.311471457181912E-005
 -3.070000000000000E-002   -5.755331308530893E-005
 -3.060000000000000E-002   -6.230620073423290E-005
 -3.050000000000000E-002   -6.739267780042951E-005
 -3.040000000000000E-002   -7.283298653248757E-005
 -3.030000000000000E-002   -7.864834765167753E-005
 -3.020000000000000E-002   -8.486106406879316E-005
 -3.010000000000000E-002   -9.149459848053971E-005
 -3.000000000000000E-002   -9.857355288269558E-005
 -2.990000000000000E-002   -1.061237724211746E-004
 -2.980000000000000E-002   -1.141723325809277E-004
 -2.970000000000000E-002   -1.227476962706962E-004
 -2.960000000000000E-002   -1.318798581030052E-004
 -2.950000000000000E-002   -1.416003064366895E-004
 -2.940000000000000E-002   -1.519424281592599E-004
 -2.930000000000000E-002   -1.629414268171214E-004
 -2.920000000000000E-002   -1.746348308872025E-004
 -2.910000000000000E-002   -1.870625687142166E-004
 -2.900000000000000E-002   -2.002670839947473E-004
 -2.890000000000000E-002   -2.142936745600251E-004
 -2.880000000000000E-002   -2.291906823989037E-004
 -2.870000000000000E-002   -2.450094180021012E-004
 -2.860000000000000E-002   -2.618044537747056E-004
 -2.850000000000000E-002   -2.796334295501831E-004
 -2.840000000000000E-002   -2.985571841764875E-004
 -2.830000000000000E-002   -3.186393801286292E-004
 -2.820000000000000E-002   -3.399467801341382E-004
 -2.810000000000000E-002   -3.625487755219204E-004
 -2.800000000000000E-002   -3.865173061230428E-004
 -2.790000000000000E-002   -4.119269980523864E-004
 -2.780000000000000E-002   -4.388551700058124E-004
 -2.770000000000000E-002   -4.673817420350412E-004
 -2.760000000000000E-002   -4.975892497868530E-004
 -2.750000000000000E-002   -5.295637242879241E-004
 -2.740000000000000E-002   -5.633946661123530E-004
 -2.730000000000000E-002   -5.991757062805267E-004
 -2.720000000000000E-002   -6.370050382803382E-004
 -2.710000000000000E-002   -6.769861072024526E-004
 -2.700000000000000E-002   -7.192276919678787E-004
 -2.690000000000000E-002   -7.638449404207956E-004
 -2.680000000000000E-002   -8.109595802744830E-004
 -2.670000000000000E-002   -8.606994205084829E-004
 -2.660000000000000E-002   -9.131998883456181E-004
 -2.650000000000000E-002   -9.686023892690388E-004
 -2.640000000000000E-002   -1.027055115564504E-003
 -2.630000000000000E-002   -1.088712608339737E-003
 -2.620000000000000E-002   -1.153735059733098E-003
 -2.610000000000000E-002   -1.222288753941221E-003
 -2.600000000000000E-002   -1.294545512689844E-003
 -2.590000000000000E-002   -1.370683294520188E-003
 -2.580000000000000E-002   -1.450885423018896E-003
 -2.570000000000000E-002   -1.535341321499590E-003
 -2.560000000000000E-002   -1.624247702016097E-003
 -2.550000000000000E-002   -1.717808424985286E-003
 -2.540000000000000E-002   -1.816234866522388E-003
 -2.530000000000000E-002   -1.919747822218845E-003
 -2.520000000000000E-002   -2.028578919957887E-003
 -2.510000000000000E-002   -2.142968373483968E-003
 -2.500000000000000E-002   -2.263169015575314E-003
 -2.490000000000000E-002   -2.389444137380955E-003
 -2.480000000000000E-002   -2.522070458409198E-003
 -2.470000000000000E-002   -2.661335416669464E-003
 -2.460000000000000E-002   -2.807537510114855E-003
 -2.450000000000000E-002   -2.960987867713389E-003
 -2.440000000000000E-002   -3.122008814969228E-003
 -2.430000000000000E-002   -3.290933622233085E-003
 -2.420000000000000E-002   -3.468105807122701E-003
 -2.410000000000000E-002   -3.653878966494156E-003
 -2.400000000000000E-002   -3.848618818737614E-003
 -2.390000000000000E-002   -4.052702417917500E-003
 -2.380000000000000E-002   -4.266516213098650E-003
 -2.370000000000000E-002   -4.490461657552050E-003
 -2.360000000000000E-002   -4.724951730792530E-003
 -2.350000000000000E-002   -4.970414564543721E-003
 -2.340000000000000E-002   -5.227292983702068E-003
 -2.330000000000000E-002   -5.496044886691917E-003
 -2.320000000000000E-002   -5.777144864309029E-003
 -2.310000000000000E-002   -6.071086636060521E-003
 -2.300000000000000E-002   -6.378378086035202E-003
 -2.290000000000000E-002   -6.699546223841687E-003
 -2.280000000000000E-002   -7.035136754247642E-003
 -2.270000000000000E-002   -7.385710375625721E-003
 -2.260000000000000E-002   -7.751846479898693E-003
 -2.250000000000000E-002   -8.134139822212684E-003
 -2.240000000000000E-002   -8.533201711317174E-003
 -2.230000000000000E-002   -8.949663066843604E-003
 -2.220000000000000E-002   -9.384164289452566E-003
 -2.210000000000000E-002   -9.837371335821389E-003
 -2.200000000000000E-002   -1.030996228582056E-002
 -2.190000000000000E-002   -1.080263700543697E-002
 -2.180000000000000E-002   -1.131611166618900E-002
 -2.170000000000000E-002   -1.185112410121240E-002
 -2.160000000000000E-002   -1.240842958773740E-002
 -2.150000000000000E-002   -1.298880926142300E-002
 -2.140000000000000E-002   -1.359306195307868E-002
 -2.130000000000000E-002   -1.422201179281287E-002
 -2.120000000000000E-002   -1.487650419824449E-002
 -2.110000000000000E-002   -1.555740366779537E-002
 -2.100000000000000E-002   -1.626560345318327E-002
 -2.090000000000000E-002   -1.700201065825794E-002
 -2.080000000000000E-002   -1.776755441500387E-002
 -2.070000000000000E-002   -1.856318713687715E-002
 -2.060000000000000E-002   -1.938988444374902E-002
 -2.050000000000000E-002   -2.024863713466324E-002
 -2.040000000000000E-002   -2.114045632273362E-002
 -2.030000000000000E-002   -2.206637082191906E-002
 -2.020000000000000E-002   -2.302743758738347E-002
 -2.010000000000000E-002   -2.402473324047800E-002
 -2.000000000000000E-002   -2.505934296346901E-002
 -1.990000000000000E-002   -2.613238884083857E-002
 -1.980000000000000E-002   -2.724501105055646E-002
 -1.970000000000000E-002   -2.839836352271699E-002
 -1.960000000000000E-002   -2.959363131051714E-002
 -1.950000000000000E-002   -3.083201615816214E-002
 -1.940000000000000E-002   -3.211474454052317E-002
 -1.930000000000000E-002   -3.344306494761203E-002
 -1.920000000000000E-002   -3.481824322670826E-002
 -1.910000000000000E-002   -3.624156773658686E-002
 -1.900000000000000E-002   -3.771434286985109E-002
 -1.890000000000000E-002   -3.923788817574777E-002
 -1.880000000000000E-002   -4.081354789939069E-002
 -1.870000000000000E-002   -4.244267321939703E-002
 -1.860000000000000E-002   -4.412663354970946E-002
 -1.850000000000000E-002   -4.586682170090452E-002
 -1.840000000000000E-002   -4.766463425208888E-002
 -1.830000000000000E-002   -4.952149014264492E-002
 -1.820000000000000E-002   -5.143881825739797E-002
 -1.810000000000000E-002   -5.341804817757798E-002
 -1.800000000000000E-002   -5.546065437132031E-002
 -1.790000000000000E-002   -5.756809808387234E-002
 -1.780000000000000E-002   -5.974185544228761E-002
 -1.770000000000000E-002   -6.198342632491589E-002
 -1.760000000000000E-002   -6.429429961100024E-002
 -1.750000000000000E-002   -6.667598898742914E-002
 -1.740000000000000E-002   -6.913001120107175E-002
 -1.730000000000000E-002   -7.165788225313924E-002
 -1.720000000000000E-002   -7.426113290658803E-002
 -1.710000000000000E-002   -7.694128738836345E-002
 -1.700000000000000E-002   -7.969986711805337E-002
 -1.690000000000000E-002   -8.253840452618975E-002
 -1.680000000000000E-002   -8.545841888215928E-002
 -1.670000000000000E-002   -8.846142110667311E-002
 -1.660000000000000E-002   -9.154891030676063E-002
 -1.650000000000000E-002   -9.472240588518062E-002
 -1.640000000000000E-002   -9.798340136081418E-002
 -1.630000000000000E-002   -0.101333366019058     
 -1.620000000000000E-002   -0.104773770841303     
 -1.610000000000000E-002   -0.108306061260148     
 -1.600000000000000E-002   -0.111931675716989     
 -1.590000000000000E-002   -0.115652026962839     
 -1.580000000000000E-002   -0.119468526627874     
 -1.570000000000000E-002   -0.123382541284272     
 -1.560000000000000E-002   -0.127395405831050     
 -1.550000000000000E-002   -0.131508461550083     
 -1.540000000000000E-002   -0.135723003795121     
 -1.530000000000000E-002   -0.140040293733039     
 -1.520000000000000E-002   -0.144461562900811     
 -1.510000000000000E-002   -0.148988016432380     
 -1.500000000000000E-002   -0.153620797217923     
 -1.490000000000000E-002   -0.158360999867013     
 -1.480000000000000E-002   -0.163209688050121     
 -1.470000000000000E-002   -0.168167892139141     
 -1.460000000000000E-002   -0.173236567450910     
 -1.450000000000000E-002   -0.178416603650779     
 -1.440000000000000E-002   -0.183708857089275     
 -1.430000000000000E-002   -0.189114131068379     
 -1.420000000000000E-002   -0.194633161192909     
 -1.410000000000000E-002   -0.200266592646160     
 -1.400000000000000E-002   -0.206015044993885     
 -1.390000000000000E-002   -0.211879023717446     
 -1.380000000000000E-002   -0.217859006169471     
 -1.370000000000000E-002   -0.223955348378530     
 -1.360000000000000E-002   -0.230168381433069     
 -1.350000000000000E-002   -0.236498322728576     
 -1.340000000000000E-002   -0.242945313325454     
 -1.330000000000000E-002   -0.249509382273859     
 -1.320000000000000E-002   -0.256190496221104     
 -1.310000000000000E-002   -0.262988513271374     
 -1.300000000000000E-002   -0.269903181944326     
 -1.290000000000000E-002   -0.276934167215462     
 -1.280000000000000E-002   -0.284081048790892     
 -1.270000000000000E-002   -0.291343242867606     
 -1.260000000000000E-002   -0.298720087441108     
 -1.250000000000000E-002   -0.306210792880483     
 -1.240000000000000E-002   -0.313814482881999     
 -1.230000000000000E-002   -0.321530181598255     
 -1.220000000000000E-002   -0.329356769963929     
 -1.210000000000000E-002   -0.337292969283557     
 -1.200000000000000E-002   -0.345337474498823     
 -1.190000000000000E-002   -0.353488754005630     
 -1.180000000000000E-002   -0.361745138016277     
 -1.170000000000000E-002   -0.370104951041616     
 -1.160000000000000E-002   -0.378566230400993     
 -1.150000000000000E-002   -0.387126985081130     
 -1.140000000000000E-002   -0.395785064531909     
 -1.130000000000000E-002   -0.404538138705386     
 -1.120000000000000E-002   -0.413383748975992     
 -1.110000000000000E-002   -0.422319271309818     
 -1.100000000000000E-002   -0.431342021145796     
 -1.090000000000000E-002   -0.440449078099211     
 -1.080000000000000E-002   -0.449637343396337     
 -1.070000000000000E-002   -0.458903666009449     
 -1.060000000000000E-002   -0.468244721080261     
 -1.050000000000000E-002   -0.477656951114719     
 -1.040000000000000E-002   -0.487136702580358     
 -1.030000000000000E-002   -0.496680191919561     
 -1.020000000000000E-002   -0.506283426426916     
 -1.010000000000000E-002   -0.515942320860864     
 -1.000000000000000E-002   -0.525652578260067     
 -9.899999999999999E-003   -0.535409787022193     
 -9.800000000000000E-003   -0.545209352924392     
 -9.699999999999999E-003   -0.555046573892781     
 -9.599999999999999E-003   -0.564916501585105     
 -9.500000000000000E-003   -0.574814124318730     
 -9.399999999999999E-003   -0.584734253913563     
 -9.299999999999999E-003   -0.594671530579960     
 -9.200000000000000E-003   -0.604620392559765     
 -9.099999999999999E-003   -0.614575206531999     
 -8.999999999999999E-003   -0.624530199189778     
 -8.900000000000000E-003   -0.634479399562739     
 -8.799999999999999E-003   -0.644416742666029     
 -8.699999999999999E-003   -0.654335967142588     
 -8.600000000000000E-003   -0.664230694229105     
 -8.499999999999999E-003   -0.674094420291432     
 -8.399999999999999E-003   -0.683920503644581     
 -8.300000000000000E-003   -0.693702188423662     
 -8.199999999999999E-003   -0.703432630741344     
 -8.100000000000000E-003   -0.713104791576142     
 -8.000000000000000E-003   -0.722711518989483     
 -7.899999999999999E-003   -0.732245631747269     
 -7.800000000000000E-003   -0.741699726642457     
 -7.699999999999999E-003   -0.751066367155094     
 -7.599999999999999E-003   -0.760338045039262     
 -7.499999999999999E-003   -0.769507028279064     
 -7.399999999999999E-003   -0.778565630290420     
 -7.299999999999999E-003   -0.787506017444820     
 -7.199999999999999E-003   -0.796320269661377     
 -7.100000000000000E-003   -0.805000506829897     
 -6.999999999999999E-003   -0.813538621336468     
 -6.899999999999999E-003   -0.821926433496225     
 -6.800000000000000E-003   -0.830155932754601     
 -6.699999999999999E-003   -0.838218877809937     
 -6.599999999999999E-003   -0.846107031333500     
 -6.499999999999999E-003   -0.853812068020815     
 -6.399999999999999E-003   -0.861325825565842     
 -6.299999999999999E-003   -0.868639875197959     
 -6.199999999999999E-003   -0.875745981573264     
 -6.100000000000000E-003   -0.882635837092346     
 -5.999999999999999E-003   -0.889301152527877     
 -5.899999999999999E-003   -0.895733613927494     
 -5.800000000000000E-003   -0.901924884064642     
 -5.699999999999999E-003   -0.907866772679880     
 -5.599999999999999E-003   -0.913551116422157     
 -5.499999999999999E-003   -0.918969729039053     
 -5.399999999999999E-003   -0.924114562279143     
 -5.299999999999999E-003   -0.928977520829195     
 -5.199999999999999E-003   -0.933550744453680     
 -5.099999999999999E-003   -0.937826267228957     
 -4.999999999999999E-003   -0.941796450277738     
 -4.899999999999999E-003   -0.945453530083303     
 -4.799999999999999E-003   -0.948790000502554     
 -4.699999999999999E-003   -0.951798514655054     
 -4.599999999999999E-003   -0.954471740166213     
 -4.499999999999999E-003   -0.956802487223277     
 -4.399999999999999E-003   -0.958783766503821     
 -4.299999999999999E-003   -0.960408733893657     
 -4.199999999999999E-003   -0.961670718918981     
 -4.099999999999999E-003   -0.962563242890807     
 -3.999999999999999E-003   -0.963079933512024     
 -3.899999999999999E-003   -0.963214702633689     
 -3.799999999999999E-003   -0.962961616926843     
 -3.699999999999999E-003   -0.962314965197081     
 -3.599999999999999E-003   -0.961269284504769     
 -3.499999999999999E-003   -0.959819273714351     
 -3.399999999999999E-003   -0.957959953334151     
 -3.299999999999999E-003   -0.955686529678107     
 -3.199999999999999E-003   -0.952994506930046     
 -3.099999999999999E-003   -0.949879589184228     
 -2.999999999999999E-003   -0.946337847455774     
 -2.899999999999999E-003   -0.942365550805361     
 -2.799999999999999E-003   -0.937959244520785     
 -2.699999999999999E-003   -0.933115849034123     
 -2.599999999999999E-003   -0.927832513183061     
 -2.499999999999999E-003   -0.922106690486488     
 -2.399999999999999E-003   -0.915936201348979     
 -2.299999999999999E-003   -0.909319149807688     
 -2.199999999999999E-003   -0.902253949760681     
 -2.099999999999999E-003   -0.894739350947835     
 -1.999999999999999E-003   -0.886774434951667     
 -1.899999999999999E-003   -0.878358678912325     
 -1.799999999999999E-003   -0.869491858061386     
 -1.699999999999999E-003   -0.860174049760767     
 -1.599999999999999E-003   -0.850405810980947     
 -1.499999999999999E-003   -0.840187850184840     
 -1.399999999999999E-003   -0.829521466105322     
 -1.299999999999999E-003   -0.818408121175167     
 -1.199999999999999E-003   -0.806849721178362     
 -1.099999999999999E-003   -0.794848513887922     
 -9.999999999999989E-004   -0.782407109326855     
 -8.999999999999990E-004   -0.769528569369511     
 -7.999999999999990E-004   -0.756216195693562     
 -6.999999999999989E-004   -0.742473722871568     
 -5.999999999999990E-004   -0.728305283721257     
 -4.999999999999989E-004   -0.713715319976550     
 -3.999999999999989E-004   -0.698708724309095     
 -2.999999999999989E-004   -0.683290627608368     
 -1.999999999999989E-004   -0.667466594595147     
 -9.999999999999892E-005   -0.651242576280614     
  1.084202172485504E-018   -0.634624838419038     
  1.000000000000011E-004   -0.617620021569364     
  2.000000000000011E-004   -0.600235074621588     
  3.000000000000011E-004   -0.582477328259954     
  4.000000000000011E-004   -0.564354419628061     
  5.000000000000011E-004   -0.545874361928958     
  6.000000000000011E-004   -0.527045471062151     
  7.000000000000011E-004   -0.507876396833264     
  8.000000000000011E-004   -0.488376129522429     
  9.000000000000012E-004   -0.468553908998832     
  1.000000000000001E-003   -0.448419318251631     
  1.100000000000001E-003   -0.427982260383943     
  1.200000000000001E-003   -0.407252904561961     
  1.300000000000001E-003   -0.386241676850917     
  1.400000000000001E-003   -0.364959338654098     
  1.500000000000001E-003   -0.343416863703987     
  1.600000000000001E-003   -0.321625514170727     
  1.700000000000001E-003   -0.299596803605463     
  1.800000000000001E-003   -0.277342457409571     
  1.900000000000001E-003   -0.254874395381906     
  2.000000000000001E-003   -0.232204800267347     
  2.100000000000001E-003   -0.209346026947153     
  2.200000000000001E-003   -0.186310630606722     
  2.300000000000001E-003   -0.163111404801620     
  2.400000000000001E-003   -0.139761247335165     
  2.500000000000001E-003   -0.116273156138743     
  2.600000000000001E-003   -9.266040314107049E-002
  2.700000000000001E-003   -6.893633583397972E-002
  2.800000000000001E-003   -4.511439928468160E-002
  2.900000000000001E-003   -2.120817475384958E-002
  3.000000000000001E-003    2.768666483573880E-003
  3.100000000000001E-003    2.680237932048871E-002
  3.200000000000001E-003    5.087911431325987E-002
  3.300000000000001E-003    7.498501912536333E-002
  3.400000000000001E-003    9.910617315623653E-002
  3.500000000000001E-003    0.123228636089298     
  3.600000000000001E-003    0.147338421397136     
  3.700000000000001E-003    0.171421581453506     
  3.800000000000001E-003    0.195464199580320     
  3.900000000000001E-003    0.219452322363253     
  4.000000000000001E-003    0.243372085775224     
  4.100000000000001E-003    0.267209650449941     
  4.200000000000001E-003    0.290951196593292     
  4.300000000000001E-003    0.314583043687937     
  4.400000000000001E-003    0.338091589386883     
  4.500000000000001E-003    0.361463298535803     
  4.600000000000002E-003    0.384684815558345     
  4.700000000000001E-003    0.407742857237381     
  4.800000000000001E-003    0.430624317391836     
  4.900000000000002E-003    0.453316221059658     
  5.000000000000001E-003    0.475805803805899     
  5.100000000000001E-003    0.498080468337918     
  5.200000000000001E-003    0.520127715535152     
  5.300000000000002E-003    0.541935409501171     
  5.400000000000001E-003    0.563491489526205     
  5.500000000000001E-003    0.584784294169759     
  5.600000000000002E-003    0.605802227371423     
  5.700000000000001E-003    0.626534083022922     
  5.800000000000001E-003    0.646968721769505     
  5.900000000000002E-003    0.667095487315128     
  6.000000000000001E-003    0.686903825249618     
  6.100000000000001E-003    0.706383543971978     
  6.200000000000002E-003    0.725524744875809     
  6.300000000000002E-003    0.744317765573224     
  6.400000000000001E-003    0.762753292511967     
  6.500000000000001E-003    0.780822393833413     
  6.600000000000002E-003    0.798516341735355     
  6.700000000000001E-003    0.815826914538944     
  6.800000000000001E-003    0.832746014868636     
  6.900000000000002E-003    0.849266160905018     
  7.000000000000001E-003    0.865379910685024     
  7.100000000000001E-003    0.881080368349866     
  7.200000000000002E-003    0.896360972419345     
  7.300000000000002E-003    0.911215491547390     
  7.400000000000001E-003    0.925638148399493     
  7.500000000000001E-003    0.939623339853107     
  7.600000000000002E-003    0.953166141277871     
  7.700000000000001E-003    0.966261711805049     
  7.800000000000001E-003    0.978905665332956     
  7.900000000000001E-003    0.991094092625071     
  8.000000000000002E-003     1.00282347564065     
  8.100000000000001E-003     1.01409051765119     
  8.200000000000001E-003     1.02489242242597     
  8.300000000000002E-003     1.03522672756119     
  8.400000000000001E-003     1.04509139896601     
  8.500000000000002E-003     1.05448485579818     
  8.600000000000002E-003     1.06340567489438     
  8.700000000000001E-003     1.07185296736411     
  8.800000000000002E-003     1.07982619939139     
  8.900000000000002E-003     1.08732519332423     
  9.000000000000001E-003     1.09435014569276     
  9.100000000000002E-003     1.10090166558904     
  9.200000000000002E-003     1.10698058579919     
  9.300000000000001E-003     1.11258823481329     
  9.400000000000002E-003     1.11772613355050     
  9.500000000000001E-003     1.12239629753589     
  9.600000000000001E-003     1.12660105299774     
  9.700000000000002E-003     1.13034291439599     
  9.800000000000001E-003     1.13362493747137     
  9.900000000000001E-003     1.13645040019001     
  1.000000000000000E-002     1.13882291668680     
  1.010000000000000E-002     1.14074644263463     
  1.020000000000000E-002     1.14222517120096     
  1.030000000000000E-002     1.14326349188442     
  1.040000000000000E-002     1.14386635222636     
  1.050000000000000E-002     1.14403875098257     
  1.060000000000000E-002     1.14378604597508     
  1.070000000000000E-002     1.14311382076390     
  1.080000000000000E-002     1.14202793337000     
  1.090000000000000E-002     1.14053439966432     
  1.100000000000000E-002     1.13863964659473     
  1.110000000000000E-002     1.13635008394371     
  1.120000000000000E-002     1.13367258470968     
  1.130000000000000E-002     1.13061405377989     
  1.140000000000000E-002     1.12718164457049     
  1.150000000000000E-002     1.12338274725391     
  1.160000000000000E-002     1.11922487202314     
  1.170000000000000E-002     1.11471569859078     
  1.180000000000000E-002     1.10986311820654     
  1.190000000000000E-002     1.10467509267792     
  1.200000000000000E-002     1.09915980495478     
  1.210000000000000E-002     1.09332553707470     
  1.220000000000000E-002     1.08718055464170     
  1.230000000000000E-002     1.08073335995261     
  1.240000000000000E-002     1.07399255012539     
  1.250000000000000E-002     1.06696671495216     
  1.260000000000000E-002     1.05966465622582     
  1.270000000000000E-002     1.05209506379564     
  1.280000000000000E-002     1.04426685251923     
  1.290000000000000E-002     1.03618886778831     
  1.300000000000000E-002     1.02787010923216     
  1.310000000000000E-002     1.01931950549526     
  1.320000000000000E-002     1.01054605202185     
  1.330000000000000E-002     1.00155875795373     
  1.340000000000000E-002    0.992366606754591     
  1.350000000000000E-002    0.982978625476989     
  1.360000000000000E-002    0.973403740203648     
  1.370000000000000E-002    0.963650914814770     
  1.380000000000000E-002    0.953729069632236     
  1.390000000000000E-002    0.943647031410536     
  1.400000000000000E-002    0.933413676132898     
  1.410000000000000E-002    0.923037738993916     
  1.420000000000000E-002    0.912527938710916     
  1.430000000000000E-002    0.901892843073825     
  1.440000000000000E-002    0.891141012196032     
  1.450000000000000E-002    0.880280886855226     
  1.460000000000000E-002    0.869320894446741     
  1.470000000000000E-002    0.858269210680796     
  1.480000000000000E-002    0.847134125463319     
  1.490000000000000E-002    0.835923649879310     
  1.500000000000000E-002    0.824645744532576     
  1.510000000000000E-002    0.813308225974898     
  1.520000000000000E-002    0.801918811471942     
  1.530000000000000E-002    0.790485063898444     
  1.540000000000000E-002    0.779014383365700     
  1.550000000000000E-002    0.767514046855031     
  1.560000000000000E-002    0.755991175423606     
  1.570000000000000E-002    0.744452780469348     
  1.580000000000000E-002    0.732905648529556     
  1.590000000000000E-002    0.721356445398363     
  1.600000000000000E-002    0.709811681992073     
  1.610000000000000E-002    0.698277722749596     
  1.620000000000000E-002    0.686760710279391     
  1.630000000000000E-002    0.675266718734443     
  1.640000000000000E-002    0.663801632461418     
  1.650000000000000E-002    0.652371126395319     
  1.660000000000000E-002    0.640980717669013     
  1.670000000000000E-002    0.629635801992384     
  1.680000000000000E-002    0.618341561806754     
  1.690000000000000E-002    0.607102998961858     
  1.700000000000000E-002    0.595924954779045     
  1.710000000000000E-002    0.584812101746102     
  1.720000000000000E-002    0.573768902355521     
  1.730000000000000E-002    0.562799615307765     
  1.740000000000000E-002    0.551908426204754     
  1.750000000000000E-002    0.541099264119753     
  1.760000000000000E-002    0.530375887915363     
  1.770000000000000E-002    0.519741905331323     
  1.780000000000000E-002    0.509200726436202     
  1.790000000000000E-002    0.498755674172140     
  1.800000000000000E-002    0.488409835003907     
  1.810000000000000E-002    0.478166147432438     
  1.820000000000000E-002    0.468027391357073     
  1.830000000000000E-002    0.457996167826432     
  1.840000000000000E-002    0.448074985017609     
  1.850000000000000E-002    0.438266082694068     
  1.860000000000000E-002    0.428571595221329     
  1.870000000000000E-002    0.418993526133138     