 -4.000000000000000E-002    0.000000000000000E+000
 -3.990000000000000E-002    0.000000000000000E+000
 -3.980000000000000E-002    0.000000000000000E+000
 -3.970000000000000E-002    0.000000000000000E+000
 -3.960000000000000E-002    0.000000000000000E+000
 -3.950000000000000E-002    0.000000000000000E+000
 -3.940000000000000E-002    0.000000000000000E+000
 -3.930000000000000E-002    0.000000000000000E+000
 -3.920000000000000E-002    0.000000000000000E+000
 -3.910000000000000E-002    0.000000000000000E+000
 -3.900000000000000E-002    0.000000000000000E+000
 -3.890000000000000E-002    0.000000000000000E+000
 -3.880000000000000E-002    0.000000000000000E+000
 -3.870000000000000E-002    0.000000000000000E+000
 -3.860000000000000E-002    0.000000000000000E+000
 -3.850000000000000E-002    0.000000000000000E+000
 -3.840000000000000E-002    0.000000000000000E+000
 -3.830000000000000E-002    0.000000000000000E+000
 -3.820000000000000E-002    0.000000000000000E+000
 -3.810000000000000E-002    0.000000000000000E+000
 -3.800000000000000E-002    0.000000000000000E+000
 -3.790000000000000E-002    0.000000000000000E+000
 -3.780000000000000E-002    0.000000000000000E+000
 -3.770000000000000E-002    0.000000000000000E+000
 -3.760000000000000E-002    0.000000000000000E+000
 -3.750000000000000E-002    0.000000000000000E+000
 -3.740000000000000E-002    0.000000000000000E+000
 -3.730000000000000E-002    0.000000000000000E+000
 -3.720000000000000E-002    0.000000000000000E+000
 -3.710000000000000E-002    0.000000000000000E+000
 -3.700000000000000E-002    0.000000000000000E+000
 -3.690000000000000E-002    0.000000000000000E+000
 -3.680000000000000E-002    0.000000000000000E+000
 -3.670000000000000E-002    0.000000000000000E+000
 -3.660000000000000E-002    0.000000000000000E+000
 -3.650000000000000E-002    0.000000000000000E+000
 -3.640000000000000E-002    0.000000000000000E+000
 -3.630000000000000E-002    0.000000000000000E+000
 -3.620000000000000E-002    0.000000000000000E+000
 -3.610000000000000E-002    0.000000000000000E+000
 -3.600000000000000E-002    0.000000000000000E+000
 -3.590000000000000E-002    0.000000000000000E+000
 -3.580000000000000E-002    0.000000000000000E+000
 -3.570000000000000E-002    0.000000000000000E+000
 -3.560000000000000E-002    0.000000000000000E+000
 -3.550000000000000E-002    0.000000000000000E+000
 -3.540000000000000E-002    0.000000000000000E+000
 -3.530000000000000E-002    0.000000000000000E+000
 -3.520000000000000E-002    0.000000000000000E+000
 -3.510000000000000E-002    0.000000000000000E+000
 -3.500000000000000E-002    0.000000000000000E+000
 -3.490000000000000E-002    0.000000000000000E+000
 -3.480000000000000E-002    0.000000000000000E+000
 -3.470000000000000E-002    0.000000000000000E+000
 -3.460000000000000E-002    0.000000000000000E+000
 -3.450000000000000E-002    0.000000000000000E+000
 -3.440000000000000E-002    0.000000000000000E+000
 -3.430000000000000E-002    0.000000000000000E+000
 -3.420000000000000E-002    0.000000000000000E+000
 -3.410000000000000E-002    0.000000000000000E+000
 -3.400000000000000E-002    0.000000000000000E+000
 -3.390000000000000E-002    0.000000000000000E+000
 -3.380000000000000E-002    0.000000000000000E+000
 -3.370000000000000E-002    0.000000000000000E+000
 -3.360000000000000E-002    0.000000000000000E+000
 -3.350000000000000E-002    0.000000000000000E+000
 -3.340000000000000E-002    0.000000000000000E+000
 -3.330000000000000E-002    0.000000000000000E+000
 -3.320000000000000E-002    0.000000000000000E+000
 -3.310000000000000E-002    0.000000000000000E+000
 -3.300000000000000E-002    0.000000000000000E+000
 -3.290000000000000E-002    0.000000000000000E+000
 -3.280000000000000E-002    0.000000000000000E+000
 -3.270000000000000E-002    0.000000000000000E+000
 -3.260000000000000E-002    0.000000000000000E+000
 -3.250000000000000E-002    0.000000000000000E+000
 -3.240000000000000E-002    0.000000000000000E+000
 -3.230000000000000E-002    0.000000000000000E+000
 -3.220000000000000E-002    0.000000000000000E+000
 -3.210000000000000E-002    0.000000000000000E+000
 -3.200000000000000E-002    0.000000000000000E+000
 -3.190000000000000E-002    0.000000000000000E+000
 -3.180000000000000E-002    0.000000000000000E+000
 -3.170000000000000E-002    0.000000000000000E+000
 -3.160000000000000E-002    0.000000000000000E+000
 -3.150000000000000E-002    0.000000000000000E+000
 -3.140000000000000E-002    0.000000000000000E+000
 -3.130000000000000E-002    0.000000000000000E+000
 -3.120000000000000E-002    0.000000000000000E+000
 -3.110000000000000E-002    0.000000000000000E+000
 -3.100000000000000E-002    0.000000000000000E+000
 -3.090000000000000E-002    0.000000000000000E+000
 -3.080000000000000E-002    0.000000000000000E+000
 -3.070000000000000E-002    0.000000000000000E+000
 -3.060000000000000E-002    0.000000000000000E+000
 -3.050000000000000E-002    0.000000000000000E+000
 -3.040000000000000E-002    0.000000000000000E+000
 -3.030000000000000E-002    0.000000000000000E+000
 -3.020000000000000E-002    0.000000000000000E+000
 -3.010000000000000E-002    0.000000000000000E+000
 -3.000000000000000E-002    0.000000000000000E+000
 -2.990000000000000E-002    0.000000000000000E+000
 -2.980000000000000E-002    0.000000000000000E+000
 -2.970000000000000E-002    0.000000000000000E+000
 -2.960000000000000E-002    0.000000000000000E+000
 -2.950000000000000E-002    0.000000000000000E+000
 -2.940000000000000E-002    0.000000000000000E+000
 -2.930000000000000E-002    0.000000000000000E+000
 -2.920000000000000E-002    0.000000000000000E+000
 -2.910000000000000E-002    0.000000000000000E+000
 -2.900000000000000E-002    0.000000000000000E+000
 -2.890000000000000E-002    0.000000000000000E+000
 -2.880000000000000E-002    0.000000000000000E+000
 -2.870000000000000E-002    0.000000000000000E+000
 -2.860000000000000E-002    0.000000000000000E+000
 -2.850000000000000E-002    0.000000000000000E+000
 -2.840000000000000E-002    0.000000000000000E+000
 -2.830000000000000E-002    0.000000000000000E+000
 -2.820000000000000E-002    0.000000000000000E+000
 -2.810000000000000E-002    0.000000000000000E+000
 -2.800000000000000E-002    0.000000000000000E+000
 -2.790000000000000E-002    0.000000000000000E+000
 -2.780000000000000E-002    0.000000000000000E+000
 -2.770000000000000E-002    0.000000000000000E+000
 -2.760000000000000E-002    0.000000000000000E+000
 -2.750000000000000E-002    0.000000000000000E+000
 -2.740000000000000E-002    0.000000000000000E+000
 -2.730000000000000E-002    0.000000000000000E+000
 -2.720000000000000E-002    0.000000000000000E+000
 -2.710000000000000E-002    0.000000000000000E+000
 -2.700000000000000E-002    0.000000000000000E+000
 -2.690000000000000E-002    0.000000000000000E+000
 -2.680000000000000E-002    0.000000000000000E+000
 -2.670000000000000E-002    0.000000000000000E+000
 -2.660000000000000E-002    0.000000000000000E+000
 -2.650000000000000E-002   -4.319431101721623E-048
 -2.640000000000000E-002   -2.130919364504455E-047
 -2.630000000000000E-002   -3.397952508664586E-047
 -2.620000000000000E-002   -4.664985652824717E-047
 -2.610000000000000E-002   -5.500075686812686E-047
 -2.600000000000000E-002    5.010955145681156E-047
 -2.590000000000000E-002    1.638587219851932E-046
 -2.580000000000000E-002    3.077130540305817E-046
 -2.570000000000000E-002    4.855469111626161E-046
 -2.560000000000000E-002    7.145071615931383E-046
 -2.550000000000000E-002    8.806875291252477E-046
 -2.540000000000000E-002    9.799638854068756E-046
 -2.530000000000000E-002    8.941105231393999E-046
 -2.520000000000000E-002    6.403103629627620E-046
 -2.510000000000000E-002    4.210167420848325E-047
 -2.500000000000000E-002   -1.568430763711350E-045
 -2.490000000000000E-002   -3.325807949173617E-045
 -2.480000000000000E-002   -5.696721099719584E-045
 -2.470000000000000E-002   -8.718678241329529E-045
 -2.460000000000000E-002   -1.177933596199655E-044
 -2.450000000000000E-002   -1.529179955388345E-044
 -2.440000000000000E-002   -1.672467810420249E-044
 -2.430000000000000E-002   -1.596880872092654E-044
 -2.420000000000000E-002   -9.615142988319955E-045
 -2.410000000000000E-002    1.680527532988012E-045
 -2.400000000000000E-002    2.042964569431648E-044
 -2.390000000000000E-002    4.675091617815578E-044
 -2.380000000000000E-002    7.939033457789778E-044
 -2.370000000000000E-002    1.171948248295142E-043
 -2.360000000000000E-002    1.545077403033680E-043
 -2.350000000000000E-002    1.829309319706199E-043
 -2.340000000000000E-002    1.918714682730973E-043
 -2.330000000000000E-002    1.682254514067265E-043
 -2.320000000000000E-002    9.865085303520335E-044
 -2.310000000000000E-002   -2.978659858027766E-044
 -2.300000000000000E-002   -2.233627367584147E-043
 -2.290000000000000E-002   -4.823051755189255E-043
 -2.280000000000000E-002   -7.943604441624166E-043
 -2.270000000000000E-002   -1.133167900194777E-042
 -2.260000000000000E-002   -1.455204756523992E-042
 -2.250000000000000E-002   -1.701710773554721E-042
 -2.240000000000000E-002   -1.801542353318323E-042
 -2.230000000000000E-002   -1.675921049222545E-042
 -2.220000000000000E-002   -1.248283968404053E-042
 -2.210000000000000E-002   -4.540830755405016E-043
 -2.200000000000000E-002    7.478793197103906E-043
 -2.190000000000000E-002    2.365099299417062E-042
 -2.180000000000000E-002    4.365372221559568E-042
 -2.170000000000000E-002    6.673099221221612E-042
 -2.160000000000000E-002    9.168924607647488E-042
 -2.150000000000000E-002    1.168508469931334E-041
 -2.140000000000000E-002    1.400776039047919E-041
 -2.130000000000000E-002    1.586186782320005E-041
 -2.120000000000000E-002    1.689078839791908E-041
 -2.110000000000000E-002    1.662383697658225E-041
 -2.100000000000000E-002    1.444112703301931E-041
 -2.090000000000000E-002    9.546619373134940E-042
 -2.080000000000000E-002    9.742013231609612E-043
 -2.070000000000000E-002   -1.233994674623024E-041
 -2.060000000000000E-002   -3.140271453580664E-041
 -2.050000000000000E-002   -5.689119585228106E-041
 -2.040000000000000E-002   -8.877590465646664E-041
 -2.030000000000000E-002   -1.258721794047241E-040
 -2.020000000000000E-002   -1.654004155270927E-040
 -2.010000000000000E-002   -2.026796017607133E-040
 -2.000000000000000E-002   -2.311035789327848E-040
 -1.990000000000000E-002   -2.425416749141787E-040
 -1.980000000000000E-002   -2.282441111094744E-040
 -1.970000000000000E-002   -1.802109919976890E-040
 -1.960000000000000E-002   -9.278800902725357E-041
 -1.950000000000000E-002    3.595229751401673E-041
 -1.940000000000000E-002    2.036799348211374E-040
 -1.930000000000000E-002    4.048593016722954E-040
 -1.920000000000000E-002    6.339345909262899E-040
 -1.910000000000000E-002    8.907672396804265E-040
 -1.900000000000000E-002    1.187555083640680E-039
 -1.890000000000000E-002    1.555274584267065E-039
 -1.880000000000000E-002    2.046256831446454E-039
 -1.870000000000000E-002    2.728252113562709E-039
 -1.860000000000000E-002    3.664756367233021E-039
 -1.850000000000000E-002    4.877123150201102E-039
 -1.840000000000000E-002    6.286746766969878E-039
 -1.830000000000000E-002    7.640935782256592E-039
 -1.820000000000000E-002    8.434027206783042E-039
 -1.810000000000000E-002    7.845194162590339E-039
 -1.800000000000000E-002    4.724694845085363E-039
 -1.790000000000000E-002   -2.331798803193894E-039
 -1.780000000000000E-002   -1.477940333252427E-038
 -1.770000000000000E-002   -3.375803551060119E-038
 -1.760000000000000E-002   -5.955467405005631E-038
 -1.750000000000000E-002   -9.092447989422339E-038
 -1.740000000000000E-002   -1.243577811728225E-037
 -1.730000000000000E-002   -1.534476895683109E-037
 -1.720000000000000E-002   -1.685804010128159E-037
 -1.710000000000000E-002   -1.572206417127626E-037
 -1.700000000000000E-002   -1.050748258439309E-037
 -1.690000000000000E-002    1.639591076131893E-039
 -1.680000000000000E-002    1.727300289841820E-037
 -1.670000000000000E-002    4.095192048552796E-037
 -1.660000000000000E-002    6.997681748254617E-037
 -1.650000000000000E-002    1.012898693190640E-036
 -1.640000000000000E-002    1.296767173368762E-036
 -1.630000000000000E-002    1.477532255879431E-036
 -1.620000000000000E-002    1.464236287494176E-036
 -1.610000000000000E-002    1.159463358518293E-036
 -1.600000000000000E-002    4.767408563235348E-037
 -1.590000000000000E-002   -6.358345787516949E-037
 -1.580000000000000E-002   -2.167899533836793E-036
 -1.570000000000000E-002   -4.019137382310887E-036
 -1.560000000000000E-002   -5.977596274021989E-036
 -1.550000000000000E-002   -7.711470883116785E-036
 -1.540000000000000E-002   -8.782288962595695E-036
 -1.530000000000000E-002   -8.686393600230109E-036
 -1.520000000000000E-002   -6.928591565611877E-036
 -1.510000000000000E-002   -3.126616960497824E-036
 -1.500000000000000E-002    2.862120706966881E-036
 -1.490000000000000E-002    1.080848592930114E-035
 -1.480000000000000E-002    1.999965622293510E-035
 -1.470000000000000E-002    2.917915730523591E-035
 -1.460000000000000E-002    3.657321207450540E-035
 -1.450000000000000E-002    4.003385979618480E-035
 -1.440000000000000E-002    3.731731750372873E-035
 -1.430000000000000E-002    2.649542711314621E-035
 -1.420000000000000E-002    6.469360011795170E-036
 -1.410000000000000E-002   -2.247871547406754E-035
 -1.400000000000000E-002   -5.819367103171396E-035
 -1.390000000000000E-002   -9.633887602115591E-035
 -1.380000000000000E-002   -1.304054569525350E-034
 -1.370000000000000E-002   -1.521603040107825E-034
 -1.360000000000000E-002   -1.526111753295465E-034
 -1.350000000000000E-002   -1.234915915236871E-034
 -1.340000000000000E-002   -5.916497765779000E-035
 -1.330000000000000E-002    4.127473319505710E-035
 -1.320000000000000E-002    1.720489815403658E-034
 -1.310000000000000E-002    3.193257585498720E-034
 -1.300000000000000E-002    4.609167022549574E-034
 -1.290000000000000E-002    5.674808293411579E-034
 -1.280000000000000E-002    6.055352927284108E-034
 -1.270000000000000E-002    5.423258549170797E-034
 -1.260000000000000E-002    3.522660223423937E-034
 -1.250000000000000E-002    2.425339879542126E-035
 -1.240000000000000E-002   -4.312271764587861E-034
 -1.230000000000000E-002   -9.766228748317782E-034
 -1.220000000000000E-002   -1.545012199291089E-033
 -1.210000000000000E-002   -2.042440756704872E-033
 -1.200000000000000E-002   -2.355936480564904E-033
 -1.190000000000000E-002   -2.367510581533789E-033
 -1.180000000000000E-002   -1.973431867343521E-033
 -1.170000000000000E-002   -1.106877316990412E-033
 -1.160000000000000E-002    2.391227814546118E-034
 -1.150000000000000E-002    1.992459524428118E-033
 -1.140000000000000E-002    3.990923746937048E-033
 -1.130000000000000E-002    5.983620797810612E-033
 -1.120000000000000E-002    7.647968258605126E-033
 -1.110000000000000E-002    8.623462821701177E-033
 -1.100000000000000E-002    8.560712414144324E-033
 -1.090000000000000E-002    7.181142880913043E-033
 -1.080000000000000E-002    4.339769338349405E-033
 -1.070000000000000E-002    8.104646108346248E-035
 -1.060000000000000E-002   -5.323265362115946E-033
 -1.050000000000000E-002   -1.136464107419234E-032
 -1.040000000000000E-002   -1.732444131378045E-032
 -1.030000000000000E-002   -2.233969629134771E-032
 -1.020000000000000E-002   -2.550478788738430E-032
 -1.010000000000000E-002   -2.599892363491895E-032
 -1.000000000000000E-002   -2.322286328144288E-032
 -9.899999999999999E-003   -1.692381342124697E-032
 -9.800000000000000E-003   -7.285917549419149E-033
 -9.699999999999999E-003    5.033707720174264E-033
 -9.599999999999999E-003    1.893675348640202E-032
 -9.500000000000000E-003    3.298621376056590E-032
 -9.399999999999999E-003    4.556994949900582E-032
 -9.299999999999999E-003    5.510298559705021E-032
 -9.200000000000000E-003    6.023636413432993E-032
 -9.099999999999999E-003    6.003560598768205E-032
 -8.999999999999999E-003    5.409462604031078E-032
 -8.900000000000000E-003    4.256150146213637E-032
 -8.799999999999999E-003    2.607051141947419E-032
 -8.699999999999999E-003    5.596768990430441E-033
 -8.600000000000000E-003   -1.772811591820067E-032
 -8.499999999999999E-003   -4.278482335854174E-032
 -8.399999999999999E-003   -6.856024270842105E-032
 -8.300000000000000E-003   -9.411746051403224E-032
 -8.199999999999999E-003   -1.184204720729841E-031
 -8.100000000000000E-003   -1.400339888121452E-031
 -8.000000000000000E-003   -1.567681564582455E-031
 -7.899999999999999E-003   -1.653847924386815E-031
 -7.800000000000000E-003   -1.615119427089897E-031
 -7.699999999999999E-003   -1.399145265807155E-031
 -7.599999999999999E-003   -9.523035093700373E-032
 -7.499999999999999E-003   -2.319829958243563E-032
 -7.399999999999999E-003    7.771310314294474E-032
 -7.299999999999999E-003    2.045103404433979E-031
 -7.199999999999999E-003    3.480800914787137E-031
 -7.100000000000000E-003    4.922579027231077E-031
 -6.999999999999999E-003    6.140433034814604E-031
 -6.899999999999999E-003    6.853590742895241E-031
 -6.800000000000000E-003    6.765486440450225E-031
 -6.699999999999999E-003    5.614899758357884E-031
 -6.599999999999999E-003    3.238127502359386E-031
 -6.499999999999999E-003   -3.669907285376009E-032
 -6.399999999999999E-003   -4.987713685083424E-031
 -6.299999999999999E-003   -1.016789552645629E-030
 -6.199999999999999E-003   -1.521769226399434E-030
 -6.100000000000000E-003   -1.927090991354219E-030
 -5.999999999999999E-003   -2.139237520325270E-030
 -5.899999999999999E-003   -2.072813613388988E-030
 -5.800000000000000E-003   -1.668049049774683E-030
 -5.699999999999999E-003   -9.079833417342679E-031
 -5.599999999999999E-003    1.681643645186025E-031
 -5.499999999999999E-003    1.459084305787098E-030
 -5.399999999999999E-003    2.805989597372021E-030
 -5.299999999999999E-003    4.009438413822679E-030
 -5.199999999999999E-003    4.857931502035194E-030
 -5.099999999999999E-003    5.165253491672931E-030
 -4.999999999999999E-003    4.810870219487545E-030
 -4.899999999999999E-003    3.775539681733344E-030
 -4.799999999999999E-003    2.163228082267773E-030
 -4.699999999999999E-003    2.010114797832039E-031
 -4.599999999999999E-003   -1.788791893578756E-030
 -4.499999999999999E-003   -3.445456513728559E-030
 -4.399999999999999E-003   -4.450692059280201E-030
 -4.299999999999999E-003   -4.621646968137710E-030
 -4.199999999999999E-003   -3.997881538903940E-030
 -4.099999999999999E-003   -2.899791802014777E-030
 -3.999999999999999E-003   -1.935264627715698E-030
 -3.899999999999999E-003   -1.935414166155327E-030
 -3.799999999999999E-003   -3.809690554570257E-030
 -3.699999999999999E-003   -8.325265929806682E-030
 -3.599999999999999E-003   -1.583367705281408E-029
 -3.499999999999999E-003   -2.598683807300924E-029
 -3.399999999999999E-003   -3.750106975212419E-029
 -3.299999999999999E-003   -4.803760322364371E-029
 -3.199999999999999E-003   -5.426717215761250E-029
 -3.099999999999999E-003   -5.217193207566026E-029
 -2.999999999999999E-003   -3.760843866433911E-029
 -2.899999999999999E-003   -7.112345243539968E-030
 -2.799999999999999E-003    4.112701734867147E-029
 -2.699999999999999E-003    1.062496161854961E-028
 -2.599999999999999E-003    1.838404859207584E-028
 -2.499999999999999E-003    2.653849941394207E-028
 -2.399999999999999E-003    3.382725519976043E-028
 -2.299999999999999E-003    3.865248257590598E-028
 -2.199999999999999E-003    3.923511080994847E-028
 -2.099999999999999E-003    3.385220456589296E-028
 -1.999999999999999E-003    2.114125439897804E-028
 -1.899999999999999E-003    4.410532585975978E-030
 -1.799999999999999E-003   -2.787553703952109E-028
 -1.699999999999999E-003   -6.213269557977241E-028
 -1.599999999999999E-003   -9.920718507535009E-028
 -1.499999999999999E-003   -1.345652306502393E-027
 -1.399999999999999E-003   -1.625246089841593E-027
 -1.299999999999999E-003   -1.767621800135483E-027
 -1.199999999999999E-003   -1.710554997444461E-027
 -1.099999999999999E-003   -1.402091015528782E-027
 -9.999999999999989E-004   -8.107737594498690E-028
 -8.999999999999990E-004    6.439152903735038E-029
 -7.999999999999990E-004    1.185721027385625E-027
 -6.999999999999989E-004    2.471947382714416E-027
 -5.999999999999990E-004    3.798088152799864E-027
 -4.999999999999989E-004    5.001203971733404E-027
 -3.999999999999989E-004    5.892611993412476E-027
 -2.999999999999989E-004    6.276363270472234E-027
 -1.999999999999989E-004    5.972937904191568E-027
 -9.999999999999892E-005    4.846196319859304E-027
  1.084202172485504E-018    2.830834512952751E-027
  1.000000000000011E-004   -4.303507730747859E-029
  2.000000000000011E-004   -3.631849858732195E-027
  3.000000000000011E-004   -7.670671262838286E-027
  4.000000000000011E-004   -1.177838232863784E-026
  5.000000000000011E-004   -1.547799528243082E-026
  6.000000000000011E-004   -1.823266199532520E-026
  7.000000000000011E-004   -1.949621251766084E-026
  8.000000000000011E-004   -1.877520191318740E-026
  9.000000000000012E-004   -1.569758157026367E-026
  1.000000000000001E-003   -1.008147180444932E-026
  1.100000000000001E-003   -1.996363775671397E-027
  1.200000000000001E-003    8.191478183094699E-027
  1.300000000000001E-003    1.979746374024764E-026
  1.400000000000001E-003    3.182786525156858E-026
  1.500000000000001E-003    4.302471163726177E-026
  1.600000000000001E-003    5.194855512089665E-026
  1.700000000000001E-003    5.709770963089786E-026
  1.800000000000001E-003    5.705860167536588E-026
  1.900000000000001E-003    5.067768918847778E-026
  2.000000000000001E-003    3.724127411976675E-026
  2.100000000000001E-003    1.664620756357270E-026
  2.200000000000001E-003   -1.045821677662031E-026
  2.300000000000001E-003   -4.257776711188843E-026
  2.400000000000001E-003   -7.735020304539173E-026
  2.500000000000001E-003   -1.116086094404494E-025
  2.600000000000001E-003   -1.415430802697913E-025
  2.700000000000001E-003   -1.629650829286985E-025
  2.800000000000001E-003   -1.716691389103824E-025
  2.900000000000001E-003   -1.638752414149008E-025
  3.000000000000001E-003   -1.367232638450100E-025
  3.100000000000001E-003   -8.877869659900719E-026
  3.200000000000001E-003   -2.049880755356202E-026
  3.300000000000001E-003    6.539909711682016E-026
  3.400000000000001E-003    1.637281643287272E-025
  3.500000000000001E-003    2.668388828413229E-025
  3.600000000000001E-003    3.648893740138760E-025
  3.700000000000001E-003    4.464087145041738E-025
  3.800000000000001E-003    4.991566023725662E-025
  3.900000000000001E-003    5.112527159434530E-025
  4.000000000000001E-003    4.725122494277495E-025
  4.100000000000001E-003    3.758887245366578E-025
  4.200000000000001E-003    2.188914607429804E-025
  4.300000000000001E-003    4.820188971984898E-027
  4.400000000000001E-003   -2.563562743137410E-025
  4.500000000000001E-003   -5.476446681854081E-025
  4.600000000000002E-003   -8.453437081491286E-025
  4.700000000000001E-003   -1.120135391728099E-024
  4.800000000000001E-003   -1.338993085326164E-024
  4.900000000000002E-003   -1.467865322164399E-024
  5.000000000000001E-003   -1.475005214949885E-024
  5.100000000000001E-003   -1.334717421223415E-024
  5.200000000000001E-003   -1.031207391418766E-024
  5.300000000000002E-003   -5.621454961748448E-025
  5.400000000000001E-003    5.848172096226976E-026
  5.500000000000001E-003    7.986648025799498E-025
  5.600000000000002E-003    1.608198260742660E-024
  5.700000000000001E-003    2.420335391106987E-024
  5.800000000000001E-003    3.155428068814185E-024
  5.900000000000002E-003    3.726525442808920E-024
  6.000000000000001E-003    4.046700017383380E-024
  6.100000000000001E-003    4.037651799522328E-024
  6.200000000000002E-003    3.638937310977254E-024
  6.300000000000002E-003    2.817002605504154E-024
  6.400000000000001E-003    1.573091212838021E-024
  6.500000000000001E-003   -5.093063254531313E-026
  6.600000000000002E-003   -1.969733155632545E-024
  6.700000000000001E-003   -4.055391166299123E-024
  6.800000000000001E-003   -6.142446663430767E-024
  6.900000000000002E-003   -8.037303389248035E-024
  7.000000000000001E-003   -9.531699263480346E-024
  7.100000000000001E-003   -1.041958116533595E-023
  7.200000000000002E-003   -1.051630810105149E-023
  7.300000000000002E-003   -9.678745884554437E-024
  7.400000000000001E-003   -7.824570322460217E-024
  7.500000000000001E-003   -4.948941267738039E-024
  7.600000000000002E-003   -1.136742413000863E-024
  7.700000000000001E-003    3.431272596551306E-024
  7.800000000000001E-003    8.479724704867482E-024
  7.900000000000001E-003    1.364811240711431E-023
  8.000000000000002E-003    1.850881720617381E-023
  8.100000000000001E-003    2.259322983726596E-023
  8.200000000000001E-003    2.542490190260586E-023
  8.300000000000002E-003    2.655797443933427E-023
  8.400000000000001E-003    2.561851882840991E-023
  8.500000000000002E-003    2.234595227736125E-023
  8.600000000000002E-003    1.663133230272547E-023
  8.700000000000001E-003    8.549189339039556E-024
  8.800000000000002E-003   -1.620375771173299E-024
  8.900000000000002E-003   -1.338235899080132E-023
  9.000000000000001E-003   -2.603279473526295E-023
  9.100000000000002E-003   -3.868172476317587E-023
  9.200000000000002E-003   -5.029403927340273E-023
  9.300000000000001E-003   -5.974787955869986E-023
  9.400000000000002E-003   -6.590895711406522E-023
  9.500000000000001E-003   -6.771783039883238E-023
  9.600000000000001E-003   -6.428562909561152E-023
  9.700000000000002E-003   -5.499248322828946E-023
  9.800000000000001E-003   -3.958159837630552E-023
  9.900000000000001E-003   -1.824104876351061E-023
  1.000000000000000E-002    8.335027651052238E-024
  1.010000000000000E-002    3.891424541251406E-023
  1.020000000000000E-002    7.173029898317837E-023
  1.030000000000000E-002    1.045299744260211E-022
  1.040000000000000E-002    1.346666578597658E-022
  1.050000000000000E-002    1.592412857108703E-022
  1.060000000000000E-002    1.752880407083527E-022
  1.070000000000000E-002    1.799981439082421E-022
  1.080000000000000E-002    1.709707324962461E-022
  1.090000000000000E-002    1.464760043113244E-022
  1.100000000000000E-002    1.057118750249653E-022
  1.110000000000000E-002    4.903288178570712E-023
  1.120000000000000E-002   -2.187159115157008E-023
  1.130000000000000E-002   -1.038727113513361E-022
  1.140000000000000E-002   -1.923924619550528E-022
  1.150000000000000E-002   -2.815063476373012E-022
  1.160000000000000E-002   -3.641705693521372E-022
  1.170000000000000E-002   -4.325780915592340E-022
  1.180000000000000E-002   -4.786392624235194E-022
  1.190000000000000E-002   -4.945719555223832E-022
  1.200000000000000E-002   -4.735752858733643E-022
  1.210000000000000E-002   -4.105498642555713E-022
  1.220000000000000E-002   -3.028169182795607E-022
  1.230000000000000E-002   -1.507798578253438E-022
  1.240000000000000E-002    4.153435607323772E-023
  1.250000000000000E-002    2.661199871229990E-022
  1.260000000000000E-002    5.108869575949398E-022
  1.270000000000000E-002    7.598619916109406E-022
  1.280000000000000E-002    9.937401035244079E-022
  1.290000000000000E-002    1.190810891170984E-021
  1.300000000000000E-002    1.328258498670135E-021
  1.310000000000000E-002    1.383803602214376E-021
  1.320000000000000E-002    1.337620270917852E-021
  1.330000000000000E-002    1.174424306912553E-021
  1.340000000000000E-002    8.855936088221019E-022
  1.350000000000000E-002    4.711501437714343E-022
  1.360000000000000E-002   -5.859145040694963E-023
  1.370000000000000E-002   -6.819125967720975E-022
  1.380000000000000E-002   -1.365318752598205E-021
  1.390000000000000E-002   -2.064082349861035E-021
  1.400000000000000E-002   -2.723835057764190E-021
  1.410000000000000E-002   -3.283276631695453E-021
  1.420000000000000E-002   -3.677983897455124E-021
  1.430000000000000E-002   -3.845205910100267E-021
  1.440000000000000E-002   -3.729419676139050E-021
  1.450000000000000E-002   -3.288314444351387E-021
  1.460000000000000E-002   -2.498769636844774E-021
  1.470000000000000E-002   -1.362312394621992E-021
  1.480000000000000E-002    9.050817755256424E-023
  1.490000000000000E-002    1.797407882991738E-021
  1.500000000000000E-002    3.663842428093939E-021
  1.510000000000000E-002    5.565116344878929E-021
  1.520000000000000E-002    7.351411290603981E-021
  1.530000000000000E-002    8.855825398317994E-021
  1.540000000000000E-002    9.905269143763567E-021
  1.550000000000000E-002    1.033379099825901E-020
  1.560000000000000E-002    9.997626890922828E-021
  1.570000000000000E-002    8.790999394128801E-021
  1.580000000000000E-002    6.661459508068814E-021
  1.590000000000000E-002    3.623403525041575E-021
  1.600000000000000E-002   -2.316787935016792E-022
  1.610000000000000E-002   -4.729636989621265E-021
  1.620000000000000E-002   -9.614024964125395E-021
  1.630000000000000E-002   -1.455335587151452E-020
  1.640000000000000E-002   -1.915578523482770E-020
  1.650000000000000E-002   -2.299123225252628E-020
  1.660000000000000E-002   -2.562031957329875E-020
  1.670000000000000E-002   -2.662885136801686E-020
  1.680000000000000E-002   -2.566586772123118E-020
  1.690000000000000E-002   -2.248272185621260E-020
  1.700000000000000E-002   -1.697009235037397E-020
  1.710000000000000E-002   -9.189565595451780E-021
  1.720000000000000E-002    6.037004099240822E-022
  1.730000000000000E-002    1.195052410559651E-020
  1.740000000000000E-002    2.419223950178626E-020
  1.750000000000000E-002    3.649224209931504E-020
  1.760000000000000E-002    4.787544382087920E-020
  1.770000000000000E-002    5.728520067036029E-020
  1.780000000000000E-002    6.365576853588581E-020
  1.790000000000000E-002    6.599679357662446E-020
  1.800000000000000E-002    6.348478684780744E-020
  1.810000000000000E-002    5.555519806865328E-020
  1.820000000000000E-002    4.198770932317084E-020
  1.830000000000000E-002    2.297681137674024E-020
  1.840000000000000E-002   -8.202722171193008E-022
  1.850000000000000E-002   -2.826556858575950E-020
  1.860000000000000E-002   -5.775811786292249E-020
  1.870000000000000E-002   -8.729138861899618E-020