 -4.000000000000000E-002    0.000000000000000E+000
 -3.990000000000000E-002    0.000000000000000E+000
 -3.980000000000000E-002    0.000000000000000E+000
 -3.970000000000000E-002    0.000000000000000E+000
 -3.960000000000000E-002    0.000000000000000E+000
 -3.950000000000000E-002    0.000000000000000E+000
 -3.940000000000000E-002    0.000000000000000E+000
 -3.930000000000000E-002    0.000000000000000E+000
 -3.920000000000000E-002    0.000000000000000E+000
 -3.910000000000000E-002    0.000000000000000E+000
 -3.900000000000000E-002    0.000000000000000E+000
 -3.890000000000000E-002    0.000000000000000E+000
 -3.880000000000000E-002   -6.217121817915443E-043
 -3.870000000000000E-002   -1.742202499563219E-041
 -3.860000000000000E-002   -2.477882956370974E-040
 -3.850000000000000E-002   -2.389987776137610E-039
 -3.840000000000000E-002   -1.760836936770332E-038
 -3.830000000000000E-002   -1.057712289511407E-037
 -3.820000000000000E-002   -5.397627445027439E-037
 -3.810000000000000E-002   -2.407076761578941E-036
 -3.800000000000000E-002   -9.575052183067332E-036
 -3.790000000000000E-002   -3.450665544265371E-035
 -3.780000000000000E-002   -1.140353533214566E-034
 -3.770000000000000E-002   -3.489438552007371E-034
 -3.760000000000000E-002   -9.964803606224779E-034
 -3.750000000000000E-002   -2.672970120351381E-033
 -3.740000000000000E-002   -6.771271964225332E-033
 -3.730000000000000E-002   -1.627225904828931E-032
 -3.720000000000000E-002   -3.723492370771127E-032
 -3.710000000000000E-002   -8.137962657487304E-032
 -3.700000000000000E-002   -1.703019070829935E-031
 -3.690000000000000E-002   -3.418897528184426E-031
 -3.680000000000000E-002   -6.592984128722450E-031
 -3.670000000000000E-002   -1.222059262057347E-030
 -3.660000000000000E-002   -2.177055905835047E-030
 -3.650000000000000E-002   -3.723422498369466E-030
 -3.640000000000000E-002   -6.098848536969422E-030
 -3.630000000000000E-002   -9.524034658133917E-030
 -3.620000000000000E-002   -1.406591363073727E-029
 -3.610000000000000E-002   -1.935817945190383E-029
 -3.600000000000000E-002   -2.409085172896046E-029
 -3.590000000000000E-002   -2.515386756671270E-029
 -3.580000000000000E-002   -1.630378898878249E-029
 -3.570000000000000E-002    1.376240074615733E-029
 -3.560000000000000E-002    8.396493885365108E-029
 -3.550000000000000E-002    2.238833853902618E-028
 -3.540000000000000E-002    4.767844597419201E-028
 -3.530000000000000E-002    9.015569512033594E-028
 -3.520000000000000E-002    1.571615866723041E-027
 -3.510000000000000E-002    2.567686953683826E-027
 -3.500000000000000E-002    3.960014480182301E-027
 -3.490000000000000E-002    5.774159710282172E-027
 -3.480000000000000E-002    7.933576580904648E-027
 -3.470000000000000E-002    1.017225305040196E-026
 -3.460000000000000E-002    1.191281731401067E-026
 -3.450000000000000E-002    1.211087902199956E-026
 -3.440000000000000E-002    9.076348566847055E-027
 -3.430000000000000E-002    2.982776482981290E-028
 -3.420000000000000E-002   -1.767776599958749E-026
 -3.410000000000000E-002   -4.924217072266554E-026
 -3.400000000000000E-002   -9.947317441821620E-026
 -3.390000000000000E-002   -1.735058100050369E-025
 -3.380000000000000E-002   -2.753521726406595E-025
 -3.370000000000000E-002   -4.060049776044288E-025
 -3.360000000000000E-002   -5.606894256183317E-025
 -3.350000000000000E-002   -7.252169540245926E-025
 -3.340000000000000E-002   -8.715543172772834E-025
 -3.330000000000000E-002   -9.529705277844418E-025
 -3.320000000000000E-002   -8.994680596062942E-025
 -3.310000000000000E-002   -6.146373092215108E-025
 -3.300000000000000E-002    2.443882642865448E-026
 -3.290000000000000E-002    1.162111029572485E-024
 -3.280000000000000E-002    2.951409773074908E-024
 -3.270000000000000E-002    5.530930999871999E-024
 -3.260000000000000E-002    8.988903694433566E-024
 -3.250000000000000E-002    1.331279747118276E-023
 -3.240000000000000E-002    1.832440584815393E-023
 -3.230000000000000E-002    2.360289413036153E-023
 -3.220000000000000E-002    2.840188288999501E-023
 -3.210000000000000E-002    3.157125348920975E-023
 -3.200000000000000E-002    3.149980406851457E-023
 -3.190000000000000E-002    2.610067286263494E-023
 -3.180000000000000E-002    1.286683134291399E-023
 -3.170000000000000E-002   -1.097212483234150E-023
 -3.160000000000000E-002   -4.815976291148976E-023
 -3.150000000000000E-002   -1.009606807069340E-022
 -3.140000000000000E-002   -1.705283206485419E-022
 -3.130000000000000E-002   -2.560929448901368E-022
 -3.120000000000000E-002   -3.539984761304283E-022
 -3.110000000000000E-002   -4.566552148377466E-022
 -3.100000000000000E-002   -5.515237663633039E-022
 -3.090000000000000E-002   -6.203001129208007E-022
 -3.080000000000000E-002   -6.385285586139026E-022
 -3.070000000000000E-002   -5.759195073527076E-022
 -3.060000000000000E-002   -3.976832816160492E-022
 -3.050000000000000E-002   -6.719277128112959E-023
 -3.040000000000000E-002    4.497534317658989E-022
 -3.030000000000000E-002    1.178900761850206E-021
 -3.020000000000000E-002    2.129751463687605E-021
 -3.010000000000000E-002    3.286292986013199E-021
 -3.000000000000000E-002    4.596852871455182E-021
 -2.990000000000000E-002    5.964101026359087E-021
 -2.980000000000000E-002    7.236665773340878E-021
 -2.970000000000000E-002    8.204252691578750E-021
 -2.960000000000000E-002    8.598509746326368E-021
 -2.950000000000000E-002    8.102049746217150E-021
 -2.940000000000000E-002    6.367950014452551E-021
 -2.930000000000000E-002    3.051583919737976E-021
 -2.920000000000000E-002   -2.144277729563914E-021
 -2.910000000000000E-002   -9.411576548944775E-021
 -2.900000000000000E-002   -1.876868621781968E-020
 -2.890000000000000E-002   -2.998649370702711E-020
 -2.880000000000000E-002   -4.251619103171951E-020
 -2.870000000000000E-002   -5.542871585164584E-020
 -2.860000000000000E-002   -6.737799659583938E-020
 -2.850000000000000E-002   -7.660153776989368E-020
 -2.840000000000000E-002   -8.097198008165500E-020
 -2.830000000000000E-002   -7.811159872086455E-020
 -2.820000000000000E-002   -6.557785673387183E-020
 -2.810000000000000E-002   -4.112197127076818E-020
 -2.800000000000000E-002   -3.014021870733631E-021
 -2.790000000000000E-002    4.958223483683941E-020
 -2.780000000000000E-002    1.162131360434520E-019
 -2.770000000000000E-002    1.947571940665639E-019
 -2.760000000000000E-002    2.811149064353008E-019
 -2.750000000000000E-002    3.690226965118472E-019
 -2.740000000000000E-002    4.500484673086319E-019
 -2.730000000000000E-002    5.138216372736198E-019
 -2.720000000000000E-002    5.485374731492221E-019
 -2.710000000000000E-002    5.417546723082415E-019
 -2.700000000000000E-002    4.814770237932486E-019
 -2.690000000000000E-002    3.574751240455821E-019
 -2.680000000000000E-002    1.627675857450763E-019
 -2.670000000000000E-002   -1.048554796530307E-019
 -2.660000000000000E-002   -4.414145301320608E-019
 -2.650000000000000E-002   -8.355957193960269E-019
 -2.640000000000000E-002   -1.268051551894770E-018
 -2.630000000000000E-002   -1.711307037004096E-018
 -2.620000000000000E-002   -2.130395240581945E-018
 -2.610000000000000E-002   -2.484295491069129E-018
 -2.600000000000000E-002   -2.728174805569612E-018
 -2.590000000000000E-002   -2.816356728321448E-018
 -2.580000000000000E-002   -2.705855904982381E-018
 -2.570000000000000E-002   -2.360247550001756E-018
 -2.560000000000000E-002   -1.753581805058635E-018
 -2.550000000000000E-002   -8.740267581368236E-019
 -2.540000000000000E-002    2.730719396884323E-019
 -2.530000000000000E-002    1.662986515116347E-018
 -2.520000000000000E-002    3.250459291850864E-018
 -2.510000000000000E-002    4.969713415413122E-018
 -2.500000000000000E-002    6.735624957091384E-018
 -2.490000000000000E-002    8.445957700826947E-018
 -2.480000000000000E-002    9.984490486573917E-018
 -2.470000000000000E-002    1.122483838319141E-017
 -2.460000000000000E-002    1.203478689828778E-017
 -2.450000000000000E-002    1.228103389712208E-017
 -2.440000000000000E-002    1.183435485723987E-017
 -2.430000000000000E-002    1.057534413911778E-017
 -2.420000000000000E-002    8.401021451150301E-018
 -2.410000000000000E-002    5.232671104573567E-018
 -2.400000000000000E-002    1.025280769342737E-018
 -2.390000000000000E-002   -4.221191128378295E-018
 -2.380000000000000E-002   -1.044877080170670E-017
 -2.370000000000000E-002   -1.752713661234164E-017
 -2.360000000000000E-002   -2.523904845938779E-017
 -2.350000000000000E-002   -3.326721031391788E-017
 -2.340000000000000E-002   -4.118487684760487E-017
 -2.330000000000000E-002   -4.845294940323979E-017
 -2.320000000000000E-002   -5.442659561190808E-017
 -2.310000000000000E-002   -5.837425248945600E-017
 -2.300000000000000E-002   -5.951128062508378E-017
 -2.290000000000000E-002   -5.704943712540883E-017
 -2.280000000000000E-002   -5.026171438820950E-017
 -2.270000000000000E-002   -3.856007543122123E-017
 -2.260000000000000E-002   -2.158140059882047E-017
 -2.250000000000000E-002    7.252833850991774E-019
 -2.240000000000000E-002    2.801911245101901E-017
 -2.230000000000000E-002    5.950529080862688E-017
 -2.220000000000000E-002    9.390093751113751E-017
 -2.210000000000000E-002    1.294382523731170E-016
 -2.200000000000000E-002    1.639121768158496E-016
 -2.190000000000000E-002    1.947761916081482E-016
 -2.180000000000000E-002    2.192849917072055E-016
 -2.170000000000000E-002    2.346778857769761E-016
 -2.160000000000000E-002    2.383907543294388E-016
 -2.150000000000000E-002    2.282799366322999E-016
 -2.140000000000000E-002    2.028375695763340E-016
 -2.130000000000000E-002    1.613762430963943E-016
 -2.120000000000000E-002    1.041617795670658E-016
 -2.110000000000000E-002    3.247644239358412E-017
 -2.100000000000000E-002   -5.139876154713928E-017
 -2.090000000000000E-002   -1.442856032763532E-016
 -2.080000000000000E-002   -2.422869688167365E-016
 -2.070000000000000E-002   -3.410249161403498E-016
 -2.060000000000000E-002   -4.359122768585261E-016
 -2.050000000000000E-002   -5.224257120828026E-016
 -2.040000000000000E-002   -5.963450193188553E-016
 -2.030000000000000E-002   -6.539269616863877E-016
 -2.020000000000000E-002   -6.919885115186450E-016
 -2.010000000000000E-002   -7.078879190725111E-016
 -2.000000000000000E-002   -6.994078055647111E-016
 -1.990000000000000E-002   -6.645640172297744E-016
 -1.980000000000000E-002   -6.013809608798383E-016
 -1.970000000000000E-002   -5.076898099632286E-016
 -1.960000000000000E-002   -3.810146711485380E-016
 -1.950000000000000E-002   -2.186116934755213E-016
 -1.940000000000000E-002   -1.771609648100327E-017
 -1.930000000000000E-002    2.239685561867844E-016
 -1.920000000000000E-002    5.075359193178171E-016
 -1.910000000000000E-002    8.319326460211696E-016
 -1.900000000000000E-002    1.192881814816566E-015
 -1.890000000000000E-002    1.581792003296893E-015
 -1.880000000000000E-002    1.984804072526603E-015
 -1.870000000000000E-002    2.382145525525734E-015
 -1.860000000000000E-002    2.747967591437841E-015
 -1.850000000000000E-002    3.050816701834155E-015
 -1.840000000000000E-002    3.254849349976726E-015
 -1.830000000000000E-002    3.321836507912681E-015
 -1.820000000000000E-002    3.213916183237651E-015
 -1.810000000000000E-002    2.896965313219270E-015
 -1.800000000000000E-002    2.344364938350657E-015
 -1.790000000000000E-002    1.540851092659350E-015
 -1.780000000000000E-002    4.860866538690315E-016
 -1.770000000000000E-002   -8.024440601952626E-016
 -1.760000000000000E-002   -2.287599193561829E-015
 -1.750000000000000E-002   -3.912129014486952E-015
 -1.740000000000000E-002   -5.599841007635215E-015
 -1.730000000000000E-002   -7.258472352713493E-015
 -1.720000000000000E-002   -8.784206593808922E-015
 -1.710000000000000E-002   -1.006759636671010E-014
 -1.700000000000000E-002   -1.100050673512483E-014
 -1.690000000000000E-002   -1.148354697406128E-014
 -1.680000000000000E-002   -1.143339147342103E-014
 -1.670000000000000E-002   -1.078936305752055E-014
 -1.660000000000000E-002   -9.518687523620775E-015
 -1.650000000000000E-002   -7.619955536440677E-015
 -1.640000000000000E-002   -5.124487507039587E-015
 -1.630000000000000E-002   -2.095514603059327E-015
 -1.620000000000000E-002    1.374684459401272E-015
 -1.610000000000000E-002    5.169329956094412E-015
 -1.600000000000000E-002    9.152831405823763E-015
 -1.590000000000000E-002    1.317697965310254E-014
 -1.580000000000000E-002    1.708695380146894E-014
 -1.570000000000000E-002    2.072655089067151E-014
 -1.560000000000000E-002    2.394219915728563E-014
 -1.550000000000000E-002    2.658554990638460E-014
 -1.540000000000000E-002    2.851476581513480E-014
 -1.530000000000000E-002    2.959488001665881E-014
 -1.520000000000000E-002    2.969791865170281E-014
 -1.510000000000000E-002    2.870362407042564E-014
 -1.500000000000000E-002    2.650170069597987E-014
 -1.490000000000000E-002    2.299641395366445E-014
 -1.480000000000000E-002    1.811414293510569E-014
 -1.470000000000000E-002    1.181407261518941E-014
 -1.460000000000000E-002    4.101713223722059E-015
 -1.450000000000000E-002   -4.955629883857316E-015
 -1.440000000000000E-002   -1.521291383283323E-014
 -1.430000000000000E-002   -2.643287306404029E-014
 -1.420000000000000E-002   -3.827526364484305E-014
 -1.410000000000000E-002   -5.029220329859653E-014
 -1.400000000000000E-002   -6.193176501546928E-014
 -1.390000000000000E-002   -7.255152759337528E-014
 -1.380000000000000E-002   -8.144298214059037E-014
 -1.370000000000000E-002   -8.786671956489984E-014
 -1.360000000000000E-002   -9.109716683553886E-014
 -1.350000000000000E-002   -9.047444248151793E-014
 -1.340000000000000E-002   -8.545989994617496E-014
 -1.330000000000000E-002   -7.569096357631166E-014
 -1.320000000000000E-002   -6.103051067631697E-014
 -1.310000000000000E-002   -4.160589311550061E-014
 -1.300000000000000E-002   -1.783322208632976E-014
 -1.290000000000000E-002    9.576615838815374E-015
 -1.280000000000000E-002    3.963230931614817E-014
 -1.270000000000000E-002    7.109734120262335E-014
 -1.260000000000000E-002    1.025447743856323E-013
 -1.250000000000000E-002    1.324284848901481E-013
 -1.240000000000000E-002    1.591661989682847E-013
 -1.230000000000000E-002    1.812285250989453E-013
 -1.220000000000000E-002    1.972275744114177E-013
 -1.210000000000000E-002    2.059987637177381E-013
 -1.200000000000000E-002    2.066698391512965E-013
 -1.190000000000000E-002    1.987127387701777E-013
 -1.180000000000000E-002    1.819749473897657E-013
 -1.170000000000000E-002    1.566893999670284E-013
 -1.160000000000000E-002    1.234635322591503E-013
 -1.150000000000000E-002    8.324986918546975E-014
 -1.140000000000000E-002    3.730188522369333E-014
 -1.130000000000000E-002   -1.288038972671970E-014
 -1.120000000000000E-002   -6.561044068503772E-014
 -1.110000000000000E-002   -1.190767645159580E-013
 -1.100000000000000E-002   -1.714025731275031E-013
 -1.090000000000000E-002   -2.207017939357209E-013
 -1.080000000000000E-002   -2.651306990651513E-013
 -1.070000000000000E-002   -3.029360954904690E-013
 -1.060000000000000E-002   -3.325014746374651E-013
 -1.050000000000000E-002   -3.523932862483217E-013
 -1.040000000000000E-002   -3.614090016233523E-013
 -1.030000000000000E-002   -3.586278868963565E-013
 -1.020000000000000E-002   -3.434638282896226E-013
 -1.010000000000000E-002   -3.157178865835243E-013
 -1.000000000000000E-002   -2.756265257621115E-013
 -9.899999999999999E-003   -2.238997187613250E-013
 -9.800000000000000E-003   -1.617426048829144E-013
 -9.699999999999999E-003   -9.085389127307104E-014
 -9.599999999999999E-003   -1.339550883220245E-014
 -9.500000000000000E-003    6.807033846303566E-014
 -9.399999999999999E-003    1.506774397101192E-013
 -9.299999999999999E-003    2.313827177361775E-013
 -9.200000000000000E-003    3.071177239712576E-013
 -9.099999999999999E-003    3.749549859696145E-013
 -8.999999999999999E-003    4.322765720700632E-013
 -8.900000000000000E-003    4.769310062800432E-013
 -8.799999999999999E-003    5.073641643328989E-013
 -8.699999999999999E-003    5.227117192662641E-013
 -8.600000000000000E-003    5.228432954082318E-013
 -8.499999999999999E-003    5.083528681613109E-013
 -8.399999999999999E-003    4.804949165249250E-013
 -8.300000000000000E-003    4.410713446992527E-013
 -8.199999999999999E-003    3.922784646363295E-013
 -8.100000000000000E-003    3.365275572618702E-013
 -8.000000000000000E-003    2.762547941345669E-013
 -7.899999999999999E-003    2.137364354216246E-013
 -7.800000000000000E-003    1.509245809167504E-013
 -7.699999999999999E-003    8.931499118410525E-014
 -7.599999999999999E-003    2.985525287587027E-014
 -7.499999999999999E-003   -2.710326588444989E-014
 -7.399999999999999E-003   -8.181070661403922E-014
 -7.299999999999999E-003   -1.350853466112639E-013
 -7.199999999999999E-003   -1.882476988399831E-013
 -7.100000000000000E-003   -2.430285912652886E-013
 -6.999999999999999E-003   -3.014560899313916E-013
 -6.899999999999999E-003   -3.657235141432808E-013
 -6.800000000000000E-003   -4.380374405140867E-013
 -6.699999999999999E-003   -5.204416972956573E-013
 -6.599999999999999E-003   -6.146113601858088E-013
 -6.499999999999999E-003   -7.216119244191157E-013
 -6.399999999999999E-003   -8.416209786543765E-013
 -6.299999999999999E-003   -9.736180335744518E-013
 -6.199999999999999E-003   -1.115055331255634E-012
 -6.100000000000000E-003   -1.261534858271619E-012
 -5.999999999999999E-003   -1.406527726943369E-012
 -5.899999999999999E-003   -1.541181344131309E-012
 -5.800000000000000E-003   -1.654267251702597E-012
 -5.699999999999999E-003   -1.732323165502500E-012
 -5.599999999999999E-003   -1.760035317984634E-012
 -5.499999999999999E-003   -1.720896027799375E-012
 -5.399999999999999E-003   -1.598147246805032E-012
 -5.299999999999999E-003   -1.375994212595304E-012
 -5.199999999999999E-003   -1.041040154716554E-012
 -5.099999999999999E-003   -5.838608164230457E-013
 -4.999999999999999E-003   -6.039099800395473E-016
 -4.899999999999999E-003    7.055218821604938E-013
 -4.799999999999999E-003    1.523020170432122E-012
 -4.699999999999999E-003    2.431291419112831E-012
 -4.599999999999999E-003    3.400364622000976E-012
 -4.499999999999999E-003    4.391277065050936E-012
 -4.399999999999999E-003    5.357160390684498E-012
 -4.299999999999999E-003    6.245033286092145E-012
 -4.199999999999999E-003    6.998237749906275E-012
 -4.099999999999999E-003    7.559397338214562E-012
 -3.999999999999999E-003    7.873717953439564E-012
 -3.899999999999999E-003    7.892411958402243E-012
 -3.799999999999999E-003    7.576004258056108E-012
 -3.699999999999999E-003    6.897277403716029E-012
 -3.599999999999999E-003    5.843635875924862E-012
 -3.499999999999999E-003    4.418716073331348E-012
 -3.399999999999999E-003    2.643127659246465E-012
 -3.299999999999999E-003    5.542897182373825E-013
 -3.199999999999999E-003   -1.794598980525217E-012
 -3.099999999999999E-003   -4.336347249464844E-012
 -2.999999999999999E-003   -6.992143159959431E-012
 -2.899999999999999E-003   -9.674308966523225E-012
 -2.799999999999999E-003   -1.228921557765864E-011
 -2.699999999999999E-003   -1.474015733208762E-011
 -2.599999999999999E-003   -1.693002440210736E-011
 -2.499999999999999E-003   -1.876367361239745E-011
 -2.399999999999999E-003   -2.014996471048932E-011
 -2.299999999999999E-003   -2.100351840680606E-011
 -2.199999999999999E-003   -2.124630838762363E-011
 -2.099999999999999E-003   -2.080924146540200E-011
 -1.999999999999999E-003   -1.963392365962583E-011
 -1.899999999999999E-003   -1.767476640711525E-011
 -1.799999999999999E-003   -1.490156349684686E-011
 -1.699999999999999E-003   -1.130258481329693E-011
 -1.599999999999999E-003   -6.888129480994696E-012
 -1.499999999999999E-003   -1.694378059188844E-012
 -1.399999999999999E-003    4.212737267526795E-012
 -1.299999999999999E-003    1.073400681575228E-011
 -1.199999999999999E-003    1.773419097961048E-011
 -1.099999999999999E-003    2.504048596841425E-011
 -9.999999999999989E-004    3.244264008805973E-011
 -8.999999999999990E-004    3.969505262353172E-011
 -7.999999999999990E-004    4.652109417809430E-011
 -6.999999999999989E-004    5.261971750036133E-011
 -5.999999999999990E-004    5.767425685576255E-011
 -4.999999999999989E-004    6.136314975017397E-011
 -3.999999999999989E-004    6.337215619878051E-011
 -2.999999999999989E-004    6.340752662450847E-011
 -1.999999999999989E-004    6.120950869719891E-011
 -9.999999999999892E-005    5.656555407531552E-011
  1.084202172485504E-018    4.932264644135266E-011
  1.000000000000011E-004    3.939826874177624E-011
  2.000000000000011E-004    2.678962192851010E-011
  3.000000000000011E-004    1.158092990496565E-011
  4.000000000000011E-004   -6.051244706100808E-012
  5.000000000000011E-004   -2.583463250538836E-011
  6.000000000000011E-004   -4.739962445074847E-011
  7.000000000000011E-004   -7.027928971009241E-011
  8.000000000000011E-004   -9.391087067586190E-011
  9.000000000000012E-004   -1.176388025809103E-010
  1.000000000000001E-003   -1.407194386437291E-010
  1.100000000000001E-003   -1.623278493119957E-010
  1.200000000000001E-003   -1.815673108505796E-010
  1.300000000000001E-003   -1.974822035532206E-010
  1.400000000000001E-003   -2.090753057613711E-010
  1.500000000000001E-003   -2.153301947580173E-010
  1.600000000000001E-003   -2.152396702823862E-010
  1.700000000000001E-003   -2.078405685836626E-010
  1.800000000000001E-003   -1.922551834286635E-010
  1.900000000000001E-003   -1.677387562926174E-010
  2.000000000000001E-003   -1.337319387522951E-010
  2.100000000000001E-003   -8.991677293129580E-011
  2.200000000000001E-003   -3.627337752627639E-011
  2.300000000000001E-003    2.686521170917424E-011
  2.400000000000001E-003    9.876378989562385E-011
  2.500000000000001E-003    1.782448779535510E-010
  2.600000000000001E-003    2.636615030794601E-010
  2.700000000000001E-003    3.528865312796335E-010
  2.800000000000001E-003    4.433213861824853E-010
  2.900000000000001E-003    5.319266322388337E-010
  3.000000000000001E-003    6.152755510667952E-010
  3.100000000000001E-003    6.896311826461180E-010
  3.200000000000001E-003    7.510453864020648E-010
  3.300000000000001E-003    7.954784563958773E-010
  3.400000000000001E-003    8.189349697640488E-010
  3.500000000000001E-003    8.176128387170337E-010
  3.600000000000001E-003    7.880591602373839E-010
  3.700000000000001E-003    7.273290240782693E-010
  3.800000000000001E-003    6.331405030271667E-010
  3.900000000000001E-003    5.040217464374054E-010
  4.000000000000001E-003    3.394443062147348E-010
  4.100000000000001E-003    1.399393713001863E-010
  4.200000000000001E-003   -9.280642076086680E-011
  4.300000000000001E-003   -3.558777641189180E-010
  4.400000000000001E-003   -6.450821008938649E-010
  4.500000000000001E-003   -9.549259886107109E-010
  4.600000000000002E-003   -1.278616966833143E-009
  4.700000000000001E-003   -1.608091183133275E-009
  4.800000000000001E-003   -1.934067701612855E-009
  4.900000000000002E-003   -2.246129626517207E-009
  5.000000000000001E-003   -2.532834381529703E-009
  5.100000000000001E-003   -2.781856019739725E-009
  5.200000000000001E-003   -2.980161706877368E-009
  5.300000000000002E-003   -3.114227597456183E-009
  5.400000000000001E-003   -3.170297723243996E-009
  5.500000000000001E-003   -3.134690851040717E-009
  5.600000000000002E-003   -2.994158417058136E-009
  5.700000000000001E-003   -2.736296870349983E-009
  5.800000000000001E-003   -2.350012701237133E-009
  5.900000000000002E-003   -1.826039187774964E-009
  6.000000000000001E-003   -1.157497880971599E-009
  6.100000000000001E-003   -3.404945960561004E-010
  6.200000000000002E-003    6.252643358575763E-010
  6.300000000000002E-003    1.735855376534151E-009
  6.400000000000001E-003    2.982540944937899E-009
  6.500000000000001E-003    4.351223355566399E-009
  6.600000000000002E-003    5.821975333175440E-009
  6.700000000000001E-003    7.368680898370587E-009
  6.800000000000001E-003    8.958818447073434E-009
  6.900000000000002E-003    1.055341749079931E-008
  7.000000000000001E-003    1.210722078755720E-008
  7.100000000000001E-003    1.356907912594740E-008
  7.200000000000002E-003    1.488260023243393E-008
  7.300000000000002E-003    1.598707671177762E-008
  7.400000000000001E-003    1.681869601689130E-008
  7.500000000000001E-003    1.731205153229893E-008
  7.600000000000002E-003    1.740194870666166E-008
  7.700000000000001E-003    1.702550124675735E-008
  7.800000000000001E-003    1.612450955417956E-008
  7.900000000000001E-003    1.464810000424221E-008
  8.000000000000002E-003    1.255561031459473E-008
  8.100000000000001E-003    9.819679255534542E-009
  8.200000000000001E-003    6.429527938532567E-009
  8.300000000000002E-003    2.394375105328208E-009
  8.400000000000001E-003   -2.253041658436550E-009
  8.500000000000002E-003   -7.452889233637665E-009
  8.600000000000002E-003   -1.311465569912415E-008
  8.700000000000001E-003   -1.911361579418608E-008
  8.800000000000002E-003   -2.528739981617564E-008
  8.900000000000002E-003   -3.143271762576089E-008
  9.000000000000001E-003   -3.730231383068654E-008
  9.100000000000002E-003   -4.260220140071825E-008
  9.200000000000002E-003   -4.698920982823963E-008
  9.300000000000001E-003   -5.006896854428290E-008
  9.400000000000002E-003   -5.139426397204986E-008
  9.500000000000001E-003   -5.046391821446472E-008
  9.600000000000001E-003   -4.672213324588938E-008
  9.700000000000002E-003   -3.955836031997262E-008
  9.800000000000001E-003   -2.830764022774004E-008
  9.900000000000001E-003   -1.225144025940732E-008
  1.000000000000000E-002    9.381017451371023E-009
  1.010000000000000E-002    3.741110340462580E-008
  1.020000000000000E-002    7.270877018873378E-008
  1.030000000000000E-002    1.161902630819079E-007
  1.040000000000000E-002    1.688156475096050E-007
  1.050000000000000E-002    2.315862601569081E-007
  1.060000000000000E-002    3.055421535501544E-007
  1.070000000000000E-002    3.917596057162833E-007
  1.080000000000000E-002    4.913486443035342E-007
  1.090000000000000E-002    6.054509293663322E-007
  1.100000000000000E-002    7.352376601171254E-007
  1.110000000000000E-002    8.819078782947815E-007
  1.120000000000000E-002    1.046686871886846E-006
  1.130000000000000E-002    1.230824957490541E-006
  1.140000000000000E-002    1.435596384609303E-006
  1.150000000000000E-002    1.662298157159138E-006
  1.160000000000000E-002    1.912249786332867E-006
  1.170000000000000E-002    2.186792156842195E-006
  1.180000000000000E-002    2.487287572895210E-006
  1.190000000000000E-002    2.815119268527063E-006
  1.200000000000000E-002    3.171691188877506E-006
  1.210000000000000E-002    3.558428759305183E-006
  1.220000000000000E-002    3.976778343951253E-006
  1.230000000000000E-002    4.428209532061611E-006
  1.240000000000000E-002    4.914214941161965E-006
  1.250000000000000E-002    5.436314969989841E-006
  1.260000000000000E-002    5.996058549218481E-006
  1.270000000000000E-002    6.595028522953447E-006
  1.280000000000000E-002    7.234846844671600E-006
  1.290000000000000E-002    7.917181417183854E-006
  1.300000000000000E-002    8.643752440256296E-006
  1.310000000000000E-002    9.416343830843350E-006
  1.320000000000000E-002    1.023681383926431E-005
  1.330000000000000E-002    1.110710650762264E-005
  1.340000000000000E-002    1.202926403235172E-005
  1.350000000000000E-002    1.300544550098274E-005
  1.360000000000000E-002    1.403793852383770E-005
  1.370000000000000E-002    1.512917969319106E-005
  1.380000000000000E-002    1.628176938693793E-005
  1.390000000000000E-002    1.749849040110679E-005
  1.400000000000000E-002    1.878232870929798E-005
  1.410000000000000E-002    2.013648708998549E-005
  1.420000000000000E-002    2.156441089139439E-005
  1.430000000000000E-002    2.306979826559196E-005
  1.440000000000000E-002    2.465662401559949E-005
  1.450000000000000E-002    2.632915167056261E-005
  1.460000000000000E-002    2.809195589213349E-005
  1.470000000000000E-002    2.994993406035365E-005
  1.480000000000000E-002    3.190832458732595E-005
  1.490000000000000E-002    3.397272112472832E-005
  1.500000000000000E-002    3.614908370265046E-005
  1.510000000000000E-002    3.844375903545631E-005
  1.520000000000000E-002    4.086348806803393E-005
  1.530000000000000E-002    4.341542301093968E-005
  1.540000000000000E-002    4.610713615798907E-005
  1.550000000000000E-002    4.894664021297983E-005
  1.560000000000000E-002    5.194238949810981E-005
  1.570000000000000E-002    5.510329687766503E-005
  1.580000000000000E-002    5.843875172929820E-005
  1.590000000000000E-002    6.195861698933982E-005
  1.600000000000000E-002    6.567325427688794E-005
  1.610000000000000E-002    6.959352068990106E-005
  1.620000000000000E-002    7.373080260864342E-005
  1.630000000000000E-002    7.809700334911705E-005
  1.640000000000000E-002    8.270456510668439E-005
  1.650000000000000E-002    8.756648914181983E-005
  1.660000000000000E-002    9.269635090149705E-005
  1.670000000000000E-002    9.810829314135427E-005
  1.680000000000000E-002    1.038170714302217E-004
  1.690000000000000E-002    1.098380689656704E-004
  1.700000000000000E-002    1.161872925321714E-004
  1.710000000000000E-002    1.228814371983306E-004
  1.720000000000000E-002    1.299378770947076E-004
  1.730000000000000E-002    1.373747335389050E-004
  1.740000000000000E-002    1.452108660416491E-004
  1.750000000000000E-002    1.534659344660246E-004
  1.760000000000000E-002    1.621604249949652E-004
  1.770000000000000E-002    1.713157039368165E-004
  1.780000000000000E-002    1.809540329727365E-004
  1.790000000000000E-002    1.910986548003283E-004
  1.800000000000000E-002    2.017737790906285E-004
  1.810000000000000E-002    2.130046658169043E-004
  1.820000000000000E-002    2.248176846395535E-004
  1.830000000000000E-002    2.372403201003317E-004
  1.840000000000000E-002    2.503012490802008E-004
  1.850000000000000E-002    2.640303215936866E-004
  1.860000000000000E-002    2.784587048581252E-004
  1.870000000000000E-002    2.936188563936385E-004