 -4.000000000000000E-002    0.000000000000000E+000
 -3.990000000000000E-002    0.000000000000000E+000
 -3.980000000000000E-002    0.000000000000000E+000
 -3.970000000000000E-002    0.000000000000000E+000
 -3.960000000000000E-002    0.000000000000000E+000
 -3.950000000000000E-002    0.000000000000000E+000
 -3.940000000000000E-002    0.000000000000000E+000
 -3.930000000000000E-002    0.000000000000000E+000
 -3.920000000000000E-002    0.000000000000000E+000
 -3.910000000000000E-002    0.000000000000000E+000
 -3.900000000000000E-002    0.000000000000000E+000
 -3.890000000000000E-002    0.000000000000000E+000
 -3.880000000000000E-002    0.000000000000000E+000
 -3.870000000000000E-002    0.000000000000000E+000
 -3.860000000000000E-002    0.000000000000000E+000
 -3.850000000000000E-002    0.000000000000000E+000
 -3.840000000000000E-002    0.000000000000000E+000
 -3.830000000000000E-002    0.000000000000000E+000
 -3.820000000000000E-002    0.000000000000000E+000
 -3.810000000000000E-002    0.000000000000000E+000
 -3.800000000000000E-002    0.000000000000000E+000
 -3.790000000000000E-002    0.000000000000000E+000
 -3.780000000000000E-002    0.000000000000000E+000
 -3.770000000000000E-002    0.000000000000000E+000
 -3.760000000000000E-002    0.000000000000000E+000
 -3.750000000000000E-002    0.000000000000000E+000
 -3.740000000000000E-002    0.000000000000000E+000
 -3.730000000000000E-002    0.000000000000000E+000
 -3.720000000000000E-002    0.000000000000000E+000
 -3.710000000000000E-002    0.000000000000000E+000
 -3.700000000000000E-002    0.000000000000000E+000
 -3.690000000000000E-002    0.000000000000000E+000
 -3.680000000000000E-002    0.000000000000000E+000
 -3.670000000000000E-002    0.000000000000000E+000
 -3.660000000000000E-002    0.000000000000000E+000
 -3.650000000000000E-002    0.000000000000000E+000
 -3.640000000000000E-002    0.000000000000000E+000
 -3.630000000000000E-002    0.000000000000000E+000
 -3.620000000000000E-002    0.000000000000000E+000
 -3.610000000000000E-002    0.000000000000000E+000
 -3.600000000000000E-002    0.000000000000000E+000
 -3.590000000000000E-002    0.000000000000000E+000
 -3.580000000000000E-002    0.000000000000000E+000
 -3.570000000000000E-002    0.000000000000000E+000
 -3.560000000000000E-002    0.000000000000000E+000
 -3.550000000000000E-002    0.000000000000000E+000
 -3.540000000000000E-002    0.000000000000000E+000
 -3.530000000000000E-002    0.000000000000000E+000
 -3.520000000000000E-002    0.000000000000000E+000
 -3.510000000000000E-002    0.000000000000000E+000
 -3.500000000000000E-002    0.000000000000000E+000
 -3.490000000000000E-002    0.000000000000000E+000
 -3.480000000000000E-002    0.000000000000000E+000
 -3.470000000000000E-002    0.000000000000000E+000
 -3.460000000000000E-002    0.000000000000000E+000
 -3.450000000000000E-002    0.000000000000000E+000
 -3.440000000000000E-002    0.000000000000000E+000
 -3.430000000000000E-002    0.000000000000000E+000
 -3.420000000000000E-002    0.000000000000000E+000
 -3.410000000000000E-002    0.000000000000000E+000
 -3.400000000000000E-002    0.000000000000000E+000
 -3.390000000000000E-002    0.000000000000000E+000
 -3.380000000000000E-002    0.000000000000000E+000
 -3.370000000000000E-002    0.000000000000000E+000
 -3.360000000000000E-002    0.000000000000000E+000
 -3.350000000000000E-002    0.000000000000000E+000
 -3.340000000000000E-002    0.000000000000000E+000
 -3.330000000000000E-002    0.000000000000000E+000
 -3.320000000000000E-002    0.000000000000000E+000
 -3.310000000000000E-002    0.000000000000000E+000
 -3.300000000000000E-002    0.000000000000000E+000
 -3.290000000000000E-002    0.000000000000000E+000
 -3.280000000000000E-002    0.000000000000000E+000
 -3.270000000000000E-002    0.000000000000000E+000
 -3.260000000000000E-002    0.000000000000000E+000
 -3.250000000000000E-002    0.000000000000000E+000
 -3.240000000000000E-002    0.000000000000000E+000
 -3.230000000000000E-002    0.000000000000000E+000
 -3.220000000000000E-002    0.000000000000000E+000
 -3.210000000000000E-002    0.000000000000000E+000
 -3.200000000000000E-002    0.000000000000000E+000
 -3.190000000000000E-002    0.000000000000000E+000
 -3.180000000000000E-002    0.000000000000000E+000
 -3.170000000000000E-002    0.000000000000000E+000
 -3.160000000000000E-002    0.000000000000000E+000
 -3.150000000000000E-002    0.000000000000000E+000
 -3.140000000000000E-002    0.000000000000000E+000
 -3.130000000000000E-002    0.000000000000000E+000
 -3.120000000000000E-002    0.000000000000000E+000
 -3.110000000000000E-002    0.000000000000000E+000
 -3.100000000000000E-002    0.000000000000000E+000
 -3.090000000000000E-002    0.000000000000000E+000
 -3.080000000000000E-002    0.000000000000000E+000
 -3.070000000000000E-002    0.000000000000000E+000
 -3.060000000000000E-002    0.000000000000000E+000
 -3.050000000000000E-002    0.000000000000000E+000
 -3.040000000000000E-002    0.000000000000000E+000
 -3.030000000000000E-002    0.000000000000000E+000
 -3.020000000000000E-002    0.000000000000000E+000
 -3.010000000000000E-002    0.000000000000000E+000
 -3.000000000000000E-002    0.000000000000000E+000
 -2.990000000000000E-002    0.000000000000000E+000
 -2.980000000000000E-002    0.000000000000000E+000
 -2.970000000000000E-002    0.000000000000000E+000
 -2.960000000000000E-002    0.000000000000000E+000
 -2.950000000000000E-002    0.000000000000000E+000
 -2.940000000000000E-002    0.000000000000000E+000
 -2.930000000000000E-002    0.000000000000000E+000
 -2.920000000000000E-002    0.000000000000000E+000
 -2.910000000000000E-002    0.000000000000000E+000
 -2.900000000000000E-002    0.000000000000000E+000
 -2.890000000000000E-002    0.000000000000000E+000
 -2.880000000000000E-002    0.000000000000000E+000
 -2.870000000000000E-002    0.000000000000000E+000
 -2.860000000000000E-002    0.000000000000000E+000
 -2.850000000000000E-002    0.000000000000000E+000
 -2.840000000000000E-002    0.000000000000000E+000
 -2.830000000000000E-002    0.000000000000000E+000
 -2.820000000000000E-002    0.000000000000000E+000
 -2.810000000000000E-002    0.000000000000000E+000
 -2.800000000000000E-002    0.000000000000000E+000
 -2.790000000000000E-002    0.000000000000000E+000
 -2.780000000000000E-002    0.000000000000000E+000
 -2.770000000000000E-002    0.000000000000000E+000
 -2.760000000000000E-002    0.000000000000000E+000
 -2.750000000000000E-002    0.000000000000000E+000
 -2.740000000000000E-002    0.000000000000000E+000
 -2.730000000000000E-002    0.000000000000000E+000
 -2.720000000000000E-002    0.000000000000000E+000
 -2.710000000000000E-002    0.000000000000000E+000
 -2.700000000000000E-002    0.000000000000000E+000
 -2.690000000000000E-002    0.000000000000000E+000
 -2.680000000000000E-002    0.000000000000000E+000
 -2.670000000000000E-002    0.000000000000000E+000
 -2.660000000000000E-002    0.000000000000000E+000
 -2.650000000000000E-002    0.000000000000000E+000
 -2.640000000000000E-002    0.000000000000000E+000
 -2.630000000000000E-002    0.000000000000000E+000
 -2.620000000000000E-002    0.000000000000000E+000
 -2.610000000000000E-002    0.000000000000000E+000
 -2.600000000000000E-002    0.000000000000000E+000
 -2.590000000000000E-002    0.000000000000000E+000
 -2.580000000000000E-002    0.000000000000000E+000
 -2.570000000000000E-002    0.000000000000000E+000
 -2.560000000000000E-002    0.000000000000000E+000
 -2.550000000000000E-002    0.000000000000000E+000
 -2.540000000000000E-002    0.000000000000000E+000
 -2.530000000000000E-002    0.000000000000000E+000
 -2.520000000000000E-002    0.000000000000000E+000
 -2.510000000000000E-002    0.000000000000000E+000
 -2.500000000000000E-002    0.000000000000000E+000
 -2.490000000000000E-002    0.000000000000000E+000
 -2.480000000000000E-002    0.000000000000000E+000
 -2.470000000000000E-002    0.000000000000000E+000
 -2.460000000000000E-002    0.000000000000000E+000
 -2.450000000000000E-002    0.000000000000000E+000
 -2.440000000000000E-002    0.000000000000000E+000
 -2.430000000000000E-002    0.000000000000000E+000
 -2.420000000000000E-002    0.000000000000000E+000
 -2.410000000000000E-002    0.000000000000000E+000
 -2.400000000000000E-002    0.000000000000000E+000
 -2.390000000000000E-002    0.000000000000000E+000
 -2.380000000000000E-002    0.000000000000000E+000
 -2.370000000000000E-002    0.000000000000000E+000
 -2.360000000000000E-002    0.000000000000000E+000
 -2.350000000000000E-002    0.000000000000000E+000
 -2.340000000000000E-002    0.000000000000000E+000
 -2.330000000000000E-002    0.000000000000000E+000
 -2.320000000000000E-002    0.000000000000000E+000
 -2.310000000000000E-002    0.000000000000000E+000
 -2.300000000000000E-002    0.000000000000000E+000
 -2.290000000000000E-002    0.000000000000000E+000
 -2.280000000000000E-002    0.000000000000000E+000
 -2.270000000000000E-002    0.000000000000000E+000
 -2.260000000000000E-002    0.000000000000000E+000
 -2.250000000000000E-002    0.000000000000000E+000
 -2.240000000000000E-002    0.000000000000000E+000
 -2.230000000000000E-002    0.000000000000000E+000
 -2.220000000000000E-002    0.000000000000000E+000
 -2.210000000000000E-002    0.000000000000000E+000
 -2.200000000000000E-002    0.000000000000000E+000
 -2.190000000000000E-002    0.000000000000000E+000
 -2.180000000000000E-002    0.000000000000000E+000
 -2.170000000000000E-002    0.000000000000000E+000
 -2.160000000000000E-002    0.000000000000000E+000
 -2.150000000000000E-002    0.000000000000000E+000
 -2.140000000000000E-002    0.000000000000000E+000
 -2.130000000000000E-002    0.000000000000000E+000
 -2.120000000000000E-002    0.000000000000000E+000
 -2.110000000000000E-002    0.000000000000000E+000
 -2.100000000000000E-002    0.000000000000000E+000
 -2.090000000000000E-002    0.000000000000000E+000
 -2.080000000000000E-002    0.000000000000000E+000
 -2.070000000000000E-002    0.000000000000000E+000
 -2.060000000000000E-002    0.000000000000000E+000
 -2.050000000000000E-002    0.000000000000000E+000
 -2.040000000000000E-002    0.000000000000000E+000
 -2.030000000000000E-002    0.000000000000000E+000
 -2.020000000000000E-002    0.000000000000000E+000
 -2.010000000000000E-002    0.000000000000000E+000
 -2.000000000000000E-002    0.000000000000000E+000
 -1.990000000000000E-002    0.000000000000000E+000
 -1.980000000000000E-002    0.000000000000000E+000
 -1.970000000000000E-002    0.000000000000000E+000
 -1.960000000000000E-002    0.000000000000000E+000
 -1.950000000000000E-002    0.000000000000000E+000
 -1.940000000000000E-002    0.000000000000000E+000
 -1.930000000000000E-002    0.000000000000000E+000
 -1.920000000000000E-002    0.000000000000000E+000
 -1.910000000000000E-002    0.000000000000000E+000
 -1.900000000000000E-002    0.000000000000000E+000
 -1.890000000000000E-002    0.000000000000000E+000
 -1.880000000000000E-002    0.000000000000000E+000
 -1.870000000000000E-002    0.000000000000000E+000
 -1.860000000000000E-002    0.000000000000000E+000
 -1.850000000000000E-002    0.000000000000000E+000
 -1.840000000000000E-002    0.000000000000000E+000
 -1.830000000000000E-002    0.000000000000000E+000
 -1.820000000000000E-002    0.000000000000000E+000
 -1.810000000000000E-002    0.000000000000000E+000
 -1.800000000000000E-002    0.000000000000000E+000
 -1.790000000000000E-002    0.000000000000000E+000
 -1.780000000000000E-002    0.000000000000000E+000
 -1.770000000000000E-002    0.000000000000000E+000
 -1.760000000000000E-002    0.000000000000000E+000
 -1.750000000000000E-002    0.000000000000000E+000
 -1.740000000000000E-002    0.000000000000000E+000
 -1.730000000000000E-002    0.000000000000000E+000
 -1.720000000000000E-002    0.000000000000000E+000
 -1.710000000000000E-002    0.000000000000000E+000
 -1.700000000000000E-002    0.000000000000000E+000
 -1.690000000000000E-002    0.000000000000000E+000
 -1.680000000000000E-002    0.000000000000000E+000
 -1.670000000000000E-002    0.000000000000000E+000
 -1.660000000000000E-002    0.000000000000000E+000
 -1.650000000000000E-002    0.000000000000000E+000
 -1.640000000000000E-002    0.000000000000000E+000
 -1.630000000000000E-002    0.000000000000000E+000
 -1.620000000000000E-002    0.000000000000000E+000
 -1.610000000000000E-002    0.000000000000000E+000
 -1.600000000000000E-002    0.000000000000000E+000
 -1.590000000000000E-002    0.000000000000000E+000
 -1.580000000000000E-002    0.000000000000000E+000
 -1.570000000000000E-002    0.000000000000000E+000
 -1.560000000000000E-002    0.000000000000000E+000
 -1.550000000000000E-002    0.000000000000000E+000
 -1.540000000000000E-002    0.000000000000000E+000
 -1.530000000000000E-002    0.000000000000000E+000
 -1.520000000000000E-002    0.000000000000000E+000
 -1.510000000000000E-002    0.000000000000000E+000
 -1.500000000000000E-002    0.000000000000000E+000
 -1.490000000000000E-002    0.000000000000000E+000
 -1.480000000000000E-002    0.000000000000000E+000
 -1.470000000000000E-002    0.000000000000000E+000
 -1.460000000000000E-002    0.000000000000000E+000
 -1.450000000000000E-002    0.000000000000000E+000
 -1.440000000000000E-002    0.000000000000000E+000
 -1.430000000000000E-002    0.000000000000000E+000
 -1.420000000000000E-002    0.000000000000000E+000
 -1.410000000000000E-002    0.000000000000000E+000
 -1.400000000000000E-002    0.000000000000000E+000
 -1.390000000000000E-002    0.000000000000000E+000
 -1.380000000000000E-002    0.000000000000000E+000
 -1.370000000000000E-002    0.000000000000000E+000
 -1.360000000000000E-002    0.000000000000000E+000
 -1.350000000000000E-002    0.000000000000000E+000
 -1.340000000000000E-002    0.000000000000000E+000
 -1.330000000000000E-002    0.000000000000000E+000
 -1.320000000000000E-002    0.000000000000000E+000
 -1.310000000000000E-002    0.000000000000000E+000
 -1.300000000000000E-002    0.000000000000000E+000
 -1.290000000000000E-002    0.000000000000000E+000
 -1.280000000000000E-002    0.000000000000000E+000
 -1.270000000000000E-002    0.000000000000000E+000
 -1.260000000000000E-002    0.000000000000000E+000
 -1.250000000000000E-002    0.000000000000000E+000
 -1.240000000000000E-002    0.000000000000000E+000
 -1.230000000000000E-002    0.000000000000000E+000
 -1.220000000000000E-002    0.000000000000000E+000
 -1.210000000000000E-002    0.000000000000000E+000
 -1.200000000000000E-002    0.000000000000000E+000
 -1.190000000000000E-002    0.000000000000000E+000
 -1.180000000000000E-002    0.000000000000000E+000
 -1.170000000000000E-002    0.000000000000000E+000
 -1.160000000000000E-002    0.000000000000000E+000
 -1.150000000000000E-002    0.000000000000000E+000
 -1.140000000000000E-002    0.000000000000000E+000
 -1.130000000000000E-002    0.000000000000000E+000
 -1.120000000000000E-002    0.000000000000000E+000
 -1.110000000000000E-002    0.000000000000000E+000
 -1.100000000000000E-002    0.000000000000000E+000
 -1.090000000000000E-002    0.000000000000000E+000
 -1.080000000000000E-002    0.000000000000000E+000
 -1.070000000000000E-002    0.000000000000000E+000
 -1.060000000000000E-002    0.000000000000000E+000
 -1.050000000000000E-002    0.000000000000000E+000
 -1.040000000000000E-002    0.000000000000000E+000
 -1.030000000000000E-002    0.000000000000000E+000
 -1.020000000000000E-002    0.000000000000000E+000
 -1.010000000000000E-002    0.000000000000000E+000
 -1.000000000000000E-002    0.000000000000000E+000
 -9.899999999999999E-003    0.000000000000000E+000
 -9.800000000000000E-003    0.000000000000000E+000
 -9.699999999999999E-003    0.000000000000000E+000
 -9.599999999999999E-003    0.000000000000000E+000
 -9.500000000000000E-003    0.000000000000000E+000
 -9.399999999999999E-003    0.000000000000000E+000
 -9.299999999999999E-003    0.000000000000000E+000
 -9.200000000000000E-003    0.000000000000000E+000
 -9.099999999999999E-003    0.000000000000000E+000
 -8.999999999999999E-003    0.000000000000000E+000
 -8.900000000000000E-003    0.000000000000000E+000
 -8.799999999999999E-003    0.000000000000000E+000
 -8.699999999999999E-003    0.000000000000000E+000
 -8.600000000000000E-003    0.000000000000000E+000
 -8.499999999999999E-003    0.000000000000000E+000
 -8.399999999999999E-003    0.000000000000000E+000
 -8.300000000000000E-003    0.000000000000000E+000
 -8.199999999999999E-003    1.127955053372103E-048
 -8.100000000000000E-003    2.255910106744206E-048
 -8.000000000000000E-003    3.383865160116310E-048
 -7.899999999999999E-003    4.511820213488413E-048
 -7.800000000000000E-003    4.511820213488413E-048
 -7.699999999999999E-003    3.267642407609773E-048
 -7.599999999999999E-003    1.056852982368403E-047
 -7.499999999999999E-003    1.674146218638618E-047
 -7.399999999999999E-003    3.174092120088380E-047
 -7.299999999999999E-003    2.279247772265689E-047
 -7.199999999999999E-003    2.308761732487450E-047
 -7.100000000000000E-003    5.826554129707772E-048
 -6.999999999999999E-003   -1.031339101604798E-047
 -6.899999999999999E-003   -2.476475429589445E-047
 -6.800000000000000E-003   -4.052853324109442E-047
 -6.699999999999999E-003   -6.727220436470257E-047
 -6.599999999999999E-003   -7.663858954063744E-047
 -6.499999999999999E-003   -7.485085798526113E-047
 -6.399999999999999E-003   -1.212626814718892E-046
 -6.299999999999999E-003   -4.682558959887944E-047
 -6.199999999999999E-003    3.081748616524906E-047
 -6.100000000000000E-003    2.082280378394665E-046
 -5.999999999999999E-003    3.870216174689174E-046
 -5.899999999999999E-003    6.046348859639121E-046
 -5.800000000000000E-003    8.049070097387648E-046
 -5.699999999999999E-003    9.532327827632610E-046
 -5.599999999999999E-003    8.317431313526233E-046
 -5.499999999999999E-003    2.357453820091276E-046
 -5.399999999999999E-003    6.568784588416850E-046
 -5.299999999999999E-003    7.465708426074368E-046
 -5.199999999999999E-003    7.025399102828650E-046
 -5.099999999999999E-003    5.347873011679032E-046
 -4.999999999999999E-003    1.436402953152437E-046
 -4.899999999999999E-003    3.688901359448321E-046
 -4.799999999999999E-003    4.117519420040915E-046
 -4.699999999999999E-003   -1.157168361303570E-046
 -4.599999999999999E-003   -9.381331618522883E-046
 -4.499999999999999E-003   -2.595690143980474E-045
 -4.399999999999999E-003   -5.741165456756098E-045
 -4.299999999999999E-003   -9.003158685061881E-045
 -4.199999999999999E-003   -1.214846443965220E-044
 -4.099999999999999E-003   -1.592308212502562E-044
 -3.999999999999999E-003   -1.759276213037159E-044
 -3.899999999999999E-003   -1.856843163053254E-044
 -3.799999999999999E-003   -1.562760193947733E-044
 -3.699999999999999E-003   -9.337501734166061E-045
 -3.599999999999999E-003    2.210407051115886E-045
 -3.499999999999999E-003    1.812369010427123E-044
 -3.399999999999999E-003    3.993323912260401E-044
 -3.299999999999999E-003    6.446870323788499E-044
 -3.199999999999999E-003    9.001081166240761E-044
 -3.099999999999999E-003    1.118552489473555E-043
 -2.999999999999999E-003    1.253505383346312E-043
 -2.899999999999999E-003    1.242140417175186E-043
 -2.799999999999999E-003    1.022338183493390E-043
 -2.699999999999999E-003    5.389382730165555E-044
 -2.599999999999999E-003   -2.377976249477798E-044
 -2.499999999999999E-003   -1.302480964984537E-043
 -2.399999999999999E-003   -2.591785310794568E-043
 -2.299999999999999E-003   -3.990051178960979E-043
 -2.199999999999999E-003   -5.316163665164502E-043
 -2.099999999999999E-003   -6.316307923874700E-043
 -1.999999999999999E-003   -6.687435392696924E-043
 -1.899999999999999E-003   -6.134893497804389E-043
 -1.799999999999999E-003   -4.405611118242870E-043
 -1.699999999999999E-003   -1.310436657956243E-043
 -1.599999999999999E-003    3.160859740913110E-043
 -1.499999999999999E-003    8.810081910726096E-043
 -1.399999999999999E-003    1.518807185724728E-042
 -1.299999999999999E-003    2.156779210922501E-042
 -1.199999999999999E-003    2.696824632133414E-042
 -1.099999999999999E-003    3.022801604603363E-042
 -9.999999999999989E-004    3.013545517774018E-042
 -8.999999999999990E-004    2.558126557888390E-042
 -7.999999999999990E-004    1.575547554136291E-042
 -6.999999999999989E-004    3.697649364438317E-044
 -5.999999999999990E-004   -2.013359517483999E-042
 -4.999999999999989E-004   -4.444735529230655E-042
 -3.999999999999989E-004   -7.033357444974111E-042
 -2.999999999999989E-004   -9.471369475528323E-042
 -1.999999999999989E-004   -1.138063244451022E-041
 -9.999999999999892E-005   -1.235213240055127E-041
  1.084202172485504E-018   -1.199063407182810E-041
  1.000000000000011E-004   -9.968920101736604E-042
  2.000000000000011E-004   -6.087618423854167E-042
  3.000000000000011E-004   -3.260257020997058E-043
  4.000000000000011E-004    7.113525655088851E-042
  5.000000000000011E-004    1.578724079871900E-041
  6.000000000000011E-004    2.501064611920625E-041
  7.000000000000011E-004    3.388722288249995E-041
  8.000000000000011E-004    4.136188487166395E-041
  9.000000000000012E-004    4.629910261626203E-041
  1.000000000000001E-003    4.756436321232847E-041
  1.100000000000001E-003    4.411793347173465E-041
  1.200000000000001E-003    3.510654042976330E-041
  1.300000000000001E-003    1.994110931165395E-041
  1.400000000000001E-003   -1.622224904889342E-042
  1.500000000000001E-003   -2.940499063047936E-041
  1.600000000000001E-003   -6.271241145234218E-041
  1.700000000000001E-003   -1.002222199473259E-040
  1.800000000000001E-003   -1.398318395810418E-040
  1.900000000000001E-003   -1.784950363660893E-040
  2.000000000000001E-003   -2.120433824695276E-040
  2.100000000000001E-003   -2.350618246606472E-040
  2.200000000000001E-003   -2.408853521197783E-040
  2.300000000000001E-003   -2.218066187177828E-040
  2.400000000000001E-003   -1.696049485506052E-040
  2.500000000000001E-003   -7.649203188167325E-041
  2.600000000000001E-003    6.347455375633955E-041
  2.700000000000001E-003    2.525202664990672E-040
  2.800000000000001E-003    4.869441987466285E-040
  2.900000000000001E-003    7.548037547157965E-040
  3.000000000000001E-003    1.033868185116418E-039
  3.100000000000001E-003    1.290347895995261E-039
  3.200000000000001E-003    1.478953038754952E-039
  3.300000000000001E-003    1.544873998634958E-039
  3.400000000000001E-003    1.428172233872649E-039
  3.500000000000001E-003    1.070831480318276E-039
  3.600000000000001E-003    4.264069872126234E-040
  3.700000000000001E-003   -5.282819588590512E-040
  3.800000000000001E-003   -1.780488957698137E-039
  3.900000000000001E-003   -3.269537866744356E-039
  4.000000000000001E-003   -4.877582918367920E-039
  4.100000000000001E-003   -6.425535597580627E-039
  4.200000000000001E-003   -7.676592178131018E-039
  4.300000000000001E-003   -8.349449676554825E-039
  4.400000000000001E-003   -8.142536839184560E-039
  4.500000000000001E-003   -6.769406244815490E-039
  4.600000000000002E-003   -4.003848284686651E-039
  4.700000000000001E-003    2.685050760994344E-040
  4.800000000000001E-003    5.997242580331099E-039
  4.900000000000002E-003    1.291972619217435E-038
  5.000000000000001E-003    2.052722479521592E-038
  5.100000000000001E-003    2.805320887376406E-038
  5.200000000000001E-003    3.449189493785994E-038
  5.300000000000002E-003    3.865351344363406E-038
  5.400000000000001E-003    3.925980904269699E-038
  5.500000000000001E-003    3.507933191406554E-038
  5.600000000000002E-003    2.509695816640078E-038
  5.700000000000001E-003    8.706655372407366E-039
  5.800000000000001E-003   -1.408938510466532E-038
  5.900000000000002E-003   -4.249710268244399E-038
  6.000000000000001E-003   -7.478839816148712E-038
  6.100000000000001E-003   -1.082286392322731E-037
  6.200000000000002E-003   -1.391016901011321E-037
  6.300000000000002E-003   -1.628570735023027E-037
  6.400000000000001E-003   -1.743974621413432E-037
  6.500000000000001E-003   -1.685139272851589E-037
  6.600000000000002E-003   -1.404631508790932E-037
  6.700000000000001E-003   -8.666330552758617E-038
  6.800000000000001E-003   -5.465810614370669E-039
  6.900000000000002E-003    1.020607206407949E-037
  7.000000000000001E-003    2.314186424629071E-037
  7.100000000000001E-003    3.741443556312482E-037
  7.200000000000002E-003    5.175612589995318E-037
  7.300000000000002E-003    6.449418206079551E-037
  7.400000000000001E-003    7.361901300785365E-037
  7.500000000000001E-003    7.691322922934206E-037
  7.600000000000002E-003    7.214599490906023E-037
  7.700000000000001E-003    5.733108377278831E-037
  7.800000000000001E-003    3.103876066605404E-037
  7.900000000000001E-003   -7.257915154241687E-038
  8.000000000000002E-003   -5.683263238422000E-037
  8.100000000000001E-003   -1.153918520447385E-036
  8.200000000000001E-003   -1.788472191268071E-036
  8.300000000000002E-003   -2.412299864468861E-036
  8.400000000000001E-003   -2.948039561019882E-036
  8.500000000000002E-003   -3.304274063522639E-036
  8.600000000000002E-003   -3.382005573831258E-036
  8.700000000000001E-003   -3.084104832396322E-036
  8.800000000000002E-003   -2.327546052201240E-036
  8.900000000000002E-003   -1.057808217197635E-036
  9.000000000000001E-003    7.356105946883268E-037
  9.100000000000002E-003    3.004103947431675E-036
  9.200000000000002E-003    5.627263734440503E-036
  9.300000000000001E-003    8.404853839391940E-036
  9.400000000000002E-003    1.105587389733762E-035
  9.500000000000001E-003    1.322702045759989E-035
  9.600000000000001E-003    1.451241482517146E-035
  9.700000000000002E-003    1.448569789629333E-035
  9.800000000000001E-003    1.274444594789887E-035
  9.900000000000001E-003    8.965373557531413E-036
  1.000000000000000E-002    2.967023319486363E-036
  1.010000000000000E-002   -5.225198607218424E-036
  1.020000000000000E-002   -1.531867569407926E-035
  1.030000000000000E-002   -2.670647920912059E-035
  1.040000000000000E-002   -3.844315735680756E-035
  1.050000000000000E-002   -4.925326343227014E-035
  1.060000000000000E-002   -5.758157049039066E-035
  1.070000000000000E-002   -6.169183420798270E-035
  1.080000000000000E-002   -5.981717704916985E-035
  1.090000000000000E-002   -5.036006842219467E-035
  1.100000000000000E-002   -3.213329435866907E-035
  1.110000000000000E-002   -4.625800618377886E-036
  1.120000000000000E-002    3.173079922547912E-035
  1.130000000000000E-002    7.532676128842624E-035
  1.140000000000000E-002    1.232077327174568E-034
  1.150000000000000E-002    1.710185425998884E-034
  1.160000000000000E-002    2.130982131802905E-034
  1.170000000000000E-002    2.427610658444378E-034
  1.180000000000000E-002    2.527870523146173E-034
  1.190000000000000E-002    2.361260323721296E-034
  1.200000000000000E-002    1.867951593594628E-034
  1.210000000000000E-002    1.009184853591147E-034
  1.220000000000000E-002   -2.217551201512258E-035
  1.230000000000000E-002   -1.789159501957180E-034
  1.240000000000000E-002   -3.606575721201796E-034
  1.250000000000000E-002   -5.532190603335092E-034
  1.260000000000000E-002   -7.369602265797914E-034
  1.270000000000000E-002   -8.875491588117109E-034
  1.280000000000000E-002   -9.775286904148429E-034
  1.290000000000000E-002   -9.787243677591404E-034
  1.300000000000000E-002   -8.654405745483807E-034
  1.310000000000000E-002   -6.182800073314653E-034
  1.320000000000000E-002   -2.282923549025845E-034
  1.330000000000000E-002    2.989667642671683E-034
  1.340000000000000E-002    9.399939109736037E-034
  1.350000000000000E-002    1.651113099376735E-033
  1.360000000000000E-002    2.368084036333553E-033
  1.370000000000000E-002    3.008101939602361E-033
  1.380000000000000E-002    3.474607190289132E-033
  1.390000000000000E-002    3.665079142171002E-033
  1.400000000000000E-002    3.481681927308656E-033
  1.410000000000000E-002    2.844219143054689E-033
  1.420000000000000E-002    1.704452915094079E-033
  1.430000000000000E-002    6.039265473847316E-035
  1.440000000000000E-002   -2.031171425720065E-033
  1.450000000000000E-002   -4.445877061670376E-033
  1.460000000000000E-002   -6.988766411472648E-033
  1.470000000000000E-002   -9.398883641845005E-033
  1.480000000000000E-002   -1.136289265372899E-032
  1.490000000000000E-002   -1.253838390072082E-032
  1.500000000000000E-002   -1.258653325797201E-032
  1.510000000000000E-002   -1.121258115223572E-032
  1.520000000000000E-002   -8.211288213835433E-033
  1.530000000000000E-002   -3.513227762676994E-033
  1.540000000000000E-002    2.773321998119127E-033
  1.550000000000000E-002    1.033088642707425E-032
  1.560000000000000E-002    1.861787896329149E-032
  1.570000000000000E-002    2.687603101427539E-032
  1.580000000000000E-002    3.416464532525765E-032
  1.590000000000000E-002    3.942408007151839E-032
  1.600000000000000E-002    4.156806281815691E-032
  1.610000000000000E-002    3.960099732426157E-032
  1.620000000000000E-002    3.275257140117110E-032
  1.630000000000000E-002    2.061834425406458E-032
  1.640000000000000E-002    3.291511297621733E-033
  1.650000000000000E-002   -1.853117988531745E-032
  1.660000000000000E-002   -4.348734000548313E-032
  1.670000000000000E-002   -6.954786630623974E-032
  1.680000000000000E-002   -9.409077562484717E-032
  1.690000000000000E-002   -1.140586043491659E-031
  1.700000000000000E-002   -1.262004101449170E-031
  1.710000000000000E-002   -1.273899077903702E-031
  1.720000000000000E-002   -1.150010541437924E-031
  1.730000000000000E-002   -8.731140590465773E-032
  1.740000000000000E-002   -4.389410461075903E-032
  1.750000000000000E-002    1.404798480238790E-032
  1.760000000000000E-002    8.345612404472457E-032
  1.770000000000000E-002    1.593463394514482E-031
  1.780000000000000E-002    2.349385161572368E-031
  1.790000000000000E-002    3.020120774838410E-031
  1.800000000000000E-002    3.514970965425097E-031
  1.810000000000000E-002    3.742849032542799E-031
  1.820000000000000E-002    3.622142685996692E-031
  1.830000000000000E-002    3.091603373599719E-031
  1.840000000000000E-002    2.121262490023126E-031
  1.850000000000000E-002    7.221813191824675E-032
  1.860000000000000E-002   -1.046300175985223E-031
  1.870000000000000E-002   -3.073119467024339E-031