 -4.000000000000000E-002    0.000000000000000E+000
 -3.990000000000000E-002    0.000000000000000E+000
 -3.980000000000000E-002    0.000000000000000E+000
 -3.970000000000000E-002    0.000000000000000E+000
 -3.960000000000000E-002    0.000000000000000E+000
 -3.950000000000000E-002    0.000000000000000E+000
 -3.940000000000000E-002    0.000000000000000E+000
 -3.930000000000000E-002    0.000000000000000E+000
 -3.920000000000000E-002    0.000000000000000E+000
 -3.910000000000000E-002    0.000000000000000E+000
 -3.900000000000000E-002    0.000000000000000E+000
 -3.890000000000000E-002    0.000000000000000E+000
 -3.880000000000000E-002    0.000000000000000E+000
 -3.870000000000000E-002    0.000000000000000E+000
 -3.860000000000000E-002    0.000000000000000E+000
 -3.850000000000000E-002    0.000000000000000E+000
 -3.840000000000000E-002    0.000000000000000E+000
 -3.830000000000000E-002    0.000000000000000E+000
 -3.820000000000000E-002    0.000000000000000E+000
 -3.810000000000000E-002    0.000000000000000E+000
 -3.800000000000000E-002   -2.318493831018794E-048
 -3.790000000000000E-002   -3.020919436971888E-047
 -3.780000000000000E-002   -1.995129620200535E-046
 -3.770000000000000E-002   -1.035668802825214E-045
 -3.760000000000000E-002   -4.792291034507751E-045
 -3.750000000000000E-002   -1.978158258444080E-044
 -3.740000000000000E-002   -7.473689243067531E-044
 -3.730000000000000E-002   -2.583296421813567E-043
 -3.720000000000000E-002   -8.231801385024562E-043
 -3.710000000000000E-002   -2.436603379984501E-042
 -3.700000000000000E-002   -6.743564788811871E-042
 -3.690000000000000E-002   -1.750814149074634E-041
 -3.680000000000000E-002   -4.273292411604009E-041
 -3.670000000000000E-002   -9.813871523546271E-041
 -3.660000000000000E-002   -2.119473196938040E-040
 -3.650000000000000E-002   -4.294068661267796E-040
 -3.640000000000000E-002   -8.117276908949551E-040
 -3.630000000000000E-002   -1.416530848619821E-039
 -3.620000000000000E-002   -2.233357979705549E-039
 -3.610000000000000E-002   -3.027003336518017E-039
 -3.600000000000000E-002   -3.014249862911936E-039
 -3.590000000000000E-002   -2.731372911374161E-040
 -3.580000000000000E-002    9.224085258221525E-039
 -3.570000000000000E-002    3.301793241149396E-038
 -3.560000000000000E-002    8.391809250080012E-038
 -3.550000000000000E-002    1.816808031708943E-037
 -3.540000000000000E-002    3.535767249743180E-037
 -3.530000000000000E-002    6.319039728378639E-037
 -3.520000000000000E-002    1.045318284867051E-036
 -3.510000000000000E-002    1.599634183601847E-036
 -3.500000000000000E-002    2.243022813865709E-036
 -3.490000000000000E-002    2.811193527236353E-036
 -3.480000000000000E-002    2.951475242657843E-036
 -3.470000000000000E-002    2.032154992571807E-036
 -3.460000000000000E-002   -9.438533467413790E-037
 -3.450000000000000E-002   -7.383941736090413E-036
 -3.440000000000000E-002   -1.905125946279744E-035
 -3.430000000000000E-002   -3.783457506431249E-035
 -3.420000000000000E-002   -6.526173182450031E-035
 -3.410000000000000E-002   -1.016994113867902E-034
 -3.400000000000000E-002   -1.452506340921175E-034
 -3.390000000000000E-002   -1.904873843811134E-034
 -3.380000000000000E-002   -2.273397967428034E-034
 -3.370000000000000E-002   -2.406759586065948E-034
 -3.360000000000000E-002   -2.112811655250191E-034
 -3.350000000000000E-002   -1.189596349887342E-034
 -3.340000000000000E-002    5.183247394528661E-035
 -3.330000000000000E-002    3.042490764233557E-034
 -3.320000000000000E-002    6.211631312895920E-034
 -3.310000000000000E-002    9.613004402373260E-034
 -3.300000000000000E-002    1.266274922045639E-033
 -3.290000000000000E-002    1.487890785634405E-033
 -3.280000000000000E-002    1.646123356731743E-033
 -3.270000000000000E-002    1.925960408987716E-033
 -3.260000000000000E-002    2.813491229673708E-033
 -3.250000000000000E-002    5.255926964207072E-033
 -3.240000000000000E-002    1.080508780064761E-032
 -3.230000000000000E-002    2.166959269876447E-032
 -3.220000000000000E-002    4.056104843260979E-032
 -3.210000000000000E-002    7.018279269570496E-032
 -3.200000000000000E-002    1.121893705898933E-031
 -3.190000000000000E-002    1.654619583146200E-031
 -3.180000000000000E-002    2.236218200137005E-031
 -3.170000000000000E-002    2.718644651917668E-031
 -3.160000000000000E-002    2.834577628715385E-031
 -3.150000000000000E-002    2.166070534869749E-031
 -3.140000000000000E-002    1.282284254093079E-032
 -3.130000000000000E-002   -4.016298731371300E-031
 -3.120000000000000E-002   -1.109272835374682E-030
 -3.110000000000000E-002   -2.187903727762325E-030
 -3.100000000000000E-002   -3.688266819770880E-030
 -3.090000000000000E-002   -5.601983201897661E-030
 -3.080000000000000E-002   -7.820303165564839E-030
 -3.070000000000000E-002   -1.008643500734212E-029
 -3.060000000000000E-002   -1.194691618609341E-029
 -3.050000000000000E-002   -1.271048056232131E-029
 -3.040000000000000E-002   -1.142566800395786E-029
 -3.030000000000000E-002   -6.890435539422670E-030
 -3.020000000000000E-002    2.292195358566966E-030
 -3.010000000000000E-002    1.759936087154710E-029
 -3.000000000000000E-002    4.040384804003236E-029
 -2.990000000000000E-002    7.171304909657380E-029
 -2.980000000000000E-002    1.118284050422144E-028
 -2.970000000000000E-002    1.599252885113660E-028
 -2.960000000000000E-002    2.135537547472720E-028
 -2.950000000000000E-002    2.680596609044346E-028
 -2.940000000000000E-002    3.159235610614738E-028
 -2.930000000000000E-002    3.460188760771924E-028
 -2.920000000000000E-002    3.428083048284200E-028
 -2.910000000000000E-002    2.855421515378670E-028
 -2.900000000000000E-002    1.476083650934271E-028
 -2.890000000000000E-002   -1.036736854944322E-028
 -2.880000000000000E-002   -5.063262528851295E-028
 -2.870000000000000E-002   -1.101304245222288E-027
 -2.860000000000000E-002   -1.927403287651658E-027
 -2.850000000000000E-002   -3.012255186682864E-027
 -2.840000000000000E-002   -4.358159262537582E-027
 -2.830000000000000E-002   -5.921745400451566E-027
 -2.820000000000000E-002   -7.587228985406799E-027
 -2.810000000000000E-002   -9.134396950298100E-027
 -2.800000000000000E-002   -1.020463511808333E-026
 -2.790000000000000E-002   -1.027120030115091E-026
 -2.780000000000000E-002   -8.623417825561753E-027
 -2.770000000000000E-002   -4.378071841092169E-027
 -2.760000000000000E-002    3.465770142226214E-027
 -2.750000000000000E-002    1.591107115034284E-026
 -2.740000000000000E-002    3.377057965181279E-026
 -2.730000000000000E-002    5.738863335656240E-026
 -2.720000000000000E-002    8.627957550775939E-026
 -2.710000000000000E-002    1.187038858010411E-025
 -2.700000000000000E-002    1.512276873607127E-025
 -2.690000000000000E-002    1.783407728826931E-025
 -2.680000000000000E-002    1.922387534616899E-025
 -2.670000000000000E-002    1.829009101031875E-025
 -2.660000000000000E-002    1.386100936398413E-025
 -2.650000000000000E-002    4.705459404347531E-026
 -2.640000000000000E-002   -1.028830164248645E-025
 -2.630000000000000E-002   -3.186176139094204E-025
 -2.620000000000000E-002   -6.007147689410118E-025
 -2.610000000000000E-002   -9.393380964686352E-025
 -2.600000000000000E-002   -1.310705454165367E-024
 -2.590000000000000E-002   -1.674157786590429E-024
 -2.580000000000000E-002   -1.970613609820098E-024
 -2.570000000000000E-002   -2.123289647653931E-024
 -2.560000000000000E-002   -2.041571711119925E-024
 -2.550000000000000E-002   -1.628770204787332E-024
 -2.540000000000000E-002   -7.941643677897789E-025
 -2.530000000000000E-002    5.307976183689062E-025
 -2.520000000000000E-002    2.372997397553570E-024
 -2.510000000000000E-002    4.696567204319612E-024
 -2.500000000000000E-002    7.382861408376958E-024
 -2.490000000000000E-002    1.021493255212240E-023
 -2.480000000000000E-002    1.287053558268815E-023
 -2.470000000000000E-002    1.492779045596001E-023
 -2.460000000000000E-002    1.588716464444418E-023
 -2.450000000000000E-002    1.521217648060225E-023
 -2.440000000000000E-002    1.238920160774729E-023
 -2.430000000000000E-002    7.004022716621693E-024
 -2.420000000000000E-002   -1.170498859098002E-024
 -2.410000000000000E-002   -1.208464028134819E-023
 -2.400000000000000E-002   -2.533194311845416E-023
 -2.390000000000000E-002   -4.009336017760440E-023
 -2.380000000000000E-002   -5.511994873928168E-023
 -2.370000000000000E-002   -6.876713266831049E-023
 -2.360000000000000E-002   -7.908935457832151E-023
 -2.350000000000000E-002   -8.399756140668949E-023
 -2.340000000000000E-002   -8.147335433810068E-023
 -2.330000000000000E-002   -6.982388201660934E-023
 -2.320000000000000E-002   -4.795188897731878E-023
 -2.310000000000000E-002   -1.560743009555747E-023
 -2.300000000000000E-002    2.641682178654744E-023
 -2.290000000000000E-002    7.618409017140589E-023
 -2.280000000000000E-002    1.306363999535099E-022
 -2.270000000000000E-002    1.857592056978930E-022
 -2.260000000000000E-002    2.368856596462357E-022
 -2.250000000000000E-002    2.791154934076153E-022
 -2.240000000000000E-002    3.077998772627818E-022
 -2.230000000000000E-002    3.190232249908967E-022
 -2.220000000000000E-002    3.100012347584234E-022
 -2.210000000000000E-002    2.793151729851134E-022
 -2.200000000000000E-002    2.269183769858879E-022
 -2.190000000000000E-002    1.538850439890639E-022
 -2.180000000000000E-002    6.191884630838195E-023
 -2.170000000000000E-002   -4.730219970500121E-023
 -2.160000000000000E-002   -1.728090702858083E-022
 -2.150000000000000E-002   -3.148683373268096E-022
 -2.140000000000000E-002   -4.751418285012394E-022
 -2.130000000000000E-002   -6.562762315820386E-022
 -2.120000000000000E-002   -8.607759580104059E-022
 -2.110000000000000E-002   -1.089112302481625E-021
 -2.100000000000000E-002   -1.337170048039208E-021
 -2.090000000000000E-002   -1.593308839246935E-021
 -2.080000000000000E-002   -1.835500189582097E-021
 -2.070000000000000E-002   -2.029163571624893E-021
 -2.060000000000000E-002   -2.126421033870537E-021
 -2.050000000000000E-002   -2.067494690793800E-021
 -2.040000000000000E-002   -1.784843681039232E-021
 -2.030000000000000E-002   -1.210369416391581E-021
 -2.020000000000000E-002   -2.856068654330661E-022
 -2.010000000000000E-002    1.025700339595570E-021
 -2.000000000000000E-002    2.723825640319865E-021
 -1.990000000000000E-002    4.759818826157617E-021
 -1.980000000000000E-002    7.024976671082568E-021
 -1.970000000000000E-002    9.345403837018108E-021
 -1.960000000000000E-002    1.148395341777544E-020
 -1.950000000000000E-002    1.315134130980290E-020
 -1.940000000000000E-002    1.402735223377466E-020
 -1.930000000000000E-002    1.379181797038437E-020
 -1.920000000000000E-002    1.216353970208006E-020
 -1.910000000000000E-002    8.943769361252377E-021
 -1.900000000000000E-002    4.059413998957513E-021
 -1.890000000000000E-002   -2.399891499466696E-021
 -1.880000000000000E-002   -1.015710502938111E-020
 -1.870000000000000E-002   -1.874130475295500E-020
 -1.860000000000000E-002   -2.750383855269951E-020
 -1.850000000000000E-002   -3.565920848780207E-020
 -1.840000000000000E-002   -4.234968754900121E-020
 -1.830000000000000E-002   -4.672916960744442E-020
 -1.820000000000000E-002   -4.805824327498398E-020
 -1.810000000000000E-002   -4.579946913160617E-020
 -1.800000000000000E-002   -3.970010488893421E-020
 -1.790000000000000E-002   -2.984915675180920E-020
 -1.780000000000000E-002   -1.669746955040887E-020
 -1.770000000000000E-002   -1.033194691125661E-021
 -1.760000000000000E-002    1.608942538441728E-020
 -1.750000000000000E-002    3.346326677897786E-020
 -1.740000000000000E-002    4.987161560782034E-020
 -1.730000000000000E-002    6.424317070518064E-020
 -1.720000000000000E-002    7.579559371527950E-020
 -1.710000000000000E-002    8.414276055400455E-020
 -1.700000000000000E-002    8.934280086298377E-020
 -1.690000000000000E-002    9.186989865283222E-020
 -1.680000000000000E-002    9.250287854589830E-020
 -1.670000000000000E-002    9.213611825337715E-020
 -1.660000000000000E-002    9.153280698308758E-020
 -1.650000000000000E-002    9.105373478752207E-020
 -1.640000000000000E-002    9.040574681267999E-020
 -1.630000000000000E-002    8.845913808908520E-020
 -1.620000000000000E-002    8.318191333172096E-020
 -1.610000000000000E-002    7.172923630322133E-020
 -1.600000000000000E-002    5.070906803538506E-020
 -1.590000000000000E-002    1.662103411830713E-020
 -1.580000000000000E-002   -3.356200906223524E-020
 -1.570000000000000E-002   -1.017286921427350E-019
 -1.560000000000000E-002   -1.879622379795680E-019
 -1.550000000000000E-002   -2.899707497869900E-019
 -1.540000000000000E-002   -4.027154052768079E-019
 -1.530000000000000E-002   -5.183273871469361E-019
 -1.520000000000000E-002   -6.263772236093119E-019
 -1.510000000000000E-002   -7.145210334923895E-019
 -1.500000000000000E-002   -7.694994149967259E-019
 -1.490000000000000E-002   -7.784125582607557E-019
 -1.480000000000000E-002   -7.301478928164396E-019
 -1.470000000000000E-002   -6.168008893405884E-019
 -1.460000000000000E-002   -4.349129996453142E-019
 -1.450000000000000E-002   -1.863577263288285E-019
 -1.440000000000000E-002    1.212616930724429E-019
 -1.430000000000000E-002    4.747840178783262E-019
 -1.420000000000000E-002    8.562397291117244E-019
 -1.410000000000000E-002    1.244107473107757E-018
 -1.400000000000000E-002    1.614930852819461E-018
 -1.390000000000000E-002    1.945091721582765E-018
 -1.380000000000000E-002    2.212504826112994E-018
 -1.370000000000000E-002    2.398010433921148E-018
 -1.360000000000000E-002    2.486281319337912E-018
 -1.350000000000000E-002    2.466148395013400E-018
 -1.340000000000000E-002    2.330349922119863E-018
 -1.330000000000000E-002    2.074827594571146E-018
 -1.320000000000000E-002    1.697794843872192E-018
 -1.310000000000000E-002    1.198877540091629E-018
 -1.300000000000000E-002    5.786467585028305E-019
 -1.290000000000000E-002   -1.611708001788756E-019
 -1.280000000000000E-002   -1.016623141204876E-018
 -1.270000000000000E-002   -1.979574858016945E-018
 -1.260000000000000E-002   -3.035027882045011E-018
 -1.250000000000000E-002   -4.158077680788849E-018
 -1.240000000000000E-002   -5.311038496540685E-018
 -1.230000000000000E-002   -6.441372635512030E-018
 -1.220000000000000E-002   -7.481064715755535E-018
 -1.210000000000000E-002   -8.347999652338096E-018
 -1.200000000000000E-002   -8.949669122787438E-018
 -1.190000000000000E-002   -9.189249854367585E-018
 -1.180000000000000E-002   -8.973706713922814E-018
 -1.170000000000000E-002   -8.223235037148615E-018
 -1.160000000000000E-002   -6.881016037919804E-018
 -1.150000000000000E-002   -4.922088289386591E-018
 -1.140000000000000E-002   -2.360095738588690E-018
 -1.130000000000000E-002    7.491481774523765E-019
 -1.120000000000000E-002    4.307982174731273E-018
 -1.110000000000000E-002    8.181284921658035E-018
 -1.100000000000000E-002    1.220450680415153E-017
 -1.090000000000000E-002    1.619429946836157E-017
 -1.080000000000000E-002    1.996023302486515E-017
 -1.070000000000000E-002    2.331581657310391E-017
 -1.060000000000000E-002    2.608704381668666E-017
 -1.050000000000000E-002    2.811711590380814E-017
 -1.040000000000000E-002    2.926662613135302E-017
 -1.030000000000000E-002    2.940951696383127E-017
 -1.020000000000000E-002    2.842611283396888E-017
 -1.010000000000000E-002    2.619559366390008E-017
 -1.000000000000000E-002    2.259094641886116E-017
 -9.899999999999999E-003    1.747971061562921E-017
 -9.800000000000000E-003    1.073348555511786E-017
 -9.699999999999999E-003    2.248103790692034E-018
 -9.599999999999999E-003   -8.025250131910612E-018
 -9.500000000000000E-003   -2.003986104270024E-017
 -9.399999999999999E-003   -3.360850828030956E-017
 -9.299999999999999E-003   -4.836001177769031E-017
 -9.200000000000000E-003   -6.370538349346003E-017
 -9.099999999999999E-003   -7.882214556101393E-017
 -8.999999999999999E-003   -9.266480880111113E-017
 -8.900000000000000E-003   -1.040074278911084E-016
 -8.799999999999999E-003   -1.115206743682598E-016
 -8.699999999999999E-003   -1.138812827669796E-016
 -8.600000000000000E-003   -1.099065525060164E-016
 -8.499999999999999E-003   -9.870153860405616E-017
 -8.399999999999999E-003   -7.980225023724937E-017
 -8.300000000000000E-003   -5.329576816382072E-017
 -8.199999999999999E-003   -1.989789763241796E-017
 -8.100000000000000E-003    1.902826437807543E-017
 -8.000000000000000E-003    6.152418784084591E-017
 -7.899999999999999E-003    1.051613884137364E-016
 -7.800000000000000E-003    1.472340760530172E-016
 -7.699999999999999E-003    1.850024393715641E-016
 -7.599999999999999E-003    2.159604737374087E-016
 -7.499999999999999E-003    2.380955812259936E-016
 -7.399999999999999E-003    2.501039351372823E-016
 -7.299999999999999E-003    2.515274062259568E-016
 -7.199999999999999E-003    2.427848792165262E-016
 -7.100000000000000E-003    2.250827613814052E-016
 -6.999999999999999E-003    2.002055151423445E-016
 -6.899999999999999E-003    1.702051058344283E-016
 -6.800000000000000E-003    1.370261807509183E-016
 -6.699999999999999E-003    1.021186627708379E-016
 -6.599999999999999E-003    6.609881313375280E-017
 -6.499999999999999E-003    2.852151712407816E-017
 -6.399999999999999E-003   -1.218104903141738E-017
 -6.299999999999999E-003   -5.855595724214682E-017
 -6.199999999999999E-003   -1.137679129803534E-016
 -6.100000000000000E-003   -1.810363135293410E-016
 -5.999999999999999E-003   -2.629218173458433E-016
 -5.899999999999999E-003   -3.605419858396264E-016
 -5.800000000000000E-003   -4.728204636032026E-016
 -5.699999999999999E-003   -5.958856054792168E-016
 -5.599999999999999E-003   -7.227326089604233E-016
 -5.499999999999999E-003   -8.432444173111660E-016
 -5.399999999999999E-003   -9.446331412871072E-016
 -5.299999999999999E-003   -1.012316702231539E-015
 -5.199999999999999E-003   -1.031190746566083E-015
 -5.099999999999999E-003   -9.871988581649296E-016
 -4.999999999999999E-003   -8.690539500962311E-016
 -4.899999999999999E-003   -6.699257871450490E-016
 -4.799999999999999E-003   -3.888919732280862E-016
 -4.699999999999999E-003   -3.195561840647406E-017
 -4.599999999999999E-003    3.875353056464976E-016
 -4.499999999999999E-003    8.491763454353810E-016
 -4.399999999999999E-003    1.326537912698885E-015
 -4.299999999999999E-003    1.788890082847356E-015
 -4.199999999999999E-003    2.203486047767037E-015
 -4.099999999999999E-003    2.538195098714186E-015
 -3.999999999999999E-003    2.764222728907110E-015
 -3.899999999999999E-003    2.858632515607515E-015
 -3.799999999999999E-003    2.806394307426214E-015
 -3.699999999999999E-003    2.601731557427866E-015
 -3.599999999999999E-003    2.248617189101160E-015
 -3.499999999999999E-003    1.760367149640324E-015
 -3.399999999999999E-003    1.158392023466724E-015
 -3.299999999999999E-003    4.702704995762178E-016
 -3.199999999999999E-003   -2.726046963376175E-016
 -3.099999999999999E-003   -1.037505415004737E-015
 -2.999999999999999E-003   -1.792656210824858E-015
 -2.899999999999999E-003   -2.509051517226715E-015
 -2.799999999999999E-003   -3.161596688072644E-015
 -2.699999999999999E-003   -3.729476217161469E-015
 -2.599999999999999E-003   -4.195783477142927E-015
 -2.499999999999999E-003   -4.546568690339091E-015
 -2.399999999999999E-003   -4.769575881698279E-015
 -2.299999999999999E-003   -4.853003134579693E-015
 -2.199999999999999E-003   -4.784643729899295E-015
 -2.099999999999999E-003   -4.551720318779774E-015
 -1.999999999999999E-003   -4.141630315281724E-015
 -1.899999999999999E-003   -3.543668197463776E-015
 -1.799999999999999E-003   -2.751623307996257E-015
 -1.699999999999999E-003   -1.766965411021890E-015
 -1.599999999999999E-003   -6.021772674665081E-016
 -1.499999999999999E-003    7.163154724307554E-016
 -1.399999999999999E-003    2.146201311037000E-015
 -1.299999999999999E-003    3.628866818705413E-015
 -1.199999999999999E-003    5.090907642888391E-015
 -1.099999999999999E-003    6.447758891535787E-015
 -9.999999999999989E-004    7.609367659536717E-015
 -8.999999999999990E-004    8.487545783953506E-015
 -7.999999999999990E-004    9.004359833074679E-015
 -6.999999999999989E-004    9.100698720532927E-015
 -5.999999999999990E-004    8.744030562145759E-015
 -4.999999999999989E-004    7.934334415225219E-015
 -3.999999999999989E-004    6.707313016474799E-015
 -2.999999999999989E-004    5.134221756690070E-015
 -1.999999999999989E-004    3.317987489985342E-015
 -9.999999999999892E-005    1.385694592798153E-015
  1.084202172485504E-018   -5.220546864622741E-016
  1.000000000000011E-004   -2.264004897346683E-015
  2.000000000000011E-004   -3.712119569938856E-015
  3.000000000000011E-004   -4.765052494893720E-015
  4.000000000000011E-004   -5.359762580816459E-015
  5.000000000000011E-004   -5.479953531699769E-015
  6.000000000000011E-004   -5.160277339627827E-015
  7.000000000000011E-004   -4.485659090462785E-015
  8.000000000000011E-004   -3.585564406229137E-015
  9.000000000000012E-004   -2.623551764287118E-015
  1.000000000000001E-003   -1.782905238358529E-015
  1.100000000000001E-003   -1.249551550210810E-015
  1.200000000000001E-003   -1.193715856807699E-015
  1.300000000000001E-003   -1.751882420702130E-015
  1.400000000000001E-003   -3.010571474843304E-015
  1.500000000000001E-003   -4.993303702554408E-015
  1.600000000000001E-003   -7.651775251665699E-015
  1.700000000000001E-003   -1.086198811209661E-014
  1.800000000000001E-003   -1.442567006266266E-014
  1.900000000000001E-003   -1.807698361568461E-014
  2.000000000000001E-003   -2.149430056632486E-014
  2.100000000000001E-003   -2.431654059835923E-014
  2.200000000000001E-003   -2.616349249583180E-014
  2.300000000000001E-003   -2.665940836687531E-014
  2.400000000000001E-003   -2.545910676916962E-014
  2.500000000000001E-003   -2.227567649682242E-014
  2.600000000000001E-003   -1.690873935444633E-014
  2.700000000000001E-003   -9.271973159714373E-015
  2.800000000000001E-003    5.817012346372953E-016
  2.900000000000001E-003    1.243927935655557E-014
  3.000000000000001E-003    2.591337150367186E-014
  3.100000000000001E-003    4.043699467591607E-014
  3.200000000000001E-003    5.526995544813895E-014
  3.300000000000001E-003    6.951904949891696E-014
  3.400000000000001E-003    8.217365940020386E-014
  3.500000000000001E-003    9.215740172189241E-014
  3.600000000000001E-003    9.839495320859508E-014
  3.700000000000001E-003    9.989167106694773E-014
  3.800000000000001E-003    9.582167127123653E-014
  3.900000000000001E-003    8.561832921560753E-014
  4.000000000000001E-003    6.905962589298659E-014
  4.100000000000001E-003    4.633980791370728E-014
  4.200000000000001E-003    1.811841798049629E-014
  4.300000000000001E-003   -1.446152945056333E-014
  4.400000000000001E-003   -4.979294782287557E-014
  4.500000000000001E-003   -8.586593752640140E-014
  4.600000000000002E-003   -1.203716979603965E-013
  4.700000000000001E-003   -1.508460926055264E-013
  4.800000000000001E-003   -1.748455913066522E-013
  4.900000000000002E-003   -1.901443075520464E-013
  5.000000000000001E-003   -1.949374578499090E-013
  5.100000000000001E-003   -1.880338543070532E-013
  5.200000000000001E-003   -1.690193984711359E-013
  5.300000000000002E-003   -1.383735571352359E-013
  5.400000000000001E-003   -9.752340233068599E-014
  5.500000000000001E-003   -4.882357278248909E-014
  5.600000000000002E-003    4.544151529946851E-015
  5.700000000000001E-003    5.875157589075229E-014
  5.800000000000001E-003    1.095779397689934E-013
  5.900000000000002E-003    1.527229119434959E-013
  6.000000000000001E-003    1.841583756261694E-013
  6.100000000000001E-003    2.004935667136803E-013
  6.200000000000002E-003    1.993249720061658E-013
  6.300000000000002E-003    1.795407488918215E-013
  6.400000000000001E-003    1.415510631180654E-013
  6.500000000000001E-003    8.741858390357071E-014
  6.600000000000002E-003    2.086936507503553E-014
  6.700000000000001E-003   -5.282863173520603E-014
  6.800000000000001E-003   -1.271228539707603E-013
  6.900000000000002E-003   -1.945637696200661E-013
  7.000000000000001E-003   -2.473067696648345E-013
  7.100000000000001E-003   -2.777036929119929E-013
  7.200000000000002E-003   -2.789498866308998E-013
  7.300000000000002E-003   -2.457466739073311E-013
  7.400000000000001E-003   -1.749337793986472E-013
  7.500000000000001E-003   -6.604356461999325E-014
  7.600000000000002E-003    7.827100993203261E-014
  7.700000000000001E-003    2.519791723431726E-013
  7.800000000000001E-003    4.456259734231250E-013
  7.900000000000001E-003    6.465263756800777E-013
  8.000000000000002E-003    8.392192114214800E-013
  8.100000000000001E-003    1.006185216990603E-012
  8.200000000000001E-003    1.128817206667503E-012
  8.300000000000002E-003    1.188612842415554E-012
  8.400000000000001E-003    1.168540634207128E-012
  8.500000000000002E-003    1.054512158774920E-012
  8.600000000000002E-003    8.368755297084602E-013
  8.700000000000001E-003    5.118309840921838E-013
  8.800000000000002E-003    8.265922391069750E-014
  8.900000000000002E-003   -4.393514293529100E-013
  9.000000000000001E-003   -1.034389321691300E-012
  9.100000000000002E-003   -1.674116382133023E-012
  9.200000000000002E-003   -2.322256755513169E-012
  9.300000000000001E-003   -2.935829002986086E-012
  9.400000000000002E-003   -3.467036723722349E-012
  9.500000000000001E-003   -3.865787433185081E-012
  9.600000000000001E-003   -4.082760129854066E-012
  9.700000000000002E-003   -4.072893250691129E-012
  9.800000000000001E-003   -3.799113036550183E-012
  9.900000000000001E-003   -3.236080392498250E-012
  1.000000000000000E-002   -2.373697309118179E-012
  1.010000000000000E-002   -1.220097675424522E-012
  1.020000000000000E-002    1.961620211335865E-013
  1.030000000000000E-002    1.824974995377725E-012
  1.040000000000000E-002    3.594848786945289E-012
  1.050000000000000E-002    5.414533086813238E-012
  1.060000000000000E-002    7.176199198928614E-012
  1.070000000000000E-002    8.760168986468913E-012
  1.080000000000000E-002    1.004108021336322E-011
  1.090000000000000E-002    1.089526327030593E-011
  1.100000000000000E-002    1.120899377011055E-011
  1.110000000000000E-002    1.088717773720536E-011
  1.120000000000000E-002    9.861950208584836E-012
  1.130000000000000E-002    8.100598360023054E-012
  1.140000000000000E-002    5.612206828589620E-012
  1.150000000000000E-002    2.452424358379242E-012
  1.160000000000000E-002   -1.274189388030321E-012
  1.170000000000000E-002   -5.414674470098285E-012
  1.180000000000000E-002   -9.771354370446640E-012
  1.190000000000000E-002   -1.410881305738850E-011
  1.200000000000000E-002   -1.816409683255904E-011
  1.210000000000000E-002   -2.165985271286174E-011
  1.220000000000000E-002   -2.431987581104466E-011
  1.230000000000000E-002   -2.588635149851238E-011
  1.240000000000000E-002   -2.613784816413173E-011
  1.250000000000000E-002   -2.490701079881377E-011
  1.260000000000000E-002   -2.209678990670279E-011
  1.270000000000000E-002   -1.769401094080409E-011
  1.280000000000000E-002   -1.177915509790735E-011
  1.290000000000000E-002   -4.531332835487610E-012
  1.300000000000000E-002    3.772347474827782E-012
  1.310000000000000E-002    1.276354233325807E-011
  1.320000000000000E-002    2.199573448696785E-011
  1.330000000000000E-002    3.096342182245412E-011
  1.340000000000000E-002    3.912676821517302E-011
  1.350000000000000E-002    4.594074269105281E-011
  1.360000000000000E-002    5.088729429618761E-011
  1.370000000000000E-002    5.350886766514154E-011
  1.380000000000000E-002    5.344125340987958E-011
  1.390000000000000E-002    5.044369588388964E-011
  1.400000000000000E-002    4.442409580157637E-011
  1.410000000000000E-002    3.545732245951720E-011
  1.420000000000000E-002    2.379488884101325E-011
  1.430000000000000E-002    9.864649091249015E-012
  1.440000000000000E-002   -5.740321084249228E-012
  1.450000000000000E-002   -2.228386074887288E-011
  1.460000000000000E-002   -3.891941045618261E-011
  1.470000000000000E-002   -5.473207571816383E-011
  1.480000000000000E-002   -6.878818201805967E-011
  1.490000000000000E-002   -8.018984379808796E-011
  1.500000000000000E-002   -8.813146904090704E-011
  1.510000000000000E-002   -9.195489149218144E-011
  1.520000000000000E-002   -9.119944423227204E-011
  1.530000000000000E-002   -8.564351663813094E-011
  1.540000000000000E-002   -7.533426467913754E-011
  1.550000000000000E-002   -6.060265351079619E-011
  1.560000000000000E-002   -4.206179155097410E-011
  1.570000000000000E-002   -2.058734085442114E-011
  1.580000000000000E-002    2.720133606593568E-012
  1.590000000000000E-002    2.658986052890396E-011
  1.600000000000000E-002    4.965042127811014E-011
  1.610000000000000E-002    7.051089067728041E-011
  1.620000000000000E-002    8.784922827255126E-011
  1.630000000000000E-002    1.005027941315528E-010
  1.640000000000000E-002    1.075553399712540E-010
  1.650000000000000E-002    1.084144993475639E-010
  1.660000000000000E-002    1.028740696277991E-010
  1.670000000000000E-002    9.115566006761337E-011
  1.680000000000000E-002    7.392540565395675E-011
  1.690000000000000E-002    5.228244105929385E-011
  1.700000000000000E-002    2.771750413131325E-011
  1.710000000000000E-002    2.041727120555923E-012
  1.720000000000000E-002   -2.271240768538300E-011
  1.730000000000000E-002   -4.441405496959649E-011
  1.740000000000000E-002   -6.097515383484549E-011
  1.750000000000000E-002   -7.050240893619249E-011
  1.760000000000000E-002   -7.145135983545498E-011
  1.770000000000000E-002   -6.277287207305266E-011
  1.780000000000000E-002   -4.404221321553943E-011
  1.790000000000000E-002   -1.556082573331546E-011
  1.800000000000000E-002    2.157820062921256E-011
  1.810000000000000E-002    6.546838035994831E-011
  1.820000000000000E-002    1.134175061382037E-010
  1.830000000000000E-002    1.620278042889533E-010
  1.840000000000000E-002    2.073288930869560E-010
  1.850000000000000E-002    2.449605712840666E-010
  1.860000000000000E-002    2.703996517861920E-010
  1.870000000000000E-002    2.792216833524851E-010