 -4.000000000000000E-002    0.000000000000000E+000
 -3.990000000000000E-002    0.000000000000000E+000
 -3.980000000000000E-002    0.000000000000000E+000
 -3.970000000000000E-002    0.000000000000000E+000
 -3.960000000000000E-002    0.000000000000000E+000
 -3.950000000000000E-002    0.000000000000000E+000
 -3.940000000000000E-002    0.000000000000000E+000
 -3.930000000000000E-002    0.000000000000000E+000
 -3.920000000000000E-002    0.000000000000000E+000
 -3.910000000000000E-002    0.000000000000000E+000
 -3.900000000000000E-002    0.000000000000000E+000
 -3.890000000000000E-002    0.000000000000000E+000
 -3.880000000000000E-002    0.000000000000000E+000
 -3.870000000000000E-002    0.000000000000000E+000
 -3.860000000000000E-002    0.000000000000000E+000
 -3.850000000000000E-002    0.000000000000000E+000
 -3.840000000000000E-002    0.000000000000000E+000
 -3.830000000000000E-002    0.000000000000000E+000
 -3.820000000000000E-002    0.000000000000000E+000
 -3.810000000000000E-002    0.000000000000000E+000
 -3.800000000000000E-002    0.000000000000000E+000
 -3.790000000000000E-002    0.000000000000000E+000
 -3.780000000000000E-002    0.000000000000000E+000
 -3.770000000000000E-002    0.000000000000000E+000
 -3.760000000000000E-002    0.000000000000000E+000
 -3.750000000000000E-002    0.000000000000000E+000
 -3.740000000000000E-002    0.000000000000000E+000
 -3.730000000000000E-002    0.000000000000000E+000
 -3.720000000000000E-002    0.000000000000000E+000
 -3.710000000000000E-002    0.000000000000000E+000
 -3.700000000000000E-002    0.000000000000000E+000
 -3.690000000000000E-002    0.000000000000000E+000
 -3.680000000000000E-002    0.000000000000000E+000
 -3.670000000000000E-002    0.000000000000000E+000
 -3.660000000000000E-002    0.000000000000000E+000
 -3.650000000000000E-002    0.000000000000000E+000
 -3.640000000000000E-002    0.000000000000000E+000
 -3.630000000000000E-002    0.000000000000000E+000
 -3.620000000000000E-002    0.000000000000000E+000
 -3.610000000000000E-002    0.000000000000000E+000
 -3.600000000000000E-002    0.000000000000000E+000
 -3.590000000000000E-002    0.000000000000000E+000
 -3.580000000000000E-002    0.000000000000000E+000
 -3.570000000000000E-002    0.000000000000000E+000
 -3.560000000000000E-002    0.000000000000000E+000
 -3.550000000000000E-002    0.000000000000000E+000
 -3.540000000000000E-002    0.000000000000000E+000
 -3.530000000000000E-002    0.000000000000000E+000
 -3.520000000000000E-002    0.000000000000000E+000
 -3.510000000000000E-002    0.000000000000000E+000
 -3.500000000000000E-002    0.000000000000000E+000
 -3.490000000000000E-002    0.000000000000000E+000
 -3.480000000000000E-002    0.000000000000000E+000
 -3.470000000000000E-002    0.000000000000000E+000
 -3.460000000000000E-002    0.000000000000000E+000
 -3.450000000000000E-002    0.000000000000000E+000
 -3.440000000000000E-002    0.000000000000000E+000
 -3.430000000000000E-002    0.000000000000000E+000
 -3.420000000000000E-002    0.000000000000000E+000
 -3.410000000000000E-002    0.000000000000000E+000
 -3.400000000000000E-002    0.000000000000000E+000
 -3.390000000000000E-002    0.000000000000000E+000
 -3.380000000000000E-002    5.126594182301152E-048
 -3.370000000000000E-002    1.025318836460230E-047
 -3.360000000000000E-002    1.668315393308210E-047
 -3.350000000000000E-002    2.837401106529422E-047
 -3.340000000000000E-002    7.047811991211870E-047
 -3.330000000000000E-002    1.008189275234537E-046
 -3.320000000000000E-002    1.700171549829394E-046
 -3.310000000000000E-002    2.373638460062349E-046
 -3.300000000000000E-002    2.872292124032286E-046
 -3.290000000000000E-002    2.875598640396711E-046
 -3.280000000000000E-002    1.115010095822047E-046
 -3.270000000000000E-002   -2.571636491491581E-046
 -3.260000000000000E-002   -1.036992630904482E-045
 -3.250000000000000E-002   -2.342981922814450E-045
 -3.240000000000000E-002   -4.541856565126681E-045
 -3.230000000000000E-002   -8.104812040983410E-045
 -3.220000000000000E-002   -1.174052635944563E-044
 -3.210000000000000E-002   -1.572426380865886E-044
 -3.200000000000000E-002   -1.909560869745239E-044
 -3.190000000000000E-002   -2.052842413092185E-044
 -3.180000000000000E-002   -1.649831980276368E-044
 -3.170000000000000E-002   -3.697467120326125E-045
 -3.160000000000000E-002    2.342716142373088E-044
 -3.150000000000000E-002    7.046494386205234E-044
 -3.140000000000000E-002    1.414500155216177E-043
 -3.130000000000000E-002    2.397053676418679E-043
 -3.120000000000000E-002    3.625218395565000E-043
 -3.110000000000000E-002    4.979284897086705E-043
 -3.100000000000000E-002    6.162864212108842E-043
 -3.090000000000000E-002    6.635270107360787E-043
 -3.080000000000000E-002    5.480563575859165E-043
 -3.070000000000000E-002    1.346069998807832E-043
 -3.060000000000000E-002   -7.618021318029539E-043
 -3.050000000000000E-002   -2.361184229671820E-042
 -3.040000000000000E-002   -4.873984418379617E-042
 -3.030000000000000E-002   -8.397598832457491E-042
 -3.020000000000000E-002   -1.272323696521765E-041
 -3.010000000000000E-002   -1.701747836917661E-041
 -3.000000000000000E-002   -1.936114302255318E-041
 -2.990000000000000E-002   -1.615189896913157E-041
 -2.980000000000000E-002   -1.474560689634616E-042
 -2.970000000000000E-002    3.334504572788670E-041
 -2.960000000000000E-002    9.957108011164139E-041
 -2.950000000000000E-002    2.095829165531474E-040
 -2.940000000000000E-002    3.731402897861910E-040
 -2.930000000000000E-002    5.902146853478766E-040
 -2.920000000000000E-002    8.392391741002820E-040
 -2.910000000000000E-002    1.060124963976264E-039
 -2.900000000000000E-002    1.132652978783176E-039
 -2.890000000000000E-002    8.532316664276820E-040
 -2.880000000000000E-002   -8.324460173989593E-041
 -2.870000000000000E-002   -2.084562276881677E-039
 -2.860000000000000E-002   -5.627386893908771E-039
 -2.850000000000000E-002   -1.116460926626952E-038
 -2.840000000000000E-002   -1.894645007509707E-038
 -2.830000000000000E-002   -2.873022312173172E-038
 -2.820000000000000E-002   -3.936628858463790E-038
 -2.810000000000000E-002   -4.827585102354470E-038
 -2.800000000000000E-002   -5.088475664540152E-038
 -2.790000000000000E-002   -4.014873636770494E-038
 -2.780000000000000E-002   -6.397406775180167E-039
 -2.770000000000000E-002    6.217397360901490E-038
 -2.760000000000000E-002    1.779463619927200E-037
 -2.750000000000000E-002    3.507923868779852E-037
 -2.740000000000000E-002    5.830635581376720E-037
 -2.730000000000000E-002    8.624657787197595E-037
 -2.720000000000000E-002    1.153082332275410E-036
 -2.710000000000000E-002    1.385518912050862E-036
 -2.700000000000000E-002    1.448141915379880E-036
 -2.690000000000000E-002    1.182598476935758E-036
 -2.680000000000000E-002    3.880791878488100E-037
 -2.670000000000000E-002   -1.160182586565518E-036
 -2.660000000000000E-002   -3.672331122629933E-036
 -2.650000000000000E-002   -7.280277328267163E-036
 -2.640000000000000E-002   -1.194689418860843E-035
 -2.630000000000000E-002   -1.735107060419722E-035
 -2.620000000000000E-002   -2.275971970667532E-035
 -2.610000000000000E-002   -2.690851559659090E-035
 -2.600000000000000E-002   -2.792557144954407E-035
 -2.590000000000000E-002   -2.334465355657914E-035
 -2.580000000000000E-002   -1.026374533167904E-035
 -2.570000000000000E-002    1.429320623512161E-035
 -2.560000000000000E-002    5.276371307858353E-035
 -2.550000000000000E-002    1.061628508554859E-034
 -2.540000000000000E-002    1.729559557132428E-034
 -2.530000000000000E-002    2.477864972489667E-034
 -2.520000000000000E-002    3.202474898465903E-034
 -2.510000000000000E-002    3.739855061973000E-034
 -2.500000000000000E-002    3.865200910427279E-034
 -2.490000000000000E-002    3.302251501798893E-034
 -2.480000000000000E-002    1.749223372371965E-034
 -2.470000000000000E-002   -1.075545742038100E-034
 -2.460000000000000E-002   -5.366793108522650E-034
 -2.450000000000000E-002   -1.114649047712485E-033
 -2.440000000000000E-002   -1.816605262718232E-033
 -2.430000000000000E-002   -2.580970762976498E-033
 -2.420000000000000E-002   -3.301851795468165E-033
 -2.410000000000000E-002   -3.826005026342370E-033
 -2.400000000000000E-002   -3.957190643937098E-033
 -2.390000000000000E-002   -3.470635276169835E-033
 -2.380000000000000E-002   -2.139653262360102E-033
 -2.370000000000000E-002    2.249228248248317E-034
 -2.360000000000000E-002    3.723994951642643E-033
 -2.350000000000000E-002    8.312443634247568E-033
 -2.340000000000000E-002    1.374185008694944E-032
 -2.330000000000000E-002    1.951430097520057E-032
 -2.320000000000000E-002    2.486020448032765E-032
 -2.310000000000000E-002    2.875389528055805E-032
 -2.300000000000000E-002    2.997929063446231E-032
 -2.290000000000000E-002    2.725338124969343E-032
 -2.280000000000000E-002    1.940765931468266E-032
 -2.270000000000000E-002    5.616832425570867E-033
 -2.260000000000000E-002   -1.434848420730369E-032
 -2.250000000000000E-002   -3.988136187578299E-032
 -2.240000000000000E-002   -6.935714582302539E-032
 -2.230000000000000E-002   -1.000629238453892E-031
 -2.220000000000000E-002   -1.282862829522609E-031
 -2.210000000000000E-002   -1.495972548460645E-031
 -2.200000000000000E-002   -1.593306659863384E-031
 -2.190000000000000E-002   -1.532384873137906E-031
 -2.180000000000000E-002   -1.282366021686098E-031
 -2.170000000000000E-002   -8.312580901551907E-032
 -2.160000000000000E-002   -1.913116442342413E-032
 -2.150000000000000E-002    5.990958029442140E-032
 -2.140000000000000E-002    1.478585548198832E-031
 -2.130000000000000E-002    2.371801853682533E-031
 -2.120000000000000E-002    3.204156891846943E-031
 -2.110000000000000E-002    3.920656140779229E-031
 -2.100000000000000E-002    4.505474849513508E-031
 -2.090000000000000E-002    4.997335169848996E-031
 -2.080000000000000E-002    5.494548354712116E-031
 -2.070000000000000E-002    6.143366747258923E-031
 -2.060000000000000E-002    7.104397905504600E-031
 -2.050000000000000E-002    8.494711300071622E-031
 -2.040000000000000E-002    1.030796216000912E-030
 -2.030000000000000E-002    1.232117396132448E-030
 -2.020000000000000E-002    1.400410207996760E-030
 -2.010000000000000E-002    1.445416282491840E-030
 -2.000000000000000E-002    1.238521450322330E-030
 -1.990000000000000E-002    6.200169487339281E-031
 -1.980000000000000E-002   -5.826475742334417E-031
 -1.970000000000000E-002   -2.524090131569918E-030
 -1.960000000000000E-002   -5.298037006948094E-030
 -1.950000000000000E-002   -8.885097475218999E-030
 -1.940000000000000E-002   -1.309727800397495E-029
 -1.930000000000000E-002   -1.752845634993071E-029
 -1.920000000000000E-002   -2.152277341687034E-029
 -1.910000000000000E-002   -2.417452878699538E-029
 -1.900000000000000E-002   -2.437288849927670E-029
 -1.890000000000000E-002   -2.090191472128464E-029
 -1.880000000000000E-002   -1.260068742740844E-029
 -1.870000000000000E-002    1.420439038631579E-030
 -1.860000000000000E-002    2.152261422830384E-029
 -1.850000000000000E-002    4.726805489151489E-029
 -1.840000000000000E-002    7.717635861797481E-029
 -1.830000000000000E-002    1.085571737857306E-028
 -1.820000000000000E-002    1.374732910174299E-028
 -1.810000000000000E-002    1.588851702055228E-028
 -1.800000000000000E-002    1.670153513754528E-028
 -1.790000000000000E-002    1.559482513180530E-028
 -1.780000000000000E-002    1.204482495257530E-028
 -1.770000000000000E-002    5.693894604649854E-029
 -1.760000000000000E-002   -3.545615819259211E-029
 -1.750000000000000E-002   -1.539509203726587E-028
 -1.740000000000000E-002   -2.913796034913077E-028
 -1.730000000000000E-002   -4.359038978278220E-028
 -1.720000000000000E-002   -5.713067251567699E-028
 -1.710000000000000E-002   -6.779909720010706E-028
 -1.700000000000000E-002   -7.347254124100192E-028
 -1.690000000000000E-002   -7.210779869036930E-028
 -1.680000000000000E-002   -6.203577509025877E-028
 -1.670000000000000E-002   -4.227643162342814E-028
 -1.660000000000000E-002   -1.283384367938828E-028
 -1.650000000000000E-002    2.507609964006759E-028
 -1.640000000000000E-002    6.891396420566154E-028
 -1.630000000000000E-002    1.148635643583756E-027
 -1.620000000000000E-002    1.580657022337960E-027
 -1.610000000000000E-002    1.930456208160980E-027
 -1.600000000000000E-002    2.143133411465562E-027
 -1.590000000000000E-002    2.170855402692303E-027
 -1.580000000000000E-002    1.980485833095541E-027
 -1.570000000000000E-002    1.560591185576057E-027
 -1.560000000000000E-002    9.266697232936345E-028
 -1.550000000000000E-002    1.234860979881629E-028
 -1.540000000000000E-002   -7.763947269488440E-028
 -1.530000000000000E-002   -1.678378708793259E-027
 -1.520000000000000E-002   -2.475871639120226E-027
 -1.510000000000000E-002   -3.063864635533482E-027
 -1.500000000000000E-002   -3.354697687217540E-027
 -1.490000000000000E-002   -3.294037110944179E-027
 -1.480000000000000E-002   -2.874696347432653E-027
 -1.470000000000000E-002   -2.145821021765096E-027
 -1.460000000000000E-002   -1.215192647291927E-027
 -1.450000000000000E-002   -2.430228000230541E-028
 -1.440000000000000E-002    5.734402969119997E-028
 -1.430000000000000E-002    1.023946904405084E-027
 -1.420000000000000E-002    9.160822814343455E-028
 -1.410000000000000E-002    1.098010434276358E-028
 -1.400000000000000E-002   -1.448404064948401E-027
 -1.390000000000000E-002   -3.696314173793361E-027
 -1.380000000000000E-002   -6.436362657423704E-027
 -1.370000000000000E-002   -9.329541252260905E-027
 -1.360000000000000E-002   -1.190564565079301E-026
 -1.350000000000000E-002   -1.359105761852765E-026
 -1.340000000000000E-002   -1.375353718484688E-026
 -1.330000000000000E-002   -1.176179038077020E-026
 -1.320000000000000E-002   -7.056183859113766E-027
 -1.310000000000000E-002    7.738841124614498E-028
 -1.300000000000000E-002    1.191086166340492E-026
 -1.290000000000000E-002    2.623297081482960E-026
 -1.280000000000000E-002    4.324578194187757E-026
 -1.270000000000000E-002    6.202594382019422E-026
 -1.260000000000000E-002    8.118209556893000E-026
 -1.250000000000000E-002    9.883925346275350E-026
 -1.240000000000000E-002    1.126552766955078E-025
 -1.230000000000000E-002    1.198807820994871E-025
 -1.220000000000000E-002    1.174767132088524E-025
 -1.210000000000000E-002    1.023052409293296E-025
 -1.200000000000000E-002    7.140870066837916E-026
 -1.190000000000000E-002    2.238596588321957E-026
 -1.180000000000000E-002   -4.613503178287938E-026
 -1.170000000000000E-002   -1.339466119043138E-025
 -1.160000000000000E-002   -2.386731046187487E-025
 -1.150000000000000E-002   -3.552118778222537E-025
 -1.140000000000000E-002   -4.752973313678095E-025
 -1.130000000000000E-002   -5.873039230180103E-025
 -1.120000000000000E-002   -6.764158666296718E-025
 -1.110000000000000E-002   -7.252862766041014E-025
 -1.100000000000000E-002   -7.152798079650223E-025
 -1.090000000000000E-002   -6.283391698960352E-025
 -1.080000000000000E-002   -4.494338406604636E-025
 -1.070000000000000E-002   -1.694458959428065E-025
 -1.060000000000000E-002    2.117689227441530E-025
 -1.050000000000000E-002    6.825214280287386E-025
 -1.040000000000000E-002    1.217100200128960E-024
 -1.030000000000000E-002    1.774772452195262E-024
 -1.020000000000000E-002    2.300479576317346E-024
 -1.010000000000000E-002    2.727633204572901E-024
 -1.000000000000000E-002    2.983232452234724E-024
 -9.899999999999999E-003    2.995245607151308E-024
 -9.800000000000000E-003    2.701859080976598E-024
 -9.699999999999999E-003    2.061813532257990E-024
 -9.599999999999999E-003    1.064688293287387E-024
 -9.500000000000000E-003   -2.602994431377974E-025
 -9.399999999999999E-003   -1.838562270140302E-024
 -9.299999999999999E-003   -3.549020353095049E-024
 -9.200000000000000E-003   -5.228847247024754E-024
 -9.099999999999999E-003   -6.684814063228053E-024
 -8.999999999999999E-003   -7.711189357248270E-024
 -8.900000000000000E-003   -8.113218979481407E-024
 -8.799999999999999E-003   -7.734191776312743E-024
 -8.699999999999999E-003   -6.483149574009356E-024
 -8.600000000000000E-003   -4.359568230289948E-024
 -8.499999999999999E-003   -1.470967904689849E-024
 -8.399999999999999E-003    1.960433628730235E-024
 -8.300000000000000E-003    5.605183802779320E-024
 -8.199999999999999E-003    9.049980696711409E-024
 -8.100000000000000E-003    1.183692412927664E-023
 -8.000000000000000E-003    1.351632188951955E-023
 -7.899999999999999E-003    1.370840935257975E-023
 -7.800000000000000E-003    1.216719290401298E-023
 -7.699999999999999E-003    8.838058359059545E-024
 -7.599999999999999E-003    3.900104362517050E-024
 -7.499999999999999E-003   -2.215351388805107E-024
 -7.399999999999999E-003   -8.836913621149410E-024
 -7.299999999999999E-003   -1.509965721647602E-023
 -7.199999999999999E-003   -2.002581466385631E-023
 -7.100000000000000E-003   -2.263463580781620E-023
 -6.999999999999999E-003   -2.207170303805461E-023
 -6.899999999999999E-003   -1.774386193816755E-023
 -6.800000000000000E-003   -9.443062830749614E-024
 -6.699999999999999E-003    2.558551879864246E-024
 -6.599999999999999E-003    1.745870890730328E-023
 -6.499999999999999E-003    3.393286129604632E-023
 -6.399999999999999E-003    5.020666443915074E-023
 -6.299999999999999E-003    6.419238298604936E-023
 -6.199999999999999E-003    7.368035896371923E-023
 -6.100000000000000E-003    7.656876322220965E-023
 -5.999999999999999E-003    7.110865922674381E-023
 -5.899999999999999E-003    5.613754711437042E-023
 -5.800000000000000E-003    3.127431754654420E-023
 -5.699999999999999E-003   -2.948215193309588E-024
 -5.599999999999999E-003   -4.503021131284223E-023
 -5.499999999999999E-003   -9.253880978134962E-023
 -5.399999999999999E-003   -1.422262396809765E-022
 -5.299999999999999E-003   -1.902188196515088E-022
 -5.199999999999999E-003   -2.322556241335848E-022
 -5.099999999999999E-003   -2.639514010859691E-022
 -4.999999999999999E-003   -2.810589013375415E-022
 -4.899999999999999E-003   -2.797114113719888E-022
 -4.799999999999999E-003   -2.566362650766055E-022
 -4.699999999999999E-003   -2.093423290916217E-022
 -4.599999999999999E-003   -1.362967381848572E-022
 -4.499999999999999E-003   -3.711484444328039E-023
 -4.399999999999999E-003    8.721025229805976E-023
 -4.299999999999999E-003    2.340188989501530E-022
 -4.199999999999999E-003    3.986339002368337E-022
 -4.099999999999999E-003    5.739708084215156E-022
 -3.999999999999999E-003    7.501658584334583E-022
 -3.899999999999999E-003    9.143126110225859E-022
 -3.799999999999999E-003    1.050428514608471E-021
 -3.699999999999999E-003    1.139788820347934E-021
 -3.599999999999999E-003    1.161762137442297E-021
 -3.499999999999999E-003    1.095251411529393E-021
 -3.399999999999999E-003    9.207840349828723E-022
 -3.299999999999999E-003    6.232055333224880E-022
 -3.199999999999999E-003    1.948199420487059E-022
 -3.099999999999999E-003   -3.613033057667480E-022
 -2.999999999999999E-003   -1.028253266721283E-021
 -2.899999999999999E-003   -1.772921982899781E-021
 -2.799999999999999E-003   -2.544906327049292E-021
 -2.699999999999999E-003   -3.277185064797741E-021
 -2.599999999999999E-003   -3.888992315488274E-021
 -2.499999999999999E-003   -4.291127339109357E-021
 -2.399999999999999E-003   -4.393680198647035E-021
 -2.299999999999999E-003   -4.115832381393481E-021
 -2.199999999999999E-003   -3.397040211848206E-021
 -2.099999999999999E-003   -2.208566941524118E-021
 -1.999999999999999E-003   -5.640501807185085E-022
 -1.899999999999999E-003    1.472385436994890E-021
 -1.799999999999999E-003    3.781977957456771E-021
 -1.699999999999999E-003    6.192485172383926E-021
 -1.599999999999999E-003    8.485622145472660E-021
 -1.499999999999999E-003    1.041119696254650E-020
 -1.399999999999999E-003    1.170764822907323E-020
 -1.299999999999999E-003    1.212786762026556E-020
 -1.199999999999999E-003    1.146837504231997E-020
 -1.099999999999999E-003    9.599174519151673E-021
 -9.999999999999989E-004    6.491071092793803E-021
 -8.999999999999990E-004    2.236958495592268E-021
 -7.999999999999990E-004   -2.936295276273483E-021
 -6.999999999999989E-004   -8.668255376726069E-021
 -5.999999999999990E-004   -1.447959901944530E-020
 -4.999999999999989E-004   -1.980178517516788E-020
 -3.999999999999989E-004   -2.402091131495532E-020
 -2.999999999999989E-004   -2.653332232753443E-020
 -1.999999999999989E-004   -2.680892386632306E-020
 -9.999999999999892E-005   -2.445678776869705E-020
  1.084202172485504E-018   -1.928665779402253E-020
  1.000000000000011E-004   -1.135954196307489E-020
  2.000000000000011E-004   -1.020791810503417E-021
  3.000000000000011E-004    1.109000611075623E-020
  4.000000000000011E-004    2.405641861728336E-020
  5.000000000000011E-004    3.673178041560993E-020
  6.000000000000011E-004    4.781442552005719E-020
  7.000000000000011E-004    5.594818421719765E-020
  8.000000000000011E-004    5.984209775020578E-020
  9.000000000000012E-004    5.840089603994847E-020
  1.000000000000001E-003    5.085597785784764E-020
  1.100000000000001E-003    3.688541546459995E-020
  1.200000000000001E-003    1.671130845247254E-020
  1.300000000000001E-003   -8.836618919977145E-021
  1.400000000000001E-003   -3.830069854595932E-020
  1.500000000000001E-003   -6.962542683698733E-020
  1.600000000000001E-003   -1.002420538533669E-019
  1.700000000000001E-003   -1.272080929004941E-019
  1.800000000000001E-003   -1.473982139100212E-019
  1.900000000000001E-003   -1.577388220506319E-019
  2.000000000000001E-003   -1.554746488977386E-019
  2.100000000000001E-003   -1.384517926236024E-019
  2.200000000000001E-003   -1.053984331558759E-019
  2.300000000000001E-003   -5.618173341327340E-020
  2.400000000000001E-003    7.982268335503714E-021
  2.500000000000001E-003    8.438939205660993E-020
  2.600000000000001E-003    1.688015698644005E-019
  2.700000000000001E-003    2.555147483096697E-019
  2.800000000000001E-003    3.375560750599509E-019
  2.900000000000001E-003    4.070193309511899E-019
  3.000000000000001E-003    4.555386797647727E-019
  3.100000000000001E-003    4.748900577265327E-019
  3.200000000000001E-003    4.576969097184771E-019
  3.300000000000001E-003    3.982038065911622E-019
  3.400000000000001E-003    2.930677730960424E-019
  3.500000000000001E-003    1.421053346463749E-019
  3.600000000000001E-003   -5.107653248805813E-020
  3.700000000000001E-003   -2.786421553093851E-019
  3.800000000000001E-003   -5.283580827619218E-019
  3.900000000000001E-003   -7.837617147048931E-019
  4.000000000000001E-003   -1.024721098608012E-018
  4.100000000000001E-003   -1.228415427390051E-018
  4.200000000000001E-003   -1.370734954807217E-018
  4.300000000000001E-003   -1.428061220883697E-018
  4.400000000000001E-003   -1.379347537192529E-018
  4.500000000000001E-003   -1.208377585564637E-018
  4.600000000000002E-003   -9.060405309923662E-019
  4.700000000000001E-003   -4.724292002248168E-019
  4.800000000000001E-003    8.145191333698959E-020
  4.900000000000002E-003    7.325882684327171E-019
  5.000000000000001E-003    1.445671097155011E-018
  5.100000000000001E-003    2.173799101925697E-018
  5.200000000000001E-003    2.860281856682263E-018
  5.300000000000002E-003    3.441586358959967E-018
  5.400000000000001E-003    3.851378515840602E-018
  5.500000000000001E-003    4.025507651048130E-018
  5.600000000000002E-003    3.907679534787451E-018
  5.700000000000001E-003    3.455460532366266E-018
  5.800000000000001E-003    2.646170912095212E-018
  5.900000000000002E-003    1.482159284016614E-018
  6.000000000000001E-003   -5.078750933194357E-021
  6.100000000000001E-003   -1.752466593561040E-018
  6.200000000000002E-003   -3.665076612583246E-018
  6.300000000000002E-003   -5.618399354598705E-018
  6.400000000000001E-003   -7.463382060657613E-018
  6.500000000000001E-003   -9.034283657768225E-018
  6.600000000000002E-003   -1.015916900031353E-017
  6.700000000000001E-003   -1.067262639791321E-017
  6.800000000000001E-003   -1.043005490057541E-017
  6.900000000000002E-003   -9.322631268464501E-018
  7.000000000000001E-003   -7.291879288927653E-018
  7.100000000000001E-003   -4.342622087907608E-018
  7.200000000000002E-003   -5.530340356881091E-019
  7.300000000000002E-003    3.919464931352832E-018
  7.400000000000001E-003    8.837602782944588E-018
  7.500000000000001E-003    1.388982964129455E-017
  7.600000000000002E-003    1.870262025819388E-017
  7.700000000000001E-003    2.285961763777584E-017
  7.800000000000001E-003    2.592721158707887E-017
  7.900000000000001E-003    2.748557559096381E-017
  8.000000000000002E-003    2.716361701853388E-017
  8.100000000000001E-003    2.467572982589108E-017
  8.200000000000001E-003    1.985778483785473E-017
  8.300000000000002E-003    1.269943880290481E-017
  8.400000000000001E-003    3.369672279935415E-018
  8.500000000000002E-003   -7.767483000322387E-018
  8.600000000000002E-003   -2.014979202674280E-017
  8.700000000000001E-003   -3.302844321502416E-017
  8.800000000000002E-003   -4.549586853240145E-017
  8.900000000000002E-003   -5.653013195201487E-017
  9.000000000000001E-003   -6.505503546016412E-017
  9.100000000000002E-003   -7.001375553535955E-017
  9.200000000000002E-003   -7.045245286914964E-017
  9.300000000000001E-003   -6.560898547030410E-017
  9.400000000000002E-003   -5.500073492073361E-017
  9.500000000000001E-003   -3.850472395776156E-017
  9.600000000000001E-003   -1.642278360225975E-017
  9.700000000000002E-003    1.047541535805522E-017
  9.800000000000001E-003    4.093802550316240E-017
  9.900000000000001E-003    7.325075896755787E-017
  1.000000000000000E-002    1.052942179002222E-016
  1.010000000000000E-002    1.346401421128468E-016
  1.020000000000000E-002    1.586850445207914E-016
  1.030000000000000E-002    1.748167980358524E-016
  1.040000000000000E-002    1.806066140815973E-016
  1.050000000000000E-002    1.740158816289262E-016
  1.060000000000000E-002    1.536047752246291E-016
  1.070000000000000E-002    1.187275604620107E-016
  1.080000000000000E-002    6.969835580889499E-017
  1.090000000000000E-002    7.911028915191675E-018
  1.100000000000000E-002   -6.410208030579077E-017
  1.110000000000000E-002   -1.426855497229861E-016
  1.120000000000000E-002   -2.231598680716352E-016
  1.130000000000000E-002   -3.000087015374811E-016
  1.140000000000000E-002   -3.671534881400657E-016
  1.150000000000000E-002   -4.183079587305918E-016
  1.160000000000000E-002   -4.473985226009769E-016
  1.170000000000000E-002   -4.490298230615475E-016
  1.180000000000000E-002   -4.189685178538283E-016
  1.190000000000000E-002   -3.546135868405213E-016
  1.200000000000000E-002   -2.554177440262315E-016
  1.210000000000000E-002   -1.232233931304799E-016
  1.220000000000000E-002    3.752284061714442E-017
  1.230000000000000E-002    2.197090403832635E-016
  1.240000000000000E-002    4.136763588794816E-016
  1.250000000000000E-002    6.075336208431192E-016
  1.260000000000000E-002    7.876735636155498E-016
  1.270000000000000E-002    9.394827478377602E-016
  1.280000000000000E-002    1.048222405064131E-015
  1.290000000000000E-002    1.100042726632524E-015
  1.300000000000000E-002    1.083077691818390E-015
  1.310000000000000E-002    9.885557560977593E-016
  1.320000000000000E-002    8.118505392833088E-016
  1.330000000000000E-002    5.533899125903308E-016
  1.340000000000000E-002    2.193404949438190E-016
  1.350000000000000E-002   -1.780117532826063E-016
  1.360000000000000E-002   -6.202534080091437E-016
  1.370000000000000E-002   -1.083260281811112E-015
  1.380000000000000E-002   -1.538068739000960E-015
  1.390000000000000E-002   -1.952204598152507E-015
  1.400000000000000E-002   -2.291439768795938E-015
  1.410000000000000E-002   -2.521914148513095E-015
  1.420000000000000E-002   -2.612526273635716E-015
  1.430000000000000E-002   -2.537463370148730E-015
  1.440000000000000E-002   -2.278714763083031E-015
  1.450000000000000E-002   -1.828392479335367E-015
  1.460000000000000E-002   -1.190671547685450E-015
  1.470000000000000E-002   -3.831637882197457E-016
  1.480000000000000E-002    5.624472385577472E-016
  1.490000000000000E-002    1.600655527575600E-015
  1.500000000000000E-002    2.673368742601008E-015
  1.510000000000000E-002    3.712180994238295E-015
  1.520000000000000E-002    4.641665478435965E-015
  1.530000000000000E-002    5.383598063534737E-015
  1.540000000000000E-002    5.861946165079499E-015
  1.550000000000000E-002    6.008382732444291E-015
  1.560000000000000E-002    5.768013502213311E-015
  1.570000000000000E-002    5.104952321268222E-015
  1.580000000000000E-002    4.007337660008163E-015
  1.590000000000000E-002    2.491368772514123E-015
  1.600000000000000E-002    6.039511892723242E-016
  1.610000000000000E-002   -1.576418829543304E-015
  1.620000000000000E-002   -3.940825592996517E-015
  1.630000000000000E-002   -6.353355176641764E-015
  1.640000000000000E-002   -8.656829496508141E-015
  1.650000000000000E-002   -1.068076335471108E-014
  1.660000000000000E-002   -1.225128586162641E-014
  1.670000000000000E-002   -1.320260066905585E-014
  1.680000000000000E-002   -1.338939176468151E-014
  1.690000000000000E-002   -1.269944137343583E-014
  1.700000000000000E-002   -1.106561209524554E-014
  1.710000000000000E-002   -8.476279086398814E-015
  1.720000000000000E-002   -4.983290244059384E-015
  1.730000000000000E-002   -7.065821116545505E-016
  1.740000000000000E-002    4.165299316610947E-015
  1.750000000000000E-002    9.379334706575126E-015
  1.760000000000000E-002    1.462712957800328E-014
  1.770000000000000E-002    1.955897774992431E-014
  1.780000000000000E-002    2.380254156341802E-014
  1.790000000000000E-002    2.698543914487468E-014
  1.800000000000000E-002    2.876065632902922E-014
  1.810000000000000E-002    2.883338599117784E-014
  1.820000000000000E-002    2.698760700634417E-014
  1.830000000000000E-002    2.311052808007796E-014
  1.840000000000000E-002    1.721295302380187E-014
  1.850000000000000E-002    9.443646708275452E-015
  1.860000000000000E-002    9.599004360692371E-017
  1.870000000000000E-002   -1.039447788105126E-014