 -4.000000000000000E-002    0.000000000000000E+000
 -3.990000000000000E-002    0.000000000000000E+000
 -3.980000000000000E-002    0.000000000000000E+000
 -3.970000000000000E-002    0.000000000000000E+000
 -3.960000000000000E-002    0.000000000000000E+000
 -3.950000000000000E-002    0.000000000000000E+000
 -3.940000000000000E-002    0.000000000000000E+000
 -3.930000000000000E-002    0.000000000000000E+000
 -3.920000000000000E-002    0.000000000000000E+000
 -3.910000000000000E-002    0.000000000000000E+000
 -3.900000000000000E-002    0.000000000000000E+000
 -3.890000000000000E-002    0.000000000000000E+000
 -3.880000000000000E-002    0.000000000000000E+000
 -3.870000000000000E-002    0.000000000000000E+000
 -3.860000000000000E-002    0.000000000000000E+000
 -3.850000000000000E-002    0.000000000000000E+000
 -3.840000000000000E-002    0.000000000000000E+000
 -3.830000000000000E-002    0.000000000000000E+000
 -3.820000000000000E-002    0.000000000000000E+000
 -3.810000000000000E-002    0.000000000000000E+000
 -3.800000000000000E-002    0.000000000000000E+000
 -3.790000000000000E-002    0.000000000000000E+000
 -3.780000000000000E-002    0.000000000000000E+000
 -3.770000000000000E-002    0.000000000000000E+000
 -3.760000000000000E-002    0.000000000000000E+000
 -3.750000000000000E-002    0.000000000000000E+000
 -3.740000000000000E-002    0.000000000000000E+000
 -3.730000000000000E-002    0.000000000000000E+000
 -3.720000000000000E-002    0.000000000000000E+000
 -3.710000000000000E-002    0.000000000000000E+000
 -3.700000000000000E-002    0.000000000000000E+000
 -3.690000000000000E-002    0.000000000000000E+000
 -3.680000000000000E-002    0.000000000000000E+000
 -3.670000000000000E-002    0.000000000000000E+000
 -3.660000000000000E-002    0.000000000000000E+000
 -3.650000000000000E-002    0.000000000000000E+000
 -3.640000000000000E-002    0.000000000000000E+000
 -3.630000000000000E-002    0.000000000000000E+000
 -3.620000000000000E-002    0.000000000000000E+000
 -3.610000000000000E-002    0.000000000000000E+000
 -3.600000000000000E-002    0.000000000000000E+000
 -3.590000000000000E-002    0.000000000000000E+000
 -3.580000000000000E-002    0.000000000000000E+000
 -3.570000000000000E-002    0.000000000000000E+000
 -3.560000000000000E-002    0.000000000000000E+000
 -3.550000000000000E-002    0.000000000000000E+000
 -3.540000000000000E-002    0.000000000000000E+000
 -3.530000000000000E-002    0.000000000000000E+000
 -3.520000000000000E-002    0.000000000000000E+000
 -3.510000000000000E-002    0.000000000000000E+000
 -3.500000000000000E-002    0.000000000000000E+000
 -3.490000000000000E-002    0.000000000000000E+000
 -3.480000000000000E-002    0.000000000000000E+000
 -3.470000000000000E-002    0.000000000000000E+000
 -3.460000000000000E-002    0.000000000000000E+000
 -3.450000000000000E-002    0.000000000000000E+000
 -3.440000000000000E-002    0.000000000000000E+000
 -3.430000000000000E-002    0.000000000000000E+000
 -3.420000000000000E-002    0.000000000000000E+000
 -3.410000000000000E-002    0.000000000000000E+000
 -3.400000000000000E-002    0.000000000000000E+000
 -3.390000000000000E-002    0.000000000000000E+000
 -3.380000000000000E-002    0.000000000000000E+000
 -3.370000000000000E-002    0.000000000000000E+000
 -3.360000000000000E-002    0.000000000000000E+000
 -3.350000000000000E-002    0.000000000000000E+000
 -3.340000000000000E-002    0.000000000000000E+000
 -3.330000000000000E-002    0.000000000000000E+000
 -3.320000000000000E-002    0.000000000000000E+000
 -3.310000000000000E-002    0.000000000000000E+000
 -3.300000000000000E-002    0.000000000000000E+000
 -3.290000000000000E-002    0.000000000000000E+000
 -3.280000000000000E-002    0.000000000000000E+000
 -3.270000000000000E-002    0.000000000000000E+000
 -3.260000000000000E-002    0.000000000000000E+000
 -3.250000000000000E-002    0.000000000000000E+000
 -3.240000000000000E-002    0.000000000000000E+000
 -3.230000000000000E-002    0.000000000000000E+000
 -3.220000000000000E-002    0.000000000000000E+000
 -3.210000000000000E-002    0.000000000000000E+000
 -3.200000000000000E-002    0.000000000000000E+000
 -3.190000000000000E-002    0.000000000000000E+000
 -3.180000000000000E-002    0.000000000000000E+000
 -3.170000000000000E-002    0.000000000000000E+000
 -3.160000000000000E-002    0.000000000000000E+000
 -3.150000000000000E-002    0.000000000000000E+000
 -3.140000000000000E-002    0.000000000000000E+000
 -3.130000000000000E-002    0.000000000000000E+000
 -3.120000000000000E-002    0.000000000000000E+000
 -3.110000000000000E-002    0.000000000000000E+000
 -3.100000000000000E-002    0.000000000000000E+000
 -3.090000000000000E-002    0.000000000000000E+000
 -3.080000000000000E-002    0.000000000000000E+000
 -3.070000000000000E-002    0.000000000000000E+000
 -3.060000000000000E-002    0.000000000000000E+000
 -3.050000000000000E-002    0.000000000000000E+000
 -3.040000000000000E-002    0.000000000000000E+000
 -3.030000000000000E-002    0.000000000000000E+000
 -3.020000000000000E-002    0.000000000000000E+000
 -3.010000000000000E-002    0.000000000000000E+000
 -3.000000000000000E-002    0.000000000000000E+000
 -2.990000000000000E-002    0.000000000000000E+000
 -2.980000000000000E-002    0.000000000000000E+000
 -2.970000000000000E-002    0.000000000000000E+000
 -2.960000000000000E-002    0.000000000000000E+000
 -2.950000000000000E-002    0.000000000000000E+000
 -2.940000000000000E-002    0.000000000000000E+000
 -2.930000000000000E-002    0.000000000000000E+000
 -2.920000000000000E-002    0.000000000000000E+000
 -2.910000000000000E-002    0.000000000000000E+000
 -2.900000000000000E-002    0.000000000000000E+000
 -2.890000000000000E-002    0.000000000000000E+000
 -2.880000000000000E-002    0.000000000000000E+000
 -2.870000000000000E-002    0.000000000000000E+000
 -2.860000000000000E-002    0.000000000000000E+000
 -2.850000000000000E-002    0.000000000000000E+000
 -2.840000000000000E-002    0.000000000000000E+000
 -2.830000000000000E-002    0.000000000000000E+000
 -2.820000000000000E-002    0.000000000000000E+000
 -2.810000000000000E-002    0.000000000000000E+000
 -2.800000000000000E-002    0.000000000000000E+000
 -2.790000000000000E-002    0.000000000000000E+000
 -2.780000000000000E-002    0.000000000000000E+000
 -2.770000000000000E-002    0.000000000000000E+000
 -2.760000000000000E-002    0.000000000000000E+000
 -2.750000000000000E-002    0.000000000000000E+000
 -2.740000000000000E-002    0.000000000000000E+000
 -2.730000000000000E-002    0.000000000000000E+000
 -2.720000000000000E-002    0.000000000000000E+000
 -2.710000000000000E-002    0.000000000000000E+000
 -2.700000000000000E-002    0.000000000000000E+000
 -2.690000000000000E-002    0.000000000000000E+000
 -2.680000000000000E-002    0.000000000000000E+000
 -2.670000000000000E-002    0.000000000000000E+000
 -2.660000000000000E-002    0.000000000000000E+000
 -2.650000000000000E-002    0.000000000000000E+000
 -2.640000000000000E-002    0.000000000000000E+000
 -2.630000000000000E-002    0.000000000000000E+000
 -2.620000000000000E-002    0.000000000000000E+000
 -2.610000000000000E-002    0.000000000000000E+000
 -2.600000000000000E-002    0.000000000000000E+000
 -2.590000000000000E-002    0.000000000000000E+000
 -2.580000000000000E-002    0.000000000000000E+000
 -2.570000000000000E-002    0.000000000000000E+000
 -2.560000000000000E-002    0.000000000000000E+000
 -2.550000000000000E-002    0.000000000000000E+000
 -2.540000000000000E-002    0.000000000000000E+000
 -2.530000000000000E-002    0.000000000000000E+000
 -2.520000000000000E-002    0.000000000000000E+000
 -2.510000000000000E-002    0.000000000000000E+000
 -2.500000000000000E-002    0.000000000000000E+000
 -2.490000000000000E-002    0.000000000000000E+000
 -2.480000000000000E-002    0.000000000000000E+000
 -2.470000000000000E-002    0.000000000000000E+000
 -2.460000000000000E-002    0.000000000000000E+000
 -2.450000000000000E-002    0.000000000000000E+000
 -2.440000000000000E-002    0.000000000000000E+000
 -2.430000000000000E-002    0.000000000000000E+000
 -2.420000000000000E-002    0.000000000000000E+000
 -2.410000000000000E-002    0.000000000000000E+000
 -2.400000000000000E-002    0.000000000000000E+000
 -2.390000000000000E-002    0.000000000000000E+000
 -2.380000000000000E-002    0.000000000000000E+000
 -2.370000000000000E-002    0.000000000000000E+000
 -2.360000000000000E-002    0.000000000000000E+000
 -2.350000000000000E-002    0.000000000000000E+000
 -2.340000000000000E-002    0.000000000000000E+000
 -2.330000000000000E-002    3.797297521671073E-048
 -2.320000000000000E-002    7.594595043342146E-048
 -2.310000000000000E-002    1.518919008668429E-047
 -2.300000000000000E-002    2.278378513002644E-047
 -2.290000000000000E-002    1.505107537859922E-047
 -2.280000000000000E-002    5.380617497447935E-047
 -2.270000000000000E-002    6.963937473224797E-047
 -2.260000000000000E-002    5.521183929412732E-047
 -2.250000000000000E-002    1.066077772453316E-046
 -2.240000000000000E-002    6.992323237498574E-047
 -2.230000000000000E-002    7.209022155478071E-047
 -2.220000000000000E-002    1.085108993916211E-046
 -2.210000000000000E-002    1.559114025827694E-046
 -2.200000000000000E-002    1.762489215092926E-046
 -2.190000000000000E-002   -3.568213735301619E-047
 -2.180000000000000E-002   -2.231198773015281E-046
 -2.170000000000000E-002   -6.113576122622711E-047
 -2.160000000000000E-002   -5.761322986806872E-047
 -2.150000000000000E-002   -2.787383499257365E-046
 -2.140000000000000E-002   -4.764690029531208E-046
 -2.130000000000000E-002   -4.214722911800978E-046
 -2.120000000000000E-002   -7.315110446427403E-046
 -2.110000000000000E-002   -2.826640336758702E-045
 -2.100000000000000E-002   -5.733085674020571E-045
 -2.090000000000000E-002   -8.295237312810269E-045
 -2.080000000000000E-002   -1.080992046390568E-044
 -2.070000000000000E-002   -1.208716837186460E-044
 -2.060000000000000E-002   -1.091417872731904E-044
 -2.050000000000000E-002   -6.099185199249407E-045
 -2.040000000000000E-002    3.431197942171971E-045
 -2.030000000000000E-002    2.012039394842500E-044
 -2.020000000000000E-002    4.146134311692908E-044
 -2.010000000000000E-002    6.622741611301034E-044
 -2.000000000000000E-002    8.827527716256452E-044
 -1.990000000000000E-002    1.017719573454743E-043
 -1.980000000000000E-002    9.663550277242970E-044
 -1.970000000000000E-002    6.379019998489543E-044
 -1.960000000000000E-002   -6.041503976321124E-046
 -1.950000000000000E-002   -9.687690581350169E-044
 -1.940000000000000E-002   -2.109974366144571E-043
 -1.930000000000000E-002   -3.168457895204884E-043
 -1.920000000000000E-002   -3.736853950363816E-043
 -1.910000000000000E-002   -3.310421626349497E-043
 -1.900000000000000E-002   -1.395384861841381E-043
 -1.890000000000000E-002    2.280821819842808E-043
 -1.880000000000000E-002    7.577988332210072E-043
 -1.870000000000000E-002    1.361259305593013E-042
 -1.860000000000000E-002    1.856184779745542E-042
 -1.850000000000000E-002    1.958558632702682E-042
 -1.840000000000000E-002    1.302246144874583E-042
 -1.830000000000000E-002   -4.976972377602591E-043
 -1.820000000000000E-002   -3.737240748353046E-042
 -1.810000000000000E-002   -8.458694028598660E-042
 -1.800000000000000E-002   -1.425487537925302E-041
 -1.790000000000000E-002   -2.007203565598595E-041
 -1.780000000000000E-002   -2.407125343555460E-041
 -1.770000000000000E-002   -2.362797138267012E-041
 -1.760000000000000E-002   -1.555023206271485E-041
 -1.750000000000000E-002    3.380460507362753E-042
 -1.740000000000000E-002    3.552507961423814E-041
 -1.730000000000000E-002    8.115343870501227E-041
 -1.720000000000000E-002    1.370084438942470E-040
 -1.710000000000000E-002    1.949117644306526E-040
 -1.700000000000000E-002    2.408206706262328E-040
 -1.690000000000000E-002    2.548527106021707E-040
 -1.680000000000000E-002    2.128522612590105E-040
 -1.670000000000000E-002    8.999668589027180E-041
 -1.660000000000000E-002   -1.332877967759955E-040
 -1.650000000000000E-002   -4.632872254758887E-040
 -1.640000000000000E-002   -8.836450342357333E-040
 -1.630000000000000E-002   -1.346307589752370E-039
 -1.620000000000000E-002   -1.765177480224801E-039
 -1.610000000000000E-002   -2.015530309962576E-039
 -1.600000000000000E-002   -1.942496254749689E-039
 -1.590000000000000E-002   -1.381419053679062E-039
 -1.580000000000000E-002   -1.915421127009442E-040
 -1.570000000000000E-002    1.698025065150059E-039
 -1.560000000000000E-002    4.234573262332563E-039
 -1.550000000000000E-002    7.188985221223999E-039
 -1.540000000000000E-002    1.011676299437360E-038
 -1.530000000000000E-002    1.234901888381319E-038
 -1.520000000000000E-002    1.303060814046712E-038
 -1.510000000000000E-002    1.122005060451602E-038
 -1.500000000000000E-002    6.058747741589816E-039
 -1.490000000000000E-002   -2.995357129455134E-039
 -1.480000000000000E-002   -1.589166632333971E-038
 -1.470000000000000E-002   -3.171053466509180E-038
 -1.460000000000000E-002   -4.844875293978275E-038
 -1.450000000000000E-002   -6.294416422168644E-038
 -1.440000000000000E-002   -7.102119904014546E-038
 -1.430000000000000E-002   -6.792718756264712E-038
 -1.420000000000000E-002   -4.909634625126462E-038
 -1.410000000000000E-002   -1.122225036380514E-038
 -1.400000000000000E-002    4.645718569242616E-038
 -1.390000000000000E-002    1.208474099688447E-037
 -1.380000000000000E-002    2.039303773522146E-037
 -1.370000000000000E-002    2.822809604280415E-037
 -1.360000000000000E-002    3.375242300767742E-037
 -1.350000000000000E-002    3.480405899195364E-037
 -1.340000000000000E-002    2.920880108977888E-037
 -1.330000000000000E-002    1.522781861624166E-037
 -1.320000000000000E-002   -7.897108891229499E-038
 -1.310000000000000E-002   -3.937479758766408E-037
 -1.300000000000000E-002   -7.638156514681280E-037
 -1.290000000000000E-002   -1.137993265205266E-036
 -1.280000000000000E-002   -1.443182352374277E-036
 -1.270000000000000E-002   -1.590281873538524E-036
 -1.260000000000000E-002   -1.485707306151627E-036
 -1.250000000000000E-002   -1.048351563370535E-036
 -1.240000000000000E-002   -2.306407196310717E-037
 -1.230000000000000E-002    9.590148631249698E-037
 -1.220000000000000E-002    2.436374264978008E-036
 -1.210000000000000E-002    4.029086604643195E-036
 -1.200000000000000E-002    5.477243551978434E-036
 -1.190000000000000E-002    6.451353388214938E-036
 -1.180000000000000E-002    6.590485054360461E-036
 -1.170000000000000E-002    5.560278350521581E-036
 -1.160000000000000E-002    3.126425060713541E-036
 -1.150000000000000E-002   -7.653700849662747E-037
 -1.140000000000000E-002   -5.916327641330861E-036
 -1.130000000000000E-002   -1.182503387712603E-035
 -1.120000000000000E-002   -1.767890166786185E-035
 -1.110000000000000E-002   -2.240199576400664E-035
 -1.100000000000000E-002   -2.476851974062537E-035
 -1.090000000000000E-002   -2.358145020417115E-035
 -1.080000000000000E-002   -1.790291289990453E-035
 -1.070000000000000E-002   -7.308558873660661E-036
 -1.060000000000000E-002    7.875184905739482E-036
 -1.050000000000000E-002    2.640154834606776E-035
 -1.040000000000000E-002    4.605438120407928E-035
 -1.030000000000000E-002    6.376516376091551E-035
 -1.020000000000000E-002    7.592292295484457E-035
 -1.010000000000000E-002    7.887446791514169E-035
 -1.000000000000000E-002    6.957466119828466E-035
 -9.899999999999999E-003    4.630570857215970E-035
 -9.800000000000000E-003    9.347749899571665E-036
 -9.699999999999999E-003   -3.854050563537478E-035
 -9.599999999999999E-003   -9.197522166626912E-035
 -9.500000000000000E-003   -1.432534679577078E-034
 -9.399999999999999E-003   -1.831745786341526E-034
 -9.299999999999999E-003   -2.023551863824397E-034
 -9.200000000000000E-003   -1.929133324803517E-034
 -9.099999999999999E-003   -1.502903348053926E-034
 -8.999999999999999E-003   -7.489012501018378E-035
 -8.900000000000000E-003    2.683369370534084E-035
 -8.799999999999999E-003    1.422000690980751E-034
 -8.699999999999999E-003    2.533012414642161E-034
 -8.600000000000000E-003    3.392840994018625E-034
 -8.499999999999999E-003    3.797821890789628E-034
 -8.399999999999999E-003    3.590981021846129E-034
 -8.300000000000000E-003    2.704774796673104E-034
 -8.199999999999999E-003    1.196191040109974E-034
 -8.100000000000000E-003   -7.350526788632048E-035
 -8.000000000000000E-003   -2.753503832107003E-034
 -7.899999999999999E-003   -4.425475520170893E-034
 -7.800000000000000E-003   -5.287506772939949E-034
 -7.699999999999999E-003   -4.939944992726020E-034
 -7.599999999999999E-003   -3.153001868197245E-034
 -7.499999999999999E-003    3.342820319344216E-036
 -7.399999999999999E-003    4.238814102044769E-034
 -7.299999999999999E-003    8.722891517049022E-034
 -7.199999999999999E-003    1.243720495316198E-033
 -7.100000000000000E-003    1.415696845528006E-033
 -6.999999999999999E-003    1.268941098208701E-033
 -6.899999999999999E-003    7.138428725664491E-034
 -6.800000000000000E-003   -2.811357630188882E-034
 -6.699999999999999E-003   -1.664179384119631E-033
 -6.599999999999999E-003   -3.283790690857438E-033
 -6.499999999999999E-003   -4.887065684089240E-033
 -6.399999999999999E-003   -6.136927620771380E-033
 -6.299999999999999E-003   -6.650240515281644E-033
 -6.199999999999999E-003   -6.055349962893297E-033
 -6.100000000000000E-003   -4.063689725523120E-033
 -5.999999999999999E-003   -5.462963348210688E-034
 -5.899999999999999E-003    4.396940219052171E-033
 -5.800000000000000E-003    1.038891634357585E-032
 -5.699999999999999E-003    1.676087553144137E-032
 -5.599999999999999E-003    2.258189614108463E-032
 -5.499999999999999E-003    2.673709975426174E-032
 -5.399999999999999E-003    2.805239986321427E-032
 -5.299999999999999E-003    2.545594973560437E-032
 -5.199999999999999E-003    1.815929078496403E-032
 -5.099999999999999E-003    5.835793277958767E-033
 -4.999999999999999E-003   -1.122837182693909E-032
 -4.899999999999999E-003   -3.203435966022687E-032
 -4.799999999999999E-003   -5.484076341527697E-032
 -4.699999999999999E-003   -7.721493706164504E-032
 -4.599999999999999E-003   -9.616777214078227E-032
 -4.499999999999999E-003   -1.083655316409843E-031
 -4.399999999999999E-003   -1.104059393202047E-031
 -4.299999999999999E-003   -9.914291301976438E-032
 -4.199999999999999E-003   -7.204517775307968E-032
 -4.099999999999999E-003   -2.757796756858342E-032
 -3.999999999999999E-003    3.439941208644394E-032
 -3.899999999999999E-003    1.122262605914185E-031
 -3.799999999999999E-003    2.020365127990747E-031
 -3.699999999999999E-003    2.973876367906793E-031
 -3.599999999999999E-003    3.889805352203178E-031
 -3.499999999999999E-003    4.645645014123147E-031
 -3.399999999999999E-003    5.091604891961407E-031
 -3.299999999999999E-003    5.057648529755386E-031
 -3.199999999999999E-003    4.367010920698264E-031
 -3.099999999999999E-003    2.857540172016315E-031
 -2.999999999999999E-003    4.113308240344929E-032
 -2.899999999999999E-003   -3.008305634207892E-031
 -2.799999999999999E-003   -7.315516284528584E-031
 -2.699999999999999E-003   -1.226153904909413E-030
 -2.599999999999999E-003   -1.740297277371532E-030
 -2.499999999999999E-003   -2.208828635678433E-030
 -2.399999999999999E-003   -2.547295596934525E-030
 -2.299999999999999E-003   -2.657281303233852E-030
 -2.199999999999999E-003   -2.436219043655239E-030
 -2.099999999999999E-003   -1.791803882158714E-030
 -1.999999999999999E-003   -6.603520732998777E-031
 -1.899999999999999E-003    9.724804147093121E-031
 -1.799999999999999E-003    3.051201355588533E-030
 -1.699999999999999E-003    5.433684991693174E-030
 -1.599999999999999E-003    7.882140172766090E-030
 -1.499999999999999E-003    1.006601261894103E-029
 -1.399999999999999E-003    1.158040883826800E-029
 -1.299999999999999E-003    1.198226254779097E-029
 -1.199999999999999E-003    1.084430296662094E-029
 -1.099999999999999E-003    7.824031512722960E-030
 -9.999999999999989E-004    2.741684025115592E-030
 -8.999999999999990E-004   -4.342102228797256E-030
 -7.999999999999990E-004   -1.306086394832619E-029
 -6.999999999999989E-004   -2.270268736062787E-029
 -5.999999999999990E-004   -3.220977733568473E-029
 -4.999999999999989E-004   -4.022847934690664E-029
 -3.999999999999989E-004   -4.521642117767731E-029
 -2.999999999999989E-004   -4.560676373432128E-029
 -1.999999999999989E-004   -4.002110400185676E-029
 -9.999999999999892E-005   -2.751329138446094E-029
  1.084202172485504E-018   -7.817398402292601E-030
  1.000000000000011E-004    1.843410083116761E-029
  2.000000000000011E-004    4.955995466084250E-029
  3.000000000000011E-004    8.278514057734087E-029
  4.000000000000011E-004    1.143329021341488E-028
  5.000000000000011E-004    1.396739472128477E-028
  6.000000000000011E-004    1.539358799612531E-028
  7.000000000000011E-004    1.524550795095296E-028
  8.000000000000011E-004    1.314302562442666E-028
  9.000000000000012E-004    8.861467566124836E-029
  1.000000000000001E-003    2.396603005153414E-029
  1.100000000000001E-003   -5.983868706782473E-029
  1.200000000000001E-003   -1.571166538701417E-028
  1.300000000000001E-003   -2.592049891193625E-028
  1.400000000000001E-003   -3.548589338813536E-028
  1.500000000000001E-003   -4.310491657170019E-028
  1.600000000000001E-003   -4.741407387583325E-028
  1.700000000000001E-003   -4.713869012596865E-028
  1.800000000000001E-003   -4.126223784737998E-028
  1.900000000000001E-003   -2.919959294816373E-028
  2.000000000000001E-003   -1.095495973909211E-028
  2.100000000000001E-003    1.275637782508577E-028
  2.200000000000001E-003    4.044288745285917E-028
  2.300000000000001E-003    6.984579797100508E-028
  2.400000000000001E-003    9.803480488449665E-028
  2.500000000000001E-003    1.215957431651155E-027
  2.600000000000001E-003    1.369068030486949E-027
  2.700000000000001E-003    1.404899329554088E-027
  2.800000000000001E-003    1.294141708061139E-027
  2.900000000000001E-003    1.017186141298945E-027
  3.000000000000001E-003    5.681516074680032E-028
  3.100000000000001E-003   -4.173527436584278E-029
  3.200000000000001E-003   -7.818688431431893E-028
  3.300000000000001E-003   -1.601533732868835E-027
  3.400000000000001E-003   -2.431075861943599E-027
  3.500000000000001E-003   -3.185224137259526E-027
  3.600000000000001E-003   -3.768644738097517E-027
  3.700000000000001E-003   -4.083623035486817E-027
  3.800000000000001E-003   -4.039532906101198E-027
  3.900000000000001E-003   -3.563526771788561E-027
  4.000000000000001E-003   -2.611639501055385E-027
  4.100000000000001E-003   -1.179296046526559E-027
  4.200000000000001E-003    6.899376445122940E-028
  4.300000000000001E-003    2.898594346275122E-027
  4.400000000000001E-003    5.293749130578169E-027
  4.500000000000001E-003    7.670708797488801E-027
  4.600000000000002E-003    9.782702362226293E-027
  4.700000000000001E-003    1.135689097779011E-026
  4.800000000000001E-003    1.211643706820341E-026
  4.900000000000002E-003    1.180769536898244E-026
  5.000000000000001E-003    1.023087839458579E-026
  5.100000000000001E-003    7.271801607888230E-027
  5.200000000000001E-003    2.931712851052519E-027
  5.300000000000002E-003   -2.648271283011177E-027
  5.400000000000001E-003   -9.171763827537655E-027
  5.500000000000001E-003   -1.618423207164468E-026
  5.600000000000002E-003   -2.308556775540628E-026
  5.700000000000001E-003   -2.916005859640802E-026
  5.800000000000001E-003   -3.362428293281191E-026
  5.900000000000002E-003   -3.569172439053632E-026
  6.000000000000001E-003   -3.465094695746138E-026
  6.100000000000001E-003   -2.995214005496601E-026
  6.200000000000002E-003   -2.129493564933067E-026
  6.300000000000002E-003   -8.708936166285517E-027
  6.400000000000001E-003    7.382519716884959E-027
  6.500000000000001E-003    2.612504166836804E-026
  6.600000000000002E-003    4.623101160335823E-026
  6.700000000000001E-003    6.601949006914552E-026
  6.800000000000001E-003    8.350225460413547E-026
  6.900000000000002E-003    9.651617781510474E-026
  7.000000000000001E-003    1.028977584428603E-025
  7.100000000000001E-003    1.006907858603821E-025
  7.200000000000002E-003    8.837342226571091E-026
  7.300000000000002E-003    6.508665783548770E-026
  7.400000000000001E-003    3.084304536715430E-026
  7.500000000000001E-003   -1.330733740306784E-026
  7.600000000000002E-003   -6.517672000895633E-026
  7.700000000000001E-003   -1.214260938830186E-025
  7.800000000000001E-003   -1.776552220173186E-025
  7.900000000000001E-003   -2.286060832247118E-025
  8.000000000000002E-003   -2.684822950502600E-025
  8.100000000000001E-003   -2.913763245581792E-025
  8.200000000000001E-003   -2.917864500622099E-025
  8.300000000000002E-003   -2.651939789953094E-025
  8.400000000000001E-003   -2.086612623571299E-025
  8.500000000000002E-003   -1.214021017762247E-025
  8.600000000000002E-003   -5.270125988735163E-027
  8.700000000000001E-003    1.348929161115665E-025
  8.800000000000002E-003    2.911052654392162E-025
  8.900000000000002E-003    4.523410230697002E-025
  9.000000000000001E-003    6.049131556512326E-025
  9.100000000000002E-003    7.331676127188023E-025
  9.200000000000002E-003    8.204902003944159E-025
  9.300000000000001E-003    8.506016469196659E-025
  9.400000000000002E-003    8.090868728058181E-025
  9.500000000000001E-003    6.850723918144672E-025
  9.600000000000001E-003    4.729344073258980E-025
  9.700000000000002E-003    1.738913816640396E-025
  9.800000000000001E-003   -2.026847911771071E-025
  9.900000000000001E-003   -6.384194778188941E-025
  1.000000000000000E-002   -1.105724267350396E-024
  1.010000000000000E-002   -1.568382422212649E-024
  1.020000000000000E-002   -1.983051285665185E-024
  1.030000000000000E-002   -2.301742821248451E-024
  1.040000000000000E-002   -2.475266620894672E-024
  1.050000000000000E-002   -2.457522870889574E-024
  1.060000000000000E-002   -2.210427961440110E-024
  1.070000000000000E-002   -1.709145133789076E-024
  1.080000000000000E-002   -9.471906659757653E-025
  1.090000000000000E-002    5.909904973773315E-026
  1.100000000000000E-002    1.267303257823256E-024
  1.110000000000000E-002    2.607428822705360E-024
  1.120000000000000E-002    3.982717183158278E-024
  1.130000000000000E-002    5.273160874419237E-024
  1.140000000000000E-002    6.341958236831102E-024
  1.150000000000000E-002    7.044904381865614E-024
  1.160000000000000E-002    7.242422365039182E-024
  1.170000000000000E-002    6.813625034175822E-024
  1.180000000000000E-002    5.671465743956493E-024
  1.190000000000000E-002    3.777751599692229E-024
  1.200000000000000E-002    1.156545377115598E-024
  1.210000000000000E-002   -2.095639753381635E-024
  1.220000000000000E-002   -5.804471160957112E-024
  1.230000000000000E-002   -9.718707094798808E-024
  1.240000000000000E-002   -1.351852783597578E-023
  1.250000000000000E-002   -1.683193245689326E-023
  1.260000000000000E-002   -1.925920579512182E-023
  1.270000000000000E-002   -2.040468937002356E-023
  1.280000000000000E-002   -1.991424692878138E-023
  1.290000000000000E-002   -1.751601265578041E-023
  1.300000000000000E-002   -1.306118249521690E-023
  1.310000000000000E-002   -6.561109857739715E-024
  1.320000000000000E-002    1.783469825703471E-024
  1.330000000000000E-002    1.156523202361169E-023
  1.340000000000000E-002    2.216887692283608E-023
  1.350000000000000E-002    3.278858264769910E-023
  1.360000000000000E-002    4.246616429596255E-023
  1.370000000000000E-002    5.015017730363521E-023
  1.380000000000000E-002    5.477437211439961E-023
  1.390000000000000E-002    5.535183203057673E-023
  1.400000000000000E-002    5.107903850628822E-023
  1.410000000000000E-002    4.144216307921901E-023
  1.420000000000000E-002    2.631634740087226E-023
  1.430000000000000E-002    6.047623962953758E-024
  1.440000000000000E-002   -1.849298806998921E-023
  1.450000000000000E-002   -4.589316439812199E-023
  1.460000000000000E-002   -7.422891522657009E-023
  1.470000000000000E-002   -1.011456963518388E-022
  1.480000000000000E-002   -1.239927723455840E-022
  1.490000000000000E-002   -1.400081379992288E-022
  1.500000000000000E-002   -1.465461481368163E-022
  1.510000000000000E-002   -1.413348573796897E-022
  1.520000000000000E-002   -1.227449702781664E-022
  1.530000000000000E-002   -9.004816412463927E-023
  1.540000000000000E-002   -4.363963128586684E-023
  1.550000000000000E-002    1.480150428218736E-023
  1.560000000000000E-002    8.223895161543121E-023
  1.570000000000000E-002    1.543149306561402E-022
  1.580000000000000E-002    2.255099710759470E-022
  1.590000000000000E-002    2.894336810390830E-022
  1.600000000000000E-002    3.392423546504907E-022
  1.610000000000000E-002    3.681672302075782E-022
  1.620000000000000E-002    3.701247370927317E-022
  1.630000000000000E-002    3.403673219455711E-022
  1.640000000000000E-002    2.761236875663797E-022
  1.650000000000000E-002    1.771695548138737E-022
  1.660000000000000E-002    4.626692955228599E-023
  1.670000000000000E-002   -1.105885809432951E-022
  1.680000000000000E-002   -2.841646134336800E-022
  1.690000000000000E-002   -4.622726765656177E-022
  1.700000000000000E-002   -6.303519186664924E-022
  1.710000000000000E-002   -7.723529386579411E-022
  1.720000000000000E-002   -8.718901542508617E-022
  1.730000000000000E-002   -9.136034523118215E-022
  1.740000000000000E-002   -8.846429955879147E-022
  1.750000000000000E-002   -7.761654815129719E-022
  1.760000000000000E-002   -5.847151306567103E-022
  1.770000000000000E-002   -3.133513830540399E-022
  1.780000000000000E-002    2.761083432118872E-023
  1.790000000000000E-002    4.203704842142287E-022
  1.800000000000000E-002    8.400131580687513E-022
  1.810000000000000E-002    1.255545055201641E-021
  1.820000000000000E-002    1.631594953871047E-021
  1.830000000000000E-002    1.930736725844896E-021
  1.840000000000000E-002    2.116325381708380E-021
  1.850000000000000E-002    2.155678824876841E-021
  1.860000000000000E-002    2.023388156573900E-021
  1.870000000000000E-002    1.704494477900553E-021