 -4.000000000000000E-002    0.000000000000000E+000
 -3.990000000000000E-002    0.000000000000000E+000
 -3.980000000000000E-002    0.000000000000000E+000
 -3.970000000000000E-002    0.000000000000000E+000
 -3.960000000000000E-002    0.000000000000000E+000
 -3.950000000000000E-002    0.000000000000000E+000
 -3.940000000000000E-002    0.000000000000000E+000
 -3.930000000000000E-002    0.000000000000000E+000
 -3.920000000000000E-002    0.000000000000000E+000
 -3.910000000000000E-002    0.000000000000000E+000
 -3.900000000000000E-002    0.000000000000000E+000
 -3.890000000000000E-002    0.000000000000000E+000
 -3.880000000000000E-002    0.000000000000000E+000
 -3.870000000000000E-002    0.000000000000000E+000
 -3.860000000000000E-002    0.000000000000000E+000
 -3.850000000000000E-002    0.000000000000000E+000
 -3.840000000000000E-002    0.000000000000000E+000
 -3.830000000000000E-002    0.000000000000000E+000
 -3.820000000000000E-002    0.000000000000000E+000
 -3.810000000000000E-002    0.000000000000000E+000
 -3.800000000000000E-002    0.000000000000000E+000
 -3.790000000000000E-002    0.000000000000000E+000
 -3.780000000000000E-002    0.000000000000000E+000
 -3.770000000000000E-002    0.000000000000000E+000
 -3.760000000000000E-002    0.000000000000000E+000
 -3.750000000000000E-002    0.000000000000000E+000
 -3.740000000000000E-002    0.000000000000000E+000
 -3.730000000000000E-002    0.000000000000000E+000
 -3.720000000000000E-002    0.000000000000000E+000
 -3.710000000000000E-002    0.000000000000000E+000
 -3.700000000000000E-002    0.000000000000000E+000
 -3.690000000000000E-002    0.000000000000000E+000
 -3.680000000000000E-002    0.000000000000000E+000
 -3.670000000000000E-002    0.000000000000000E+000
 -3.660000000000000E-002    0.000000000000000E+000
 -3.650000000000000E-002    0.000000000000000E+000
 -3.640000000000000E-002    0.000000000000000E+000
 -3.630000000000000E-002    0.000000000000000E+000
 -3.620000000000000E-002    0.000000000000000E+000
 -3.610000000000000E-002    0.000000000000000E+000
 -3.600000000000000E-002    0.000000000000000E+000
 -3.590000000000000E-002    0.000000000000000E+000
 -3.580000000000000E-002    0.000000000000000E+000
 -3.570000000000000E-002    0.000000000000000E+000
 -3.560000000000000E-002    0.000000000000000E+000
 -3.550000000000000E-002    0.000000000000000E+000
 -3.540000000000000E-002    0.000000000000000E+000
 -3.530000000000000E-002    0.000000000000000E+000
 -3.520000000000000E-002    0.000000000000000E+000
 -3.510000000000000E-002    0.000000000000000E+000
 -3.500000000000000E-002    0.000000000000000E+000
 -3.490000000000000E-002    0.000000000000000E+000
 -3.480000000000000E-002    0.000000000000000E+000
 -3.470000000000000E-002    0.000000000000000E+000
 -3.460000000000000E-002    0.000000000000000E+000
 -3.450000000000000E-002    0.000000000000000E+000
 -3.440000000000000E-002    0.000000000000000E+000
 -3.430000000000000E-002    0.000000000000000E+000
 -3.420000000000000E-002    0.000000000000000E+000
 -3.410000000000000E-002    0.000000000000000E+000
 -3.400000000000000E-002    0.000000000000000E+000
 -3.390000000000000E-002    0.000000000000000E+000
 -3.380000000000000E-002    0.000000000000000E+000
 -3.370000000000000E-002    0.000000000000000E+000
 -3.360000000000000E-002    0.000000000000000E+000
 -3.350000000000000E-002    0.000000000000000E+000
 -3.340000000000000E-002    0.000000000000000E+000
 -3.330000000000000E-002    0.000000000000000E+000
 -3.320000000000000E-002    0.000000000000000E+000
 -3.310000000000000E-002    0.000000000000000E+000
 -3.300000000000000E-002    0.000000000000000E+000
 -3.290000000000000E-002    0.000000000000000E+000
 -3.280000000000000E-002    0.000000000000000E+000
 -3.270000000000000E-002    0.000000000000000E+000
 -3.260000000000000E-002    0.000000000000000E+000
 -3.250000000000000E-002    0.000000000000000E+000
 -3.240000000000000E-002    0.000000000000000E+000
 -3.230000000000000E-002    0.000000000000000E+000
 -3.220000000000000E-002    0.000000000000000E+000
 -3.210000000000000E-002    0.000000000000000E+000
 -3.200000000000000E-002    0.000000000000000E+000
 -3.190000000000000E-002    0.000000000000000E+000
 -3.180000000000000E-002    0.000000000000000E+000
 -3.170000000000000E-002    0.000000000000000E+000
 -3.160000000000000E-002    0.000000000000000E+000
 -3.150000000000000E-002    0.000000000000000E+000
 -3.140000000000000E-002    0.000000000000000E+000
 -3.130000000000000E-002    0.000000000000000E+000
 -3.120000000000000E-002    0.000000000000000E+000
 -3.110000000000000E-002    0.000000000000000E+000
 -3.100000000000000E-002    0.000000000000000E+000
 -3.090000000000000E-002    0.000000000000000E+000
 -3.080000000000000E-002    0.000000000000000E+000
 -3.070000000000000E-002    0.000000000000000E+000
 -3.060000000000000E-002    0.000000000000000E+000
 -3.050000000000000E-002    0.000000000000000E+000
 -3.040000000000000E-002    0.000000000000000E+000
 -3.030000000000000E-002    0.000000000000000E+000
 -3.020000000000000E-002    0.000000000000000E+000
 -3.010000000000000E-002    0.000000000000000E+000
 -3.000000000000000E-002    0.000000000000000E+000
 -2.990000000000000E-002    0.000000000000000E+000
 -2.980000000000000E-002    0.000000000000000E+000
 -2.970000000000000E-002    0.000000000000000E+000
 -2.960000000000000E-002    0.000000000000000E+000
 -2.950000000000000E-002    0.000000000000000E+000
 -2.940000000000000E-002    0.000000000000000E+000
 -2.930000000000000E-002    0.000000000000000E+000
 -2.920000000000000E-002    0.000000000000000E+000
 -2.910000000000000E-002    0.000000000000000E+000
 -2.900000000000000E-002    0.000000000000000E+000
 -2.890000000000000E-002    0.000000000000000E+000
 -2.880000000000000E-002    0.000000000000000E+000
 -2.870000000000000E-002    0.000000000000000E+000
 -2.860000000000000E-002    0.000000000000000E+000
 -2.850000000000000E-002    0.000000000000000E+000
 -2.840000000000000E-002    0.000000000000000E+000
 -2.830000000000000E-002    0.000000000000000E+000
 -2.820000000000000E-002    0.000000000000000E+000
 -2.810000000000000E-002    0.000000000000000E+000
 -2.800000000000000E-002    0.000000000000000E+000
 -2.790000000000000E-002   -1.755873167480587E-048
 -2.780000000000000E-002   -6.906434544076233E-048
 -2.770000000000000E-002   -1.205699592067188E-047
 -2.760000000000000E-002   -1.720755729726753E-047
 -2.750000000000000E-002   -1.545168412978694E-047
 -2.740000000000000E-002    2.979805943140532E-049
 -2.730000000000000E-002    3.519199825163109E-047
 -2.720000000000000E-002    9.635145660925974E-047
 -2.710000000000000E-002    1.443455140888977E-046
 -2.700000000000000E-002    2.273311843230259E-046
 -2.690000000000000E-002    2.649392949651299E-046
 -2.680000000000000E-002    2.473711046690668E-046
 -2.670000000000000E-002    1.007757764160559E-046
 -2.660000000000000E-002   -2.389134886379413E-046
 -2.650000000000000E-002   -8.637315530630996E-046
 -2.640000000000000E-002   -1.818114651095370E-045
 -2.630000000000000E-002   -3.039031458044247E-045
 -2.620000000000000E-002   -4.391641318818245E-045
 -2.610000000000000E-002   -5.518895748485365E-045
 -2.600000000000000E-002   -5.661116278757429E-045
 -2.590000000000000E-002   -4.553642618743486E-045
 -2.580000000000000E-002   -1.238842736738434E-045
 -2.570000000000000E-002    5.335096301504560E-045
 -2.560000000000000E-002    1.620103329225128E-044
 -2.550000000000000E-002    3.243297136073685E-044
 -2.540000000000000E-002    5.323904051716361E-044
 -2.530000000000000E-002    7.667430307692574E-044
 -2.520000000000000E-002    9.939051557892424E-044
 -2.510000000000000E-002    1.156721884820488E-043
 -2.500000000000000E-002    1.150785012136741E-043
 -2.490000000000000E-002    8.591220257259626E-044
 -2.480000000000000E-002    1.431922961854384E-044
 -2.470000000000000E-002   -1.134779068395174E-043
 -2.460000000000000E-002   -3.087265054645241E-043
 -2.450000000000000E-002   -5.722555369237773E-043
 -2.440000000000000E-002   -8.910935046928659E-043
 -2.430000000000000E-002   -1.230833396287760E-042
 -2.420000000000000E-002   -1.529978249292192E-042
 -2.410000000000000E-002   -1.695278515309266E-042
 -2.400000000000000E-002   -1.605443904561183E-042
 -2.390000000000000E-002   -1.114329987216206E-042
 -2.380000000000000E-002   -7.641198520848065E-044
 -2.370000000000000E-002    1.630641821563184E-042
 -2.360000000000000E-002    4.063761385955927E-042
 -2.350000000000000E-002    7.166930308307481E-042
 -2.340000000000000E-002    1.072121249685753E-041
 -2.330000000000000E-002    1.429795912127588E-041
 -2.320000000000000E-002    1.723638281265775E-041
 -2.310000000000000E-002    1.864449919234219E-041
 -2.300000000000000E-002    1.745466427716379E-041
 -2.290000000000000E-002    1.253195096103974E-041
 -2.280000000000000E-002    2.840757970757304E-042
 -2.270000000000000E-002   -1.232750786285399E-041
 -2.260000000000000E-002   -3.309462632283406E-041
 -2.250000000000000E-002   -5.872858156262092E-041
 -2.240000000000000E-002   -8.741940318786436E-041
 -2.230000000000000E-002   -1.161419356609368E-040
 -2.220000000000000E-002   -1.406706495493322E-040
 -2.210000000000000E-002   -1.557717449091315E-040
 -2.200000000000000E-002   -1.556021555199070E-040
 -2.190000000000000E-002   -1.342965354851513E-040
 -2.180000000000000E-002   -8.669017442416313E-041
 -2.170000000000000E-002   -9.101164786415502E-042
 -2.160000000000000E-002    9.995396985534694E-041
 -2.150000000000000E-002    2.392008074791124E-040
 -2.140000000000000E-002    4.043010303004237E-040
 -2.130000000000000E-002    5.878276863478536E-040
 -2.120000000000000E-002    7.794612153614612E-040
 -2.110000000000000E-002    9.662799242503004E-040
 -2.100000000000000E-002    1.132939089856919E-039
 -2.090000000000000E-002    1.261507315875624E-039
 -2.080000000000000E-002    1.330765871676888E-039
 -2.070000000000000E-002    1.314906649819819E-039
 -2.060000000000000E-002    1.181724645326987E-039
 -2.050000000000000E-002    8.906391522386114E-040
 -2.040000000000000E-002    3.910706093100824E-040
 -2.030000000000000E-002   -3.781418865195463E-040
 -2.020000000000000E-002   -1.487577602041050E-039
 -2.010000000000000E-002   -3.013658534993147E-039
 -2.000000000000000E-002   -5.032071064074920E-039
 -1.990000000000000E-002   -7.607530731118592E-039
 -1.980000000000000E-002   -1.077881918568958E-038
 -1.970000000000000E-002   -1.453714789656319E-038
 -1.960000000000000E-002   -1.879446793058286E-038
 -1.950000000000000E-002   -2.333664876961954E-038
 -1.940000000000000E-002   -2.775532599159405E-038
 -1.930000000000000E-002   -3.135275524101542E-038
 -1.920000000000000E-002   -3.301826374788788E-038
 -1.910000000000000E-002   -3.108465766593454E-038
 -1.900000000000000E-002   -2.319007082112707E-038
 -1.890000000000000E-002   -6.195556106149436E-039
 -1.880000000000000E-002    2.376067657692551E-038
 -1.870000000000000E-002    7.096037450852126E-038
 -1.860000000000000E-002    1.394205098833483E-037
 -1.850000000000000E-002    2.316954767211458E-037
 -1.840000000000000E-002    3.470788037931157E-037
 -1.830000000000000E-002    4.792187904772032E-037
 -1.820000000000000E-002    6.133353564481954E-037
 -1.810000000000000E-002    7.234702980466715E-037
 -1.800000000000000E-002    7.704982055468811E-037
 -1.790000000000000E-002    7.019284084046599E-037
 -1.780000000000000E-002    4.547576441720272E-037
 -1.770000000000000E-002   -3.731354753518027E-038
 -1.760000000000000E-002   -8.312346356856043E-037
 -1.750000000000000E-002   -1.956129847977740E-036
 -1.740000000000000E-002   -3.389759659439571E-036
 -1.730000000000000E-002   -5.032349199233326E-036
 -1.720000000000000E-002   -6.682252457260617E-036
 -1.710000000000000E-002   -8.020044820888639E-036
 -1.700000000000000E-002   -8.609381318942042E-036
 -1.690000000000000E-002   -7.923696738512637E-036
 -1.680000000000000E-002   -5.406853299739234E-036
 -1.670000000000000E-002   -5.724781971606361E-037
 -1.660000000000000E-002    6.859459851409278E-036
 -1.650000000000000E-002    1.679932476070577E-035
 -1.640000000000000E-002    2.861945342327325E-035
 -1.630000000000000E-002    4.101440597628309E-035
 -1.620000000000000E-002    5.193372683889818E-035
 -1.610000000000000E-002    5.863657727569114E-035
 -1.600000000000000E-002    5.791476258328204E-035
 -1.590000000000000E-002    4.651623913020071E-035
 -1.580000000000000E-002    2.177305302184189E-035
 -1.570000000000000E-002   -1.760428954467528E-035
 -1.560000000000000E-002   -7.065672457519311E-035
 -1.550000000000000E-002   -1.333782612258262E-034
 -1.540000000000000E-002   -1.981868631893597E-034
 -1.530000000000000E-002   -2.538917540213638E-034
 -1.520000000000000E-002   -2.863782008120078E-034
 -1.510000000000000E-002   -2.801749291975300E-034
 -1.500000000000000E-002   -2.209545376751345E-034
 -1.490000000000000E-002   -9.884357813194028E-035
 -1.480000000000000E-002    8.780103213026361E-035
 -1.470000000000000E-002    3.287310699757276E-034
 -1.460000000000000E-002    5.990571456928227E-034
 -1.450000000000000E-002    8.583394822342162E-034
 -1.440000000000000E-002    1.052442604500983E-033
 -1.430000000000000E-002    1.118877338136723E-033
 -1.420000000000000E-002    9.959244105722561E-034
 -1.410000000000000E-002    6.351781827626167E-034
 -1.400000000000000E-002    1.631314485200342E-035
 -1.390000000000000E-002   -8.380330138026013E-034
 -1.380000000000000E-002   -1.850191195187087E-033
 -1.370000000000000E-002   -2.881676782562501E-033
 -1.360000000000000E-002   -3.737198647092120E-033
 -1.350000000000000E-002   -4.181314968034628E-033
 -1.340000000000000E-002   -3.969129953232748E-033
 -1.330000000000000E-002   -2.890160429554392E-033
 -1.320000000000000E-002   -8.216080214252937E-034
 -1.310000000000000E-002    2.215896616028635E-033
 -1.300000000000000E-002    6.009911445724069E-033
 -1.290000000000000E-002    1.012698056588002E-032
 -1.280000000000000E-002    1.391477815037414E-032
 -1.270000000000000E-002    1.654588479925181E-032
 -1.260000000000000E-002    1.710901031804658E-032
 -1.250000000000000E-002    1.474643631369138E-032
 -1.240000000000000E-002    8.827404026994805E-033
 -1.230000000000000E-002   -8.627780044036136E-034
 -1.220000000000000E-002   -1.394736071636583E-032
 -1.210000000000000E-002   -2.933248465466272E-032
 -1.200000000000000E-002   -4.516897257372610E-032
 -1.190000000000000E-002   -5.893462832662721E-032
 -1.180000000000000E-002   -6.765798428132484E-032
 -1.170000000000000E-002   -6.828499970973381E-032
 -1.160000000000000E-002   -5.816520943068210E-032
 -1.150000000000000E-002   -3.560622374492585E-032
 -1.140000000000000E-002   -4.198910844346219E-034
 -1.130000000000000E-002    4.563504103211928E-032
 -1.120000000000000E-002    9.861499750536835E-032
 -1.110000000000000E-002    1.524490221031668E-031
 -1.100000000000000E-002    1.993531787090012E-031
 -1.090000000000000E-002    2.306164859648884E-031
 -1.080000000000000E-002    2.377131248643445E-031
 -1.070000000000000E-002    2.136305284603755E-031
 -1.060000000000000E-002    1.542438192452880E-031
 -1.050000000000000E-002    5.952568192375311E-032
 -1.040000000000000E-002   -6.563138307503894E-032
 -1.030000000000000E-002   -2.111787568151461E-031
 -1.020000000000000E-002   -3.623951832441423E-031
 -1.010000000000000E-002   -5.011255991320337E-031
 -1.000000000000000E-002   -6.076903675229134E-031
 -9.899999999999999E-003   -6.632570975367571E-031
 -9.800000000000000E-003   -6.523662531518635E-031
 -9.699999999999999E-003   -5.652443264278862E-031
 -9.599999999999999E-003   -3.995442354659662E-031
 -9.500000000000000E-003   -1.612280761738300E-031
 -9.399999999999999E-003    1.355523701330011E-031
 -9.299999999999999E-003    4.695406228842858E-031
 -9.200000000000000E-003    8.142013035420141E-031
 -9.099999999999999E-003    1.139913728406616E-030
 -8.999999999999999E-003    1.416093040523002E-030
 -8.900000000000000E-003    1.612850378771840E-030
 -8.799999999999999E-003    1.701978314631680E-030
 -8.699999999999999E-003    1.657331674588975E-030
 -8.600000000000000E-003    1.455007974494392E-030
 -8.499999999999999E-003    1.074031587609184E-030
 -8.399999999999999E-003    4.984098878900092E-031
 -8.300000000000000E-003   -2.786422092993968E-031
 -8.199999999999999E-003   -1.247892695149180E-030
 -8.100000000000000E-003   -2.374977688715853E-030
 -8.000000000000000E-003   -3.590210769430714E-030
 -7.899999999999999E-003   -4.779595364638815E-030
 -7.800000000000000E-003   -5.780227039942284E-030
 -7.699999999999999E-003   -6.383756356573708E-030
 -7.599999999999999E-003   -6.351360222879698E-030
 -7.499999999999999E-003   -5.442505649694634E-030
 -7.399999999999999E-003   -3.457632723882350E-030
 -7.299999999999999E-003   -2.918313425539773E-031
 -7.199999999999999E-003    4.006979082622682E-030
 -7.100000000000000E-003    9.185321133476236E-030
 -6.999999999999999E-003    1.474945695098222E-029
 -6.899999999999999E-003    1.996214959148604E-029
 -6.800000000000000E-003    2.388276981586717E-029
 -6.699999999999999E-003    2.545811661001873E-029
 -6.599999999999999E-003    2.366392249480716E-029
 -6.499999999999999E-003    1.768729975888050E-029
 -6.399999999999999E-003    7.129673211439371E-030
 -6.299999999999999E-003   -7.800187013802187E-030
 -6.199999999999999E-003   -2.614033345904774E-029
 -6.100000000000000E-003   -4.611607395865445E-029
 -5.999999999999999E-003   -6.520052399369799E-029
 -5.899999999999999E-003   -8.031627339725566E-029
 -5.800000000000000E-003   -8.817898508745726E-029
 -5.699999999999999E-003   -8.575846988269589E-029
 -5.599999999999999E-003   -7.080590920234546E-029
 -5.499999999999999E-003   -4.237230080535838E-029
 -5.399999999999999E-003   -1.228204901462097E-030
 -5.299999999999999E-003    4.990665233456715E-029
 -5.199999999999999E-003    1.064000040856026E-028
 -5.099999999999999E-003    1.620528533714716E-028
 -4.999999999999999E-003    2.097493060997163E-028
 -4.899999999999999E-003    2.423480918496225E-028
 -4.799999999999999E-003    2.536968576136172E-028
 -4.699999999999999E-003    2.396060105747008E-028
 -4.599999999999999E-003    1.985982509725242E-028
 -4.499999999999999E-003    1.322630925311168E-028
 -4.399999999999999E-003    4.509704227654486E-029
 -4.299999999999999E-003   -5.620191403500196E-029
 -4.199999999999999E-003   -1.639027732371028E-028
 -4.099999999999999E-003   -2.706683153326313E-028
 -3.999999999999999E-003   -3.709299944843981E-028
 -3.899999999999999E-003   -4.618402555818066E-028
 -3.799999999999999E-003   -5.434398186241502E-028
 -3.699999999999999E-003   -6.177729207644572E-028
 -3.599999999999999E-003   -6.868691441474002E-028
 -3.499999999999999E-003   -7.497713366806515E-028
 -3.399999999999999E-003   -7.990908541216705E-028
 -3.299999999999999E-003   -8.178598991948667E-028
 -3.199999999999999E-003   -7.776615304924686E-028
 -3.099999999999999E-003   -6.390819878707239E-028
 -2.999999999999999E-003   -3.553879181590859E-028
 -2.899999999999999E-003    1.200488940482340E-028
 -2.799999999999999E-003    8.226723905104454E-028
 -2.699999999999999E-003    1.762902344583085E-027
 -2.599999999999999E-003    2.911313481280795E-027
 -2.499999999999999E-003    4.185433731567925E-027
 -2.399999999999999E-003    5.441355799558841E-027
 -2.299999999999999E-003    6.473529589549198E-027
 -2.199999999999999E-003    7.025716233417920E-027
 -2.099999999999999E-003    6.815043835157832E-027
 -1.999999999999999E-003    5.569404193156916E-027
 -1.899999999999999E-003    3.076197367235755E-027
 -1.799999999999999E-003   -7.621127710135307E-028
 -1.699999999999999E-003   -5.872655979223156E-027
 -1.599999999999999E-003   -1.196607512242948E-026
 -1.499999999999999E-003   -1.850985025188169E-026
 -1.399999999999999E-003   -2.473092536642973E-026
 -1.299999999999999E-003   -2.965567594739921E-026
 -1.199999999999999E-003   -3.219165385823803E-026
 -1.099999999999999E-003   -3.125037890260789E-026
 -9.999999999999989E-004   -2.590409716769536E-026
 -8.999999999999990E-004   -1.556264131947383E-026
 -7.999999999999990E-004   -1.501408276576157E-028
 -6.999999999999989E-004    1.974354464017318E-026
 -5.999999999999990E-004    4.276423126112218E-026
 -4.999999999999989E-004    6.677425372081823E-026
 -3.999999999999989E-004    8.893450789887044E-026
 -2.999999999999989E-004    1.059005415012252E-025
 -1.999999999999989E-004    1.141330809402463E-025
 -9.999999999999892E-005    1.103082460623249E-025
  1.084202172485504E-018    9.179652892524070E-026
  1.000000000000011E-004    5.716411751974529E-026
  2.000000000000011E-004    6.637799214500932E-027
  3.000000000000011E-004   -5.753287232407557E-026
  4.000000000000011E-004   -1.308829422831431E-025
  5.000000000000011E-004   -2.067682453209769E-025
  6.000000000000011E-004   -2.766737009349849E-025
  7.000000000000011E-004   -3.308127398131871E-025
  8.000000000000011E-004   -3.590062332757638E-025
  9.000000000000012E-004   -3.517946683162965E-025
  1.000000000000001E-003   -3.017014506600345E-025
  1.100000000000001E-003   -2.045329509721552E-025
  1.200000000000001E-003   -6.057507139828917E-026
  1.300000000000001E-003    1.244682967171827E-025
  1.400000000000001E-003    3.389503044881329E-025
  1.500000000000001E-003    5.653090899660027E-025
  1.600000000000001E-003    7.807548865626097E-025
  1.700000000000001E-003    9.586721516278787E-025
  1.800000000000001E-003    1.070728245552510E-024
  1.900000000000001E-003    1.089603934809201E-024
  2.000000000000001E-003    9.921807555293438E-025
  2.100000000000001E-003    7.629406667587177E-025
  2.200000000000001E-003    3.972637240770784E-025
  2.300000000000001E-003   -9.574189753215475E-026
  2.400000000000001E-003   -6.912689029112974E-025
  2.500000000000001E-003   -1.348081024170017E-024
  2.600000000000001E-003   -2.009358165351695E-024
  2.700000000000001E-003   -2.605357379317300E-024
  2.800000000000001E-003   -3.057995064448831E-024
  2.900000000000001E-003   -3.287280504046571E-024
  3.000000000000001E-003   -3.219323733535597E-024
  3.100000000000001E-003   -2.795420921459823E-024
  3.200000000000001E-003   -1.981499309671337E-024
  3.300000000000001E-003   -7.770119375260887E-025
  3.400000000000001E-003    7.777665027617155E-025
  3.500000000000001E-003    2.597152752717962E-024
  3.600000000000001E-003    4.549243856297635E-024
  3.700000000000001E-003    6.459777832425956E-024
  3.800000000000001E-003    8.121267935330018E-024
  3.900000000000001E-003    9.307573433198804E-024
  4.000000000000001E-003    9.793533018213866E-024
  4.100000000000001E-003    9.378660863892446E-024
  4.200000000000001E-003    7.913254090120278E-024
  4.300000000000001E-003    5.324656410439311E-024
  4.400000000000001E-003    1.640923212502134E-024
  4.500000000000001E-003   -2.991165184207491E-024
  4.600000000000002E-003   -8.296818516883892E-024
  4.700000000000001E-003   -1.387545842112667E-023
  4.800000000000001E-003   -1.921655242372793E-023
  4.900000000000002E-003   -2.373012546280613E-023
  5.000000000000001E-003   -2.679166134575681E-023
  5.100000000000001E-003   -2.779948470465091E-023
  5.200000000000001E-003   -2.624103195216602E-023
  5.300000000000002E-003   -2.176273775111777E-023
  5.400000000000001E-003   -1.423691072478644E-023
  5.500000000000001E-003   -3.818002875138536E-024
  5.600000000000002E-003    9.019567234313372E-024
  5.700000000000001E-003    2.346939356673994E-023
  5.800000000000001E-003    3.841279088012315E-023
  5.900000000000002E-003    5.247390238590622E-023
  6.000000000000001E-003    6.411076859802779E-023
  6.100000000000001E-003    7.173930006184263E-023
  6.200000000000002E-003    7.388312071156485E-023
  6.300000000000002E-003    6.933841842566019E-023
  6.400000000000001E-003    5.733960843585009E-023
  6.500000000000001E-003    3.770926977005520E-023
  6.600000000000002E-003    1.097480134234377E-023
  6.700000000000001E-003   -2.156509640436263E-023
  6.800000000000001E-003   -5.783849115653630E-023
  6.900000000000002E-003   -9.507292376613088E-023
  7.000000000000001E-003   -1.299468571012083E-022
  7.100000000000001E-003   -1.588168598544556E-022
  7.200000000000002E-003   -1.780096140443368E-022
  7.300000000000002E-003   -1.841601940810804E-022
  7.400000000000001E-003   -1.745710347078008E-022
  7.500000000000001E-003   -1.475608306475429E-022
  7.600000000000002E-003   -1.027695818916210E-022
  7.700000000000001E-003   -4.138592066015125E-023
  7.800000000000001E-003    3.373410300934037E-023
  7.900000000000001E-003    1.180813721007867E-022
  8.000000000000002E-003    2.056566730006829E-022
  8.100000000000001E-003    2.892863565934475E-022
  8.200000000000001E-003    3.610818094430439E-022
  8.300000000000002E-003    4.130204791612796E-022
  8.400000000000001E-003    4.376134557068460E-022
  8.500000000000002E-003    4.286135344038021E-022
  8.600000000000002E-003    3.817096967436286E-022
  8.700000000000001E-003    2.951492221560938E-022
  8.800000000000002E-003    1.702285698321890E-022
  8.900000000000002E-003    1.159840342527659E-023
  9.000000000000001E-003   -1.726628180415247E-022
  9.100000000000002E-003   -3.712392558009660E-022
  9.200000000000002E-003   -5.700477955577918E-022
  9.300000000000001E-003   -7.529842195469498E-022
  9.400000000000002E-003   -9.029208716520950E-022
  9.500000000000001E-003   -1.002909978695567E-021
  9.600000000000001E-003   -1.037526789825246E-021
  9.700000000000002E-003   -9.942691795325907E-022
  9.800000000000001E-003   -8.649171344037294E-022
  9.900000000000001E-003   -6.467470345999633E-022
  1.000000000000000E-002   -3.434940295542484E-022
  1.010000000000000E-002    3.403863624231713E-023
  1.020000000000000E-002    4.678118134019394E-022
  1.030000000000000E-002    9.328915506950330E-022
  1.040000000000000E-002    1.398339052433832E-021
  1.050000000000000E-002    1.828655636895898E-021
  1.060000000000000E-002    2.185751006796345E-021
  1.070000000000000E-002    2.431363210856703E-021
  1.080000000000000E-002    2.529818876740059E-021
  1.090000000000000E-002    2.450986527785783E-021
  1.100000000000000E-002    2.173244809764632E-021
  1.110000000000000E-002    1.686266281855128E-021
  1.120000000000000E-002    9.934057292618292E-022
  1.130000000000000E-002    1.134821193118940E-022
  1.140000000000000E-002   -9.182429021640184E-022
  1.150000000000000E-002   -2.050061377724331E-021
  1.160000000000000E-002   -3.214924231035555E-021
  1.170000000000000E-002   -4.332741222935696E-021
  1.180000000000000E-002   -5.313901016594148E-021
  1.190000000000000E-002   -6.063973995085737E-021
  1.200000000000000E-002   -6.489485177127676E-021
  1.210000000000000E-002   -6.504565974279845E-021
  1.220000000000000E-002   -6.038214314999077E-021
  1.230000000000000E-002   -5.041806793103570E-021
  1.240000000000000E-002   -3.496425984643378E-021
  1.250000000000000E-002   -1.419490141136521E-021
  1.260000000000000E-002    1.129893268687859E-021
  1.270000000000000E-002    4.047468419323045E-021
  1.280000000000000E-002    7.182898674086020E-021
  1.290000000000000E-002    1.034196513427439E-020
  1.300000000000000E-002    1.329240761142934E-020
  1.310000000000000E-002    1.577377948012100E-020
  1.320000000000000E-002    1.751145486149837E-020
  1.330000000000000E-002    1.823463480287091E-020
  1.340000000000000E-002    1.769783620693848E-020
  1.350000000000000E-002    1.570492460955847E-020
  1.360000000000000E-002    1.213431790185533E-020
  1.370000000000000E-002    6.963551351546388E-021
  1.380000000000000E-002    2.910296156311454E-022
  1.390000000000000E-002   -7.647476728768166E-021
  1.400000000000000E-002   -1.647012716438194E-020
  1.410000000000000E-002   -2.565052463143504E-020
  1.420000000000000E-002   -3.453150047317331E-020
  1.430000000000000E-002   -4.235260121311054E-020
  1.440000000000000E-002   -4.829177804228196E-020
  1.450000000000000E-002   -5.152063449403082E-020
  1.460000000000000E-002   -5.127126117781468E-020
  1.470000000000000E-002   -4.691123116375627E-020
  1.480000000000000E-002   -3.802193754256381E-020
  1.490000000000000E-002   -2.447419262958565E-020
  1.500000000000000E-002   -6.494039412876389E-021
  1.510000000000000E-002    1.528873662677486E-020
  1.520000000000000E-002    3.981690091650392E-020
  1.530000000000000E-002    6.561355437582980E-020
  1.540000000000000E-002    9.082666213508911E-020
  1.550000000000000E-002    1.133133448233812E-019
  1.560000000000000E-002    1.307640627012930E-019
  1.570000000000000E-002    1.408634121715631E-019
  1.580000000000000E-002    1.414805297214697E-019
  1.590000000000000E-002    1.308782818916424E-019
  1.600000000000000E-002    1.079268957629611E-019
  1.610000000000000E-002    7.230481175576041E-020
  1.620000000000000E-002    2.466756264234887E-020
  1.630000000000000E-002   -3.323514611501596E-020
  1.640000000000000E-002   -9.851292871399998E-020
  1.650000000000000E-002   -1.671749285512638E-019
  1.660000000000000E-002   -2.342682497251911E-019
  1.670000000000000E-002   -2.941197504640216E-019
  1.680000000000000E-002   -3.406785390236802E-019
  1.690000000000000E-002   -3.679475281762345E-019
  1.700000000000000E-002   -3.704829745285342E-019
  1.710000000000000E-002   -3.439317345575914E-019
  1.720000000000000E-002   -2.855677685929784E-019
  1.730000000000000E-002   -1.947831518242078E-019
  1.740000000000000E-002   -7.348550222622468E-020
  1.750000000000000E-002    7.364631194849811E-020
  1.760000000000000E-002    2.390920783118359E-019
  1.770000000000000E-002    4.126412162357575E-019
  1.780000000000000E-002    5.817874825316435E-019
  1.790000000000000E-002    7.323731451054621E-019
  1.800000000000000E-002    8.494687574418801E-019
  1.810000000000000E-002    9.184529614251383E-019
  1.820000000000000E-002    9.262346988533147E-019
  1.830000000000000E-002    8.625400831687433E-019
  1.840000000000000E-002    7.211688577009791E-019
  1.850000000000000E-002    5.011142134536601E-019
  1.860000000000000E-002    2.074348379069921E-019
  1.870000000000000E-002   -1.482275808963955E-019