 -4.000000000000000E-002    0.000000000000000E+000
 -3.990000000000000E-002    0.000000000000000E+000
 -3.980000000000000E-002    0.000000000000000E+000
 -3.970000000000000E-002    0.000000000000000E+000
 -3.960000000000000E-002    0.000000000000000E+000
 -3.950000000000000E-002    0.000000000000000E+000
 -3.940000000000000E-002    0.000000000000000E+000
 -3.930000000000000E-002    0.000000000000000E+000
 -3.920000000000000E-002    0.000000000000000E+000
 -3.910000000000000E-002    0.000000000000000E+000
 -3.900000000000000E-002    0.000000000000000E+000
 -3.890000000000000E-002    0.000000000000000E+000
 -3.880000000000000E-002    0.000000000000000E+000
 -3.870000000000000E-002    0.000000000000000E+000
 -3.860000000000000E-002    0.000000000000000E+000
 -3.850000000000000E-002    0.000000000000000E+000
 -3.840000000000000E-002    0.000000000000000E+000
 -3.830000000000000E-002    0.000000000000000E+000
 -3.820000000000000E-002    0.000000000000000E+000
 -3.810000000000000E-002    0.000000000000000E+000
 -3.800000000000000E-002    0.000000000000000E+000
 -3.790000000000000E-002    0.000000000000000E+000
 -3.780000000000000E-002    0.000000000000000E+000
 -3.770000000000000E-002    0.000000000000000E+000
 -3.760000000000000E-002    0.000000000000000E+000
 -3.750000000000000E-002    0.000000000000000E+000
 -3.740000000000000E-002    0.000000000000000E+000
 -3.730000000000000E-002    0.000000000000000E+000
 -3.720000000000000E-002    0.000000000000000E+000
 -3.710000000000000E-002    0.000000000000000E+000
 -3.700000000000000E-002    0.000000000000000E+000
 -3.690000000000000E-002    0.000000000000000E+000
 -3.680000000000000E-002    0.000000000000000E+000
 -3.670000000000000E-002    0.000000000000000E+000
 -3.660000000000000E-002    0.000000000000000E+000
 -3.650000000000000E-002    0.000000000000000E+000
 -3.640000000000000E-002    0.000000000000000E+000
 -3.630000000000000E-002    0.000000000000000E+000
 -3.620000000000000E-002    0.000000000000000E+000
 -3.610000000000000E-002    0.000000000000000E+000
 -3.600000000000000E-002    0.000000000000000E+000
 -3.590000000000000E-002    0.000000000000000E+000
 -3.580000000000000E-002    0.000000000000000E+000
 -3.570000000000000E-002    0.000000000000000E+000
 -3.560000000000000E-002    0.000000000000000E+000
 -3.550000000000000E-002    0.000000000000000E+000
 -3.540000000000000E-002    0.000000000000000E+000
 -3.530000000000000E-002    0.000000000000000E+000
 -3.520000000000000E-002    0.000000000000000E+000
 -3.510000000000000E-002    0.000000000000000E+000
 -3.500000000000000E-002    0.000000000000000E+000
 -3.490000000000000E-002    0.000000000000000E+000
 -3.480000000000000E-002    0.000000000000000E+000
 -3.470000000000000E-002    0.000000000000000E+000
 -3.460000000000000E-002    0.000000000000000E+000
 -3.450000000000000E-002    0.000000000000000E+000
 -3.440000000000000E-002    0.000000000000000E+000
 -3.430000000000000E-002    0.000000000000000E+000
 -3.420000000000000E-002    0.000000000000000E+000
 -3.410000000000000E-002    0.000000000000000E+000
 -3.400000000000000E-002    0.000000000000000E+000
 -3.390000000000000E-002    0.000000000000000E+000
 -3.380000000000000E-002    0.000000000000000E+000
 -3.370000000000000E-002    0.000000000000000E+000
 -3.360000000000000E-002    0.000000000000000E+000
 -3.350000000000000E-002    0.000000000000000E+000
 -3.340000000000000E-002    0.000000000000000E+000
 -3.330000000000000E-002    0.000000000000000E+000
 -3.320000000000000E-002    0.000000000000000E+000
 -3.310000000000000E-002    0.000000000000000E+000
 -3.300000000000000E-002    0.000000000000000E+000
 -3.290000000000000E-002    0.000000000000000E+000
 -3.280000000000000E-002    0.000000000000000E+000
 -3.270000000000000E-002    0.000000000000000E+000
 -3.260000000000000E-002    0.000000000000000E+000
 -3.250000000000000E-002    0.000000000000000E+000
 -3.240000000000000E-002    0.000000000000000E+000
 -3.230000000000000E-002    0.000000000000000E+000
 -3.220000000000000E-002    0.000000000000000E+000
 -3.210000000000000E-002    0.000000000000000E+000
 -3.200000000000000E-002    0.000000000000000E+000
 -3.190000000000000E-002    0.000000000000000E+000
 -3.180000000000000E-002    0.000000000000000E+000
 -3.170000000000000E-002    0.000000000000000E+000
 -3.160000000000000E-002    0.000000000000000E+000
 -3.150000000000000E-002    0.000000000000000E+000
 -3.140000000000000E-002   -4.451567058883502E-048
 -3.130000000000000E-002    1.289627424288588E-047
 -3.120000000000000E-002    7.386848054480595E-048
 -3.110000000000000E-002   -2.694899233700892E-047
 -3.100000000000000E-002   -5.006250721127097E-047
 -3.090000000000000E-002   -7.575146086908087E-047
 -3.080000000000000E-002   -1.241121598677677E-046
 -3.070000000000000E-002   -1.389037559591122E-046
 -3.060000000000000E-002   -2.356519956910816E-046
 -3.050000000000000E-002   -1.835673797712732E-046
 -3.040000000000000E-002    1.755698521836886E-046
 -3.030000000000000E-002    8.248947086416163E-046
 -3.020000000000000E-002    1.687092709939088E-045
 -3.010000000000000E-002    2.614621346778993E-045
 -3.000000000000000E-002    3.681060731872451E-045
 -2.990000000000000E-002    5.829907501837931E-045
 -2.980000000000000E-002    7.681033143556240E-045
 -2.970000000000000E-002    8.879192762017489E-045
 -2.960000000000000E-002    6.823218744461016E-045
 -2.950000000000000E-002    4.439918179460754E-046
 -2.940000000000000E-002   -1.525820089132806E-044
 -2.930000000000000E-002   -4.287107292908050E-044
 -2.920000000000000E-002   -8.758613669010673E-044
 -2.910000000000000E-002   -1.512865557604799E-043
 -2.900000000000000E-002   -2.329516209021601E-043
 -2.890000000000000E-002   -3.210857515094970E-043
 -2.880000000000000E-002   -3.906100276336322E-043
 -2.870000000000000E-002   -3.922557455051012E-043
 -2.860000000000000E-002   -2.471834556748027E-043
 -2.850000000000000E-002    1.545196834022789E-043
 -2.840000000000000E-002    9.525792899713257E-043
 -2.830000000000000E-002    2.299094120488729E-042
 -2.820000000000000E-002    4.312513272882828E-042
 -2.810000000000000E-002    7.009230777458547E-042
 -2.800000000000000E-002    1.018930581476000E-041
 -2.790000000000000E-002    1.328823303879835E-041
 -2.780000000000000E-002    1.520226175484875E-041
 -2.770000000000000E-002    1.411835696127415E-041
 -2.760000000000000E-002    7.407345925523056E-042
 -2.750000000000000E-002   -8.318803048054899E-042
 -2.740000000000000E-002   -3.687478851292525E-041
 -2.730000000000000E-002   -8.173242196283903E-041
 -2.720000000000000E-002   -1.446668271996968E-040
 -2.710000000000000E-002   -2.237243198807337E-040
 -2.700000000000000E-002   -3.105099768712413E-040
 -2.690000000000000E-002   -3.870220291039158E-040
 -2.680000000000000E-002   -4.225472337500356E-040
 -2.670000000000000E-002   -3.715377606989744E-040
 -2.660000000000000E-002   -1.738545466133018E-040
 -2.650000000000000E-002    2.408232451819632E-040
 -2.640000000000000E-002    9.423557008479468E-040
 -2.630000000000000E-002    1.981308695756067E-039
 -2.620000000000000E-002    3.360670970785492E-039
 -2.610000000000000E-002    4.998408676448759E-039
 -2.600000000000000E-002    6.683724009985718E-039
 -2.590000000000000E-002    8.033527252893740E-039
 -2.580000000000000E-002    8.460188919153169E-039
 -2.570000000000000E-002    7.166496948008770E-039
 -2.560000000000000E-002    3.187954079042683E-039
 -2.550000000000000E-002   -4.495416953185850E-039
 -2.540000000000000E-002   -1.675760099574648E-038
 -2.530000000000000E-002   -3.402347517406261E-038
 -2.520000000000000E-002   -5.586830267196920E-038
 -2.510000000000000E-002   -8.054951874803935E-038
 -2.500000000000000E-002   -1.045346514182117E-037
 -2.490000000000000E-002   -1.221295191850460E-037
 -2.480000000000000E-002   -1.253512619482387E-037
 -2.470000000000000E-002   -1.042224314596523E-037
 -2.460000000000000E-002   -4.767279546442148E-038
 -2.450000000000000E-002    5.478971688447370E-038
 -2.440000000000000E-002    2.105523424265139E-037
 -2.430000000000000E-002    4.205638808912500E-037
 -2.420000000000000E-002    6.754411173847773E-037
 -2.410000000000000E-002    9.515144527140084E-037
 -2.400000000000000E-002    1.207588659669839E-036
 -2.390000000000000E-002    1.383454002224665E-036
 -2.380000000000000E-002    1.401353429106025E-036
 -2.370000000000000E-002    1.171618882616482E-036
 -2.360000000000000E-002    6.034496411872447E-037
 -2.350000000000000E-002   -3.787515016635497E-037
 -2.340000000000000E-002   -1.813973236373609E-036
 -2.330000000000000E-002   -3.679837531835825E-036
 -2.320000000000000E-002   -5.867642647348663E-036
 -2.310000000000000E-002   -8.161809671363473E-036
 -2.300000000000000E-002   -1.022949614855302E-035
 -2.290000000000000E-002   -1.162664583282381E-035
 -2.280000000000000E-002   -1.182619874026356E-035
 -2.270000000000000E-002   -1.027229246045753E-035
 -2.260000000000000E-002   -6.460810791536047E-036
 -2.250000000000000E-002   -4.174530448296651E-038
 -2.240000000000000E-002    9.067122680101442E-036
 -2.230000000000000E-002    2.057177072145599E-035
 -2.220000000000000E-002    3.372031300725879E-035
 -2.210000000000000E-002    4.727219327456511E-035
 -2.200000000000000E-002    5.954046318683237E-035
 -2.190000000000000E-002    6.852213970315817E-035
 -2.180000000000000E-002    7.211846147787278E-035
 -2.170000000000000E-002    6.842818558055911E-035
 -2.160000000000000E-002    5.607491517883381E-035
 -2.150000000000000E-002    3.450798988278446E-035
 -2.140000000000000E-002    4.200475744097159E-036
 -2.130000000000000E-002   -3.333580128841266E-035
 -2.120000000000000E-002   -7.578384340989995E-035
 -2.110000000000000E-002   -1.205313005365924E-034
 -2.100000000000000E-002   -1.654220670902883E-034
 -2.090000000000000E-002   -2.096320712560378E-034
 -2.080000000000000E-002   -2.544583097335578E-034
 -2.070000000000000E-002   -3.037241347581431E-034
 -2.060000000000000E-002   -3.634499889932035E-034
 -2.050000000000000E-002   -4.404440311385664E-034
 -2.040000000000000E-002   -5.395632447076918E-034
 -2.030000000000000E-002   -6.595979771329186E-034
 -2.020000000000000E-002   -7.880553003150035E-034
 -2.010000000000000E-002   -8.955384194162565E-034
 -2.000000000000000E-002   -9.308977433859190E-034
 -1.990000000000000E-002   -8.187875850380394E-034
 -1.980000000000000E-002   -4.615901728466843E-034
 -1.970000000000000E-002    2.522598515119560E-034
 -1.960000000000000E-002    1.431850761628706E-033
 -1.950000000000000E-002    3.158395427500867E-033
 -1.940000000000000E-002    5.451418358995082E-033
 -1.930000000000000E-002    8.229035692952042E-033
 -1.920000000000000E-002    1.126724769642356E-032
 -1.910000000000000E-002    1.416567394187681E-032
 -1.900000000000000E-002    1.632941589852916E-032
 -1.890000000000000E-002    1.697816429458420E-032
 -1.880000000000000E-002    1.519363693315604E-032
 -1.870000000000000E-002    1.001439047220968E-032
 -1.860000000000000E-002    5.824661330799147E-034
 -1.850000000000000E-002   -1.366096697635857E-032
 -1.840000000000000E-002   -3.274363955127972E-032
 -1.830000000000000E-002   -5.591816829985105E-032
 -1.820000000000000E-002   -8.144244975342194E-032
 -1.810000000000000E-002   -1.064315506685519E-031
 -1.800000000000000E-002   -1.268350927855757E-031
 -1.790000000000000E-002   -1.375944900554720E-031
 -1.780000000000000E-002   -1.330256617748460E-031
 -1.770000000000000E-002   -1.074534184022534E-031
 -1.760000000000000E-002   -5.609206875690511E-032
 -1.750000000000000E-002    2.387523803134589E-032
 -1.740000000000000E-002    1.321160227648876E-031
 -1.730000000000000E-002    2.640168286409609E-031
 -1.720000000000000E-002    4.097969086414732E-031
 -1.710000000000000E-002    5.540952968365823E-031
 -1.700000000000000E-002    6.762641610012863E-031
 -1.690000000000000E-002    7.515710104261633E-031
 -1.680000000000000E-002    7.534370738662790E-031
 -1.670000000000000E-002    6.567178295378126E-031
 -1.660000000000000E-002    4.418677502496643E-031
 -1.650000000000000E-002    9.963689712592215E-032
 -1.640000000000000E-002   -3.642568036124518E-031
 -1.630000000000000E-002   -9.252150951136982E-031
 -1.620000000000000E-002   -1.537464116250489E-030
 -1.610000000000000E-002   -2.134252799870657E-030
 -1.600000000000000E-002   -2.631305928799410E-030
 -1.590000000000000E-002   -2.934011255788169E-030
 -1.580000000000000E-002   -2.948371448733156E-030
 -1.570000000000000E-002   -2.595148280357341E-030
 -1.560000000000000E-002   -1.825929145119944E-030
 -1.550000000000000E-002   -6.391313105909570E-031
 -1.540000000000000E-002    9.066498987918861E-031
 -1.530000000000000E-002    2.684910468701237E-030
 -1.520000000000000E-002    4.502077458226294E-030
 -1.510000000000000E-002    6.109362880894896E-030
 -1.500000000000000E-002    7.226993835365059E-030
 -1.490000000000000E-002    7.580535711224577E-030
 -1.480000000000000E-002    6.946914926524435E-030
 -1.470000000000000E-002    5.205384402842627E-030
 -1.460000000000000E-002    2.386396058322607E-030
 -1.450000000000000E-002   -1.290459627614614E-030
 -1.440000000000000E-002   -5.399126051529949E-030
 -1.430000000000000E-002   -9.319546459109068E-030
 -1.420000000000000E-002   -1.228684947020915E-029
 -1.410000000000000E-002   -1.348014969644898E-029
 -1.400000000000000E-002   -1.214809713702696E-029
 -1.390000000000000E-002   -7.761329832838731E-030
 -1.380000000000000E-002   -1.745928790173867E-031
 -1.370000000000000E-002    1.022540490597720E-029
 -1.360000000000000E-002    2.241500057778336E-029
 -1.350000000000000E-002    3.470144562401831E-029
 -1.340000000000000E-002    4.479046247316903E-029
 -1.330000000000000E-002    4.997204106112038E-029
 -1.320000000000000E-002    4.742947250195537E-029
 -1.310000000000000E-002    3.465869049448644E-029
 -1.300000000000000E-002    9.964299231670703E-030
 -1.290000000000000E-002   -2.702206948412985E-029
 -1.280000000000000E-002   -7.487314696604725E-029
 -1.270000000000000E-002   -1.300303305812771E-028
 -1.260000000000000E-002   -1.866854422023565E-028
 -1.250000000000000E-002   -2.369535529174247E-028
 -1.240000000000000E-002   -2.713863444533465E-028
 -1.230000000000000E-002   -2.798389871382421E-028
 -1.220000000000000E-002   -2.526571882487773E-028
 -1.210000000000000E-002   -1.821000247329981E-028
 -1.200000000000000E-002   -6.386473972278331E-029
 -1.190000000000000E-002    1.014613728076910E-028
 -1.180000000000000E-002    3.072218059500867E-028
 -1.170000000000000E-002    5.399877393013927E-028
 -1.160000000000000E-002    7.795130108953971E-028
 -1.150000000000000E-002    9.994820807156442E-028
 -1.140000000000000E-002    1.169116389472367E-027
 -1.130000000000000E-002    1.255618880141446E-027
 -1.120000000000000E-002    1.227343042345521E-027
 -1.110000000000000E-002    1.057481623383947E-027
 -1.100000000000000E-002    7.279906107834785E-028
 -1.090000000000000E-002    2.334053112434384E-028
 -1.080000000000000E-002   -4.158310156035383E-028
 -1.070000000000000E-002   -1.190913465929353E-027
 -1.060000000000000E-002   -2.043469104145899E-027
 -1.050000000000000E-002   -2.905932408519880E-027
 -1.040000000000000E-002   -3.693780743055736E-027
 -1.030000000000000E-002   -4.309831403149404E-027
 -1.020000000000000E-002   -4.650704390100127E-027
 -1.010000000000000E-002   -4.615424101056632E-027
 -1.000000000000000E-002   -4.115959924395597E-027
 -9.899999999999999E-003   -3.089278389413763E-027
 -9.800000000000000E-003   -1.510189342332172E-027
 -9.699999999999999E-003    5.960712650550608E-028
 -9.599999999999999E-003    3.142953961522761E-027
 -9.500000000000000E-003    5.975184832109737E-027
 -9.399999999999999E-003    8.866862362351732E-027
 -9.299999999999999E-003    1.152716327435237E-026
 -9.200000000000000E-003    1.361552408865879E-026
 -9.099999999999999E-003    1.476754739904528E-026
 -8.999999999999999E-003    1.463181507535645E-026
 -8.900000000000000E-003    1.291627978107201E-026
 -8.799999999999999E-003    9.441025076061544E-027
 -8.699999999999999E-003    4.192130369523344E-027
 -8.600000000000000E-003   -2.630578365524495E-027
 -8.499999999999999E-003   -1.058058461459698E-026
 -8.399999999999999E-003   -1.895584957859368E-026
 -8.300000000000000E-003   -2.682269320453215E-026
 -8.199999999999999E-003   -3.307876207815345E-026
 -8.100000000000000E-003   -3.655746346179975E-026
 -8.000000000000000E-003   -3.617072794769793E-026
 -7.899999999999999E-003   -3.108024511646930E-026
 -7.800000000000000E-003   -2.088021732466289E-026
 -7.699999999999999E-003   -5.768182247703060E-027
 -7.599999999999999E-003    1.332425348255615E-026
 -7.499999999999999E-003    3.467059337019362E-026
 -7.399999999999999E-003    5.578589996658600E-026
 -7.299999999999999E-003    7.358073622736738E-026
 -7.199999999999999E-003    8.464070427637488E-026
 -7.100000000000000E-003    8.562351315380462E-026
 -6.999999999999999E-003    7.374646139987115E-026
 -6.899999999999999E-003    4.731778720892902E-026
 -6.800000000000000E-003    6.248070488078699E-027
 -6.699999999999999E-003   -4.753405263803168E-026
 -6.599999999999999E-003   -1.098412324110769E-025
 -6.499999999999999E-003   -1.742345883339825E-025
 -6.399999999999999E-003   -2.323331451358587E-025
 -6.299999999999999E-003   -2.744504526966454E-025
 -6.199999999999999E-003   -2.905447128508059E-025
 -6.100000000000000E-003   -2.714245907778371E-025
 -5.999999999999999E-003   -2.101085574798074E-025
 -5.899999999999999E-003   -1.031967845784598E-025
 -5.800000000000000E-003    4.791218866704131E-026
 -5.699999999999999E-003    2.361375006461237E-025
 -5.599999999999999E-003    4.483312065976922E-025
 -5.499999999999999E-003    6.655254378343593E-025
 -5.399999999999999E-003    8.638903987943963E-025
 -5.299999999999999E-003    1.016411143774028E-024
 -5.199999999999999E-003    1.095211311018629E-024
 -5.099999999999999E-003    1.074371499223487E-024
 -4.999999999999999E-003    9.330186005816280E-025
 -4.899999999999999E-003    6.584084415671128E-025
 -4.799999999999999E-003    2.486959328711577E-025
 -4.699999999999999E-003   -2.849129168322382E-025
 -4.599999999999999E-003   -9.169027242011657E-025
 -4.499999999999999E-003   -1.607303706610705E-024
 -4.399999999999999E-003   -2.302803169274497E-024
 -4.299999999999999E-003   -2.939168734856592E-024
 -4.199999999999999E-003   -3.444946628250368E-024
 -4.099999999999999E-003   -3.746312895973172E-024
 -3.999999999999999E-003   -3.772875276333127E-024
 -3.899999999999999E-003   -3.464157622940444E-024
 -3.799999999999999E-003   -2.776437128668566E-024
 -3.699999999999999E-003   -1.689550626246718E-024
 -3.599999999999999E-003   -2.132253844731853E-025
 -3.499999999999999E-003    1.607572800830869E-024
 -3.399999999999999E-003    3.688850447456136E-024
 -3.299999999999999E-003    5.905995506956554E-024
 -3.199999999999999E-003    8.095069809248051E-024
 -3.099999999999999E-003    1.005766806056382E-023
 -2.999999999999999E-003    1.156994923121146E-023
 -2.899999999999999E-003    1.239626118523448E-023
 -2.799999999999999E-003    1.230746373970913E-023
 -2.699999999999999E-003    1.110359014816145E-023
 -2.599999999999999E-003    8.639879648335900E-024
 -2.499999999999999E-003    4.854509140387008E-024
 -2.399999999999999E-003   -2.044058806437993E-025
 -2.299999999999999E-003   -6.355661476789011E-024
 -2.199999999999999E-003   -1.326932063176248E-023
 -2.099999999999999E-003   -2.046245280384414E-023
 -1.999999999999999E-003   -2.730992678524872E-023
 -1.899999999999999E-003   -3.307320669010473E-023
 -1.799999999999999E-003   -3.694877841947237E-023
 -1.699999999999999E-003   -3.813594013825083E-023
 -1.599999999999999E-003   -3.592132573325791E-023
 -1.499999999999999E-003   -2.977485610416017E-023
 -1.399999999999999E-003   -1.944911452249949E-023
 -1.299999999999999E-003   -5.071726203601720E-024
 -1.199999999999999E-003    1.278137511208975E-023
 -1.099999999999999E-003    3.304461105684366E-023
 -9.999999999999989E-004    5.416543698653736E-023
 -8.999999999999990E-004    7.416084291502440E-023
 -7.999999999999990E-004    9.073353174879444E-023
 -6.999999999999989E-004    1.014481009475347E-022
 -5.999999999999990E-004    1.039608677281436E-022
 -4.999999999999989E-004    9.628959566520229E-023
 -3.999999999999989E-004    7.710207288785548E-023
 -2.999999999999989E-004    4.599603214741133E-023
 -1.999999999999989E-004    3.738340525022240E-024
 -9.999999999999892E-005   -4.757059294341826E-023
  1.084202172485504E-018   -1.044398826959235E-022
  1.000000000000011E-004   -1.620661837318328E-022
  2.000000000000011E-004   -2.145650832225861E-022
  3.000000000000011E-004   -2.553617048471257E-022
  4.000000000000011E-004   -2.777308715353398E-022
  5.000000000000011E-004   -2.754598853013089E-022
  6.000000000000011E-004   -2.435898964061250E-022
  7.000000000000011E-004   -1.791756143368231E-022
  8.000000000000011E-004   -8.199073020704961E-023
  9.000000000000012E-004    4.490116519079365E-023
  1.000000000000001E-003    1.947913980524318E-022
  1.100000000000001E-003    3.572615875345805E-022
  1.200000000000001E-003    5.184696829346240E-022
  1.300000000000001E-003    6.618241324117367E-022
  1.400000000000001E-003    7.690541445864585E-022
  1.500000000000001E-003    8.216485999938154E-022
  1.600000000000001E-003    8.025974379829368E-022
  1.700000000000001E-003    6.983302056611079E-022
  1.800000000000001E-003    5.007094890867046E-022
  1.900000000000001E-003    2.089064340377439E-022
  2.000000000000001E-003   -1.690359098586637E-022
  2.100000000000001E-003   -6.151539297958752E-022
  2.200000000000001E-003   -1.101224327178593E-021
  2.300000000000001E-003   -1.589304180631250E-021
  2.400000000000001E-003   -2.033274134593725E-021
  2.500000000000001E-003   -2.381444490943823E-021
  2.600000000000001E-003   -2.580200860152319E-021
  2.700000000000001E-003   -2.578569407810246E-021
  2.800000000000001E-003   -2.333472747779012E-021
  2.900000000000001E-003   -1.815341750246442E-021
  3.000000000000001E-003   -1.013643340824342E-021
  3.100000000000001E-003    5.819670380240392E-023
  3.200000000000001E-003    1.359051971381669E-021
  3.300000000000001E-003    2.818122127783217E-021
  3.400000000000001E-003    4.335275830679154E-021
  3.500000000000001E-003    5.784157690724262E-021
  3.600000000000001E-003    7.018342510676289E-021
  3.700000000000001E-003    7.880594607581353E-021
  3.800000000000001E-003    8.215013114645498E-021
  3.900000000000001E-003    7.881524709734674E-021
  4.000000000000001E-003    6.771858404993724E-021
  4.100000000000001E-003    4.825821363155429E-021
  4.200000000000001E-003    2.046429215306375E-021
  4.300000000000001E-003   -1.487734309972661E-021
  4.400000000000001E-003   -5.614611581232668E-021
  4.500000000000001E-003   -1.008681514191360E-020
  4.600000000000002E-003   -1.457715615010191E-020
  4.700000000000001E-003   -1.869246316787060E-020
  4.800000000000001E-003   -2.199599342009750E-020
  4.900000000000002E-003   -2.403801682849552E-020
  5.000000000000001E-003   -2.439331362671666E-020
  5.100000000000001E-003   -2.270348353799027E-020
  5.200000000000001E-003   -1.872115283119444E-020
  5.300000000000002E-003   -1.235247775654411E-020
  5.400000000000001E-003   -3.693877128305998E-021
  5.500000000000001E-003    6.941266436008178E-021
  5.600000000000002E-003    1.901004415356081E-020
  5.700000000000001E-003    3.174516118476279E-020
  5.800000000000001E-003    4.418040355997069E-020
  5.900000000000002E-003    5.519775851991556E-020
  6.000000000000001E-003    6.359586649257964E-020
  6.100000000000001E-003    6.817762921485248E-020
  6.200000000000002E-003    6.785281915060054E-020
  6.300000000000002E-003    6.174958208938488E-020
  6.400000000000001E-003    4.932698799835785E-020
  6.500000000000001E-003    3.047936878604064E-020
  6.600000000000002E-003    5.622352108108981E-021
  6.700000000000001E-003   -2.424969026468801E-020
  6.800000000000001E-003   -5.754445555272968E-020
  6.900000000000002E-003   -9.209889314392566E-020
  7.000000000000001E-003   -1.252585558945529E-019
  7.100000000000001E-003   -1.540115065308331E-019
  7.200000000000002E-003   -1.751752245466281E-019
  7.300000000000002E-003   -1.856303179122306E-019
  7.400000000000001E-003   -1.825899428839655E-019
  7.500000000000001E-003   -1.638889971695133E-019
  7.600000000000002E-003   -1.282727400086382E-019
  7.700000000000001E-003   -7.566098877353693E-020
  7.800000000000001E-003   -7.361847177126786E-021
  7.900000000000001E-003    7.379150469002478E-020
  8.000000000000002E-003    1.634057039697442E-019
  8.100000000000001E-003    2.556145918953692E-019
  8.200000000000001E-003    3.433031892943362E-019
  8.300000000000002E-003    4.184739153039085E-019
  8.400000000000001E-003    4.727493928978042E-019
  8.500000000000002E-003    4.979941979471313E-019
  8.600000000000002E-003    4.870249058194385E-019
  8.700000000000001E-003    4.343648988903002E-019
  8.800000000000002E-003    3.369894106205735E-019
  8.900000000000002E-003    1.949974698945207E-019
  9.000000000000001E-003    1.214284097866195E-020
  9.100000000000002E-003   -2.038439770267917E-019
  9.200000000000002E-003   -4.412046679363345E-019
  9.300000000000001E-003   -6.844229200734990E-019
  9.400000000000002E-003   -9.148470876604173E-019
  9.500000000000001E-003   -1.111673420141266E-018
  9.600000000000001E-003   -1.253269502814975E-018
  9.700000000000002E-003   -1.318786087138771E-018
  9.800000000000001E-003   -1.289972965077847E-018
  9.900000000000001E-003   -1.153084718509323E-018
  1.000000000000000E-002   -9.007359691885441E-019
  1.010000000000000E-002   -5.335472539738183E-019
  1.020000000000000E-002   -6.141486630251100E-020
  1.030000000000000E-002    4.957587008572588E-019
  1.040000000000000E-002    1.108018403447216E-018
  1.050000000000000E-002    1.736107082492763E-018
  1.060000000000000E-002    2.333078784091605E-018
  1.070000000000000E-002    2.846781114288869E-018
  1.080000000000000E-002    3.223145621324505E-018
  1.090000000000000E-002    3.410149888021729E-018
  1.100000000000000E-002    3.362240636020993E-018
  1.110000000000000E-002    3.044939469317079E-018
  1.120000000000000E-002    2.439294950303319E-018
  1.130000000000000E-002    1.545806527254037E-018
  1.140000000000000E-002    3.874317254882883E-019
  1.150000000000000E-002   -9.886989636059230E-019
  1.160000000000000E-002   -2.511187526597505E-018
  1.170000000000000E-002   -4.086147241155270E-018
  1.180000000000000E-002   -5.600995135427881E-018
  1.190000000000000E-002   -6.930264125401069E-018
  1.200000000000000E-002   -7.943286282648321E-018
  1.210000000000000E-002   -8.513427857281211E-018
  1.220000000000000E-002   -8.528395447624500E-018
  1.230000000000000E-002   -7.900978078187146E-018
  1.240000000000000E-002   -6.579463797887166E-018
  1.250000000000000E-002   -4.556892027396127E-018
  1.260000000000000E-002   -1.878262086022643E-018
  1.270000000000000E-002    1.355140296824008E-018
  1.280000000000000E-002    4.985045628935600E-018
  1.290000000000000E-002    8.799702239534207E-018
  1.300000000000000E-002    1.254191684900859E-017
  1.310000000000000E-002    1.592167199646925E-017
  1.320000000000000E-002    1.863302664936200E-017
  1.330000000000000E-002    2.037464210781156E-017
  1.340000000000000E-002    2.087290856547716E-017
  1.350000000000000E-002    1.990631857597208E-017
  1.360000000000000E-002    1.732944575084933E-017
  1.370000000000000E-002    1.309469503184291E-017
  1.380000000000000E-002    7.269901124794388E-018
  1.390000000000000E-002    4.989072828855765E-020
  1.400000000000000E-002   -8.239688926373188E-018
  1.410000000000000E-002   -1.714763189251624E-017
  1.420000000000000E-002   -2.611240751027119E-017
  1.430000000000000E-002   -3.448763364104643E-017
  1.440000000000000E-002   -4.157734213354195E-017
  1.450000000000000E-002   -4.667981572079716E-017
  1.460000000000000E-002   -4.913797821911592E-017
  1.470000000000000E-002   -4.839356319616652E-017
  1.480000000000000E-002   -4.404165301372004E-017
  1.490000000000000E-002   -3.588165120511852E-017
  1.500000000000000E-002   -2.396052035949632E-017
  1.510000000000000E-002   -8.604061472089536E-018
  1.520000000000000E-002    9.567649301200599E-018
  1.530000000000000E-002    2.964396876294985E-017
  1.540000000000000E-002    5.044890248144825E-017
  1.550000000000000E-002    7.058893189031801E-017
  1.560000000000000E-002    8.852311978141555E-017
  1.570000000000000E-002    1.026535074725393E-016
  1.580000000000000E-002    1.114320430680876E-016
  1.590000000000000E-002    1.134786627582966E-016
  1.600000000000000E-002    1.077035719357094E-016
  1.610000000000000E-002    9.342552530736554E-017
  1.620000000000000E-002    7.047712140372388E-017
  1.630000000000000E-002    3.928778744584488E-017
  1.640000000000000E-002    9.355014111478795E-019
  1.650000000000000E-002   -4.284072106675339E-017
  1.660000000000000E-002   -8.967382571105044E-017
  1.670000000000000E-002   -1.366510848387694E-016
  1.680000000000000E-002   -1.804466690532392E-016
  1.690000000000000E-002   -2.175019283239244E-016
  1.700000000000000E-002   -2.442470022127708E-016
  1.710000000000000E-002   -2.573537042021308E-016
  1.720000000000000E-002   -2.540059355520136E-016
  1.730000000000000E-002   -2.321707564468554E-016
  1.740000000000000E-002   -1.908509779678936E-016
  1.750000000000000E-002   -1.302986308508213E-016
  1.760000000000000E-002   -5.216877728545933E-017
  1.770000000000000E-002    4.040551913131321E-017
  1.780000000000000E-002    1.428333510917686E-016
  1.790000000000000E-002    2.491929006959160E-016
  1.800000000000000E-002    3.524707336836392E-016
  1.810000000000000E-002    4.449120335944971E-016
  1.820000000000000E-002    5.184719115485672E-016
  1.830000000000000E-002    5.653495354214586E-016
  1.840000000000000E-002    5.785781049425288E-016
  1.850000000000000E-002    5.526362343736503E-016
  1.860000000000000E-002    4.840397624962640E-016
  1.870000000000000E-002    3.718687877309880E-016