 -4.000000000000000E-002    0.000000000000000E+000
 -3.990000000000000E-002    0.000000000000000E+000
 -3.980000000000000E-002    0.000000000000000E+000
 -3.970000000000000E-002    0.000000000000000E+000
 -3.960000000000000E-002    0.000000000000000E+000
 -3.950000000000000E-002    0.000000000000000E+000
 -3.940000000000000E-002    0.000000000000000E+000
 -3.930000000000000E-002    0.000000000000000E+000
 -3.920000000000000E-002    0.000000000000000E+000
 -3.910000000000000E-002    0.000000000000000E+000
 -3.900000000000000E-002    0.000000000000000E+000
 -3.890000000000000E-002    0.000000000000000E+000
 -3.880000000000000E-002    0.000000000000000E+000
 -3.870000000000000E-002    0.000000000000000E+000
 -3.860000000000000E-002    0.000000000000000E+000
 -3.850000000000000E-002    0.000000000000000E+000
 -3.840000000000000E-002    0.000000000000000E+000
 -3.830000000000000E-002    0.000000000000000E+000
 -3.820000000000000E-002    0.000000000000000E+000
 -3.810000000000000E-002    0.000000000000000E+000
 -3.800000000000000E-002    0.000000000000000E+000
 -3.790000000000000E-002    0.000000000000000E+000
 -3.780000000000000E-002    0.000000000000000E+000
 -3.770000000000000E-002    0.000000000000000E+000
 -3.760000000000000E-002    0.000000000000000E+000
 -3.750000000000000E-002    0.000000000000000E+000
 -3.740000000000000E-002    0.000000000000000E+000
 -3.730000000000000E-002    0.000000000000000E+000
 -3.720000000000000E-002    0.000000000000000E+000
 -3.710000000000000E-002    0.000000000000000E+000
 -3.700000000000000E-002    0.000000000000000E+000
 -3.690000000000000E-002    0.000000000000000E+000
 -3.680000000000000E-002    0.000000000000000E+000
 -3.670000000000000E-002    0.000000000000000E+000
 -3.660000000000000E-002    0.000000000000000E+000
 -3.650000000000000E-002    0.000000000000000E+000
 -3.640000000000000E-002    0.000000000000000E+000
 -3.630000000000000E-002    0.000000000000000E+000
 -3.620000000000000E-002    0.000000000000000E+000
 -3.610000000000000E-002    0.000000000000000E+000
 -3.600000000000000E-002    0.000000000000000E+000
 -3.590000000000000E-002    0.000000000000000E+000
 -3.580000000000000E-002    0.000000000000000E+000
 -3.570000000000000E-002    0.000000000000000E+000
 -3.560000000000000E-002    0.000000000000000E+000
 -3.550000000000000E-002    0.000000000000000E+000
 -3.540000000000000E-002    0.000000000000000E+000
 -3.530000000000000E-002    0.000000000000000E+000
 -3.520000000000000E-002    0.000000000000000E+000
 -3.510000000000000E-002    0.000000000000000E+000
 -3.500000000000000E-002    0.000000000000000E+000
 -3.490000000000000E-002    0.000000000000000E+000
 -3.480000000000000E-002    0.000000000000000E+000
 -3.470000000000000E-002    0.000000000000000E+000
 -3.460000000000000E-002    0.000000000000000E+000
 -3.450000000000000E-002    0.000000000000000E+000
 -3.440000000000000E-002    0.000000000000000E+000
 -3.430000000000000E-002    0.000000000000000E+000
 -3.420000000000000E-002    0.000000000000000E+000
 -3.410000000000000E-002    0.000000000000000E+000
 -3.400000000000000E-002    0.000000000000000E+000
 -3.390000000000000E-002    0.000000000000000E+000
 -3.380000000000000E-002    0.000000000000000E+000
 -3.370000000000000E-002    0.000000000000000E+000
 -3.360000000000000E-002    0.000000000000000E+000
 -3.350000000000000E-002    0.000000000000000E+000
 -3.340000000000000E-002    0.000000000000000E+000
 -3.330000000000000E-002    0.000000000000000E+000
 -3.320000000000000E-002    0.000000000000000E+000
 -3.310000000000000E-002    0.000000000000000E+000
 -3.300000000000000E-002    0.000000000000000E+000
 -3.290000000000000E-002    0.000000000000000E+000
 -3.280000000000000E-002    0.000000000000000E+000
 -3.270000000000000E-002    0.000000000000000E+000
 -3.260000000000000E-002    0.000000000000000E+000
 -3.250000000000000E-002    0.000000000000000E+000
 -3.240000000000000E-002    0.000000000000000E+000
 -3.230000000000000E-002    0.000000000000000E+000
 -3.220000000000000E-002    0.000000000000000E+000
 -3.210000000000000E-002    0.000000000000000E+000
 -3.200000000000000E-002    0.000000000000000E+000
 -3.190000000000000E-002    0.000000000000000E+000
 -3.180000000000000E-002    0.000000000000000E+000
 -3.170000000000000E-002    0.000000000000000E+000
 -3.160000000000000E-002    0.000000000000000E+000
 -3.150000000000000E-002    0.000000000000000E+000
 -3.140000000000000E-002    0.000000000000000E+000
 -3.130000000000000E-002    0.000000000000000E+000
 -3.120000000000000E-002    0.000000000000000E+000
 -3.110000000000000E-002    0.000000000000000E+000
 -3.100000000000000E-002    0.000000000000000E+000
 -3.090000000000000E-002    0.000000000000000E+000
 -3.080000000000000E-002    0.000000000000000E+000
 -3.070000000000000E-002    0.000000000000000E+000
 -3.060000000000000E-002    0.000000000000000E+000
 -3.050000000000000E-002    0.000000000000000E+000
 -3.040000000000000E-002    0.000000000000000E+000
 -3.030000000000000E-002    0.000000000000000E+000
 -3.020000000000000E-002    0.000000000000000E+000
 -3.010000000000000E-002    0.000000000000000E+000
 -3.000000000000000E-002    0.000000000000000E+000
 -2.990000000000000E-002    0.000000000000000E+000
 -2.980000000000000E-002    0.000000000000000E+000
 -2.970000000000000E-002    0.000000000000000E+000
 -2.960000000000000E-002    0.000000000000000E+000
 -2.950000000000000E-002    0.000000000000000E+000
 -2.940000000000000E-002    0.000000000000000E+000
 -2.930000000000000E-002    0.000000000000000E+000
 -2.920000000000000E-002    0.000000000000000E+000
 -2.910000000000000E-002    0.000000000000000E+000
 -2.900000000000000E-002    0.000000000000000E+000
 -2.890000000000000E-002    0.000000000000000E+000
 -2.880000000000000E-002    0.000000000000000E+000
 -2.870000000000000E-002    0.000000000000000E+000
 -2.860000000000000E-002    0.000000000000000E+000
 -2.850000000000000E-002    0.000000000000000E+000
 -2.840000000000000E-002    0.000000000000000E+000
 -2.830000000000000E-002    0.000000000000000E+000
 -2.820000000000000E-002    0.000000000000000E+000
 -2.810000000000000E-002    0.000000000000000E+000
 -2.800000000000000E-002    0.000000000000000E+000
 -2.790000000000000E-002    0.000000000000000E+000
 -2.780000000000000E-002    0.000000000000000E+000
 -2.770000000000000E-002    0.000000000000000E+000
 -2.760000000000000E-002    0.000000000000000E+000
 -2.750000000000000E-002    0.000000000000000E+000
 -2.740000000000000E-002    0.000000000000000E+000
 -2.730000000000000E-002    0.000000000000000E+000
 -2.720000000000000E-002    0.000000000000000E+000
 -2.710000000000000E-002    0.000000000000000E+000
 -2.700000000000000E-002    0.000000000000000E+000
 -2.690000000000000E-002    0.000000000000000E+000
 -2.680000000000000E-002    0.000000000000000E+000
 -2.670000000000000E-002    0.000000000000000E+000
 -2.660000000000000E-002    0.000000000000000E+000
 -2.650000000000000E-002    0.000000000000000E+000
 -2.640000000000000E-002    0.000000000000000E+000
 -2.630000000000000E-002    0.000000000000000E+000
 -2.620000000000000E-002    0.000000000000000E+000
 -2.610000000000000E-002    0.000000000000000E+000
 -2.600000000000000E-002    0.000000000000000E+000
 -2.590000000000000E-002    0.000000000000000E+000
 -2.580000000000000E-002    0.000000000000000E+000
 -2.570000000000000E-002    0.000000000000000E+000
 -2.560000000000000E-002    0.000000000000000E+000
 -2.550000000000000E-002    0.000000000000000E+000
 -2.540000000000000E-002    0.000000000000000E+000
 -2.530000000000000E-002    0.000000000000000E+000
 -2.520000000000000E-002    0.000000000000000E+000
 -2.510000000000000E-002    0.000000000000000E+000
 -2.500000000000000E-002    0.000000000000000E+000
 -2.490000000000000E-002    0.000000000000000E+000
 -2.480000000000000E-002    0.000000000000000E+000
 -2.470000000000000E-002    0.000000000000000E+000
 -2.460000000000000E-002    0.000000000000000E+000
 -2.450000000000000E-002    0.000000000000000E+000
 -2.440000000000000E-002    0.000000000000000E+000
 -2.430000000000000E-002    0.000000000000000E+000
 -2.420000000000000E-002    0.000000000000000E+000
 -2.410000000000000E-002    0.000000000000000E+000
 -2.400000000000000E-002    0.000000000000000E+000
 -2.390000000000000E-002    0.000000000000000E+000
 -2.380000000000000E-002    0.000000000000000E+000
 -2.370000000000000E-002    0.000000000000000E+000
 -2.360000000000000E-002    0.000000000000000E+000
 -2.350000000000000E-002    0.000000000000000E+000
 -2.340000000000000E-002    0.000000000000000E+000
 -2.330000000000000E-002    0.000000000000000E+000
 -2.320000000000000E-002    0.000000000000000E+000
 -2.310000000000000E-002    0.000000000000000E+000
 -2.300000000000000E-002    0.000000000000000E+000
 -2.290000000000000E-002    0.000000000000000E+000
 -2.280000000000000E-002    0.000000000000000E+000
 -2.270000000000000E-002    0.000000000000000E+000
 -2.260000000000000E-002    0.000000000000000E+000
 -2.250000000000000E-002    0.000000000000000E+000
 -2.240000000000000E-002    0.000000000000000E+000
 -2.230000000000000E-002    0.000000000000000E+000
 -2.220000000000000E-002    0.000000000000000E+000
 -2.210000000000000E-002    0.000000000000000E+000
 -2.200000000000000E-002    0.000000000000000E+000
 -2.190000000000000E-002    0.000000000000000E+000
 -2.180000000000000E-002    0.000000000000000E+000
 -2.170000000000000E-002    0.000000000000000E+000
 -2.160000000000000E-002    0.000000000000000E+000
 -2.150000000000000E-002    0.000000000000000E+000
 -2.140000000000000E-002    0.000000000000000E+000
 -2.130000000000000E-002    0.000000000000000E+000
 -2.120000000000000E-002    0.000000000000000E+000
 -2.110000000000000E-002    0.000000000000000E+000
 -2.100000000000000E-002    0.000000000000000E+000
 -2.090000000000000E-002    0.000000000000000E+000
 -2.080000000000000E-002    0.000000000000000E+000
 -2.070000000000000E-002    0.000000000000000E+000
 -2.060000000000000E-002    0.000000000000000E+000
 -2.050000000000000E-002    0.000000000000000E+000
 -2.040000000000000E-002    0.000000000000000E+000
 -2.030000000000000E-002    0.000000000000000E+000
 -2.020000000000000E-002    0.000000000000000E+000
 -2.010000000000000E-002    0.000000000000000E+000
 -2.000000000000000E-002    0.000000000000000E+000
 -1.990000000000000E-002    0.000000000000000E+000
 -1.980000000000000E-002    0.000000000000000E+000
 -1.970000000000000E-002    0.000000000000000E+000
 -1.960000000000000E-002    0.000000000000000E+000
 -1.950000000000000E-002    0.000000000000000E+000
 -1.940000000000000E-002    0.000000000000000E+000
 -1.930000000000000E-002    0.000000000000000E+000
 -1.920000000000000E-002    0.000000000000000E+000
 -1.910000000000000E-002    0.000000000000000E+000
 -1.900000000000000E-002    0.000000000000000E+000
 -1.890000000000000E-002    0.000000000000000E+000
 -1.880000000000000E-002    0.000000000000000E+000
 -1.870000000000000E-002    0.000000000000000E+000
 -1.860000000000000E-002    0.000000000000000E+000
 -1.850000000000000E-002    0.000000000000000E+000
 -1.840000000000000E-002    0.000000000000000E+000
 -1.830000000000000E-002    0.000000000000000E+000
 -1.820000000000000E-002    0.000000000000000E+000
 -1.810000000000000E-002    0.000000000000000E+000
 -1.800000000000000E-002    0.000000000000000E+000
 -1.790000000000000E-002    0.000000000000000E+000
 -1.780000000000000E-002    0.000000000000000E+000
 -1.770000000000000E-002    0.000000000000000E+000
 -1.760000000000000E-002    0.000000000000000E+000
 -1.750000000000000E-002    0.000000000000000E+000
 -1.740000000000000E-002    0.000000000000000E+000
 -1.730000000000000E-002    0.000000000000000E+000
 -1.720000000000000E-002    0.000000000000000E+000
 -1.710000000000000E-002    0.000000000000000E+000
 -1.700000000000000E-002    0.000000000000000E+000
 -1.690000000000000E-002    0.000000000000000E+000
 -1.680000000000000E-002    0.000000000000000E+000
 -1.670000000000000E-002    0.000000000000000E+000
 -1.660000000000000E-002    0.000000000000000E+000
 -1.650000000000000E-002    0.000000000000000E+000
 -1.640000000000000E-002    0.000000000000000E+000
 -1.630000000000000E-002    0.000000000000000E+000
 -1.620000000000000E-002    0.000000000000000E+000
 -1.610000000000000E-002    0.000000000000000E+000
 -1.600000000000000E-002    0.000000000000000E+000
 -1.590000000000000E-002    0.000000000000000E+000
 -1.580000000000000E-002    0.000000000000000E+000
 -1.570000000000000E-002    0.000000000000000E+000
 -1.560000000000000E-002    0.000000000000000E+000
 -1.550000000000000E-002    0.000000000000000E+000
 -1.540000000000000E-002    0.000000000000000E+000
 -1.530000000000000E-002    0.000000000000000E+000
 -1.520000000000000E-002    0.000000000000000E+000
 -1.510000000000000E-002    0.000000000000000E+000
 -1.500000000000000E-002    0.000000000000000E+000
 -1.490000000000000E-002    0.000000000000000E+000
 -1.480000000000000E-002    0.000000000000000E+000
 -1.470000000000000E-002    0.000000000000000E+000
 -1.460000000000000E-002    0.000000000000000E+000
 -1.450000000000000E-002    0.000000000000000E+000
 -1.440000000000000E-002    0.000000000000000E+000
 -1.430000000000000E-002    0.000000000000000E+000
 -1.420000000000000E-002    0.000000000000000E+000
 -1.410000000000000E-002    0.000000000000000E+000
 -1.400000000000000E-002    0.000000000000000E+000
 -1.390000000000000E-002    0.000000000000000E+000
 -1.380000000000000E-002    0.000000000000000E+000
 -1.370000000000000E-002    0.000000000000000E+000
 -1.360000000000000E-002    0.000000000000000E+000
 -1.350000000000000E-002    0.000000000000000E+000
 -1.340000000000000E-002    0.000000000000000E+000
 -1.330000000000000E-002    0.000000000000000E+000
 -1.320000000000000E-002    0.000000000000000E+000
 -1.310000000000000E-002    0.000000000000000E+000
 -1.300000000000000E-002    0.000000000000000E+000
 -1.290000000000000E-002    0.000000000000000E+000
 -1.280000000000000E-002    0.000000000000000E+000
 -1.270000000000000E-002    0.000000000000000E+000
 -1.260000000000000E-002    0.000000000000000E+000
 -1.250000000000000E-002    0.000000000000000E+000
 -1.240000000000000E-002    0.000000000000000E+000
 -1.230000000000000E-002    0.000000000000000E+000
 -1.220000000000000E-002    0.000000000000000E+000
 -1.210000000000000E-002    0.000000000000000E+000
 -1.200000000000000E-002    0.000000000000000E+000
 -1.190000000000000E-002    0.000000000000000E+000
 -1.180000000000000E-002    0.000000000000000E+000
 -1.170000000000000E-002    0.000000000000000E+000
 -1.160000000000000E-002    0.000000000000000E+000
 -1.150000000000000E-002    0.000000000000000E+000
 -1.140000000000000E-002    0.000000000000000E+000
 -1.130000000000000E-002    0.000000000000000E+000
 -1.120000000000000E-002    0.000000000000000E+000
 -1.110000000000000E-002    0.000000000000000E+000
 -1.100000000000000E-002    0.000000000000000E+000
 -1.090000000000000E-002    0.000000000000000E+000
 -1.080000000000000E-002    0.000000000000000E+000
 -1.070000000000000E-002    0.000000000000000E+000
 -1.060000000000000E-002    0.000000000000000E+000
 -1.050000000000000E-002    0.000000000000000E+000
 -1.040000000000000E-002    1.223867108479510E-048
 -1.030000000000000E-002    2.447734216959019E-048
 -1.020000000000000E-002    3.671601325438529E-048
 -1.010000000000000E-002    3.671601325438529E-048
 -1.000000000000000E-002    3.671601325438529E-048
 -9.899999999999999E-003   -1.268381410416056E-048
 -9.800000000000000E-003   -7.432231254750152E-048
 -9.699999999999999E-003   -1.604381531604327E-047
 -9.599999999999999E-003   -2.587926648581589E-047
 -9.500000000000000E-003   -3.322246913669295E-047
 -9.399999999999999E-003   -4.293181492343239E-047
 -9.299999999999999E-003   -4.770117797431724E-047
 -9.200000000000000E-003   -3.754549094897220E-047
 -9.099999999999999E-003   -3.647604492058020E-047
 -8.999999999999999E-003   -2.434728061393607E-047
 -8.900000000000000E-003    1.384761917156981E-047
 -8.799999999999999E-003    7.137961944945791E-047
 -8.699999999999999E-003    1.669645030580259E-046
 -8.600000000000000E-003    2.691753765328989E-046
 -8.499999999999999E-003    3.678369303591943E-046
 -8.399999999999999E-003    3.958615191020280E-046
 -8.300000000000000E-003    3.658023663064915E-046
 -8.199999999999999E-003    2.776912265446436E-046
 -8.100000000000000E-003    7.091882224394199E-047
 -8.000000000000000E-003   -2.982662457958799E-046
 -7.899999999999999E-003   -7.339732720343939E-046
 -7.800000000000000E-003   -1.253399084021349E-045
 -7.699999999999999E-003   -1.815629450520097E-045
 -7.599999999999999E-003   -2.261111350304008E-045
 -7.499999999999999E-003   -2.715400839896569E-045
 -7.399999999999999E-003   -2.658739526728425E-045
 -7.299999999999999E-003   -2.340805776350354E-045
 -7.199999999999999E-003   -1.438397926969824E-045
 -7.100000000000000E-003    3.209567671464391E-046
 -6.999999999999999E-003    2.503522233858586E-045
 -6.899999999999999E-003    5.159215081774688E-045
 -6.800000000000000E-003    8.511507790593705E-045
 -6.699999999999999E-003    1.164232055446332E-044
 -6.599999999999999E-003    1.480115587934712E-044
 -6.499999999999999E-003    1.590407442033798E-044
 -6.399999999999999E-003    1.505435694726436E-044
 -6.299999999999999E-003    1.153169707725709E-044
 -6.199999999999999E-003    5.916379814440157E-045
 -6.100000000000000E-003   -3.613834188597566E-045
 -5.999999999999999E-003   -1.562376203684834E-044
 -5.899999999999999E-003   -2.984445301796287E-044
 -5.800000000000000E-003   -4.481958111892620E-044
 -5.699999999999999E-003   -5.884657973606786E-044
 -5.599999999999999E-003   -6.867459736623383E-044
 -5.499999999999999E-003   -7.222789143740357E-044
 -5.399999999999999E-003   -6.719808318983573E-044
 -5.299999999999999E-003   -5.124915436204336E-044
 -5.199999999999999E-003   -2.418852840311971E-044
 -5.099999999999999E-003    1.360570992014613E-044
 -4.999999999999999E-003    6.115210380903184E-044
 -4.899999999999999E-003    1.146443106401825E-043
 -4.799999999999999E-003    1.717512945981524E-043
 -4.699999999999999E-003    2.275611357462341E-043
 -4.599999999999999E-003    2.754936771020985E-043
 -4.499999999999999E-003    3.101016439814533E-043
 -4.399999999999999E-003    3.231599643709769E-043
 -4.299999999999999E-003    3.074911727212561E-043
 -4.199999999999999E-003    2.548742706346013E-043
 -4.099999999999999E-003    1.554177614051893E-043
 -3.999999999999999E-003   -2.297923186509757E-045
 -3.899999999999999E-003   -2.293095347555874E-043
 -3.799999999999999E-003   -5.322274772051745E-043
 -3.699999999999999E-003   -9.121781891286805E-043
 -3.599999999999999E-003   -1.357458459584192E-042
 -3.499999999999999E-003   -1.834723078667525E-042
 -3.399999999999999E-003   -2.286074190848954E-042
 -3.299999999999999E-003   -2.620557753846918E-042
 -3.199999999999999E-003   -2.713391146302547E-042
 -3.099999999999999E-003   -2.413907227985448E-042
 -2.999999999999999E-003   -1.557882646138745E-042
 -2.899999999999999E-003    2.495948540071275E-045
 -2.799999999999999E-003    2.361812907770440E-042
 -2.699999999999999E-003    5.511014277831222E-042
 -2.599999999999999E-003    9.285835546250800E-042
 -2.499999999999999E-003    1.331748467591180E-041
 -2.399999999999999E-003    1.700547536072845E-041
 -2.299999999999999E-003    1.951656802837860E-041
 -2.199999999999999E-003    1.983429789843894E-041
 -2.099999999999999E-003    1.686737592848514E-041
 -1.999999999999999E-003    9.622980873388303E-042
 -1.899999999999999E-003   -2.567314795433219E-042
 -1.799999999999999E-003   -1.976945157966550E-041
 -1.699999999999999E-003   -4.117546733856677E-041
 -1.599999999999999E-003   -6.487261980709352E-041
 -1.499999999999999E-003   -8.772178222528379E-041
 -1.399999999999999E-003   -1.054111626252489E-040
 -1.299999999999999E-003   -1.127494734839088E-040
 -1.199999999999999E-003   -1.042298281880795E-040
 -1.099999999999999E-003   -7.488187825302518E-041
 -9.999999999999989E-004   -2.135275519003569E-041
 -8.999999999999990E-004    5.688024377113368E-041
 -7.999999999999990E-004    1.563419555554768E-040
 -6.999999999999989E-004    2.686537130665585E-040
 -5.999999999999990E-004    3.801458211306800E-040
 -4.999999999999989E-004    4.722488407461293E-040
 -3.999999999999989E-004    5.228546639932145E-040
 -2.999999999999989E-004    5.087646728061002E-040
 -1.999999999999989E-004    4.091550941273294E-040
 -9.999999999999892E-005    2.098291012336359E-040
  1.084202172485504E-018   -9.221988941967421E-041
  1.000000000000011E-004   -4.845914387566961E-040
  2.000000000000011E-004   -9.364293685004423E-040
  3.000000000000011E-004   -1.397411714016324E-039
  4.000000000000011E-004   -1.799575985555221E-039
  5.000000000000011E-004   -2.062536519535713E-039
  6.000000000000011E-004   -2.102266893818891E-039
  7.000000000000011E-004   -1.843060758337795E-039
  8.000000000000011E-004   -1.231667066514311E-039
  9.000000000000012E-004   -2.519607905048775E-040
  1.000000000000001E-003    1.062028072267753E-039
  1.100000000000001E-003    2.617219134410011E-039
  1.200000000000001E-003    4.259196207549245E-039
  1.300000000000001E-003    5.778591712422531E-039
  1.400000000000001E-003    6.927331811618921E-039
  1.500000000000001E-003    7.444681686322019E-039
  1.600000000000001E-003    7.091468910648776E-039
  1.700000000000001E-003    5.689227310758349E-039
  1.800000000000001E-003    3.159512497432900E-039
  1.900000000000001E-003   -4.423911810135174E-040
  2.000000000000001E-003   -4.905492639713346E-039
  2.100000000000001E-003   -9.858384944390373E-039
  2.200000000000001E-003   -1.478576196673746E-038
  2.300000000000001E-003   -1.906760892050977E-038
  2.400000000000001E-003   -2.203934863330370E-038
  2.500000000000001E-003   -2.306773944468719E-038
  2.600000000000001E-003   -2.163422425593898E-038
  2.700000000000001E-003   -1.741509370379852E-038
  2.800000000000001E-003   -1.034703459715563E-038
  2.900000000000001E-003   -6.675877683942933E-040
  3.000000000000001E-003    1.107703667189277E-038
  3.100000000000001E-003    2.405976803062057E-038
  3.200000000000001E-003    3.723342393462793E-038
  3.300000000000001E-003    4.941595055588675E-038
  3.400000000000001E-003    5.938703945152876E-038
  3.500000000000001E-003    6.598052010391352E-038
  3.600000000000001E-003    6.815771875509664E-038
  3.700000000000001E-003    6.505148478916686E-038
  3.800000000000001E-003    5.597848125001806E-038
  3.900000000000001E-003    4.042778179037528E-038
  4.000000000000001E-003    1.804474472728683E-038
  4.100000000000001E-003   -1.136198377202267E-038
  4.200000000000001E-003   -4.775829737564847E-038
  4.300000000000001E-003   -9.073869263226838E-038
  4.400000000000001E-003   -1.392804880351767E-037
  4.500000000000001E-003   -1.914044455254867E-037
  4.600000000000002E-003   -2.437781356719583E-037
  4.700000000000001E-003   -2.913331263560181E-037
  4.800000000000001E-003   -3.269999841204888E-037
  4.900000000000002E-003   -3.416893214156892E-037
  5.000000000000001E-003   -3.246547619563639E-037
  5.100000000000001E-003   -2.643566807220322E-037
  5.200000000000001E-003   -1.499002522188629E-037
  5.300000000000002E-003    2.695485393502955E-038
  5.400000000000001E-003    2.693191406142031E-037
  5.500000000000001E-003    5.724587410267802E-037
  5.600000000000002E-003    9.211918756872456E-037
  5.700000000000001E-003    1.287854651115648E-036
  5.800000000000001E-003    1.631364370652863E-036
  5.900000000000002E-003    1.897919452165359E-036
  6.000000000000001E-003    2.023807058768521E-036
  6.100000000000001E-003    1.940636026494672E-036
  6.200000000000002E-003    1.583062873007267E-036
  6.300000000000002E-003    8.987540503652973E-037
  6.400000000000001E-003   -1.400590089132921E-037
  6.500000000000001E-003   -1.524481854331258E-036
  6.600000000000002E-003   -3.197748042397344E-036
  6.700000000000001E-003   -5.046639485647757E-036
  6.800000000000001E-003   -6.897447271750782E-036
  6.900000000000002E-003   -8.518376238286913E-036
  7.000000000000001E-003   -9.630052410753043E-036
  7.100000000000001E-003   -9.925293414046717E-036
  7.200000000000002E-003   -9.098526628581871E-036
  7.300000000000002E-003   -6.884203491641134E-036
  7.400000000000001E-003   -3.102312858456420E-036
  7.500000000000001E-003    2.292321744591101E-036
  7.600000000000002E-003    9.161701142005059E-036
  7.700000000000001E-003    1.714336620590104E-035
  7.800000000000001E-003    2.562331282911206E-035
  7.900000000000001E-003    3.373082524963005E-035
  8.000000000000002E-003    4.036278533036770E-035
  8.100000000000001E-003    4.424391780735943E-035
  8.200000000000001E-003    4.402718190713642E-035
  8.300000000000002E-003    3.843498948827528E-035
  8.400000000000001E-003    2.643716761104145E-035
  8.500000000000002E-003    7.455620147782598E-036
  8.600000000000002E-003   -1.842099849154567E-035
  8.700000000000001E-003   -5.023607428233748E-035
  8.800000000000002E-003   -8.600690720452991E-035
  8.900000000000002E-003   -1.226434491780524E-034
  9.000000000000001E-003   -1.559790754542408E-034
  9.100000000000002E-003   -1.809455040566643E-034
  9.200000000000002E-003   -1.919158004139766E-034
  9.300000000000001E-003   -1.832252809661727E-034
  9.400000000000002E-003   -1.498601077571315E-034
  9.500000000000001E-003   -8.827849019630320E-035
  9.600000000000001E-003    2.699136273266465E-036
  9.700000000000002E-003    1.210229832257386E-034
  9.800000000000001E-003    2.606870864386005E-034
  9.900000000000001E-003    4.112777500348410E-034
  1.000000000000000E-002    5.579361160394835E-034
  1.010000000000000E-002    6.818627853036625E-034
  1.020000000000000E-002    7.614588879727479E-034
  1.030000000000000E-002    7.741452399505517E-034
  1.040000000000000E-002    6.988266360033441E-034
  1.050000000000000E-002    5.188780125067347E-034
  1.060000000000000E-002    2.254296763194813E-034
  1.070000000000000E-002   -1.793686392954665E-034
  1.080000000000000E-002   -6.795087578402881E-034
  1.090000000000000E-002   -1.243170198270023E-033
  1.100000000000000E-002   -1.822123979596661E-033
  1.110000000000000E-002   -2.352926185863899E-033
  1.120000000000000E-002   -2.760231523076230E-033
  1.130000000000000E-002   -2.962388982847726E-033
  1.140000000000000E-002   -2.879256383329357E-033
  1.150000000000000E-002   -2.441897172185962E-033
  1.160000000000000E-002   -1.603521573173744E-033
  1.170000000000000E-002   -3.507359420720758E-034
  1.180000000000000E-002    1.286098320375099E-033
  1.190000000000000E-002    3.224789307857905E-033
  1.200000000000000E-002    5.327002676629024E-033
  1.210000000000000E-002    7.399136378811079E-033
  1.220000000000000E-002    9.199585594619335E-033
  1.230000000000000E-002    1.045320658431480E-032
  1.240000000000000E-002    1.087320579760788E-032
  1.250000000000000E-002    1.018994314869885E-032
  1.260000000000000E-002    8.185274832816073E-033
  1.270000000000000E-002    4.730124219755763E-033
  1.280000000000000E-002   -1.779510296261122E-034
  1.290000000000000E-002   -6.381257924659209E-033
  1.300000000000000E-002   -1.353720432450838E-032
  1.310000000000000E-002   -2.110723524760783E-032
  1.320000000000000E-002   -2.836426994923492E-032
  1.330000000000000E-002   -3.442274719951623E-032
  1.340000000000000E-002   -3.829402924251635E-032
  1.350000000000000E-002   -3.896793300550786E-032
  1.360000000000000E-002   -3.551850936454196E-032
  1.370000000000000E-002   -2.722897444215797E-032
  1.380000000000000E-002   -1.372719801191833E-032
  1.390000000000000E-002    4.880448670793833E-033
  1.400000000000000E-002    2.789234735615703E-032
  1.410000000000000E-002    5.392982859025552E-032
  1.420000000000000E-002    8.090920265598472E-032
  1.430000000000000E-002    1.060857225661676E-031
  1.440000000000000E-002    1.261842905526826E-031
  1.450000000000000E-002    1.376258764091120E-031
  1.460000000000000E-002    1.368499276850678E-031
  1.470000000000000E-002    1.207219102646428E-031
  1.480000000000000E-002    8.700203232639132E-032
  1.490000000000000E-002    3.483739285447771E-032
  1.500000000000000E-002   -3.477348591671785E-032
  1.510000000000000E-002   -1.186053179731595E-031
  1.520000000000000E-002   -2.109878007174089E-031
  1.530000000000000E-002   -3.038118851207661E-031
  1.540000000000000E-002   -3.868192566808159E-031
  1.550000000000000E-002   -4.482157702886320E-031
  1.560000000000000E-002   -4.756214462144564E-031
  1.570000000000000E-002   -4.573330516354476E-031
  1.580000000000000E-002   -3.838316321787507E-031
  1.590000000000000E-002   -2.494211128429278E-031
  1.600000000000000E-002   -5.383919405057907E-032
  1.610000000000000E-002    1.963545449404791E-031
  1.620000000000000E-002    4.868307929960749E-031
  1.630000000000000E-002    7.952029825354954E-031
  1.640000000000000E-002    1.091594412979792E-030
  1.650000000000000E-002    1.340202707272435E-030
  1.660000000000000E-002    1.501920454581818E-030
  1.670000000000000E-002    1.537960977373832E-030
  1.680000000000000E-002    1.414309229544688E-030
  1.690000000000000E-002    1.106679290496263E-030
  1.700000000000000E-002    6.055261367878462E-031
  1.710000000000000E-002   -7.944919598764785E-032
  1.720000000000000E-002   -9.159337185778105E-031
  1.730000000000000E-002   -1.847416945816527E-030
  1.740000000000000E-002   -2.793970091650322E-030
  1.750000000000000E-002   -3.655829043819115E-030
  1.760000000000000E-002   -4.319999780174526E-030
  1.770000000000000E-002   -4.669805687175193E-030
  1.780000000000000E-002   -4.596947013157212E-030
  1.790000000000000E-002   -4.015263088901245E-030
  1.800000000000000E-002   -2.875024746909279E-030
  1.810000000000000E-002   -1.176274371830495E-030
  1.820000000000000E-002    1.020472949307886E-030
  1.830000000000000E-002    3.587908021826485E-030
  1.840000000000000E-002    6.331606317180331E-030
  1.850000000000000E-002    8.996977878816763E-030
  1.860000000000000E-002    1.128422940461219E-029
  1.870000000000000E-002    1.287132174651925E-029