 -4.000000000000000E-002    0.000000000000000E+000
 -3.990000000000000E-002    0.000000000000000E+000
 -3.980000000000000E-002    0.000000000000000E+000
 -3.970000000000000E-002    0.000000000000000E+000
 -3.960000000000000E-002    0.000000000000000E+000
 -3.950000000000000E-002    0.000000000000000E+000
 -3.940000000000000E-002    0.000000000000000E+000
 -3.930000000000000E-002    0.000000000000000E+000
 -3.920000000000000E-002    0.000000000000000E+000
 -3.910000000000000E-002    0.000000000000000E+000
 -3.900000000000000E-002    0.000000000000000E+000
 -3.890000000000000E-002    0.000000000000000E+000
 -3.880000000000000E-002    0.000000000000000E+000
 -3.870000000000000E-002    1.223834884307306E-046
 -3.860000000000000E-002    2.616986972453097E-045
 -3.850000000000000E-002    3.987174383046776E-044
 -3.840000000000000E-002    3.204051509475134E-043
 -3.830000000000000E-002    1.735115387837932E-042
 -3.820000000000000E-002    5.722559743400528E-042
 -3.810000000000000E-002    2.476314077430746E-043
 -3.800000000000000E-002   -1.510691110225501E-040
 -3.790000000000000E-002   -1.300075396742155E-039
 -3.780000000000000E-002   -7.541239875128990E-039
 -3.770000000000000E-002   -3.542511381922332E-038
 -3.760000000000000E-002   -1.434887799759670E-037
 -3.750000000000000E-002   -5.169072724969778E-037
 -3.740000000000000E-002   -1.686618918580713E-036
 -3.730000000000000E-002   -5.043499033607031E-036
 -3.720000000000000E-002   -1.392956525933219E-035
 -3.710000000000000E-002   -3.570864472295758E-035
 -3.700000000000000E-002   -8.517375112179562E-035
 -3.690000000000000E-002   -1.889989748459326E-034
 -3.680000000000000E-002   -3.887287099650387E-034
 -3.670000000000000E-002   -7.341885740624502E-034
 -3.660000000000000E-002   -1.247128178297484E-033
 -3.650000000000000E-002   -1.811854644440271E-033
 -3.640000000000000E-002   -1.910015957447248E-033
 -3.630000000000000E-002   -5.562093682978269E-035
 -3.620000000000000E-002    7.296478653597790E-033
 -3.610000000000000E-002    2.768831522580884E-032
 -3.600000000000000E-002    7.582963838984822E-032
 -3.590000000000000E-002    1.783546881133756E-031
 -3.580000000000000E-002    3.802478922035318E-031
 -3.570000000000000E-002    7.523080886357744E-031
 -3.560000000000000E-002    1.397582600331377E-030
 -3.550000000000000E-002    2.452211087530459E-030
 -3.540000000000000E-002    4.072291679775481E-030
 -3.530000000000000E-002    6.393128826412680E-030
 -3.520000000000000E-002    9.440917868369084E-030
 -3.510000000000000E-002    1.297076684365157E-029
 -3.500000000000000E-002    1.620137797331373E-029
 -3.490000000000000E-002    1.741986044284937E-029
 -3.480000000000000E-002    1.344604926456831E-029
 -3.470000000000000E-002   -1.017764548264556E-030
 -3.460000000000000E-002   -3.405979294254616E-029
 -3.450000000000000E-002   -9.705900839763064E-029
 -3.440000000000000E-002   -2.046726984691529E-028
 -3.430000000000000E-002   -3.737901620734270E-028
 -3.420000000000000E-002   -6.207338315040977E-028
 -3.410000000000000E-002   -9.558162180405312E-028
 -3.400000000000000E-002   -1.374283290272622E-027
 -3.390000000000000E-002   -1.842791236568713E-027
 -3.380000000000000E-002   -2.281006297716237E-027
 -3.370000000000000E-002   -2.538835078927860E-027
 -3.360000000000000E-002   -2.371334840426748E-027
 -3.350000000000000E-002   -1.415617207457099E-027
 -3.340000000000000E-002    8.229394408674485E-028
 -3.330000000000000E-002    4.964276921391495E-027
 -3.320000000000000E-002    1.171238558976662E-026
 -3.310000000000000E-002    2.176130733520882E-026
 -3.300000000000000E-002    3.562894082599034E-026
 -3.290000000000000E-002    5.340068521859941E-026
 -3.280000000000000E-002    7.437137015890893E-026
 -3.270000000000000E-002    9.658712347618095E-026
 -3.260000000000000E-002    1.163108099438628E-025
 -3.250000000000000E-002    1.274663975428757E-025
 -3.240000000000000E-002    1.211595408100819E-025
 -3.230000000000000E-002    8.542147658659048E-026
 -3.220000000000000E-002    5.377054878715542E-027
 -3.210000000000000E-002   -1.359129361430813E-025
 -3.200000000000000E-002   -3.556517366423696E-025
 -3.190000000000000E-002   -6.682642199633209E-025
 -3.180000000000000E-002   -1.080877919600162E-024
 -3.170000000000000E-002   -1.587216270869252E-024
 -3.160000000000000E-002   -2.160011022433753E-024
 -3.150000000000000E-002   -2.742367261628018E-024
 -3.140000000000000E-002   -3.238959596563767E-024
 -3.130000000000000E-002   -3.508484845798342E-024
 -3.120000000000000E-002   -3.359414390963319E-024
 -3.110000000000000E-002   -2.551712173961672E-024
 -3.100000000000000E-002   -8.076886498293159E-025
 -3.090000000000000E-002    2.164564168424348E-024
 -3.080000000000000E-002    6.631891239415061E-024
 -3.070000000000000E-002    1.277848791168221E-023
 -3.060000000000000E-002    2.062920176868230E-023
 -3.050000000000000E-002    2.995561260014338E-023
 -3.040000000000000E-002    4.017055452441548E-023
 -3.030000000000000E-002    5.022163822909149E-023
 -3.020000000000000E-002    5.849995678115345E-023
 -3.010000000000000E-002    6.278622595920444E-023
 -3.000000000000000E-002    6.026196495130115E-023
 -2.990000000000000E-002    4.761721056806597E-023
 -2.980000000000000E-002    2.128688777344908E-023
 -2.970000000000000E-002   -2.215600057325960E-023
 -2.960000000000000E-002   -8.543254628625469E-023
 -2.950000000000000E-002   -1.698156072658300E-022
 -2.940000000000000E-002   -2.742394568528768E-022
 -2.930000000000000E-002   -3.943223283466440E-022
 -2.920000000000000E-002   -5.214035427211145E-022
 -2.910000000000000E-002   -6.417406088210749E-022
 -2.900000000000000E-002   -7.360531650943279E-022
 -2.890000000000000E-002   -7.796314131081064E-022
 -2.880000000000000E-002   -7.432400775266765E-022
 -2.870000000000000E-002   -5.950329091394116E-022
 -2.860000000000000E-002   -3.036390390193891E-022
 -2.850000000000000E-002    1.575150223218349E-022
 -2.840000000000000E-002    8.047304707927115E-022
 -2.830000000000000E-002    1.637682852034272E-021
 -2.820000000000000E-002    2.632690750811828E-021
 -2.810000000000000E-002    3.736349439265401E-021
 -2.800000000000000E-002    4.860499527877973E-021
 -2.790000000000000E-002    5.879681012192915E-021
 -2.780000000000000E-002    6.632306955586380E-021
 -2.770000000000000E-002    6.926736771832383E-021
 -2.760000000000000E-002    6.553210600176329E-021
 -2.750000000000000E-002    5.302164684514898E-021
 -2.740000000000000E-002    2.988823550403383E-021
 -2.730000000000000E-002   -5.168679794873794E-022
 -2.720000000000000E-002   -5.256867976862473E-021
 -2.710000000000000E-002   -1.115111432597500E-020
 -2.700000000000000E-002   -1.796689527843094E-020
 -2.690000000000000E-002   -2.529606459652897E-020
 -2.680000000000000E-002   -3.254501713600821E-020
 -2.670000000000000E-002   -3.894218307587641E-020
 -2.660000000000000E-002   -4.356699580354138E-020
 -2.650000000000000E-002   -4.540289420934147E-020
 -2.640000000000000E-002   -4.341471417208509E-020
 -2.630000000000000E-002   -3.664824042068867E-020
 -2.620000000000000E-002   -2.434667410564378E-020
 -2.610000000000000E-002   -6.075701620455178E-021
 -2.600000000000000E-002    1.815379668644466E-020
 -2.590000000000000E-002    4.777835251199230E-020
 -2.580000000000000E-002    8.160362264962574E-020
 -2.570000000000000E-002    1.177685098387268E-019
 -2.560000000000000E-002    1.537627687612679E-019
 -2.550000000000000E-002    1.865056558955857E-019
 -2.540000000000000E-002    2.124880184284569E-019
 -2.530000000000000E-002    2.279746158988090E-019
 -2.520000000000000E-002    2.292571543721102E-019
 -2.510000000000000E-002    2.129432141629725E-019
 -2.500000000000000E-002    1.762617681116178E-019
 -2.490000000000000E-002    1.173638634860134E-019
 -2.480000000000000E-002    3.559694626456701E-020
 -2.470000000000000E-002   -6.826619229097419E-020
 -2.460000000000000E-002   -1.918582605363328E-019
 -2.450000000000000E-002   -3.311167024217456E-019
 -2.440000000000000E-002   -4.802537885848538E-019
 -2.430000000000000E-002   -6.317950986724121E-019
 -2.420000000000000E-002   -7.766815195753058E-019
 -2.410000000000000E-002   -9.044310504916596E-019
 -2.400000000000000E-002   -1.003361637092635E-018
 -2.390000000000000E-002   -1.060885339796342E-018
 -2.380000000000000E-002   -1.063895208116064E-018
 -2.370000000000000E-002   -9.992774644300343E-019
 -2.360000000000000E-002   -8.545893953205503E-019
 -2.350000000000000E-002   -6.189451891825480E-019
 -2.340000000000000E-002   -2.841416205135164E-019
 -2.330000000000000E-002    1.539664752318393E-019
 -2.320000000000000E-002    6.938683849836757E-019
 -2.310000000000000E-002    1.326656392276203E-018
 -2.300000000000000E-002    2.034280291367211E-018
 -2.290000000000000E-002    2.788001810293838E-018
 -2.280000000000000E-002    3.547310173916786E-018
 -2.270000000000000E-002    4.259600966452726E-018
 -2.260000000000000E-002    4.860931442433838E-018
 -2.250000000000000E-002    5.278134531560261E-018
 -2.240000000000000E-002    5.432496961107480E-018
 -2.230000000000000E-002    5.245075856312947E-018
 -2.220000000000000E-002    4.643550545329451E-018
 -2.210000000000000E-002    3.570296164726655E-018
 -2.200000000000000E-002    1.991134869040209E-018
 -2.190000000000000E-002   -9.599442697064713E-020
 -2.180000000000000E-002   -2.653382207959361E-018
 -2.170000000000000E-002   -5.597939722061541E-018
 -2.160000000000000E-002   -8.798654847938788E-018
 -2.150000000000000E-002   -1.207800178817965E-017
 -2.140000000000000E-002   -1.521791457439300E-017
 -2.130000000000000E-002   -1.797053958267048E-017
 -2.120000000000000E-002   -2.007348072952385E-017
 -2.110000000000000E-002   -2.126870879903928E-017
 -2.100000000000000E-002   -2.132375143207592E-017
 -2.090000000000000E-002   -2.005333143748040E-017
 -2.080000000000000E-002   -1.733932208333773E-017
 -2.070000000000000E-002   -1.314679645309477E-017
 -2.060000000000000E-002   -7.534159808782328E-018
 -2.050000000000000E-002   -6.558169030395768E-019
 -2.040000000000000E-002    7.243421272242283E-018
 -2.030000000000000E-002    1.584203625787839E-017
 -2.020000000000000E-002    2.476241217345106E-017
 -2.010000000000000E-002    3.359611413523639E-017
 -2.000000000000000E-002    4.193079576114580E-017
 -1.990000000000000E-002    4.937514781830528E-017
 -1.980000000000000E-002    5.557830062868437E-017
 -1.970000000000000E-002    6.024058285374649E-017
 -1.960000000000000E-002    6.311362208379546E-017
 -1.950000000000000E-002    6.398936707449144E-017
 -1.940000000000000E-002    6.267951453854829E-017
 -1.930000000000000E-002    5.898894033810599E-017
 -1.920000000000000E-002    5.268861742828270E-017
 -1.910000000000000E-002    4.349491475186811E-017
 -1.900000000000000E-002    3.106281356605790E-017
 -1.890000000000000E-002    1.500014326329013E-017
 -1.880000000000000E-002   -5.091689389487026E-018
 -1.870000000000000E-002   -2.954789498366443E-017
 -1.860000000000000E-002   -5.854275766090764E-017
 -1.850000000000000E-002   -9.197033905650956E-017
 -1.840000000000000E-002   -1.293143447157758E-016
 -1.830000000000000E-002   -1.695225401383669E-016
 -1.820000000000000E-002   -2.109044728351463E-016
 -1.810000000000000E-002   -2.510729777928750E-016
 -1.800000000000000E-002   -2.869491691638402E-016
 -1.790000000000000E-002   -3.148473061531025E-016
 -1.780000000000000E-002   -3.306497757621731E-016
 -1.770000000000000E-002   -3.300738938117760E-016
 -1.760000000000000E-002   -3.090217964706143E-016
 -1.750000000000000E-002   -2.639935661085122E-016
 -1.740000000000000E-002   -1.925327411682059E-016
 -1.730000000000000E-002   -9.366444141662828E-017
 -1.720000000000000E-002    3.171961975178695E-017
 -1.710000000000000E-002    1.805765121668088E-016
 -1.700000000000000E-002    3.475715557088055E-016
 -1.690000000000000E-002    5.251165977925986E-016
 -1.680000000000000E-002    7.036078407334427E-016
 -1.670000000000000E-002    8.718659149420675E-016
 -1.660000000000000E-002    1.017760303029886E-015
 -1.650000000000000E-002    1.128979688662274E-015
 -1.640000000000000E-002    1.193891509557448E-015
 -1.630000000000000E-002    1.202420090305899E-015
 -1.620000000000000E-002    1.146865520669396E-015
 -1.610000000000000E-002    1.022587669840775E-015
 -1.600000000000000E-002    8.284888164346526E-016
 -1.590000000000000E-002    5.672481460066160E-016
 -1.580000000000000E-002    2.452861007748245E-016
 -1.570000000000000E-002   -1.275333143849190E-016
 -1.560000000000000E-002   -5.384246514439821E-016
 -1.550000000000000E-002   -9.723627854830493E-016
 -1.540000000000000E-002   -1.412841038057831E-015
 -1.530000000000000E-002   -1.842612971047758E-015
 -1.520000000000000E-002   -2.244331720065647E-015
 -1.510000000000000E-002   -2.601017091881404E-015
 -1.500000000000000E-002   -2.896313333453803E-015
 -1.490000000000000E-002   -3.114540013727782E-015
 -1.480000000000000E-002   -3.240583468214267E-015
 -1.470000000000000E-002   -3.259719142335208E-015
 -1.460000000000000E-002   -3.157488529461904E-015
 -1.450000000000000E-002   -2.919774445725007E-015
 -1.440000000000000E-002   -2.533213469627322E-015
 -1.430000000000000E-002   -1.986061571171356E-015
 -1.420000000000000E-002   -1.269573505532915E-015
 -1.410000000000000E-002   -3.798874859086804E-016
 -1.400000000000000E-002    6.796818792553108E-016
 -1.390000000000000E-002    1.896132415409205E-015
 -1.380000000000000E-002    3.244320163091060E-015
 -1.370000000000000E-002    4.684904128385565E-015
 -1.360000000000000E-002    6.163065118477296E-015
 -1.350000000000000E-002    7.608368565139320E-015
 -1.340000000000000E-002    8.936086280658769E-015
 -1.330000000000000E-002    1.005018112752201E-014
 -1.320000000000000E-002    1.084802509118998E-014
 -1.310000000000000E-002    1.122672841516233E-014
 -1.300000000000000E-002    1.109077176984098E-014
 -1.290000000000000E-002    1.036043952166267E-014
 -1.280000000000000E-002    8.980404970961963E-015
 -1.270000000000000E-002    6.927687926935899E-015
 -1.260000000000000E-002    4.218191157297579E-015
 -1.250000000000000E-002    9.110439506665725E-016
 -1.240000000000000E-002   -2.889880225623255E-015
 -1.230000000000000E-002   -7.037703547696364E-015
 -1.220000000000000E-002   -1.134770446782138E-014
 -1.210000000000000E-002   -1.560575336896056E-014
 -1.200000000000000E-002   -1.957956321333435E-014
 -1.190000000000000E-002   -2.303201095552972E-014
 -1.180000000000000E-002   -2.573555860309232E-014
 -1.170000000000000E-002   -2.748666906683469E-014
 -1.160000000000000E-002   -2.811907720498175E-014
 -1.150000000000000E-002   -2.751488133546735E-014
 -1.140000000000000E-002   -2.561260631784938E-014
 -1.130000000000000E-002   -2.241168833869710E-014
 -1.120000000000000E-002   -1.797316343401462E-014
 -1.110000000000000E-002   -1.241672739769748E-014
 -1.100000000000000E-002   -5.914650054777906E-015
 -1.090000000000000E-002    1.316699145063259E-015
 -1.080000000000000E-002    9.026808395486399E-015
 -1.070000000000000E-002    1.694150035635200E-014
 -1.060000000000000E-002    2.477310047018942E-014
 -1.050000000000000E-002    3.222963435720527E-014
 -1.040000000000000E-002    3.902272343900700E-014
 -1.030000000000000E-002    4.487417522308824E-014
 -1.020000000000000E-002    4.952157118080906E-014
 -1.010000000000000E-002    5.272343390493735E-014
 -1.000000000000000E-002    5.426466167214642E-014
 -9.899999999999999E-003    5.396293907219408E-014
 -9.800000000000000E-003    5.167661096982401E-014
 -9.699999999999999E-003    4.731426312446492E-014
 -9.599999999999999E-003    4.084571920800932E-014
 -9.500000000000000E-003    3.231377303047871E-014
 -9.399999999999999E-003    2.184543468203885E-014
 -9.299999999999999E-003    9.661158835048186E-015
 -9.200000000000000E-003   -3.919731289734427E-015
 -9.099999999999999E-003   -1.847914424986105E-014
 -8.999999999999999E-003   -3.350731106417071E-014
 -8.900000000000000E-003   -4.841778923856354E-014
 -8.799999999999999E-003   -6.257058673295337E-014
 -8.699999999999999E-003   -7.530272637154793E-014
 -8.600000000000000E-003   -8.596464210489187E-014
 -8.499999999999999E-003   -9.395998849028160E-014
 -8.399999999999999E-003   -9.878582092326416E-014
 -8.300000000000000E-003   -1.000696224457404E-013
 -8.199999999999999E-003   -9.759981457831973E-014
 -8.100000000000000E-003   -9.134658418201497E-014
 -8.000000000000000E-003   -8.147075180815316E-014
 -7.899999999999999E-003   -6.831926062219246E-014
 -7.800000000000000E-003   -5.240721904920508E-014
 -7.699999999999999E-003   -3.438761222619389E-014
 -7.599999999999999E-003   -1.501094597024677E-014
 -7.499999999999999E-003    4.921949829334829E-015
 -7.399999999999999E-003    2.461009950646717E-014
 -7.299999999999999E-003    4.330164112199232E-014
 -7.199999999999999E-003    6.033833888062389E-014
 -7.100000000000000E-003    7.519217367746563E-014
 -6.999999999999999E-003    8.749178983694854E-014
 -6.899999999999999E-003    9.703743598308886E-014
 -6.800000000000000E-003    1.038041804267621E-013
 -6.699999999999999E-003    1.079339666702129E-013
 -6.599999999999999E-003    1.097177151426365E-013
 -6.499999999999999E-003    1.095690157738553E-013
 -6.399999999999999E-003    1.079908413946380E-013
 -6.299999999999999E-003    1.055366737065748E-013
 -6.199999999999999E-003    1.027669457561299E-013
 -6.100000000000000E-003    1.002015463839817E-013
 -5.999999999999999E-003    9.826892780399146E-014
 -5.899999999999999E-003    9.725287023454299E-014
 -5.800000000000000E-003    9.723846358660147E-014
 -5.699999999999999E-003    9.806014984892479E-014
 -5.599999999999999E-003    9.925598816743927E-014
 -5.499999999999999E-003    1.000338628198191E-013
 -5.399999999999999E-003    9.925663915586722E-014
 -5.299999999999999E-003    9.545402175028180E-014
 -5.199999999999999E-003    8.686869809619763E-014
 -5.099999999999999E-003    7.154297912979617E-014
 -4.999999999999999E-003    4.744966260263209E-014
 -4.899999999999999E-003    1.266672092914364E-014
 -4.799999999999999E-003   -3.440951279845917E-014
 -4.699999999999999E-003   -9.482365867967563E-014
 -4.599999999999999E-003   -1.688102371171943E-013
 -4.499999999999999E-003   -2.555540757588714E-013
 -4.399999999999999E-003   -3.529881825528907E-013
 -4.299999999999999E-003   -4.576566888937594E-013
 -4.199999999999999E-003   -5.646693955462791E-013
 -4.099999999999999E-003   -6.677701163028290E-013
 -3.999999999999999E-003   -7.595343116486661E-013
 -3.899999999999999E-003   -8.317014118539648E-013
 -3.799999999999999E-003   -8.756350619729670E-013
 -3.699999999999999E-003   -8.828924255264493E-013
 -3.599999999999999E-003   -8.458700764258300E-013
 -3.499999999999999E-003   -7.584842078333265E-013
 -3.399999999999999E-003   -6.168336442418984E-013
 -3.299999999999999E-003   -4.197913286069287E-013
 -3.199999999999999E-003   -1.694698786055580E-013
 -3.099999999999999E-003    1.284870961234562E-013
 -2.999999999999999E-003    4.648255719554929E-013
 -2.899999999999999E-003    8.268370726251778E-013
 -2.799999999999999E-003    1.198755846832497E-012
 -2.699999999999999E-003    1.562385294509573E-012
 -2.599999999999999E-003    1.897923604110495E-012
 -2.499999999999999E-003    2.184943587190738E-012
 -2.399999999999999E-003    2.403469996057076E-012
 -2.299999999999999E-003    2.535091634888958E-012
 -2.199999999999999E-003    2.564042875606349E-012
 -2.099999999999999E-003    2.478195348817169E-012
 -1.999999999999999E-003    2.269907234249232E-012
 -1.899999999999999E-003    1.936689859595120E-012
 -1.799999999999999E-003    1.481664980482480E-012
 -1.699999999999999E-003    9.137973331028382E-013
 -1.599999999999999E-003    2.479012886132199E-013
 -1.499999999999999E-003   -4.955747764491960E-013
 -1.399999999999999E-003   -1.290974821003546E-012
 -1.299999999999999E-003   -2.108061383626877E-012
 -1.199999999999999E-003   -2.912832585324990E-012
 -1.099999999999999E-003   -3.668523091598633E-012
 -9.999999999999989E-004   -4.336785791535669E-012
 -8.999999999999990E-004   -4.879052003577899E-012
 -7.999999999999990E-004   -5.258065842477558E-012
 -6.999999999999989E-004   -5.439576435809732E-012
 -5.999999999999990E-004   -5.394164716261501E-012
 -4.999999999999989E-004   -5.099152817569766E-012
 -3.999999999999989E-004   -4.540529859134884E-012
 -2.999999999999989E-004   -3.714795507574883E-012
 -1.999999999999989E-004   -2.630603239277062E-012
 -9.999999999999892E-005   -1.310064467330406E-012
  1.084202172485504E-018    2.104347673484106E-013
  1.000000000000011E-004    1.880050977626896E-012
  2.000000000000011E-004    3.634066148052153E-012
  3.000000000000011E-004    5.395336702391575E-012
  4.000000000000011E-004    7.076661449878971E-012
  5.000000000000011E-004    8.584069428670806E-012
  6.000000000000011E-004    9.820956045076316E-012
  7.000000000000011E-004    1.069292826820431E-011
  8.000000000000011E-004    1.111315307479974E-011
  9.000000000000012E-004    1.100794285463012E-011
  1.000000000000001E-003    1.032226312111868E-011
  1.100000000000001E-003    9.024830412102584E-012
  1.200000000000001E-003    7.112448383015071E-012
  1.300000000000001E-003    4.613270378480364E-012
  1.400000000000001E-003    1.588701010309227E-012
  1.500000000000001E-003   -1.866273694984679E-012
  1.600000000000001E-003   -5.624464050714836E-012
  1.700000000000001E-003   -9.529607098255194E-012
  1.800000000000001E-003   -1.340119515913872E-011
  1.900000000000001E-003   -1.704086977342268E-011
  2.000000000000001E-003   -2.024013990286713E-011
  2.100000000000001E-003   -2.278914738864716E-011
  2.200000000000001E-003   -2.448612600143514E-011
  2.300000000000001E-003   -2.514718710842313E-011
  2.400000000000001E-003   -2.461604540630276E-011
  2.500000000000001E-003   -2.277330228580170E-011
  2.600000000000001E-003   -1.954495152394155E-011
  2.700000000000001E-003   -1.490975446212935E-011
  2.800000000000001E-003   -8.905236121115313E-012
  2.900000000000001E-003   -1.632027100003341E-012
  3.000000000000001E-003    6.743630307856895E-012
  3.100000000000001E-003    1.598940217960853E-011
  3.200000000000001E-003    2.580853541419354E-011
  3.300000000000001E-003    3.584382604056443E-011
  3.400000000000001E-003    4.568394467597363E-011
  3.500000000000001E-003    5.487224338279847E-011
  3.600000000000001E-003    6.291803287048347E-011
  3.700000000000001E-003    6.931039308957321E-011
  3.800000000000001E-003    7.353443430134123E-011
  3.900000000000001E-003    7.508990952147773E-011
  4.000000000000001E-003    7.351195996261573E-011
  4.100000000000001E-003    6.839368299302295E-011
  4.200000000000001E-003    5.941008309737889E-011
  4.300000000000001E-003    4.634276448099709E-011
  4.400000000000001E-003    2.910465294874724E-011
  4.500000000000001E-003    7.763745677396372E-012
  4.600000000000002E-003   -1.743512103333472E-011
  4.700000000000001E-003   -4.605180635733498E-011
  4.800000000000001E-003   -7.743698793577943E-011
  4.900000000000002E-003   -1.107243659715886E-010
  5.000000000000001E-003   -1.448303501917379E-010
  5.100000000000001E-003   -1.784626581839654E-010
  5.200000000000001E-003   -2.101390134454872E-010
  5.300000000000002E-003   -2.382171054973099E-010
  5.400000000000001E-003   -2.609363653592381E-010
  5.500000000000001E-003   -2.764719075152596E-010
  5.600000000000002E-003   -2.830003530600630E-010
  5.700000000000001E-003   -2.787767006071052E-010
  5.800000000000001E-003   -2.622205693892612E-010
  5.900000000000002E-003   -2.320096616275281E-010
  6.000000000000001E-003   -1.871773507512272E-010
  6.100000000000001E-003   -1.272106183122655E-010
  6.200000000000002E-003   -5.214394824234497E-011
  6.300000000000002E-003    3.735567297076042E-011
  6.400000000000001E-003    1.399179513430368E-010
  6.500000000000001E-003    2.534180908947480E-010
  6.600000000000002E-003    3.749504993156209E-010
  6.700000000000001E-003    5.008320789793816E-010
  6.800000000000001E-003    6.266396839194995E-010
  6.900000000000002E-003    7.472844962181022E-010
  7.000000000000001E-003    8.571253105309655E-010
  7.100000000000001E-003    9.501211549981133E-010
  7.200000000000002E-003    1.020021444738632E-009
  7.300000000000002E-003    1.060590689916463E-009
  7.400000000000001E-003    1.065862149902542E-009
  7.500000000000001E-003    1.030413046015573E-009
  7.600000000000002E-003    9.496525175389691E-010
  7.700000000000001E-003    8.201118678301901E-010
  7.800000000000001E-003    6.397248582125238E-010
  7.900000000000001E-003    4.080864323788307E-010
  8.000000000000002E-003    1.266758167112826E-010
  8.100000000000001E-003   -2.009668689765223E-010
  8.200000000000001E-003   -5.691229968008304E-010
  8.300000000000002E-003   -9.698463830564670E-010
  8.400000000000001E-003   -1.392990892476490E-009
  8.500000000000002E-003   -1.826320248493050E-009
  8.600000000000002E-003   -2.255702258167925E-009
  8.700000000000001E-003   -2.665387581155499E-009
  8.800000000000002E-003   -3.038368951309623E-009
  8.900000000000002E-003   -3.356813965285888E-009
  9.000000000000001E-003   -3.602561227155359E-009
  9.100000000000002E-003   -3.757669691420432E-009
  9.200000000000002E-003   -3.805001186753301E-009
  9.300000000000001E-003   -3.728827591567378E-009
  9.400000000000002E-003   -3.515438504827772E-009
  9.500000000000001E-003   -3.153735272183022E-009
  9.600000000000001E-003   -2.635794496140940E-009
  9.700000000000002E-003   -1.957385081655495E-009
  9.800000000000001E-003   -1.118422493413200E-009
  9.900000000000001E-003   -1.233500025748951E-010
  1.000000000000000E-002    1.018564846515164E-009
  1.010000000000000E-002    2.293026478113208E-009
  1.020000000000000E-002    3.680605323157148E-009
  1.030000000000000E-002    5.156735282277854E-009
  1.040000000000000E-002    6.691816990460939E-009
  1.050000000000000E-002    8.251428773044018E-009
  1.060000000000000E-002    9.796645026546475E-009
  1.070000000000000E-002    1.128447093263314E-008
  1.080000000000000E-002    1.266838453147543E-008
  1.090000000000000E-002    1.389900303595469E-008
  1.100000000000000E-002    1.492486554717277E-008
  1.110000000000000E-002    1.569335497586087E-008
  1.120000000000000E-002    1.615174758163395E-008
  1.130000000000000E-002    1.624841997251386E-008
  1.140000000000000E-002    1.593421169053354E-008
  1.150000000000000E-002    1.516394771699012E-008
  1.160000000000000E-002    1.389815043247932E-008
  1.170000000000000E-002    1.210492351455536E-008
  1.180000000000000E-002    9.762028254785043E-009
  1.190000000000000E-002    6.859148886975188E-009
  1.200000000000000E-002    3.400336455642318E-009
  1.210000000000000E-002   -5.933698957332151E-010
  1.220000000000000E-002   -5.081164481454922E-009
  1.230000000000000E-002   -9.999562893784773E-009
  1.240000000000000E-002   -1.525937674633905E-008
  1.250000000000000E-002   -2.074261438415441E-008
  1.260000000000000E-002   -2.629934246473840E-008
  1.270000000000000E-002   -3.174455716676408E-008
  1.280000000000000E-002   -3.685509998187534E-008
  1.290000000000000E-002   -4.136668525402689E-008
  1.300000000000000E-002   -4.497106731555652E-008
  1.310000000000000E-002   -4.731343189454093E-008
  1.320000000000000E-002   -4.799001848093956E-008
  1.330000000000000E-002   -4.654606371058308E-008
  1.340000000000000E-002   -4.247409266951892E-008
  1.350000000000000E-002   -3.521257188285887E-008
  1.360000000000000E-002   -2.414502649432174E-008
  1.370000000000000E-002   -8.599536800398862E-009
  1.380000000000000E-002    1.215124841754997E-008
  1.390000000000000E-002    3.888967083655977E-008
  1.400000000000000E-002    7.245213882916764E-008
  1.410000000000000E-002    1.137277974177292E-007
  1.420000000000000E-002    1.636567473180934E-007
  1.430000000000000E-002    2.232279329008017E-007
  1.440000000000000E-002    2.934767096363662E-007
  1.450000000000000E-002    3.754820844000720E-007
  1.460000000000000E-002    4.703639456296407E-007
  1.470000000000000E-002    5.792800086807262E-007
  1.480000000000000E-002    7.034228036553317E-007
  1.490000000000000E-002    8.440167562417274E-007
  1.500000000000000E-002    1.002315470935101E-006
  1.510000000000000E-002    1.179599164812185E-006
  1.520000000000000E-002    1.377172417307261E-006
  1.530000000000000E-002    1.596362472607358E-006
  1.540000000000000E-002    1.838517802168679E-006
  1.550000000000000E-002    2.105007289683951E-006
  1.560000000000000E-002    2.397219750046113E-006
  1.570000000000000E-002    2.716564501633609E-006
  1.580000000000000E-002    3.064471802183673E-006
  1.590000000000000E-002    3.442394684144372E-006
  1.600000000000000E-002    3.851810871833161E-006
  1.610000000000000E-002    4.294225415062796E-006
  1.620000000000000E-002    4.771174164871882E-006
  1.630000000000000E-002    5.284226506792866E-006
  1.640000000000000E-002    5.834991839897052E-006
  1.650000000000000E-002    6.425122220607552E-006
  1.660000000000000E-002    7.056320350033164E-006
  1.670000000000000E-002    7.730344107098888E-006
  1.680000000000000E-002    8.449014289855821E-006
  1.690000000000000E-002    9.214221521939591E-006
  1.700000000000000E-002    1.002793669823024E-005
  1.710000000000000E-002    1.089221867736443E-005
  1.720000000000000E-002    1.180922427849613E-005
  1.730000000000000E-002    1.278122113000863E-005
  1.740000000000000E-002    1.381059781004890E-005
  1.750000000000000E-002    1.489987863971805E-005
  1.760000000000000E-002    1.605173537277844E-005
  1.770000000000000E-002    1.726900477453006E-005
  1.780000000000000E-002    1.855470272457676E-005
  1.790000000000000E-002    1.991204277670928E-005
  1.800000000000000E-002    2.134445294794680E-005
  1.810000000000000E-002    2.285559134138846E-005
  1.820000000000000E-002    2.444936928015066E-005
  1.830000000000000E-002    2.612996622041814E-005
  1.840000000000000E-002    2.790185007445193E-005
  1.850000000000000E-002    2.976979903053305E-005
  1.860000000000000E-002    3.173891458180799E-005
  1.870000000000000E-002    3.381465077334353E-005