 -4.000000000000000E-002    0.000000000000000E+000
 -3.990000000000000E-002    0.000000000000000E+000
 -3.980000000000000E-002    0.000000000000000E+000
 -3.970000000000000E-002    0.000000000000000E+000
 -3.960000000000000E-002    0.000000000000000E+000
 -3.950000000000000E-002    0.000000000000000E+000
 -3.940000000000000E-002    0.000000000000000E+000
 -3.930000000000000E-002    0.000000000000000E+000
 -3.920000000000000E-002    0.000000000000000E+000
 -3.910000000000000E-002    0.000000000000000E+000
 -3.900000000000000E-002    0.000000000000000E+000
 -3.890000000000000E-002    0.000000000000000E+000
 -3.880000000000000E-002    0.000000000000000E+000
 -3.870000000000000E-002    0.000000000000000E+000
 -3.860000000000000E-002    0.000000000000000E+000
 -3.850000000000000E-002    0.000000000000000E+000
 -3.840000000000000E-002    0.000000000000000E+000
 -3.830000000000000E-002    0.000000000000000E+000
 -3.820000000000000E-002    0.000000000000000E+000
 -3.810000000000000E-002    0.000000000000000E+000
 -3.800000000000000E-002    0.000000000000000E+000
 -3.790000000000000E-002    0.000000000000000E+000
 -3.780000000000000E-002    0.000000000000000E+000
 -3.770000000000000E-002    0.000000000000000E+000
 -3.760000000000000E-002    0.000000000000000E+000
 -3.750000000000000E-002    0.000000000000000E+000
 -3.740000000000000E-002    0.000000000000000E+000
 -3.730000000000000E-002    0.000000000000000E+000
 -3.720000000000000E-002    0.000000000000000E+000
 -3.710000000000000E-002    0.000000000000000E+000
 -3.700000000000000E-002    0.000000000000000E+000
 -3.690000000000000E-002    0.000000000000000E+000
 -3.680000000000000E-002    0.000000000000000E+000
 -3.670000000000000E-002    0.000000000000000E+000
 -3.660000000000000E-002    0.000000000000000E+000
 -3.650000000000000E-002    0.000000000000000E+000
 -3.640000000000000E-002    0.000000000000000E+000
 -3.630000000000000E-002    0.000000000000000E+000
 -3.620000000000000E-002    0.000000000000000E+000
 -3.610000000000000E-002    0.000000000000000E+000
 -3.600000000000000E-002    0.000000000000000E+000
 -3.590000000000000E-002    0.000000000000000E+000
 -3.580000000000000E-002    0.000000000000000E+000
 -3.570000000000000E-002    0.000000000000000E+000
 -3.560000000000000E-002    0.000000000000000E+000
 -3.550000000000000E-002    0.000000000000000E+000
 -3.540000000000000E-002    0.000000000000000E+000
 -3.530000000000000E-002    0.000000000000000E+000
 -3.520000000000000E-002    0.000000000000000E+000
 -3.510000000000000E-002    0.000000000000000E+000
 -3.500000000000000E-002    0.000000000000000E+000
 -3.490000000000000E-002    0.000000000000000E+000
 -3.480000000000000E-002    0.000000000000000E+000
 -3.470000000000000E-002    0.000000000000000E+000
 -3.460000000000000E-002    0.000000000000000E+000
 -3.450000000000000E-002    0.000000000000000E+000
 -3.440000000000000E-002    0.000000000000000E+000
 -3.430000000000000E-002    0.000000000000000E+000
 -3.420000000000000E-002    0.000000000000000E+000
 -3.410000000000000E-002    0.000000000000000E+000
 -3.400000000000000E-002    0.000000000000000E+000
 -3.390000000000000E-002    0.000000000000000E+000
 -3.380000000000000E-002    0.000000000000000E+000
 -3.370000000000000E-002    0.000000000000000E+000
 -3.360000000000000E-002    0.000000000000000E+000
 -3.350000000000000E-002    0.000000000000000E+000
 -3.340000000000000E-002    0.000000000000000E+000
 -3.330000000000000E-002    0.000000000000000E+000
 -3.320000000000000E-002    0.000000000000000E+000
 -3.310000000000000E-002    0.000000000000000E+000
 -3.300000000000000E-002    0.000000000000000E+000
 -3.290000000000000E-002    0.000000000000000E+000
 -3.280000000000000E-002    0.000000000000000E+000
 -3.270000000000000E-002    0.000000000000000E+000
 -3.260000000000000E-002    0.000000000000000E+000
 -3.250000000000000E-002    0.000000000000000E+000
 -3.240000000000000E-002    0.000000000000000E+000
 -3.230000000000000E-002    0.000000000000000E+000
 -3.220000000000000E-002    0.000000000000000E+000
 -3.210000000000000E-002    0.000000000000000E+000
 -3.200000000000000E-002    0.000000000000000E+000
 -3.190000000000000E-002    0.000000000000000E+000
 -3.180000000000000E-002    0.000000000000000E+000
 -3.170000000000000E-002    0.000000000000000E+000
 -3.160000000000000E-002    0.000000000000000E+000
 -3.150000000000000E-002    0.000000000000000E+000
 -3.140000000000000E-002    0.000000000000000E+000
 -3.130000000000000E-002    0.000000000000000E+000
 -3.120000000000000E-002    0.000000000000000E+000
 -3.110000000000000E-002    0.000000000000000E+000
 -3.100000000000000E-002    0.000000000000000E+000
 -3.090000000000000E-002    0.000000000000000E+000
 -3.080000000000000E-002    0.000000000000000E+000
 -3.070000000000000E-002    0.000000000000000E+000
 -3.060000000000000E-002    0.000000000000000E+000
 -3.050000000000000E-002    0.000000000000000E+000
 -3.040000000000000E-002    0.000000000000000E+000
 -3.030000000000000E-002    0.000000000000000E+000
 -3.020000000000000E-002    0.000000000000000E+000
 -3.010000000000000E-002    0.000000000000000E+000
 -3.000000000000000E-002    0.000000000000000E+000
 -2.990000000000000E-002    0.000000000000000E+000
 -2.980000000000000E-002    0.000000000000000E+000
 -2.970000000000000E-002    0.000000000000000E+000
 -2.960000000000000E-002    0.000000000000000E+000
 -2.950000000000000E-002    0.000000000000000E+000
 -2.940000000000000E-002    0.000000000000000E+000
 -2.930000000000000E-002    0.000000000000000E+000
 -2.920000000000000E-002    0.000000000000000E+000
 -2.910000000000000E-002    0.000000000000000E+000
 -2.900000000000000E-002    0.000000000000000E+000
 -2.890000000000000E-002    0.000000000000000E+000
 -2.880000000000000E-002    0.000000000000000E+000
 -2.870000000000000E-002    0.000000000000000E+000
 -2.860000000000000E-002    0.000000000000000E+000
 -2.850000000000000E-002    0.000000000000000E+000
 -2.840000000000000E-002    0.000000000000000E+000
 -2.830000000000000E-002    0.000000000000000E+000
 -2.820000000000000E-002    0.000000000000000E+000
 -2.810000000000000E-002    0.000000000000000E+000
 -2.800000000000000E-002    0.000000000000000E+000
 -2.790000000000000E-002    0.000000000000000E+000
 -2.780000000000000E-002    0.000000000000000E+000
 -2.770000000000000E-002    0.000000000000000E+000
 -2.760000000000000E-002    0.000000000000000E+000
 -2.750000000000000E-002    0.000000000000000E+000
 -2.740000000000000E-002    0.000000000000000E+000
 -2.730000000000000E-002    0.000000000000000E+000
 -2.720000000000000E-002    0.000000000000000E+000
 -2.710000000000000E-002    0.000000000000000E+000
 -2.700000000000000E-002    0.000000000000000E+000
 -2.690000000000000E-002    0.000000000000000E+000
 -2.680000000000000E-002    0.000000000000000E+000
 -2.670000000000000E-002    0.000000000000000E+000
 -2.660000000000000E-002    0.000000000000000E+000
 -2.650000000000000E-002    0.000000000000000E+000
 -2.640000000000000E-002    0.000000000000000E+000
 -2.630000000000000E-002    0.000000000000000E+000
 -2.620000000000000E-002    0.000000000000000E+000
 -2.610000000000000E-002    0.000000000000000E+000
 -2.600000000000000E-002    0.000000000000000E+000
 -2.590000000000000E-002    0.000000000000000E+000
 -2.580000000000000E-002    0.000000000000000E+000
 -2.570000000000000E-002    0.000000000000000E+000
 -2.560000000000000E-002    0.000000000000000E+000
 -2.550000000000000E-002    0.000000000000000E+000
 -2.540000000000000E-002    0.000000000000000E+000
 -2.530000000000000E-002    0.000000000000000E+000
 -2.520000000000000E-002    0.000000000000000E+000
 -2.510000000000000E-002   -1.848751247499288E-048
 -2.500000000000000E-002   -3.697502494998577E-048
 -2.490000000000000E-002   -3.697502494998577E-048
 -2.480000000000000E-002   -9.120506244162098E-048
 -2.470000000000000E-002   -1.269475874582633E-047
 -2.460000000000000E-002   -1.257150875249199E-047
 -2.450000000000000E-002   -5.176503762494832E-048
 -2.440000000000000E-002    4.350905597071557E-047
 -2.430000000000000E-002    8.450636077625346E-047
 -2.420000000000000E-002    1.234644218514206E-046
 -2.410000000000000E-002    2.017410364289673E-046
 -2.400000000000000E-002    2.634190938119696E-046
 -2.390000000000000E-002    2.708653377192635E-046
 -2.380000000000000E-002    2.356402145855436E-046
 -2.370000000000000E-002    1.708239650791739E-046
 -2.360000000000000E-002   -8.321772993190468E-047
 -2.350000000000000E-002   -4.147318279056881E-046
 -2.340000000000000E-002   -8.297031806897954E-046
 -2.330000000000000E-002   -1.324855128951123E-045
 -2.320000000000000E-002   -1.785299630632504E-045
 -2.310000000000000E-002   -2.237152205166128E-045
 -2.300000000000000E-002   -2.570376681412123E-045
 -2.290000000000000E-002   -2.682834341673219E-045
 -2.280000000000000E-002   -1.849072091112291E-045
 -2.270000000000000E-002   -3.767723341164245E-046
 -2.260000000000000E-002    1.345057836267194E-045
 -2.250000000000000E-002    3.597122626165187E-045
 -2.240000000000000E-002    6.874934287671931E-045
 -2.230000000000000E-002    9.365087219553037E-045
 -2.220000000000000E-002    1.299975037313186E-044
 -2.210000000000000E-002    1.632346345948614E-044
 -2.200000000000000E-002    1.963359770069509E-044
 -2.190000000000000E-002    2.328516314512838E-044
 -2.180000000000000E-002    2.730209385536989E-044
 -2.170000000000000E-002    3.174711521009393E-044
 -2.160000000000000E-002    3.617106792246442E-044
 -2.150000000000000E-002    3.844919347610759E-044
 -2.140000000000000E-002    3.595379133655236E-044
 -2.130000000000000E-002    2.219805266601443E-044
 -2.120000000000000E-002   -1.006226632875794E-044
 -2.110000000000000E-002   -6.920508033662575E-044
 -2.100000000000000E-002   -1.633114195294194E-043
 -2.090000000000000E-002   -2.954909164106145E-043
 -2.080000000000000E-002   -4.619752158206506E-043
 -2.070000000000000E-002   -6.441752362705569E-043
 -2.060000000000000E-002   -8.090730136384930E-043
 -2.050000000000000E-002   -9.004453311504736E-043
 -2.040000000000000E-002   -8.513549449754875E-043
 -2.030000000000000E-002   -5.872599929166850E-043
 -2.020000000000000E-002   -4.353291695050957E-044
 -2.010000000000000E-002    8.073787544700846E-043
 -2.000000000000000E-002    1.928235322938870E-042
 -1.990000000000000E-002    3.194561223092194E-042
 -1.980000000000000E-002    4.382751969773582E-042
 -1.970000000000000E-002    5.179100471943425E-042
 -1.960000000000000E-002    5.232564829772319E-042
 -1.950000000000000E-002    4.245807301503072E-042
 -1.940000000000000E-002    2.110076775138676E-042
 -1.930000000000000E-002   -9.415108163444290E-043
 -1.920000000000000E-002   -4.201970525185779E-042
 -1.910000000000000E-002   -6.427510131014161E-042
 -1.900000000000000E-002   -5.937726311807671E-042
 -1.890000000000000E-002   -9.396222252834112E-043
 -1.880000000000000E-002    9.867670522234788E-042
 -1.870000000000000E-002    2.641102812500098E-041
 -1.860000000000000E-002    4.618087611100049E-041
 -1.850000000000000E-002    6.322022179064829E-041
 -1.840000000000000E-002    6.750748168855020E-041
 -1.830000000000000E-002    4.523582713879261E-041
 -1.820000000000000E-002   -1.948924073277279E-041
 -1.810000000000000E-002   -1.410716730119848E-040
 -1.800000000000000E-002   -3.267478289255187E-040
 -1.790000000000000E-002   -5.690992784941063E-040
 -1.780000000000000E-002   -8.377362902656823E-040
 -1.770000000000000E-002   -1.071992193887043E-039
 -1.760000000000000E-002   -1.177392290584084E-039
 -1.750000000000000E-002   -1.029298567169659E-039
 -1.740000000000000E-002   -4.872817076619618E-040
 -1.730000000000000E-002    5.769795070856085E-040
 -1.720000000000000E-002    2.237442731367440E-039
 -1.710000000000000E-002    4.459593467232759E-039
 -1.700000000000000E-002    7.041608034061609E-039
 -1.690000000000000E-002    9.563324185355437E-039
 -1.680000000000000E-002    1.136075718569447E-038
 -1.670000000000000E-002    1.154748502467135E-038
 -1.660000000000000E-002    9.104287674767115E-039
 -1.650000000000000E-002    3.053108845228325E-039
 -1.640000000000000E-002   -7.280899588580413E-039
 -1.630000000000000E-002   -2.193536741080245E-038
 -1.620000000000000E-002   -3.994737588831836E-038
 -1.610000000000000E-002   -5.903347433474323E-038
 -1.600000000000000E-002   -7.541351476487838E-038
 -1.590000000000000E-002   -8.389655981110245E-038
 -1.580000000000000E-002   -7.834518975123732E-038
 -1.570000000000000E-002   -5.260357945369204E-038
 -1.560000000000000E-002   -1.907545820225609E-039
 -1.550000000000000E-002    7.531028011020104E-038
 -1.540000000000000E-002    1.754434238524710E-037
 -1.530000000000000E-002    2.879365909553010E-037
 -1.520000000000000E-002    3.942224155718748E-037
 -1.510000000000000E-002    4.679616222178882E-037
 -1.500000000000000E-002    4.771614600853905E-037
 -1.490000000000000E-002    3.885894471715794E-037
 -1.480000000000000E-002    1.745702999082580E-037
 -1.470000000000000E-002   -1.782464239920735E-037
 -1.460000000000000E-002   -6.592005210535663E-037
 -1.450000000000000E-002   -1.224759227903422E-036
 -1.440000000000000E-002   -1.792832720892510E-036
 -1.430000000000000E-002   -2.242971705661206E-036
 -1.420000000000000E-002   -2.425057059298483E-036
 -1.410000000000000E-002   -2.178366130448844E-036
 -1.400000000000000E-002   -1.361442590495247E-036
 -1.390000000000000E-002    1.089900911328830E-037
 -1.380000000000000E-002    2.214574324022950E-036
 -1.370000000000000E-002    4.794742783457040E-036
 -1.360000000000000E-002    7.518978415797554E-036
 -1.350000000000000E-002    9.883290641537165E-036
 -1.340000000000000E-002    1.124184849025223E-035
 -1.330000000000000E-002    1.088171269642482E-035
 -1.320000000000000E-002    8.142709004638620E-036
 -1.310000000000000E-002    2.575731409976117E-036
 -1.300000000000000E-002   -5.878033082397084E-036
 -1.290000000000000E-002   -1.671583678170306E-035
 -1.280000000000000E-002   -2.874868997859770E-035
 -1.270000000000000E-002   -4.006726726684166E-035
 -1.260000000000000E-002   -4.814070203573839E-035
 -1.250000000000000E-002   -5.007929014982308E-035
 -1.240000000000000E-002   -4.307025164963594E-035
 -1.230000000000000E-002   -2.496369592368099E-035
 -1.220000000000000E-002    5.053099333861675E-036
 -1.210000000000000E-002    4.579569293506269E-035
 -1.200000000000000E-002    9.357363768769644E-035
 -1.190000000000000E-002    1.419883875058970E-034
 -1.180000000000000E-002    1.821872843777351E-034
 -1.170000000000000E-002    2.036841419124933E-034
 -1.160000000000000E-002    1.957824456788715E-034
 -1.150000000000000E-002    1.495300876417710E-034
 -1.140000000000000E-002    6.000510846388277E-035
 -1.130000000000000E-002   -7.140012963162114E-035
 -1.120000000000000E-002   -2.351387623921276E-034
 -1.110000000000000E-002   -4.126127990244716E-034
 -1.100000000000000E-002   -5.766960921479135E-034
 -1.090000000000000E-002   -6.940275044969202E-034
 -1.080000000000000E-002   -7.291902092535354E-034
 -1.070000000000000E-002   -6.505625926994837E-034
 -1.060000000000000E-002   -4.372357844451601E-034
 -1.050000000000000E-002   -8.600352127730418E-035
 -1.040000000000000E-002    3.828809390048763E-034
 -1.030000000000000E-002    9.226318319714112E-034
 -1.020000000000000E-002    1.460896071390655E-033
 -1.010000000000000E-002    1.905717740966765E-033
 -1.000000000000000E-002    2.156769020042439E-033
 -9.899999999999999E-003    2.121168753534671E-033
 -9.800000000000000E-003    1.732132015340669E-033
 -9.699999999999999E-003    9.676651338089837E-034
 -9.599999999999999E-003   -1.342426496188585E-034
 -9.500000000000000E-003   -1.467743820064144E-033
 -9.399999999999999E-003   -2.861963549082396E-033
 -9.299999999999999E-003   -4.096713289033987E-033
 -9.200000000000000E-003   -4.931285488127333E-033
 -9.099999999999999E-003   -5.143990258625306E-033
 -8.999999999999999E-003   -4.577352314262671E-033
 -8.900000000000000E-003   -3.181462941108477E-033
 -8.799999999999999E-003   -1.046443081172622E-033
 -8.699999999999999E-003    1.585107976433756E-033
 -8.600000000000000E-003    4.333032219847430E-033
 -8.499999999999999E-003    6.725500736770288E-033
 -8.399999999999999E-003    8.273981653363502E-033
 -8.300000000000000E-003    8.568865193187139E-033
 -8.199999999999999E-003    7.380842128307929E-033
 -8.100000000000000E-003    4.748052160600568E-033
 -8.000000000000000E-003    1.026826268336622E-033
 -7.899999999999999E-003   -3.114236768765029E-033
 -7.800000000000000E-003   -6.770416033304629E-033
 -7.699999999999999E-003   -8.949350409021018E-033
 -7.599999999999999E-003   -8.779010116248408E-033
 -7.499999999999999E-003   -5.745972522900655E-033
 -7.399999999999999E-003    7.980674053495379E-035
 -7.299999999999999E-003    7.886881772284312E-033
 -7.199999999999999E-003    1.608473040249259E-032
 -7.100000000000000E-003    2.243007859096395E-032
 -6.999999999999999E-003    2.433811117411350E-032
 -6.899999999999999E-003    1.936649146407614E-032
 -6.800000000000000E-003    5.820535165010878E-033
 -6.699999999999999E-003   -1.661190703543927E-032
 -6.599999999999999E-003   -4.631919361429395E-032
 -6.499999999999999E-003   -7.945707104098921E-032
 -6.399999999999999E-003   -1.100028147868993E-031
 -6.299999999999999E-003   -1.302662682006003E-031
 -6.199999999999999E-003   -1.318872568960965E-031
 -6.100000000000000E-003   -1.072621109673494E-031
 -5.999999999999999E-003   -5.124476210615450E-032
 -5.899999999999999E-003    3.712319069885878E-032
 -5.800000000000000E-003    1.531656006562414E-031
 -5.699999999999999E-003    2.857426945990661E-031
 -5.599999999999999E-003    4.173404252905476E-031
 -5.499999999999999E-003    5.252809705363612E-031
 -5.399999999999999E-003    5.841032087049835E-031
 -5.299999999999999E-003    5.689675989804473E-031
 -5.199999999999999E-003    4.597361073575026E-031
 -5.099999999999999E-003    2.452004518804274E-031
 -4.999999999999999E-003   -7.318145073326138E-032
 -4.899999999999999E-003   -4.786983738109376E-031
 -4.799999999999999E-003   -9.385088609810568E-031
 -4.699999999999999E-003   -1.404830896929102E-030
 -4.599999999999999E-003   -1.818263092696195E-030
 -4.499999999999999E-003   -2.112981665989737E-030
 -4.399999999999999E-003   -2.223262015834001E-030
 -4.299999999999999E-003   -2.090576108916408E-030
 -4.199999999999999E-003   -1.670470128411208E-030
 -4.099999999999999E-003   -9.385523810114264E-031
 -3.999999999999999E-003    1.047943031329043E-031
 -3.899999999999999E-003    1.430983683604303E-030
 -3.799999999999999E-003    2.980731232880842E-030
 -3.699999999999999E-003    4.661930289644727E-030
 -3.599999999999999E-003    6.347409554248412E-030
 -3.499999999999999E-003    7.872519808013096E-030
 -3.399999999999999E-003    9.033326574385286E-030
 -3.299999999999999E-003    9.587286229118199E-030
 -3.199999999999999E-003    9.259442796695645E-030
 -3.099999999999999E-003    7.758056826213885E-030
 -2.999999999999999E-003    4.803749705223730E-030
 -2.899999999999999E-003    1.753125550893455E-031
 -2.799999999999999E-003   -6.227017475647795E-030
 -2.699999999999999E-003   -1.430384027512521E-029
 -2.599999999999999E-003   -2.367255585080417E-029
 -2.499999999999999E-003   -3.359083356977863E-029
 -2.399999999999999E-003   -4.290672372358257E-029
 -2.299999999999999E-003   -5.005815799368135E-029
 -2.199999999999999E-003   -5.314496404461668E-029
 -2.099999999999999E-003   -5.009239793377938E-029
 -1.999999999999999E-003   -3.891554848394791E-029
 -1.899999999999999E-003   -1.807881093312973E-029
 -1.799999999999999E-003    1.307532428772544E-029
 -1.699999999999999E-003    5.387640397200481E-029
 -1.599999999999999E-003    1.019250605199684E-028
 -1.499999999999999E-003    1.528276604224660E-028
 -1.399999999999999E-003    2.001603221671844E-028
 -1.299999999999999E-003    2.357489294648946E-028
 -1.199999999999999E-003    2.503272672220372E-028
 -1.099999999999999E-003    2.345925888899227E-028
 -9.999999999999989E-004    1.806182132336015E-028
 -8.999999999999990E-004    8.351157629247893E-029
 -7.999999999999990E-004   -5.686770747498973E-029
 -6.999999999999989E-004   -2.343808578590227E-028
 -5.999999999999990E-004   -4.355687916261005E-028
 -4.999999999999989E-004   -6.394005632839361E-028
 -3.999999999999989E-004   -8.180785328781364E-028
 -2.999999999999989E-004   -9.390793252240859E-028
 -1.999999999999989E-004   -9.684702007680314E-028
 -9.999999999999892E-005   -8.753589070368576E-028
  1.084202172485504E-018   -6.371287421154486E-028
  1.000000000000011E-004   -2.449051640840302E-028
  2.000000000000011E-004    2.914732249679773E-028
  3.000000000000011E-004    9.398149227226006E-028
  4.000000000000011E-004    1.644114605159519E-027
  5.000000000000011E-004    2.326011008121452E-027
  6.000000000000011E-004    2.889666705635310E-027
  7.000000000000011E-004    3.230212722817427E-027
  8.000000000000011E-004    3.245441859030506E-027
  9.000000000000012E-004    2.849921881145587E-027
  1.000000000000001E-003    1.990194281013766E-027
  1.100000000000001E-003    6.592944067949351E-028
  1.200000000000001E-003   -1.091451657980415E-027
  1.300000000000001E-003   -3.145463351749373E-027
  1.400000000000001E-003   -5.320686429214907E-027
  1.500000000000001E-003   -7.377553696722246E-027
  1.600000000000001E-003   -9.035808419827946E-027
  1.700000000000001E-003   -9.999902087373350E-027
  1.800000000000001E-003   -9.991573172475823E-027
  1.900000000000001E-003   -8.787081082880677E-027
  2.000000000000001E-003   -6.255551103246256E-027
  2.100000000000001E-003   -2.394115032749764E-027
  2.200000000000001E-003    2.644867433814190E-027
  2.300000000000001E-003    8.539136711985627E-027
  2.400000000000001E-003    1.479842881350655E-026
  2.500000000000001E-003    2.078580519224685E-026
  2.600000000000001E-003    2.575961734024569E-026
  2.700000000000001E-003    2.893528293845336E-026
  2.800000000000001E-003    2.956377324397181E-026
  2.900000000000001E-003    2.702141190491399E-026
  3.000000000000001E-003    2.090347434180218E-026
  3.100000000000001E-003    1.111239824715371E-026
  3.200000000000001E-003   -2.069638771757942E-027
  3.300000000000001E-003   -1.793422420385875E-026
  3.400000000000001E-003   -3.533597458588220E-026
  3.500000000000001E-003   -5.272541898439588E-026
  3.600000000000001E-003   -6.823045579522582E-026
  3.700000000000001E-003   -7.978746137545635E-026
  3.800000000000001E-003   -8.531842747774386E-026
  3.900000000000001E-003   -8.294524651127856E-026
  4.000000000000001E-003   -7.122687368635366E-026
  4.100000000000001E-003   -4.939995056747528E-026
  4.200000000000001E-003   -1.759919815791916E-026
  4.300000000000001E-003    2.296901907576167E-026
  4.400000000000001E-003    6.992734823275648E-026
  4.500000000000001E-003    1.197280637167328E-025
  4.600000000000002E-003    1.677746906420977E-025
  4.700000000000001E-003    2.086777685224937E-025
  4.800000000000001E-003    2.366469609345594E-025
  4.900000000000002E-003    2.460079444745441E-025
  5.000000000000001E-003    2.318170053041809E-025
  5.100000000000001E-003    1.905299896284372E-025
  5.200000000000001E-003    1.206671382527154E-025
  5.300000000000002E-003    2.340298646694141E-026
  5.400000000000001E-003   -9.699691219420221E-026
  5.500000000000001E-003   -2.329710799992293E-025
  5.600000000000002E-003   -3.737598396448601E-025
  5.700000000000001E-003   -5.058588838957283E-025
  5.800000000000001E-003   -6.138550955188770E-025
  5.900000000000002E-003   -6.816352669621711E-025
  6.000000000000001E-003   -6.939163343598750E-025
  6.100000000000001E-003   -6.380007308009031E-025
  6.200000000000002E-003   -5.056167384420190E-025
  6.300000000000002E-003   -2.946662118450566E-025
  6.400000000000001E-003   -1.067727183262501E-026
  6.500000000000001E-003    3.322490241497814E-025
  6.600000000000002E-003    7.111957531293485E-025
  6.700000000000001E-003    1.095051643027229E-024
  6.800000000000001E-003    1.446097141684764E-024
  6.900000000000002E-003    1.722571393339941E-024
  7.000000000000001E-003    1.882137701006471E-024
  7.100000000000001E-003    1.886055569183056E-024
  7.200000000000002E-003    1.703760826623446E-024
  7.300000000000002E-003    1.317459355664866E-024
  7.400000000000001E-003    7.262716354488429E-025
  7.500000000000001E-003   -5.056977946708918E-026
  7.600000000000002E-003   -9.719549896532991E-025
  7.700000000000001E-003   -1.974986427413759E-024
  7.800000000000001E-003   -2.977230257935598E-024
  7.900000000000001E-003   -3.881273145873925E-024
  8.000000000000002E-003   -4.581522582520509E-024
  8.100000000000001E-003   -4.972963452297832E-024
  8.200000000000001E-003   -4.961346616177964E-024
  8.300000000000002E-003   -4.474068721862355E-024
  8.400000000000001E-003   -3.470821837647561E-024
  8.500000000000002E-003   -1.952974089321535E-024
  8.600000000000002E-003    2.939858696301655E-026
  8.700000000000001E-003    2.373853227195489E-024
  8.800000000000002E-003    4.926163233912113E-024
  8.900000000000002E-003    7.485760886315535E-024
  9.000000000000001E-003    9.816309922703459E-024
  9.100000000000002E-003    1.166126895455112E-023
  9.200000000000002E-003    1.276384236830657E-023
  9.300000000000001E-003    1.289024524404152E-023
  9.400000000000002E-003    1.185475744775252E-023
  9.500000000000001E-003    9.544657349564341E-024
  9.600000000000001E-003    5.942838510249632E-024
  9.700000000000002E-003    1.145765570144036E-024
  9.800000000000001E-003   -4.625554757017928E-024
  9.900000000000001E-003   -1.102369517417648E-023
  1.000000000000000E-002   -1.758371630946077E-023
  1.010000000000000E-002   -2.374392764706581E-023
  1.020000000000000E-002   -2.887874054997433E-023
  1.030000000000000E-002   -3.234288338975401E-023
  1.040000000000000E-002   -3.352514247422874E-023
  1.050000000000000E-002   -3.190864375996186E-023
  1.060000000000000E-002   -2.713359472195768E-023
  1.070000000000000E-002   -1.905742283304800E-023
  1.080000000000000E-002   -7.806539941919668E-024
  1.090000000000000E-002    6.186381481519093E-024
  1.100000000000000E-002    2.216563430155351E-023
  1.110000000000000E-002    3.906149634756238E-023
  1.120000000000000E-002    5.552903635414681E-023
  1.130000000000000E-002    7.001876383751525E-023
  1.140000000000000E-002    8.087866304740465E-023
  1.150000000000000E-002    8.648413624227351E-023
  1.160000000000000E-002    8.538920453275590E-023
  1.170000000000000E-002    7.648903130699341E-023
  1.180000000000000E-002    5.918092301133601E-023
  1.190000000000000E-002    3.350873078467423E-023
  1.200000000000000E-002    2.743069595374221E-025
  1.210000000000000E-002   -3.890019201195968E-023
  1.220000000000000E-002   -8.157367171704434E-023
  1.230000000000000E-002   -1.245623428831222E-022
  1.240000000000000E-002   -1.640968970328590E-022
  1.250000000000000E-002   -1.960602507677006E-022
  1.260000000000000E-002   -2.162978570082530E-022
  1.270000000000000E-002   -2.209844516855576E-022
  1.280000000000000E-002   -2.070232240848167E-022
  1.290000000000000E-002   -1.724464028035002E-022
  1.300000000000000E-002   -1.167810434791778E-022
  1.310000000000000E-002   -4.134119961392694E-023
  1.320000000000000E-002    5.059179460578651E-023
  1.330000000000000E-002    1.537350828374039E-022
  1.340000000000000E-002    2.609425054236354E-022
  1.350000000000000E-002    3.635300170990192E-022
  1.360000000000000E-002    4.517889417552505E-022
  1.370000000000000E-002    5.156709628110823E-022
  1.380000000000000E-002    5.456113430212350E-022
  1.390000000000000E-002    5.334394773527562E-022
  1.400000000000000E-002    4.733112691958257E-022
  1.410000000000000E-002    3.625853101781812E-022
  1.420000000000000E-002    2.025591272809428E-022
  1.430000000000000E-002   -1.019715323312941E-024
  1.440000000000000E-002   -2.377455083033149E-022
  1.450000000000000E-002   -4.927135428838935E-022
  1.460000000000000E-002   -7.470888586224480E-022
  1.470000000000000E-002   -9.790987872157536E-022
  1.480000000000000E-002   -1.165430106224455E-021
  1.490000000000000E-002   -1.282973581326699E-021
  1.500000000000000E-002   -1.310821911573980E-021
  1.510000000000000E-002   -1.232390145617137E-021
  1.520000000000000E-002   -1.037497664064291E-021
  1.530000000000000E-002   -7.242291136906249E-022
  1.540000000000000E-002   -3.003819915790696E-022
  1.550000000000000E-002    2.156863306780936E-022
  1.560000000000000E-002    7.949771571119635E-022
  1.570000000000000E-002    1.398659904825380E-021
  1.580000000000000E-002    1.979841578551818E-021
  1.590000000000000E-002    2.486292364743967E-021
  1.600000000000000E-002    2.864043103518223E-021
  1.610000000000000E-002    3.061678303531823E-021
  1.620000000000000E-002    3.035065336983060E-021
  1.630000000000000E-002    2.752180023446039E-021
  1.640000000000000E-002    2.197629300945874E-021
  1.650000000000000E-002    1.376439508578136E-021
  1.660000000000000E-002    3.166753747315767E-022
  1.670000000000000E-002   -9.295062818758145E-022
  1.680000000000000E-002   -2.286686677602700E-021
  1.690000000000000E-002   -3.659102218673333E-021
  1.700000000000000E-002   -4.935698303678181E-021
  1.710000000000000E-002   -5.997193752291984E-021
  1.720000000000000E-002   -6.724839485203867E-021
  1.730000000000000E-002   -7.010365092963658E-021
  1.740000000000000E-002   -6.766436643658138E-021
  1.750000000000000E-002   -5.936816368744496E-021
  1.760000000000000E-002   -4.505330420137066E-021
  1.770000000000000E-002   -2.502737378018668E-021
  1.780000000000000E-002   -1.064576478504142E-023
  1.790000000000000E-002    2.838228975613921E-021
  1.800000000000000E-002    5.863965161562741E-021
  1.810000000000000E-002    8.847707567377411E-021
  1.820000000000000E-002    1.154419086360686E-020
  1.830000000000000E-002    1.369803044382603E-020
  1.840000000000000E-002    1.506293207347105E-020
  1.850000000000000E-002    1.542263172651043E-020
  1.860000000000000E-002    1.461208816076761E-020
  1.870000000000000E-002    1.253727122762086E-020