 -4.000000000000000E-002    0.000000000000000E+000
 -3.990000000000000E-002    0.000000000000000E+000
 -3.980000000000000E-002    0.000000000000000E+000
 -3.970000000000000E-002    0.000000000000000E+000
 -3.960000000000000E-002    0.000000000000000E+000
 -3.950000000000000E-002    0.000000000000000E+000
 -3.940000000000000E-002    0.000000000000000E+000
 -3.930000000000000E-002    0.000000000000000E+000
 -3.920000000000000E-002    0.000000000000000E+000
 -3.910000000000000E-002    0.000000000000000E+000
 -3.900000000000000E-002    0.000000000000000E+000
 -3.890000000000000E-002    0.000000000000000E+000
 -3.880000000000000E-002    0.000000000000000E+000
 -3.870000000000000E-002    0.000000000000000E+000
 -3.860000000000000E-002    0.000000000000000E+000
 -3.850000000000000E-002    0.000000000000000E+000
 -3.840000000000000E-002    0.000000000000000E+000
 -3.830000000000000E-002    0.000000000000000E+000
 -3.820000000000000E-002    0.000000000000000E+000
 -3.810000000000000E-002    0.000000000000000E+000
 -3.800000000000000E-002    0.000000000000000E+000
 -3.790000000000000E-002    0.000000000000000E+000
 -3.780000000000000E-002    0.000000000000000E+000
 -3.770000000000000E-002    0.000000000000000E+000
 -3.760000000000000E-002    0.000000000000000E+000
 -3.750000000000000E-002    0.000000000000000E+000
 -3.740000000000000E-002    0.000000000000000E+000
 -3.730000000000000E-002    0.000000000000000E+000
 -3.720000000000000E-002    0.000000000000000E+000
 -3.710000000000000E-002    0.000000000000000E+000
 -3.700000000000000E-002    0.000000000000000E+000
 -3.690000000000000E-002    0.000000000000000E+000
 -3.680000000000000E-002    0.000000000000000E+000
 -3.670000000000000E-002    0.000000000000000E+000
 -3.660000000000000E-002    0.000000000000000E+000
 -3.650000000000000E-002    0.000000000000000E+000
 -3.640000000000000E-002    0.000000000000000E+000
 -3.630000000000000E-002    0.000000000000000E+000
 -3.620000000000000E-002    0.000000000000000E+000
 -3.610000000000000E-002    0.000000000000000E+000
 -3.600000000000000E-002    0.000000000000000E+000
 -3.590000000000000E-002    0.000000000000000E+000
 -3.580000000000000E-002    0.000000000000000E+000
 -3.570000000000000E-002    0.000000000000000E+000
 -3.560000000000000E-002    0.000000000000000E+000
 -3.550000000000000E-002    0.000000000000000E+000
 -3.540000000000000E-002    0.000000000000000E+000
 -3.530000000000000E-002    0.000000000000000E+000
 -3.520000000000000E-002    0.000000000000000E+000
 -3.510000000000000E-002    0.000000000000000E+000
 -3.500000000000000E-002    0.000000000000000E+000
 -3.490000000000000E-002    0.000000000000000E+000
 -3.480000000000000E-002    0.000000000000000E+000
 -3.470000000000000E-002    0.000000000000000E+000
 -3.460000000000000E-002    0.000000000000000E+000
 -3.450000000000000E-002    0.000000000000000E+000
 -3.440000000000000E-002    0.000000000000000E+000
 -3.430000000000000E-002    0.000000000000000E+000
 -3.420000000000000E-002    0.000000000000000E+000
 -3.410000000000000E-002    0.000000000000000E+000
 -3.400000000000000E-002    0.000000000000000E+000
 -3.390000000000000E-002    0.000000000000000E+000
 -3.380000000000000E-002    0.000000000000000E+000
 -3.370000000000000E-002    0.000000000000000E+000
 -3.360000000000000E-002    0.000000000000000E+000
 -3.350000000000000E-002    0.000000000000000E+000
 -3.340000000000000E-002    0.000000000000000E+000
 -3.330000000000000E-002    0.000000000000000E+000
 -3.320000000000000E-002    0.000000000000000E+000
 -3.310000000000000E-002    0.000000000000000E+000
 -3.300000000000000E-002    0.000000000000000E+000
 -3.290000000000000E-002    0.000000000000000E+000
 -3.280000000000000E-002    0.000000000000000E+000
 -3.270000000000000E-002    0.000000000000000E+000
 -3.260000000000000E-002    0.000000000000000E+000
 -3.250000000000000E-002    0.000000000000000E+000
 -3.240000000000000E-002    0.000000000000000E+000
 -3.230000000000000E-002    0.000000000000000E+000
 -3.220000000000000E-002    0.000000000000000E+000
 -3.210000000000000E-002    0.000000000000000E+000
 -3.200000000000000E-002    0.000000000000000E+000
 -3.190000000000000E-002    0.000000000000000E+000
 -3.180000000000000E-002    0.000000000000000E+000
 -3.170000000000000E-002    0.000000000000000E+000
 -3.160000000000000E-002    0.000000000000000E+000
 -3.150000000000000E-002    0.000000000000000E+000
 -3.140000000000000E-002    0.000000000000000E+000
 -3.130000000000000E-002    0.000000000000000E+000
 -3.120000000000000E-002    0.000000000000000E+000
 -3.110000000000000E-002    0.000000000000000E+000
 -3.100000000000000E-002    0.000000000000000E+000
 -3.090000000000000E-002    0.000000000000000E+000
 -3.080000000000000E-002    0.000000000000000E+000
 -3.070000000000000E-002    0.000000000000000E+000
 -3.060000000000000E-002    0.000000000000000E+000
 -3.050000000000000E-002    0.000000000000000E+000
 -3.040000000000000E-002    0.000000000000000E+000
 -3.030000000000000E-002    0.000000000000000E+000
 -3.020000000000000E-002    0.000000000000000E+000
 -3.010000000000000E-002    0.000000000000000E+000
 -3.000000000000000E-002    0.000000000000000E+000
 -2.990000000000000E-002    0.000000000000000E+000
 -2.980000000000000E-002    0.000000000000000E+000
 -2.970000000000000E-002    0.000000000000000E+000
 -2.960000000000000E-002    0.000000000000000E+000
 -2.950000000000000E-002    0.000000000000000E+000
 -2.940000000000000E-002    0.000000000000000E+000
 -2.930000000000000E-002    4.825094470304978E-048
 -2.920000000000000E-002    9.650188940609956E-048
 -2.910000000000000E-002    2.862889409159800E-047
 -2.900000000000000E-002    1.457224909945747E-046
 -2.890000000000000E-002    2.628160878975515E-046
 -2.880000000000000E-002    2.673195096376246E-046
 -2.870000000000000E-002    2.528442262267096E-046
 -2.860000000000000E-002    8.686173959671258E-047
 -2.850000000000000E-002   -2.238490508071741E-046
 -2.840000000000000E-002   -7.773101920939727E-046
 -2.830000000000000E-002   -1.656488624720500E-045
 -2.820000000000000E-002   -2.777223648867243E-045
 -2.810000000000000E-002   -4.232395857963917E-045
 -2.800000000000000E-002   -5.470281857095876E-045
 -2.790000000000000E-002   -6.871105308838007E-045
 -2.780000000000000E-002   -7.245159461144797E-045
 -2.770000000000000E-002   -5.892064346595553E-045
 -2.760000000000000E-002   -2.476416227070775E-045
 -2.750000000000000E-002    5.551508901306826E-045
 -2.740000000000000E-002    1.891943764888579E-044
 -2.730000000000000E-002    3.992028496835112E-044
 -2.720000000000000E-002    6.905432953387765E-044
 -2.710000000000000E-002    1.065844180806283E-043
 -2.700000000000000E-002    1.486975926870900E-043
 -2.690000000000000E-002    1.905014994519061E-043
 -2.680000000000000E-002    2.203896285723370E-043
 -2.670000000000000E-002    2.194636853548931E-043
 -2.660000000000000E-002    1.647076000646872E-043
 -2.650000000000000E-002    2.622510489772964E-044
 -2.640000000000000E-002   -2.299280581710873E-043
 -2.630000000000000E-002   -6.351619368496968E-043
 -2.620000000000000E-002   -1.209023499648541E-042
 -2.610000000000000E-002   -1.946251183639228E-042
 -2.600000000000000E-002   -2.803830573429856E-042
 -2.590000000000000E-002   -3.678544372295858E-042
 -2.580000000000000E-002   -4.388021253254498E-042
 -2.570000000000000E-002   -4.662018329577823E-042
 -2.560000000000000E-002   -4.133836112982641E-042
 -2.550000000000000E-002   -2.355440047049412E-042
 -2.540000000000000E-002    1.160339362544999E-042
 -2.530000000000000E-002    6.867810556881878E-042
 -2.520000000000000E-002    1.507081705870873E-041
 -2.510000000000000E-002    2.577374393898323E-041
 -2.500000000000000E-002    3.848999272681389E-041
 -2.490000000000000E-002    5.203977023989504E-041
 -2.480000000000000E-002    6.435875336825914E-041
 -2.470000000000000E-002    7.236461597018970E-041
 -2.460000000000000E-002    7.193764180862866E-041
 -2.450000000000000E-002    5.808084442647102E-041
 -2.440000000000000E-002    2.532358865185782E-041
 -2.430000000000000E-002   -3.157572867647607E-041
 -2.420000000000000E-002   -1.165974788459358E-040
 -2.410000000000000E-002   -2.311164356914670E-040
 -2.400000000000000E-002   -3.723098764828825E-040
 -2.390000000000000E-002   -5.314820416764035E-040
 -2.380000000000000E-002   -6.925122886665207E-040
 -2.370000000000000E-002   -8.307499153491355E-040
 -2.360000000000000E-002   -9.126964162493576E-040
 -2.350000000000000E-002   -8.968697672599008E-040
 -2.340000000000000E-002   -7.361830368861658E-040
 -2.330000000000000E-002   -3.821053009579995E-040
 -2.320000000000000E-002    2.093156487941307E-040
 -2.310000000000000E-002    1.069694287575723E-039
 -2.300000000000000E-002    2.209190657774603E-039
 -2.290000000000000E-002    3.606669251030014E-039
 -2.280000000000000E-002    5.199976906839094E-039
 -2.270000000000000E-002    6.877275243345613E-039
 -2.260000000000000E-002    8.470357023371495E-039
 -2.250000000000000E-002    9.750696128109019E-039
 -2.240000000000000E-002    1.042876041831602E-038
 -2.230000000000000E-002    1.015683888654344E-038
 -2.220000000000000E-002    8.535643906697759E-039
 -2.210000000000000E-002    5.125275031850462E-039
 -2.200000000000000E-002   -5.378240176826995E-040
 -2.190000000000000E-002   -8.914434237936059E-039
 -2.180000000000000E-002   -2.042048823592789E-038
 -2.170000000000000E-002   -3.535996664674681E-038
 -2.160000000000000E-002   -5.382029350248133E-038
 -2.150000000000000E-002   -7.551610371951602E-038
 -2.140000000000000E-002   -9.956878453758178E-038
 -2.130000000000000E-002   -1.242160710807197E-037
 -2.120000000000000E-002   -1.464606281116760E-037
 -2.110000000000000E-002   -1.616906056987166E-037
 -2.100000000000000E-002   -1.633396118742067E-037
 -2.090000000000000E-002   -1.426963083017037E-037
 -2.080000000000000E-002   -8.902034814326803E-038
 -2.070000000000000E-002    9.837682302256379E-039
 -2.060000000000000E-002    1.660926903502919E-037
 -2.050000000000000E-002    3.897538141025903E-037
 -2.040000000000000E-002    6.852926694797204E-037
 -2.030000000000000E-002    1.047266682329206E-036
 -2.020000000000000E-002    1.455148768606803E-036
 -2.010000000000000E-002    1.867937823097388E-036
 -2.000000000000000E-002    2.219514735847923E-036
 -1.990000000000000E-002    2.416118899289360E-036
 -1.980000000000000E-002    2.337671044005397E-036
 -1.970000000000000E-002    1.844846170952999E-036
 -1.960000000000000E-002    7.936869637172253E-037
 -1.950000000000000E-002   -9.410049468013999E-037
 -1.940000000000000E-002   -3.433362910141579E-036
 -1.930000000000000E-002   -6.666791307366945E-036
 -1.920000000000000E-002   -1.049074124475639E-035
 -1.910000000000000E-002   -1.458032290827645E-035
 -1.900000000000000E-002   -1.840773114913613E-035
 -1.890000000000000E-002   -2.123651027736370E-035
 -1.880000000000000E-002   -2.215048673690100E-035
 -1.870000000000000E-002   -2.012803582780473E-035
 -1.860000000000000E-002   -1.416856625412780E-035
 -1.850000000000000E-002   -3.471215717789679E-036
 -1.840000000000000E-002    1.234419015283611E-035
 -1.830000000000000E-002    3.299614544673775E-035
 -1.820000000000000E-002    5.731601154828093E-035
 -1.810000000000000E-002    8.308557385352972E-035
 -1.800000000000000E-002    1.069926859375058E-034
 -1.790000000000000E-002    1.247601266485901E-034
 -1.780000000000000E-002    1.314918097809460E-034
 -1.770000000000000E-002    1.222566147873020E-034
 -1.760000000000000E-002    9.289264859132935E-035
 -1.750000000000000E-002    4.096594223489312E-035
 -1.740000000000000E-002   -3.323705868649312E-035
 -1.730000000000000E-002   -1.258553773088726E-034
 -1.720000000000000E-002   -2.289473630904077E-034
 -1.710000000000000E-002   -3.305504534076025E-034
 -1.700000000000000E-002   -4.154939507557799E-034
 -1.690000000000000E-002   -4.670701253005314E-034
 -1.680000000000000E-002   -4.695360485977342E-034
 -1.670000000000000E-002   -4.112422258557102E-034
 -1.660000000000000E-002   -2.879825900595265E-034
 -1.650000000000000E-002   -1.059699743767041E-034
 -1.640000000000000E-002    1.162989467174133E-034
 -1.630000000000000E-002    3.480634691960248E-034
 -1.620000000000000E-002    5.488684204937988E-034
 -1.610000000000000E-002    6.740647164975811E-034
 -1.600000000000000E-002    6.831491570876764E-034
 -1.590000000000000E-002    5.502261364040109E-034
 -1.580000000000000E-002    2.751679792521913E-034
 -1.570000000000000E-002   -1.066265233422650E-034
 -1.560000000000000E-002   -5.184629327792112E-034
 -1.550000000000000E-002   -8.433020287006677E-034
 -1.540000000000000E-002   -9.337875461252880E-034
 -1.530000000000000E-002   -6.327452175864702E-034
 -1.520000000000000E-002    1.960646246640676E-034
 -1.510000000000000E-002    1.629276674555521E-033
 -1.500000000000000E-002    3.642081821986859E-033
 -1.490000000000000E-002    6.070279569883392E-033
 -1.480000000000000E-002    8.585016288675060E-033
 -1.470000000000000E-002    1.068964324131135E-032
 -1.460000000000000E-002    1.174717629339751E-032
 -1.450000000000000E-002    1.104398979012999E-032
 -1.440000000000000E-002    7.890601330287838E-033
 -1.430000000000000E-002    1.753926262052200E-033
 -1.420000000000000E-002   -7.591980875561932E-033
 -1.410000000000000E-002   -1.991695154453366E-032
 -1.400000000000000E-002   -3.441345139150165E-032
 -1.390000000000000E-002   -4.963185677512512E-032
 -1.380000000000000E-002   -6.349954622713532E-032
 -1.370000000000000E-002   -7.344456203741535E-032
 -1.360000000000000E-002   -7.663292331180895E-032
 -1.350000000000000E-002   -7.031237328389748E-032
 -1.340000000000000E-002   -5.223677235239121E-032
 -1.330000000000000E-002   -2.112637209078739E-032
 -1.320000000000000E-002    2.289581632205433E-032
 -1.310000000000000E-002    7.796084269269664E-032
 -1.300000000000000E-002    1.402721362638064E-031
 -1.290000000000000E-002    2.041427091850577E-031
 -1.280000000000000E-002    2.622864392369494E-031
 -1.270000000000000E-002    3.063683261254123E-031
 -1.260000000000000E-002    3.277828761778127E-031
 -1.250000000000000E-002    3.185957445407012E-031
 -1.240000000000000E-002    2.725556140754226E-031
 -1.230000000000000E-002    1.860677842152252E-031
 -1.220000000000000E-002    5.901961153838224E-032
 -1.210000000000000E-002   -1.046362827382270E-031
 -1.200000000000000E-002   -2.966078529402181E-031
 -1.190000000000000E-002   -5.043316114830608E-031
 -1.180000000000000E-002   -7.113819654927913E-031
 -1.170000000000000E-002   -8.982003249814674E-031
 -1.160000000000000E-002   -1.043114618223567E-030
 -1.150000000000000E-002   -1.123632794535855E-030
 -1.140000000000000E-002   -1.118015244457784E-030
 -1.130000000000000E-002   -1.007157145530960E-030
 -1.120000000000000E-002   -7.768181971243652E-031
 -1.110000000000000E-002   -4.202070739853261E-031
 -1.100000000000000E-002    5.915573303263703E-032
 -1.090000000000000E-002    6.445075212880044E-031
 -1.080000000000000E-002    1.303253010973361E-030
 -1.070000000000000E-002    1.985322940704271E-030
 -1.060000000000000E-002    2.623268208106522E-030
 -1.050000000000000E-002    3.134946750374126E-030
 -1.040000000000000E-002    3.429572696178915E-030
 -1.030000000000000E-002    3.417572921815294E-030
 -1.020000000000000E-002    3.024115342809641E-030
 -1.010000000000000E-002    2.205368874924834E-030
 -1.000000000000000E-002    9.655862244179538E-031
 -9.899999999999999E-003   -6.278270330191018E-031
 -9.800000000000000E-003   -2.434851898333148E-030
 -9.699999999999999E-003   -4.242834971654174E-030
 -9.599999999999999E-003   -5.779335039837867E-030
 -9.500000000000000E-003   -6.739981821760167E-030
 -9.399999999999999E-003   -6.831344883010479E-030
 -9.299999999999999E-003   -5.825886426298044E-030
 -9.200000000000000E-003   -3.622806950771823E-030
 -9.099999999999999E-003   -3.054183241194978E-031
 -8.999999999999999E-003    3.816673101938062E-030
 -8.900000000000000E-003    8.193096307939237E-030
 -8.799999999999999E-003    1.205713981320246E-029
 -8.699999999999999E-003    1.449637444790087E-029
 -8.600000000000000E-003    1.457045525781730E-029
 -8.499999999999999E-003    1.146863374476087E-029
 -8.399999999999999E-003    4.690301588864909E-030
 -8.300000000000000E-003   -5.776824798319629E-030
 -8.199999999999999E-003   -1.931260119961015E-029
 -8.100000000000000E-003   -3.458817989534722E-029
 -8.000000000000000E-003   -4.958776729094483E-029
 -7.899999999999999E-003   -6.174892174050015E-029
 -7.800000000000000E-003   -6.822576662594609E-029
 -7.699999999999999E-003   -6.625962757419805E-029
 -7.599999999999999E-003   -5.361983420160885E-029
 -7.499999999999999E-003   -2.905763808189349E-029
 -7.399999999999999E-003    7.296672799044291E-030
 -7.299999999999999E-003    5.366666792101571E-029
 -7.199999999999999E-003    1.065568579358346E-028
 -7.100000000000000E-003    1.609149144169638E-028
 -6.999999999999999E-003    2.105368266339605E-028
 -6.899999999999999E-003    2.486822913917918E-028
 -6.800000000000000E-003    2.688273929596017E-028
 -6.699999999999999E-003    2.654498653788771E-028
 -6.599999999999999E-003    2.347275646785008E-028
 -6.499999999999999E-003    1.750361573785341E-028
 -6.399999999999999E-003    8.716615449728381E-029
 -6.299999999999999E-003   -2.576884487885909E-029
 -6.199999999999999E-003   -1.586926949951241E-028
 -6.100000000000000E-003   -3.050866660238782E-028
 -5.999999999999999E-003   -4.575096729400270E-028
 -5.899999999999999E-003   -6.079366472336878E-028
 -5.800000000000000E-003   -7.477628381690932E-028
 -5.699999999999999E-003   -8.673977484410861E-028
 -5.599999999999999E-003   -9.554987604844945E-028
 -5.499999999999999E-003   -9.980488025871186E-028
 -5.399999999999999E-003   -9.776353704391361E-028
 -5.299999999999999E-003   -8.734049843138089E-028
 -5.199999999999999E-003   -6.622027240057700E-028
 -5.099999999999999E-003   -3.213213467906738E-028
 -4.999999999999999E-003    1.669262796124129E-028
 -4.899999999999999E-003    8.089574229110525E-028
 -4.799999999999999E-003    1.592588164807697E-027
 -4.699999999999999E-003    2.479707208824988E-027
 -4.599999999999999E-003    3.400480690497163E-027
 -4.499999999999999E-003    4.250889650213105E-027
 -4.399999999999999E-003    4.895407676907212E-027
 -4.299999999999999E-003    5.176285333799831E-027
 -4.199999999999999E-003    4.930171004041465E-027
 -4.099999999999999E-003    4.011691457732212E-027
 -3.999999999999999E-003    2.322253927857665E-027
 -3.899999999999999E-003   -1.591441478770636E-028
 -3.799999999999999E-003   -3.347608759610407E-027
 -3.699999999999999E-003   -7.031967530487631E-027
 -3.599999999999999E-003   -1.086792767255957E-026
 -3.499999999999999E-003   -1.438971449160794E-026
 -3.399999999999999E-003   -1.704343921073247E-026
 -3.299999999999999E-003   -1.824282500268640E-026
 -3.199999999999999E-003   -1.744453664044139E-026
 -3.099999999999999E-003   -1.423664634275183E-026
 -2.999999999999999E-003   -8.430229581997461E-027
 -2.899999999999999E-003   -1.413047895313854E-028
 -2.799999999999999E-003    1.015104995204306E-026
 -2.699999999999999E-003    2.158414395102568E-026
 -2.599999999999999E-003    3.293972755078491E-026
 -2.499999999999999E-003    4.272708335227634E-026
 -2.399999999999999E-003    4.932083908138478E-026
 -2.299999999999999E-003    5.114570290462915E-026
 -2.199999999999999E-003    4.689217312683829E-026
 -2.099999999999999E-003    3.574049170986847E-026
 -1.999999999999999E-003    1.756501810259280E-026
 -1.899999999999999E-003   -6.910610035690116E-027
 -1.799999999999999E-003   -3.603555657662306E-026
 -1.699999999999999E-003   -6.725333776299075E-026
 -1.599999999999999E-003   -9.723595323050995E-026
 -1.499999999999999E-003   -1.221316926588113E-025
 -1.399999999999999E-003   -1.379145637626343E-025
 -1.299999999999999E-003   -1.408099842105107E-025
 -1.199999999999999E-003   -1.277597265536261E-025
 -1.099999999999999E-003   -9.688197221049938E-026
 -9.999999999999989E-004   -4.787741651064616E-026
 -8.999999999999990E-004    1.766544853950173E-026
 -7.999999999999990E-004    9.610741648127259E-026
 -6.999999999999989E-004    1.817693667887788E-025
 -5.999999999999990E-004    2.671357152460846E-025
 -4.999999999999989E-004    3.432547401473311E-025
 -3.999999999999989E-004    4.003263270292852E-025
 -2.999999999999989E-004    4.284541273259531E-025
 -1.999999999999989E-004    4.185269797934547E-025
 -9.999999999999892E-005    3.631849483138123E-025
  1.084202172485504E-018    2.578142809224219E-025
  1.000000000000011E-004    1.015081614795495E-025
  2.000000000000011E-004   -1.020809894158849E-025
  3.000000000000011E-004   -3.440814370499809E-025
  4.000000000000011E-004   -6.100282322174268E-025
  5.000000000000011E-004   -8.798759974325832E-025
  6.000000000000011E-004   -1.128498431467388E-024
  7.000000000000011E-004   -1.326769214922956E-024
  8.000000000000011E-004   -1.443291978097124E-024
  9.000000000000012E-004   -1.446801840159031E-024
  1.000000000000001E-003   -1.309206637182147E-024
  1.100000000000001E-003   -1.009143435096726E-024
  1.200000000000001E-003   -5.358319881592700E-025
  1.300000000000001E-003    1.070969133532369E-025
  1.400000000000001E-003    8.982237376829772E-025
  1.500000000000001E-003    1.795911177161080E-024
  1.600000000000001E-003    2.737359111023291E-024
  1.700000000000001E-003    3.639664897226738E-024
  1.800000000000001E-003    4.403305842780183E-024
  1.900000000000001E-003    4.918308926149041E-024
  2.000000000000001E-003    5.073101494239657E-024
  2.100000000000001E-003    4.765754110866973E-024
  2.200000000000001E-003    3.916945644405288E-024
  2.300000000000001E-003    2.483641578373585E-024
  2.400000000000001E-003    4.721276076566409E-025
  2.500000000000001E-003   -2.051165687898878E-024
  2.600000000000001E-003   -4.952749705823516E-024
  2.700000000000001E-003   -8.030705109845137E-024
  2.800000000000001E-003   -1.102020879999104E-023
  2.900000000000001E-003   -1.360683380279032E-023
  3.000000000000001E-003   -1.544787080952601E-023
  3.100000000000001E-003   -1.620103171593245E-023
  3.200000000000001E-003   -1.555902895763507E-023
  3.300000000000001E-003   -1.328760624903345E-023
  3.400000000000001E-003   -9.263722958757981E-024
  3.500000000000001E-003   -3.510058165959793E-024
  3.600000000000001E-003    3.778370343079173E-024
  3.700000000000001E-003    1.221958319772172E-023
  3.800000000000001E-003    2.124562428972088E-023
  3.900000000000001E-003    3.012176720822512E-023
  4.000000000000001E-003    3.798525888797264E-023
  4.100000000000001E-003    4.390314027951938E-023
  4.200000000000001E-003    4.694686417637818E-023
  4.300000000000001E-003    4.627940367355658E-023
  4.400000000000001E-003    4.124881007730763E-023
  4.500000000000001E-003    3.148072383933420E-023
  4.600000000000002E-003    1.696118146033529E-023
  4.700000000000001E-003   -1.898909724334270E-024
  4.800000000000001E-003   -2.422629538343387E-023
  4.900000000000002E-003   -4.868212040962477E-023
  5.000000000000001E-003   -7.349829370018831E-023
  5.100000000000001E-003   -9.655644990068882E-023
  5.200000000000001E-003   -1.155093317788433E-022
  5.300000000000002E-003   -1.279412261654807E-022
  5.400000000000001E-003   -1.315602256873386E-022
  5.500000000000001E-003   -1.244124046000136E-022
  5.600000000000002E-003   -1.051042623268507E-022
  5.700000000000001E-003   -7.301732658490711E-023
  5.800000000000001E-003   -2.849747415112887E-023
  5.900000000000002E-003    2.700019582236906E-023
  6.000000000000001E-003    9.082967060738873E-023
  6.100000000000001E-003    1.591528611123005E-022
  6.200000000000002E-003    2.270340147992624E-022
  6.300000000000002E-003    2.886399473832042E-022
  6.400000000000001E-003    3.375512559924355E-022
  6.500000000000001E-003    3.671808234324796E-022
  6.600000000000002E-003    3.712887063837301E-022
  6.700000000000001E-003    3.445701247750516E-022
  6.800000000000001E-003    2.832840229989606E-022
  6.900000000000002E-003    1.858774483462067E-022
  7.000000000000001E-003    5.355230779100791E-023
  7.100000000000001E-003   -1.092862653743940E-022
  7.200000000000002E-003   -2.947645329280989E-022
  7.300000000000002E-003   -4.915199591633638E-022
  7.400000000000001E-003   -6.849796240957901E-022
  7.500000000000001E-003   -8.579764280554036E-022
  7.600000000000002E-003   -9.917177989536296E-022
  7.700000000000001E-003   -1.067093634335103E-021
  7.800000000000001E-003   -1.066275637823397E-021
  7.900000000000001E-003   -9.745212320945695E-022
  8.000000000000002E-003   -7.820614579322161E-022
  8.100000000000001E-003   -4.859182158923334E-022
  8.200000000000001E-003   -9.147215544499209E-023
  8.300000000000002E-003    3.864066468323717E-022
  8.400000000000001E-003    9.228504594912147E-022
  8.500000000000002E-003    1.483269513355272E-021
  8.600000000000002E-003    2.024530769294747E-021
  8.700000000000001E-003    2.497099493773787E-021
  8.800000000000002E-003    2.848127629269998E-021
  8.900000000000002E-003    3.025382965921228E-021
  9.000000000000001E-003    2.981829496065640E-021
  9.100000000000002E-003    2.680569456875580E-021
  9.200000000000002E-003    2.099787793905701E-021
  9.300000000000001E-003    1.237276260207968E-021
  9.400000000000002E-003    1.140830202496211E-022
  9.500000000000001E-003   -1.223167509095042E-021
  9.600000000000001E-003   -2.701701563125009E-021
  9.700000000000002E-003   -4.224109478429542E-021
  9.800000000000001E-003   -5.672164290972777E-021
  9.900000000000001E-003   -6.913024968159742E-021
  1.000000000000000E-002   -7.807698718129966E-021
  1.010000000000000E-002   -8.221460162443561E-021
  1.020000000000000E-002   -8.035688411539944E-021
  1.030000000000000E-002   -7.160408534610702E-021
  1.040000000000000E-002   -5.546611872186435E-021
  1.050000000000000E-002   -3.197327158118495E-021
  1.060000000000000E-002   -1.763154245293084E-022
  1.070000000000000E-002    3.386735427846689E-021
  1.080000000000000E-002    7.295532092933332E-021
  1.090000000000000E-002    1.129185767637213E-020
  1.100000000000000E-002    1.506613318754308E-020
  1.110000000000000E-002    1.827400663301046E-020
  1.120000000000000E-002    2.055864647107324E-020
  1.130000000000000E-002    2.157780262193307E-020
  1.140000000000000E-002    2.103430360638468E-020
  1.150000000000000E-002    1.870791120658747E-020
  1.160000000000000E-002    1.448622081594894E-020
  1.170000000000000E-002    8.391794225503977E-021
  1.180000000000000E-002    6.026678634277746E-022
  1.190000000000000E-002   -8.536564354132223E-021
  1.200000000000000E-002   -1.851554554166895E-020
  1.210000000000000E-002   -2.867272139977285E-020
  1.220000000000000E-002   -3.822461172070480E-020
  1.230000000000000E-002   -4.630969039208519E-020
  1.240000000000000E-002   -5.204565443174175E-020
  1.250000000000000E-002   -5.459721487107751E-020
  1.260000000000000E-002   -5.325069052997264E-020
  1.270000000000000E-002   -4.749022448274185E-020
  1.280000000000000E-002   -3.706963624355488E-020
  1.290000000000000E-002   -2.207360853410023E-020
  1.300000000000000E-002   -2.961523745128661E-021
  1.310000000000000E-002    1.941193903384534E-020
  1.320000000000000E-002    4.380448075999449E-020
  1.330000000000000E-002    6.862559328976233E-020
  1.340000000000000E-002    9.200908112362605E-020
  1.350000000000000E-002    1.119177755978729E-019
  1.360000000000000E-002    1.262765871108276E-019
  1.370000000000000E-002    1.331278462477544E-019
  1.380000000000000E-002    1.307998923375675E-019
  1.390000000000000E-002    1.180777741159299E-019
  1.400000000000000E-002    9.436334810601787E-020
  1.410000000000000E-002    5.981112221769231E-020
  1.420000000000000E-002    1.542607596982659E-020
  1.430000000000000E-002   -3.688926316806638E-020
  1.440000000000000E-002   -9.434895711169189E-020
  1.450000000000000E-002   -1.533668544687643E-019
  1.460000000000000E-002   -2.097117721234576E-019
  1.470000000000000E-002   -2.587334754267764E-019
  1.480000000000000E-002   -2.956524585174115E-019
  1.490000000000000E-002   -3.159002185463522E-019
  1.500000000000000E-002   -3.154923128919466E-019
  1.510000000000000E-002   -2.914106170348207E-019
  1.520000000000000E-002   -2.419676891298696E-019
  1.530000000000000E-002   -1.671232171140168E-019
  1.540000000000000E-002   -6.872273417035497E-020
  1.550000000000000E-002    4.937052351411308E-020
  1.560000000000000E-002    1.812741872898200E-019
  1.570000000000000E-002    3.192355429927127E-019
  1.580000000000000E-002    4.539390292026155E-019
  1.590000000000000E-002    5.749724676833024E-019
  1.600000000000000E-002    6.714379221135784E-019
  1.610000000000000E-002    7.326848760952350E-019
  1.620000000000000E-002    7.491256935897715E-019
  1.630000000000000E-002    7.130869395127555E-019
  1.640000000000000E-002    6.196382347933022E-019
  1.650000000000000E-002    4.673364034869366E-019
  1.660000000000000E-002    2.588185713447615E-019
  1.670000000000000E-002    1.181546636331264E-021
  1.680000000000000E-002   -2.939087705206922E-019
  1.690000000000000E-002   -6.104213803919176E-019
  1.700000000000000E-002   -9.285081141583699E-019
  1.710000000000000E-002   -1.225398926445203E-018
  1.720000000000000E-002   -1.476630230678836E-018
  1.730000000000000E-002   -1.657563922459222E-018
  1.740000000000000E-002   -1.745129640857214E-018
  1.750000000000000E-002   -1.719695315991789E-018
  1.760000000000000E-002   -1.566953346821040E-018
  1.770000000000000E-002   -1.279691199445286E-018
  1.780000000000000E-002   -8.593032468009894E-019
  1.790000000000000E-002   -3.169031749675483E-019
  1.800000000000000E-002    3.260960554593329E-019
  1.810000000000000E-002    1.038056665963279E-018
  1.820000000000000E-002    1.777922992317533E-018
  1.830000000000000E-002    2.496815813317613E-018
  1.840000000000000E-002    3.140403444322437E-018
  1.850000000000000E-002    3.652005915242604E-018
  1.860000000000000E-002    3.976296384438828E-018
  1.870000000000000E-002    4.063441229703982E-018