 -4.000000000000000E-002    0.000000000000000E+000
 -3.990000000000000E-002    0.000000000000000E+000
 -3.980000000000000E-002    0.000000000000000E+000
 -3.970000000000000E-002    0.000000000000000E+000
 -3.960000000000000E-002    0.000000000000000E+000
 -3.950000000000000E-002    0.000000000000000E+000
 -3.940000000000000E-002    0.000000000000000E+000
 -3.930000000000000E-002    0.000000000000000E+000
 -3.920000000000000E-002    0.000000000000000E+000
 -3.910000000000000E-002    0.000000000000000E+000
 -3.900000000000000E-002    0.000000000000000E+000
 -3.890000000000000E-002    0.000000000000000E+000
 -3.880000000000000E-002    0.000000000000000E+000
 -3.870000000000000E-002    0.000000000000000E+000
 -3.860000000000000E-002    0.000000000000000E+000
 -3.850000000000000E-002    0.000000000000000E+000
 -3.840000000000000E-002    0.000000000000000E+000
 -3.830000000000000E-002    0.000000000000000E+000
 -3.820000000000000E-002    0.000000000000000E+000
 -3.810000000000000E-002    0.000000000000000E+000
 -3.800000000000000E-002    0.000000000000000E+000
 -3.790000000000000E-002    0.000000000000000E+000
 -3.780000000000000E-002    0.000000000000000E+000
 -3.770000000000000E-002    0.000000000000000E+000
 -3.760000000000000E-002    0.000000000000000E+000
 -3.750000000000000E-002    0.000000000000000E+000
 -3.740000000000000E-002    0.000000000000000E+000
 -3.730000000000000E-002    0.000000000000000E+000
 -3.720000000000000E-002    0.000000000000000E+000
 -3.710000000000000E-002    0.000000000000000E+000
 -3.700000000000000E-002    0.000000000000000E+000
 -3.690000000000000E-002    0.000000000000000E+000
 -3.680000000000000E-002    0.000000000000000E+000
 -3.670000000000000E-002    0.000000000000000E+000
 -3.660000000000000E-002    0.000000000000000E+000
 -3.650000000000000E-002    0.000000000000000E+000
 -3.640000000000000E-002    0.000000000000000E+000
 -3.630000000000000E-002    0.000000000000000E+000
 -3.620000000000000E-002    0.000000000000000E+000
 -3.610000000000000E-002    0.000000000000000E+000
 -3.600000000000000E-002    0.000000000000000E+000
 -3.590000000000000E-002    0.000000000000000E+000
 -3.580000000000000E-002    0.000000000000000E+000
 -3.570000000000000E-002    0.000000000000000E+000
 -3.560000000000000E-002    0.000000000000000E+000
 -3.550000000000000E-002    0.000000000000000E+000
 -3.540000000000000E-002    0.000000000000000E+000
 -3.530000000000000E-002    0.000000000000000E+000
 -3.520000000000000E-002    0.000000000000000E+000
 -3.510000000000000E-002    0.000000000000000E+000
 -3.500000000000000E-002    0.000000000000000E+000
 -3.490000000000000E-002    0.000000000000000E+000
 -3.480000000000000E-002    0.000000000000000E+000
 -3.470000000000000E-002    0.000000000000000E+000
 -3.460000000000000E-002    0.000000000000000E+000
 -3.450000000000000E-002    0.000000000000000E+000
 -3.440000000000000E-002    0.000000000000000E+000
 -3.430000000000000E-002    0.000000000000000E+000
 -3.420000000000000E-002    0.000000000000000E+000
 -3.410000000000000E-002    0.000000000000000E+000
 -3.400000000000000E-002    0.000000000000000E+000
 -3.390000000000000E-002    0.000000000000000E+000
 -3.380000000000000E-002    0.000000000000000E+000
 -3.370000000000000E-002    0.000000000000000E+000
 -3.360000000000000E-002    0.000000000000000E+000
 -3.350000000000000E-002    0.000000000000000E+000
 -3.340000000000000E-002    0.000000000000000E+000
 -3.330000000000000E-002    0.000000000000000E+000
 -3.320000000000000E-002    0.000000000000000E+000
 -3.310000000000000E-002    0.000000000000000E+000
 -3.300000000000000E-002    0.000000000000000E+000
 -3.290000000000000E-002    0.000000000000000E+000
 -3.280000000000000E-002    0.000000000000000E+000
 -3.270000000000000E-002    0.000000000000000E+000
 -3.260000000000000E-002    0.000000000000000E+000
 -3.250000000000000E-002    0.000000000000000E+000
 -3.240000000000000E-002    0.000000000000000E+000
 -3.230000000000000E-002    0.000000000000000E+000
 -3.220000000000000E-002    0.000000000000000E+000
 -3.210000000000000E-002    0.000000000000000E+000
 -3.200000000000000E-002    0.000000000000000E+000
 -3.190000000000000E-002    0.000000000000000E+000
 -3.180000000000000E-002    0.000000000000000E+000
 -3.170000000000000E-002    0.000000000000000E+000
 -3.160000000000000E-002    0.000000000000000E+000
 -3.150000000000000E-002    0.000000000000000E+000
 -3.140000000000000E-002    0.000000000000000E+000
 -3.130000000000000E-002    0.000000000000000E+000
 -3.120000000000000E-002    0.000000000000000E+000
 -3.110000000000000E-002    0.000000000000000E+000
 -3.100000000000000E-002    0.000000000000000E+000
 -3.090000000000000E-002    0.000000000000000E+000
 -3.080000000000000E-002    0.000000000000000E+000
 -3.070000000000000E-002    0.000000000000000E+000
 -3.060000000000000E-002    0.000000000000000E+000
 -3.050000000000000E-002    0.000000000000000E+000
 -3.040000000000000E-002    0.000000000000000E+000
 -3.030000000000000E-002    0.000000000000000E+000
 -3.020000000000000E-002    0.000000000000000E+000
 -3.010000000000000E-002    0.000000000000000E+000
 -3.000000000000000E-002    0.000000000000000E+000
 -2.990000000000000E-002    0.000000000000000E+000
 -2.980000000000000E-002    0.000000000000000E+000
 -2.970000000000000E-002    0.000000000000000E+000
 -2.960000000000000E-002    0.000000000000000E+000
 -2.950000000000000E-002    0.000000000000000E+000
 -2.940000000000000E-002    0.000000000000000E+000
 -2.930000000000000E-002    0.000000000000000E+000
 -2.920000000000000E-002    0.000000000000000E+000
 -2.910000000000000E-002    0.000000000000000E+000
 -2.900000000000000E-002    0.000000000000000E+000
 -2.890000000000000E-002    1.176979916238209E-047
 -2.880000000000000E-002    7.819400557093274E-048
 -2.870000000000000E-002    1.563880111418655E-047
 -2.860000000000000E-002    4.187025361940129E-047
 -2.850000000000000E-002    5.564634451369280E-047
 -2.840000000000000E-002    7.251326965933278E-047
 -2.830000000000000E-002    5.382881762319409E-047
 -2.820000000000000E-002   -5.482363662901094E-047
 -2.810000000000000E-002   -2.421718878583289E-046
 -2.800000000000000E-002   -5.454858283505209E-046
 -2.790000000000000E-002   -1.203470906670860E-045
 -2.780000000000000E-002   -1.936525171552662E-045
 -2.770000000000000E-002   -2.767721979627290E-045
 -2.760000000000000E-002   -3.289565283082657E-045
 -2.750000000000000E-002   -3.298226118018571E-045
 -2.740000000000000E-002   -2.372128134905864E-045
 -2.730000000000000E-002    1.696526463321430E-046
 -2.720000000000000E-002    6.089079204316259E-045
 -2.710000000000000E-002    1.571112934643885E-044
 -2.700000000000000E-002    2.890658088714112E-044
 -2.690000000000000E-002    4.496777332210105E-044
 -2.680000000000000E-002    6.332032616265234E-044
 -2.670000000000000E-002    7.979814425161077E-044
 -2.660000000000000E-002    8.785153634133500E-044
 -2.650000000000000E-002    7.694288182908229E-044
 -2.640000000000000E-002    3.251485116828037E-044
 -2.630000000000000E-002   -6.032078893783233E-044
 -2.620000000000000E-002   -2.187482397913799E-043
 -2.610000000000000E-002   -4.549886983431045E-043
 -2.600000000000000E-002   -7.697192666020254E-043
 -2.590000000000000E-002   -1.143402542381315E-042
 -2.580000000000000E-002   -1.524617812814118E-042
 -2.570000000000000E-002   -1.818895880001506E-042
 -2.560000000000000E-002   -1.878565556945120E-042
 -2.550000000000000E-002   -1.502369382799817E-042
 -2.540000000000000E-002   -4.446870454313083E-043
 -2.530000000000000E-002    1.553666212698888E-042
 -2.520000000000000E-002    4.712800374252639E-042
 -2.510000000000000E-002    9.128741869233419E-042
 -2.500000000000000E-002    1.466393264226049E-041
 -2.490000000000000E-002    2.081641131925380E-041
 -2.480000000000000E-002    2.658703085971711E-041
 -2.470000000000000E-002    3.037369467434770E-041
 -2.460000000000000E-002    2.994057543698326E-041
 -2.450000000000000E-002    2.251025466899885E-041
 -2.440000000000000E-002    5.034518967654187E-042
 -2.430000000000000E-002   -2.529962186350055E-041
 -2.420000000000000E-002   -7.031071947781875E-041
 -2.410000000000000E-002   -1.298223813077329E-040
 -2.400000000000000E-002   -2.004950755280712E-040
 -2.390000000000000E-002   -2.746593905663994E-040
 -2.380000000000000E-002   -3.393863518232676E-040
 -2.370000000000000E-002   -3.761262755411293E-040
 -2.360000000000000E-002   -3.612983261154287E-040
 -2.350000000000000E-002   -2.682089044358953E-040
 -2.340000000000000E-002   -7.058931743043885E-041
 -2.330000000000000E-002    2.521373819283345E-040
 -2.320000000000000E-002    7.080453032004711E-040
 -2.310000000000000E-002    1.284958344985962E-039
 -2.300000000000000E-002    1.942810535019804E-039
 -2.290000000000000E-002    2.607625603724235E-039
 -2.280000000000000E-002    3.168970672794766E-039
 -2.270000000000000E-002    3.482845209172236E-039
 -2.260000000000000E-002    3.381726449309382E-039
 -2.250000000000000E-002    2.692807432089569E-039
 -2.240000000000000E-002    1.264292403534887E-039
 -2.230000000000000E-002   -1.001994431617580E-039
 -2.220000000000000E-002   -4.115248442062956E-039
 -2.210000000000000E-002   -7.962956836945823E-039
 -2.200000000000000E-002   -1.228745520412889E-038
 -2.190000000000000E-002   -1.667883610749736E-038
 -2.180000000000000E-002   -2.059020262374085E-038
 -2.170000000000000E-002   -2.337855465715358E-038
 -2.160000000000000E-002   -2.437018623944309E-038
 -2.150000000000000E-002   -2.294363416127117E-038
 -2.140000000000000E-002   -1.861704529696843E-038
 -2.130000000000000E-002   -1.112133211515652E-038
 -2.120000000000000E-002   -4.376420965933466E-040
 -2.110000000000000E-002    1.322085410755668E-038
 -2.100000000000000E-002    2.949550306988879E-038
 -2.090000000000000E-002    4.803543982194814E-038
 -2.080000000000000E-002    6.869523113714653E-038
 -2.070000000000000E-002    9.172920827956494E-038
 -2.060000000000000E-002    1.179082035325425E-037
 -2.050000000000000E-002    1.484630828425173E-037
 -2.040000000000000E-002    1.847491287556940E-037
 -2.030000000000000E-002    2.275350824000867E-037
 -2.020000000000000E-002    2.758577248904543E-037
 -2.010000000000000E-002    3.254520659058954E-037
 -2.000000000000000E-002    3.668725530352155E-037
 -1.990000000000000E-002    3.835591231700750E-037
 -1.980000000000000E-002    3.502620975301411E-037
 -1.970000000000000E-002    2.324087850035292E-037
 -1.960000000000000E-002   -1.285938557972065E-038
 -1.950000000000000E-002   -4.331588891997175E-037
 -1.940000000000000E-002   -1.074037858078052E-036
 -1.930000000000000E-002   -1.968210285536657E-036
 -1.920000000000000E-002   -3.120592898908776E-036
 -1.910000000000000E-002   -4.489529416835332E-036
 -1.900000000000000E-002   -5.965539103790472E-036
 -1.890000000000000E-002   -7.350178761263150E-036
 -1.880000000000000E-002   -8.339114981118677E-036
 -1.870000000000000E-002   -8.515107671231670E-036
 -1.860000000000000E-002   -7.358076272524454E-036
 -1.850000000000000E-002   -4.280341155938800E-036
 -1.840000000000000E-002    1.305007169967555E-036
 -1.830000000000000E-002    9.876470159951712E-036
 -1.820000000000000E-002    2.165526547990747E-035
 -1.810000000000000E-002    3.642022354005007E-035
 -1.800000000000000E-002    5.330157868642393E-035
 -1.790000000000000E-002    7.058154535559081E-035
 -1.780000000000000E-002    8.554391601086469E-035
 -1.770000000000000E-002    9.442862655253686E-035
 -1.760000000000000E-002    9.255698339013600E-035
 -1.750000000000000E-002    7.469463768546953E-035
 -1.740000000000000E-002    3.570786106786659E-035
 -1.730000000000000E-002   -2.846088777092836E-035
 -1.720000000000000E-002   -1.195221462648647E-034
 -1.710000000000000E-002   -2.353690225852853E-034
 -1.700000000000000E-002   -3.685906199767793E-034
 -1.690000000000000E-002   -5.052476576702622E-034
 -1.680000000000000E-002   -6.242730311297318E-034
 -1.670000000000000E-002   -6.979113568318578E-034
 -1.660000000000000E-002   -6.936033101515861E-034
 -1.650000000000000E-002   -5.776248951918189E-034
 -1.640000000000000E-002   -3.205885195427596E-034
 -1.630000000000000E-002    9.540570554528212E-035
 -1.620000000000000E-002    6.686020325581808E-034
 -1.610000000000000E-002    1.369519371526674E-033
 -1.600000000000000E-002    2.134566218935356E-033
 -1.590000000000000E-002    2.863282105826769E-033
 -1.580000000000000E-002    3.421267721119127E-033
 -1.570000000000000E-002    3.650619272598430E-033
 -1.560000000000000E-002    3.388969558910904E-033
 -1.550000000000000E-002    2.497002841759400E-033
 -1.540000000000000E-002    8.925945893044524E-034
 -1.530000000000000E-002   -1.412323292610463E-033
 -1.520000000000000E-002   -4.278169405745841E-033
 -1.510000000000000E-002   -7.415129543019538E-033
 -1.500000000000000E-002   -1.038020645083618E-032
 -1.490000000000000E-002   -1.260204766632498E-032
 -1.480000000000000E-002   -1.343939897710726E-032
 -1.470000000000000E-002   -1.227470326527320E-032
 -1.460000000000000E-002   -8.638071302043577E-033
 -1.450000000000000E-002   -2.349123349576796E-033
 -1.440000000000000E-002    6.343958008202651E-033
 -1.430000000000000E-002    1.665593854260151E-032
 -1.420000000000000E-002    2.721870888055811E-032
 -1.410000000000000E-002    3.612978999625635E-032
 -1.400000000000000E-002    4.112013501993636E-032
 -1.390000000000000E-002    3.985220970101033E-032
 -1.380000000000000E-002    3.033829421550884E-032
 -1.370000000000000E-002    1.144245156377416E-032
 -1.360000000000000E-002   -1.659902676977906E-032
 -1.350000000000000E-002   -5.172997693544691E-032
 -1.340000000000000E-002   -8.980834922466407E-032
 -1.330000000000000E-002   -1.246335769411427E-031
 -1.320000000000000E-002   -1.483619916754173E-031
 -1.310000000000000E-002   -1.523645908621150E-031
 -1.300000000000000E-002   -1.285180784032200E-031
 -1.290000000000000E-002   -7.083833386910453E-032
 -1.280000000000000E-002    2.272539496600560E-032
 -1.270000000000000E-002    1.486028069138749E-031
 -1.260000000000000E-002    2.963517227793355E-031
 -1.250000000000000E-002    4.481972254911449E-031
 -1.240000000000000E-002    5.796801483554314E-031
 -1.230000000000000E-002    6.616345622887871E-031
 -1.220000000000000E-002    6.635475095813636E-031
 -1.210000000000000E-002    5.581331853811146E-031
 -1.200000000000000E-002    3.267023469738607E-031
 -1.190000000000000E-002   -3.533720290745678E-032
 -1.180000000000000E-002   -5.137072705109876E-031
 -1.170000000000000E-002   -1.072169003093038E-030
 -1.160000000000000E-002   -1.652030796629728E-030
 -1.150000000000000E-002   -2.174969577286358E-030
 -1.140000000000000E-002   -2.549515054349412E-030
 -1.130000000000000E-002   -2.681046216987242E-030
 -1.120000000000000E-002   -2.484570273291520E-030
 -1.110000000000000E-002   -1.898974275979996E-030
 -1.100000000000000E-002   -9.009634378064072E-031
 -1.090000000000000E-002    4.833827830556883E-031
 -1.080000000000000E-002    2.171510862439114E-030
 -1.070000000000000E-002    4.023508755313999E-030
 -1.060000000000000E-002    5.848566934021618E-030
 -1.050000000000000E-002    7.419034697095406E-030
 -1.040000000000000E-002    8.491308075139176E-030
 -1.030000000000000E-002    8.831784481343696E-030
 -1.020000000000000E-002    8.245315305000384E-030
 -1.010000000000000E-002    6.603102093429893E-030
 -1.000000000000000E-002    3.866932768478041E-030
 -9.899999999999999E-003    1.070426567137509E-031
 -9.800000000000000E-003   -4.488380831122855E-030
 -9.699999999999999E-003   -9.613090462310235E-030
 -9.599999999999999E-003   -1.485221112539323E-029
 -9.500000000000000E-003   -1.970071322944839E-029
 -9.399999999999999E-003   -2.359021932813519E-029
 -9.299999999999999E-003   -2.592368904438732E-029
 -9.200000000000000E-003   -2.611813748392089E-029
 -9.099999999999999E-003   -2.365618751521851E-029
 -8.999999999999999E-003   -1.814747665648120E-029
 -8.900000000000000E-003   -9.400248213262247E-030
 -8.799999999999999E-003    2.498649405759218E-030
 -8.699999999999999E-003    1.710075616365256E-029
 -8.600000000000000E-003    3.352044085066768E-029
 -8.499999999999999E-003    5.038292977356536E-029
 -8.399999999999999E-003    6.581718089706100E-029
 -8.300000000000000E-003    7.751775333766054E-029
 -8.199999999999999E-003    8.289855197010365E-029
 -8.100000000000000E-003    7.935435332064319E-029
 -8.000000000000000E-003    6.463219335597271E-029
 -7.899999999999999E-003    3.729434540289738E-029
 -7.800000000000000E-003   -2.770739233020623E-030
 -7.699999999999999E-003   -5.386002926255797E-029
 -7.599999999999999E-003   -1.120839602940072E-028
 -7.499999999999999E-003   -1.712188487862857E-028
 -7.399999999999999E-003   -2.228899788268460E-028
 -7.299999999999999E-003   -2.571693705667447E-028
 -7.199999999999999E-003   -2.636268066927935E-028
 -7.100000000000000E-003   -2.328050289340510E-028
 -6.999999999999999E-003   -1.580063180606643E-028
 -6.899999999999999E-003   -3.718848675437483E-029
 -6.800000000000000E-003    1.253120907392536E-028
 -6.699999999999999E-003    3.175653138555726E-028
 -6.599999999999999E-003    5.196849470229631E-028
 -6.499999999999999E-003    7.046152363338115E-028
 -6.399999999999999E-003    8.402504742346271E-028
 -6.299999999999999E-003    8.928986297503133E-028
 -6.199999999999999E-003    8.318811763960113E-028
 -6.100000000000000E-003    6.348253034632189E-028
 -5.999999999999999E-003    2.929874190198119E-028
 -5.899999999999999E-003   -1.842089294555099E-028
 -5.800000000000000E-003   -7.662906885071506E-028
 -5.699999999999999E-003   -1.401298598839911E-027
 -5.599999999999999E-003   -2.018358185259577E-027
 -5.499999999999999E-003   -2.533454592117129E-027
 -5.399999999999999E-003   -2.858140226820209E-027
 -5.299999999999999E-003   -2.910396298440720E-027
 -5.199999999999999E-003   -2.626404660741067E-027
 -5.099999999999999E-003   -1.971650211745473E-027
 -4.999999999999999E-003   -9.496523125838900E-028
 -4.899999999999999E-003    3.932312322836987E-028
 -4.799999999999999E-003    1.968048498773667E-027
 -4.699999999999999E-003    3.648980983836726E-027
 -4.599999999999999E-003    5.284137140146220E-027
 -4.499999999999999E-003    6.710111135230900E-027
 -4.399999999999999E-003    7.768260351054028E-027
 -4.299999999999999E-003    8.320217411447960E-027
 -4.199999999999999E-003    8.260148633929551E-027
 -4.099999999999999E-003    7.521801763280803E-027
 -3.999999999999999E-003    6.079403102771907E-027
 -3.899999999999999E-003    3.942856754575776E-027
 -3.799999999999999E-003    1.149235029628683E-027
 -3.699999999999999E-003   -2.246102363207645E-027
 -3.599999999999999E-003   -6.174604635665917E-027
 -3.499999999999999E-003   -1.055171682435273E-026
 -3.399999999999999E-003   -1.526315936593387E-026
 -3.299999999999999E-003   -2.013952357929568E-026
 -3.199999999999999E-003   -2.492161833767601E-026
 -3.099999999999999E-003   -2.922269937673045E-026
 -2.999999999999999E-003   -3.249731392560186E-026
 -2.899999999999999E-003   -3.402915737161485E-026
 -2.799999999999999E-003   -3.295123403580158E-026
 -2.699999999999999E-003   -2.831002145483488E-026
 -2.599999999999999E-003   -1.918079447874426E-026
 -2.499999999999999E-003   -4.833780116209830E-027
 -2.399999999999999E-003    1.505911783097752E-026
 -2.299999999999999E-003    4.019852586144561E-026
 -2.199999999999999E-003    6.944516929399647E-026
 -2.099999999999999E-003    1.006618613116477E-025
 -1.999999999999999E-003    1.306550530858330E-025
 -1.899999999999999E-003    1.552590571795131E-025
 -1.799999999999999E-003    1.695960481791558E-025
 -1.699999999999999E-003    1.685272511777024E-025
 -1.599999999999999E-003    1.472854414803581E-025
 -1.499999999999999E-003    1.022487841229612E-025
 -1.399999999999999E-003    3.178395296339942E-026
 -1.299999999999999E-003   -6.294274013862425E-026
 -1.199999999999999E-003   -1.773092090999766E-025
 -1.099999999999999E-003   -3.028688007215459E-025
 -9.999999999999989E-004   -4.273937967926188E-025
 -8.999999999999990E-004   -5.354300576190161E-025
 -7.999999999999990E-004   -6.094160934914626E-025
 -6.999999999999989E-004   -6.313568894107820E-025
 -5.999999999999990E-004   -5.849684431568738E-025
 -4.999999999999989E-004   -4.581290547126288E-025
 -3.999999999999989E-004   -2.453989716026399E-025
 -2.999999999999989E-004    4.968992563646698E-026
 -1.999999999999989E-004    4.129067483595414E-025
 -9.999999999999892E-005    8.184895143801665E-025
  1.084202172485504E-018    1.229501294049855E-024
  1.000000000000011E-004    1.599585665352850E-024
  2.000000000000011E-004    1.876210749521892E-024
  3.000000000000011E-004    2.005337014595601E-024
  4.000000000000011E-004    1.937269098914006E-024
  5.000000000000011E-004    1.633272897086430E-024
  6.000000000000011E-004    1.072374260210909E-024
  7.000000000000011E-004    2.576242009327032E-025
  8.000000000000011E-004   -7.789612521745746E-025
  9.000000000000012E-004   -1.973588604962401E-024
  1.000000000000001E-003   -3.230728566974487E-024
  1.100000000000001E-003   -4.426580787948043E-024
  1.200000000000001E-003   -5.416281866766364E-024
  1.300000000000001E-003   -6.044857284928183E-024
  1.400000000000001E-003   -6.161534275196470E-024
  1.500000000000001E-003   -5.636622803520196E-024
  1.600000000000001E-003   -4.379756194815787E-024
  1.700000000000001E-003   -2.357910004003255E-024
  1.800000000000001E-003    3.886752498291443E-025
  1.900000000000001E-003    3.734715477890736E-024
  2.000000000000001E-003    7.464300776241477E-024
  2.100000000000001E-003    1.127337770766706E-023
  2.200000000000001E-003    1.478175363116496E-023
  2.300000000000001E-003    1.755544624946373E-023
  2.400000000000001E-003    1.913935339147017E-023
  2.500000000000001E-003    1.909918113563687E-023
  2.600000000000001E-003    1.707041622400159E-023
  2.700000000000001E-003    1.281093804789597E-023
  2.800000000000001E-003    6.252741932350679E-024
  2.900000000000001E-003   -2.452656180698779E-024
  3.000000000000001E-003   -1.290114598115046E-023
  3.100000000000001E-003   -2.442136695415021E-023
  3.200000000000001E-003   -3.608403793165047E-023
  3.300000000000001E-003   -4.673962646157580E-023
  3.400000000000001E-003   -5.508673733109640E-023
  3.500000000000001E-003   -5.977100006741131E-023
  3.600000000000001E-003   -5.951095612975947E-023
  3.700000000000001E-003   -5.324391283531655E-023
  3.800000000000001E-003   -4.028105905675980E-023
  3.900000000000001E-003   -2.045784802716242E-023
  4.000000000000001E-003    5.736932286913820E-024
  4.100000000000001E-003    3.707128797903558E-023
  4.200000000000001E-003    7.153698130228572E-023
  4.300000000000001E-003    1.063887301712866E-022
  4.400000000000001E-003    1.382666466453069E-022
  4.500000000000001E-003    1.634065512006460E-022
  4.600000000000002E-003    1.779344258920468E-022
  4.700000000000001E-003    1.782317485955981E-022
  4.800000000000001E-003    1.613483675263137E-022
  4.900000000000002E-003    1.254299730040813E-022
  5.000000000000001E-003    7.011929354873941E-023
  5.100000000000001E-003   -3.114995303668681E-024
  5.200000000000001E-003   -9.076881115030295E-023
  5.300000000000002E-003   -1.872563910759659E-022
  5.400000000000001E-003   -2.850620365874751E-022
  5.500000000000001E-003   -3.751107838562190E-022
  5.600000000000002E-003   -4.473603493393640E-022
  5.700000000000001E-003   -4.915946184096156E-022
  5.800000000000001E-003   -4.983752332227464E-022
  5.900000000000002E-003   -4.600849354603096E-022
  6.000000000000001E-003   -3.719761161144266E-022
  6.100000000000001E-003   -2.331235215786054E-022
  6.200000000000002E-003   -4.717370028039979E-023
  6.300000000000002E-003    1.772133375646963E-022
  6.400000000000001E-003    4.263209651293045E-022
  6.500000000000001E-003    6.817972662312171E-022
  6.600000000000002E-003    9.215729659606987E-022
  6.700000000000001E-003    1.121265617864865E-021
  6.800000000000001E-003    1.256013779764595E-021
  6.900000000000002E-003    1.302637352878489E-021
  7.000000000000001E-003    1.241976655937641E-021
  7.100000000000001E-003    1.061227528796863E-021
  7.200000000000002E-003    7.560655887518358E-022
  7.300000000000002E-003    3.323447654143474E-022
  7.400000000000001E-003   -1.928355069086512E-022
  7.500000000000001E-003   -7.908727294215559E-022
  7.600000000000002E-003   -1.422345275710430E-021
  7.700000000000001E-003   -2.038708944987348E-021
  7.800000000000001E-003   -2.585002610357226E-021
  7.900000000000001E-003   -3.003477064322361E-021
  8.000000000000002E-003   -3.237977565259366E-021
  8.100000000000001E-003   -3.238828762271578E-021
  8.200000000000001E-003   -2.967900028275638E-021
  8.300000000000002E-003   -2.403474442387887E-021
  8.400000000000001E-003   -1.544510369282426E-021
  8.500000000000002E-003   -4.138773010837924E-022
  8.600000000000002E-003    9.398297649119450E-022
  8.700000000000001E-003    2.442239997298572E-021
  8.800000000000002E-003    3.995177173166129E-021
  8.900000000000002E-003    5.480791633378077E-021
  9.000000000000001E-003    6.767851942807544E-021
  9.100000000000002E-003    7.720032824735281E-021
  9.200000000000002E-003    8.205862294039781E-021
  9.300000000000001E-003    8.109816384816333E-021
  9.400000000000002E-003    7.343886736903641E-021
  9.500000000000001E-003    5.858811502964297E-021
  9.600000000000001E-003    3.654060466000367E-021
  9.700000000000002E-003    7.856235057064411E-022
  9.800000000000001E-003   -2.629329558455606E-021
  9.900000000000001E-003   -6.411754762917517E-021
  1.000000000000000E-002   -1.032467190679522E-020
  1.010000000000000E-002   -1.408215610867856E-020
  1.020000000000000E-002   -1.736349010379175E-020
  1.030000000000000E-002   -1.983221017898434E-020
  1.040000000000000E-002   -2.115938407056833E-020
  1.050000000000000E-002   -2.105003324108876E-020
  1.060000000000000E-002   -1.927121937474978E-020
  1.070000000000000E-002   -1.567996921635456E-020
  1.080000000000000E-002   -1.024893248022489E-020
  1.090000000000000E-002   -3.087516457916389E-021
  1.100000000000000E-002    5.543792131762924E-021
  1.110000000000000E-002    1.522806610317201E-020
  1.120000000000000E-002    2.539740021253723E-020
  1.130000000000000E-002    3.535056784262878E-020
  1.140000000000000E-002    4.428359994671391E-020
  1.150000000000000E-002    5.133321141531144E-020
  1.160000000000000E-002    5.563205216419780E-020
  1.170000000000000E-002    5.637374741145486E-020
  1.180000000000000E-002    5.288460790665735E-020
  1.190000000000000E-002    4.469785735220664E-020
  1.200000000000000E-002    3.162529184432181E-020
  1.210000000000000E-002    1.382052932536106E-020
  1.220000000000000E-002   -8.172437908625272E-021
  1.230000000000000E-002   -3.339175636178082E-020
  1.240000000000000E-002   -6.045727730878752E-020
  1.250000000000000E-002   -8.760219538429936E-020
  1.260000000000000E-002   -1.127403177466179E-019
  1.270000000000000E-002   -1.335703593496592E-019
  1.280000000000000E-002   -1.477160798689736E-019
  1.290000000000000E-002   -1.528979244066433E-019
  1.300000000000000E-002   -1.471285584916205E-019
  1.310000000000000E-002   -1.289211972306878E-019
  1.320000000000000E-002   -9.749655205665534E-020
  1.330000000000000E-002   -5.297150524675261E-020
  1.340000000000000E-002    3.488980673532291E-021
  1.350000000000000E-002    6.957584146525358E-020
  1.360000000000000E-002    1.418138018111020E-019
  1.370000000000000E-002    2.156285779699941E-019
  1.380000000000000E-002    2.855142219359138E-019
  1.390000000000000E-002    3.453052511132389E-019
  1.400000000000000E-002    3.885503505685242E-019
  1.410000000000000E-002    4.089754715908495E-019
  1.420000000000000E-002    4.010147219125541E-019
  1.430000000000000E-002    3.603777841509766E-019
  1.440000000000000E-002    2.846142762474673E-019
  1.450000000000000E-002    1.736285780622912E-019
  1.460000000000000E-002    3.009475626905709E-020
  1.470000000000000E-002   -1.402795259421765E-019
  1.480000000000000E-002   -3.286874570954990E-019
  1.490000000000000E-002   -5.233952141851627E-019
  1.500000000000000E-002   -7.101785293422954E-019
  1.510000000000000E-002   -8.730331970095734E-019
  1.520000000000000E-002   -9.951482582268210E-019
  1.530000000000000E-002   -1.060107753293182E-018
  1.540000000000000E-002   -1.053261985200991E-018
  1.550000000000000E-002   -9.631861250262971E-019
  1.560000000000000E-002   -7.831231997299578E-019
  1.570000000000000E-002   -5.122924824463988E-019
  1.580000000000000E-002   -1.569361190571318E-019
  1.590000000000000E-002    2.690232035230707E-019
  1.600000000000000E-002    7.438298953753635E-019
  1.610000000000000E-002    1.238342416264592E-018
  1.620000000000000E-002    1.717140545552505E-018
  1.630000000000000E-002    2.140311051905262E-018
  1.640000000000000E-002    2.465876266685638E-018
  1.650000000000000E-002    2.652774680559609E-018
  1.660000000000000E-002    2.664242442467364E-018
  1.670000000000000E-002    2.471389206068547E-018
  1.680000000000000E-002    2.056713257218548E-018
  1.690000000000000E-002    1.417267448743759E-018
  1.700000000000000E-002    5.671691189680140E-019
  1.710000000000000E-002   -4.608455980844069E-019
  1.720000000000000E-002   -1.615093658266428E-018
  1.730000000000000E-002   -2.826055748717125E-018
  1.740000000000000E-002   -4.009055644546847E-018
  1.750000000000000E-002   -5.068535337311423E-018
  1.760000000000000E-002   -5.903826864758193E-018
  1.770000000000000E-002   -6.416192588453428E-018
  1.780000000000000E-002   -6.516769410879281E-018
  1.790000000000000E-002   -6.134930626805570E-018
  1.800000000000000E-002   -5.226473958184698E-018
  1.810000000000000E-002   -3.780973401575185E-018
  1.820000000000000E-002   -1.827603341719045E-018
  1.830000000000000E-002    5.612373416600544E-019
  1.840000000000000E-002    3.269096968306125E-018
  1.850000000000000E-002    6.137904349045024E-018
  1.860000000000000E-002    8.973942889767023E-018
  1.870000000000000E-002    1.155741003437459E-017