 -4.000000000000000E-002    0.000000000000000E+000
 -3.990000000000000E-002    0.000000000000000E+000
 -3.980000000000000E-002    0.000000000000000E+000
 -3.970000000000000E-002    0.000000000000000E+000
 -3.960000000000000E-002    0.000000000000000E+000
 -3.950000000000000E-002    0.000000000000000E+000
 -3.940000000000000E-002    0.000000000000000E+000
 -3.930000000000000E-002    0.000000000000000E+000
 -3.920000000000000E-002    0.000000000000000E+000
 -3.910000000000000E-002    0.000000000000000E+000
 -3.900000000000000E-002    0.000000000000000E+000
 -3.890000000000000E-002    0.000000000000000E+000
 -3.880000000000000E-002    0.000000000000000E+000
 -3.870000000000000E-002    0.000000000000000E+000
 -3.860000000000000E-002    0.000000000000000E+000
 -3.850000000000000E-002    0.000000000000000E+000
 -3.840000000000000E-002    0.000000000000000E+000
 -3.830000000000000E-002    0.000000000000000E+000
 -3.820000000000000E-002    0.000000000000000E+000
 -3.810000000000000E-002    0.000000000000000E+000
 -3.800000000000000E-002    0.000000000000000E+000
 -3.790000000000000E-002    0.000000000000000E+000
 -3.780000000000000E-002    0.000000000000000E+000
 -3.770000000000000E-002    0.000000000000000E+000
 -3.760000000000000E-002    0.000000000000000E+000
 -3.750000000000000E-002    0.000000000000000E+000
 -3.740000000000000E-002    0.000000000000000E+000
 -3.730000000000000E-002    0.000000000000000E+000
 -3.720000000000000E-002    0.000000000000000E+000
 -3.710000000000000E-002    0.000000000000000E+000
 -3.700000000000000E-002    0.000000000000000E+000
 -3.690000000000000E-002    0.000000000000000E+000
 -3.680000000000000E-002    0.000000000000000E+000
 -3.670000000000000E-002    0.000000000000000E+000
 -3.660000000000000E-002    0.000000000000000E+000
 -3.650000000000000E-002    0.000000000000000E+000
 -3.640000000000000E-002    0.000000000000000E+000
 -3.630000000000000E-002    0.000000000000000E+000
 -3.620000000000000E-002    0.000000000000000E+000
 -3.610000000000000E-002    0.000000000000000E+000
 -3.600000000000000E-002    0.000000000000000E+000
 -3.590000000000000E-002    0.000000000000000E+000
 -3.580000000000000E-002    0.000000000000000E+000
 -3.570000000000000E-002    0.000000000000000E+000
 -3.560000000000000E-002    0.000000000000000E+000
 -3.550000000000000E-002    0.000000000000000E+000
 -3.540000000000000E-002    0.000000000000000E+000
 -3.530000000000000E-002    0.000000000000000E+000
 -3.520000000000000E-002    0.000000000000000E+000
 -3.510000000000000E-002    0.000000000000000E+000
 -3.500000000000000E-002    0.000000000000000E+000
 -3.490000000000000E-002    0.000000000000000E+000
 -3.480000000000000E-002    0.000000000000000E+000
 -3.470000000000000E-002    0.000000000000000E+000
 -3.460000000000000E-002    0.000000000000000E+000
 -3.450000000000000E-002    0.000000000000000E+000
 -3.440000000000000E-002    0.000000000000000E+000
 -3.430000000000000E-002    0.000000000000000E+000
 -3.420000000000000E-002    0.000000000000000E+000
 -3.410000000000000E-002    0.000000000000000E+000
 -3.400000000000000E-002    0.000000000000000E+000
 -3.390000000000000E-002    0.000000000000000E+000
 -3.380000000000000E-002    0.000000000000000E+000
 -3.370000000000000E-002    0.000000000000000E+000
 -3.360000000000000E-002    0.000000000000000E+000
 -3.350000000000000E-002    0.000000000000000E+000
 -3.340000000000000E-002    0.000000000000000E+000
 -3.330000000000000E-002    0.000000000000000E+000
 -3.320000000000000E-002    0.000000000000000E+000
 -3.310000000000000E-002    0.000000000000000E+000
 -3.300000000000000E-002    0.000000000000000E+000
 -3.290000000000000E-002    0.000000000000000E+000
 -3.280000000000000E-002    0.000000000000000E+000
 -3.270000000000000E-002    0.000000000000000E+000
 -3.260000000000000E-002    0.000000000000000E+000
 -3.250000000000000E-002    0.000000000000000E+000
 -3.240000000000000E-002    0.000000000000000E+000
 -3.230000000000000E-002    0.000000000000000E+000
 -3.220000000000000E-002    0.000000000000000E+000
 -3.210000000000000E-002    0.000000000000000E+000
 -3.200000000000000E-002    0.000000000000000E+000
 -3.190000000000000E-002    0.000000000000000E+000
 -3.180000000000000E-002    0.000000000000000E+000
 -3.170000000000000E-002    0.000000000000000E+000
 -3.160000000000000E-002    0.000000000000000E+000
 -3.150000000000000E-002    0.000000000000000E+000
 -3.140000000000000E-002    0.000000000000000E+000
 -3.130000000000000E-002    0.000000000000000E+000
 -3.120000000000000E-002    0.000000000000000E+000
 -3.110000000000000E-002    0.000000000000000E+000
 -3.100000000000000E-002    0.000000000000000E+000
 -3.090000000000000E-002    0.000000000000000E+000
 -3.080000000000000E-002    0.000000000000000E+000
 -3.070000000000000E-002    0.000000000000000E+000
 -3.060000000000000E-002    0.000000000000000E+000
 -3.050000000000000E-002    0.000000000000000E+000
 -3.040000000000000E-002    0.000000000000000E+000
 -3.030000000000000E-002    0.000000000000000E+000
 -3.020000000000000E-002    0.000000000000000E+000
 -3.010000000000000E-002    0.000000000000000E+000
 -3.000000000000000E-002    0.000000000000000E+000
 -2.990000000000000E-002    0.000000000000000E+000
 -2.980000000000000E-002    0.000000000000000E+000
 -2.970000000000000E-002    0.000000000000000E+000
 -2.960000000000000E-002    0.000000000000000E+000
 -2.950000000000000E-002    0.000000000000000E+000
 -2.940000000000000E-002    0.000000000000000E+000
 -2.930000000000000E-002    0.000000000000000E+000
 -2.920000000000000E-002    0.000000000000000E+000
 -2.910000000000000E-002    0.000000000000000E+000
 -2.900000000000000E-002    0.000000000000000E+000
 -2.890000000000000E-002    0.000000000000000E+000
 -2.880000000000000E-002    0.000000000000000E+000
 -2.870000000000000E-002    0.000000000000000E+000
 -2.860000000000000E-002    0.000000000000000E+000
 -2.850000000000000E-002    0.000000000000000E+000
 -2.840000000000000E-002    0.000000000000000E+000
 -2.830000000000000E-002    0.000000000000000E+000
 -2.820000000000000E-002    0.000000000000000E+000
 -2.810000000000000E-002    0.000000000000000E+000
 -2.800000000000000E-002    0.000000000000000E+000
 -2.790000000000000E-002    0.000000000000000E+000
 -2.780000000000000E-002    0.000000000000000E+000
 -2.770000000000000E-002    0.000000000000000E+000
 -2.760000000000000E-002    0.000000000000000E+000
 -2.750000000000000E-002    0.000000000000000E+000
 -2.740000000000000E-002    0.000000000000000E+000
 -2.730000000000000E-002    0.000000000000000E+000
 -2.720000000000000E-002    0.000000000000000E+000
 -2.710000000000000E-002    0.000000000000000E+000
 -2.700000000000000E-002    0.000000000000000E+000
 -2.690000000000000E-002    0.000000000000000E+000
 -2.680000000000000E-002    0.000000000000000E+000
 -2.670000000000000E-002    0.000000000000000E+000
 -2.660000000000000E-002    0.000000000000000E+000
 -2.650000000000000E-002    0.000000000000000E+000
 -2.640000000000000E-002    0.000000000000000E+000
 -2.630000000000000E-002    0.000000000000000E+000
 -2.620000000000000E-002    0.000000000000000E+000
 -2.610000000000000E-002    0.000000000000000E+000
 -2.600000000000000E-002    0.000000000000000E+000
 -2.590000000000000E-002    0.000000000000000E+000
 -2.580000000000000E-002    0.000000000000000E+000
 -2.570000000000000E-002    0.000000000000000E+000
 -2.560000000000000E-002    0.000000000000000E+000
 -2.550000000000000E-002    0.000000000000000E+000
 -2.540000000000000E-002    0.000000000000000E+000
 -2.530000000000000E-002    0.000000000000000E+000
 -2.520000000000000E-002    0.000000000000000E+000
 -2.510000000000000E-002    0.000000000000000E+000
 -2.500000000000000E-002    0.000000000000000E+000
 -2.490000000000000E-002    0.000000000000000E+000
 -2.480000000000000E-002    0.000000000000000E+000
 -2.470000000000000E-002    0.000000000000000E+000
 -2.460000000000000E-002    0.000000000000000E+000
 -2.450000000000000E-002    0.000000000000000E+000
 -2.440000000000000E-002    0.000000000000000E+000
 -2.430000000000000E-002    0.000000000000000E+000
 -2.420000000000000E-002    0.000000000000000E+000
 -2.410000000000000E-002    0.000000000000000E+000
 -2.400000000000000E-002    0.000000000000000E+000
 -2.390000000000000E-002    0.000000000000000E+000
 -2.380000000000000E-002    0.000000000000000E+000
 -2.370000000000000E-002    0.000000000000000E+000
 -2.360000000000000E-002    0.000000000000000E+000
 -2.350000000000000E-002    0.000000000000000E+000
 -2.340000000000000E-002    0.000000000000000E+000
 -2.330000000000000E-002    0.000000000000000E+000
 -2.320000000000000E-002    0.000000000000000E+000
 -2.310000000000000E-002    0.000000000000000E+000
 -2.300000000000000E-002    0.000000000000000E+000
 -2.290000000000000E-002    0.000000000000000E+000
 -2.280000000000000E-002    0.000000000000000E+000
 -2.270000000000000E-002    0.000000000000000E+000
 -2.260000000000000E-002    0.000000000000000E+000
 -2.250000000000000E-002    0.000000000000000E+000
 -2.240000000000000E-002    0.000000000000000E+000
 -2.230000000000000E-002    0.000000000000000E+000
 -2.220000000000000E-002    0.000000000000000E+000
 -2.210000000000000E-002    0.000000000000000E+000
 -2.200000000000000E-002    0.000000000000000E+000
 -2.190000000000000E-002    0.000000000000000E+000
 -2.180000000000000E-002    0.000000000000000E+000
 -2.170000000000000E-002    0.000000000000000E+000
 -2.160000000000000E-002    0.000000000000000E+000
 -2.150000000000000E-002    0.000000000000000E+000
 -2.140000000000000E-002    0.000000000000000E+000
 -2.130000000000000E-002    0.000000000000000E+000
 -2.120000000000000E-002    0.000000000000000E+000
 -2.110000000000000E-002    0.000000000000000E+000
 -2.100000000000000E-002    0.000000000000000E+000
 -2.090000000000000E-002    0.000000000000000E+000
 -2.080000000000000E-002    0.000000000000000E+000
 -2.070000000000000E-002    0.000000000000000E+000
 -2.060000000000000E-002    0.000000000000000E+000
 -2.050000000000000E-002    0.000000000000000E+000
 -2.040000000000000E-002    0.000000000000000E+000
 -2.030000000000000E-002    0.000000000000000E+000
 -2.020000000000000E-002    0.000000000000000E+000
 -2.010000000000000E-002    0.000000000000000E+000
 -2.000000000000000E-002    0.000000000000000E+000
 -1.990000000000000E-002    0.000000000000000E+000
 -1.980000000000000E-002    0.000000000000000E+000
 -1.970000000000000E-002    0.000000000000000E+000
 -1.960000000000000E-002    0.000000000000000E+000
 -1.950000000000000E-002    0.000000000000000E+000
 -1.940000000000000E-002    0.000000000000000E+000
 -1.930000000000000E-002    0.000000000000000E+000
 -1.920000000000000E-002    0.000000000000000E+000
 -1.910000000000000E-002    0.000000000000000E+000
 -1.900000000000000E-002    0.000000000000000E+000
 -1.890000000000000E-002    0.000000000000000E+000
 -1.880000000000000E-002    0.000000000000000E+000
 -1.870000000000000E-002    0.000000000000000E+000
 -1.860000000000000E-002    0.000000000000000E+000
 -1.850000000000000E-002    0.000000000000000E+000
 -1.840000000000000E-002    0.000000000000000E+000
 -1.830000000000000E-002    0.000000000000000E+000
 -1.820000000000000E-002    0.000000000000000E+000
 -1.810000000000000E-002    0.000000000000000E+000
 -1.800000000000000E-002    0.000000000000000E+000
 -1.790000000000000E-002    0.000000000000000E+000
 -1.780000000000000E-002    0.000000000000000E+000
 -1.770000000000000E-002    0.000000000000000E+000
 -1.760000000000000E-002    0.000000000000000E+000
 -1.750000000000000E-002    0.000000000000000E+000
 -1.740000000000000E-002    0.000000000000000E+000
 -1.730000000000000E-002    0.000000000000000E+000
 -1.720000000000000E-002    0.000000000000000E+000
 -1.710000000000000E-002    0.000000000000000E+000
 -1.700000000000000E-002    0.000000000000000E+000
 -1.690000000000000E-002    0.000000000000000E+000
 -1.680000000000000E-002    0.000000000000000E+000
 -1.670000000000000E-002    0.000000000000000E+000
 -1.660000000000000E-002    0.000000000000000E+000
 -1.650000000000000E-002    0.000000000000000E+000
 -1.640000000000000E-002    0.000000000000000E+000
 -1.630000000000000E-002    0.000000000000000E+000
 -1.620000000000000E-002    0.000000000000000E+000
 -1.610000000000000E-002    0.000000000000000E+000
 -1.600000000000000E-002    0.000000000000000E+000
 -1.590000000000000E-002    0.000000000000000E+000
 -1.580000000000000E-002    0.000000000000000E+000
 -1.570000000000000E-002    0.000000000000000E+000
 -1.560000000000000E-002    0.000000000000000E+000
 -1.550000000000000E-002    0.000000000000000E+000
 -1.540000000000000E-002    0.000000000000000E+000
 -1.530000000000000E-002    0.000000000000000E+000
 -1.520000000000000E-002    0.000000000000000E+000
 -1.510000000000000E-002    0.000000000000000E+000
 -1.500000000000000E-002    0.000000000000000E+000
 -1.490000000000000E-002    0.000000000000000E+000
 -1.480000000000000E-002    0.000000000000000E+000
 -1.470000000000000E-002    0.000000000000000E+000
 -1.460000000000000E-002    0.000000000000000E+000
 -1.450000000000000E-002    0.000000000000000E+000
 -1.440000000000000E-002    0.000000000000000E+000
 -1.430000000000000E-002    0.000000000000000E+000
 -1.420000000000000E-002    0.000000000000000E+000
 -1.410000000000000E-002    0.000000000000000E+000
 -1.400000000000000E-002    0.000000000000000E+000
 -1.390000000000000E-002    0.000000000000000E+000
 -1.380000000000000E-002    0.000000000000000E+000
 -1.370000000000000E-002    0.000000000000000E+000
 -1.360000000000000E-002    0.000000000000000E+000
 -1.350000000000000E-002    0.000000000000000E+000
 -1.340000000000000E-002    0.000000000000000E+000
 -1.330000000000000E-002    0.000000000000000E+000
 -1.320000000000000E-002    0.000000000000000E+000
 -1.310000000000000E-002    0.000000000000000E+000
 -1.300000000000000E-002    0.000000000000000E+000
 -1.290000000000000E-002    0.000000000000000E+000
 -1.280000000000000E-002    0.000000000000000E+000
 -1.270000000000000E-002    0.000000000000000E+000
 -1.260000000000000E-002    0.000000000000000E+000
 -1.250000000000000E-002    0.000000000000000E+000
 -1.240000000000000E-002    0.000000000000000E+000
 -1.230000000000000E-002    0.000000000000000E+000
 -1.220000000000000E-002    0.000000000000000E+000
 -1.210000000000000E-002    0.000000000000000E+000
 -1.200000000000000E-002    0.000000000000000E+000
 -1.190000000000000E-002    1.385494585880785E-048
 -1.180000000000000E-002    2.770989171761569E-048
 -1.170000000000000E-002    4.156483757642354E-048
 -1.160000000000000E-002    6.927472929403923E-048
 -1.150000000000000E-002    8.312967515284707E-048
 -1.140000000000000E-002    1.237708503452394E-047
 -1.130000000000000E-002    9.463336633241156E-048
 -1.120000000000000E-002    3.778599060196797E-048
 -1.110000000000000E-002   -2.948101605437488E-047
 -1.100000000000000E-002   -7.096123244582815E-047
 -1.090000000000000E-002   -9.992227926363649E-047
 -1.080000000000000E-002   -1.301260614378044E-046
 -1.070000000000000E-002   -1.408832011089235E-046
 -1.060000000000000E-002   -1.426803380573070E-046
 -1.050000000000000E-002   -1.106179457604126E-046
 -1.040000000000000E-002   -6.893054319686385E-047
 -1.030000000000000E-002    2.038332395475921E-047
 -1.020000000000000E-002    2.002678283779243E-046
 -1.010000000000000E-002    4.689704838835725E-046
 -1.000000000000000E-002    6.987918144920211E-046
 -9.899999999999999E-003    1.076684727567273E-045
 -9.800000000000000E-003    1.392524642010479E-045
 -9.699999999999999E-003    1.589882379325527E-045
 -9.599999999999999E-003    1.428432522970270E-045
 -9.500000000000000E-003    8.487819991412099E-046
 -9.399999999999999E-003   -8.873065019360611E-047
 -9.299999999999999E-003   -1.547158754621490E-045
 -9.200000000000000E-003   -3.566790446949335E-045
 -9.099999999999999E-003   -5.507626343888584E-045
 -8.999999999999999E-003   -7.328215193983317E-045
 -8.900000000000000E-003   -8.644824877195846E-045
 -8.799999999999999E-003   -9.106404971813191E-045
 -8.699999999999999E-003   -8.075835572637644E-045
 -8.600000000000000E-003   -5.082097717724204E-045
 -8.499999999999999E-003   -1.843155997366212E-046
 -8.399999999999999E-003    7.992852447515977E-045
 -8.300000000000000E-003    1.801233814936350E-044
 -8.199999999999999E-003    2.864784649417850E-044
 -8.100000000000000E-003    3.911360460714339E-044
 -8.000000000000000E-003    4.805456221740065E-044
 -7.899999999999999E-003    5.203559990762707E-044
 -7.800000000000000E-003    4.775251948667808E-044
 -7.699999999999999E-003    3.391401197781667E-044
 -7.599999999999999E-003    7.550264521843237E-045
 -7.499999999999999E-003   -3.048462659989263E-044
 -7.399999999999999E-003   -7.864005297594454E-044
 -7.299999999999999E-003   -1.326753019694188E-043
 -7.199999999999999E-003   -1.859883367438286E-043
 -7.100000000000000E-003   -2.275762532810262E-043
 -6.999999999999999E-003   -2.470375542142427E-043
 -6.899999999999999E-003   -2.324782768403611E-043
 -6.800000000000000E-003   -1.743984085817449E-043
 -6.699999999999999E-003   -6.515077788791341E-044
 -6.599999999999999E-003    9.431009011403753E-044
 -6.499999999999999E-003    2.958070084985311E-043
 -6.399999999999999E-003    5.228922626779542E-043
 -6.299999999999999E-003    7.468476849161320E-043
 -6.199999999999999E-003    9.311989491398229E-043
 -6.100000000000000E-003    1.035816800661824E-042
 -5.999999999999999E-003    1.019022453255083E-042
 -5.899999999999999E-003    8.457237767780899E-043
 -5.800000000000000E-003    4.935109050270343E-043
 -5.699999999999999E-003   -4.016920682731253E-044
 -5.599999999999999E-003   -7.338725287728461E-043
 -5.499999999999999E-003   -1.538563359165172E-042
 -5.399999999999999E-003   -2.377666976320420E-042
 -5.299999999999999E-003   -3.153018695919576E-042
 -5.199999999999999E-003   -3.752679547126347E-042
 -5.099999999999999E-003   -4.062219419059841E-042
 -4.999999999999999E-003   -3.973022566142785E-042
 -4.899999999999999E-003   -3.397320450903939E-042
 -4.799999999999999E-003   -2.277136772959278E-042
 -4.699999999999999E-003   -5.866092349600948E-043
 -4.599999999999999E-003    1.661537595042263E-042
 -4.499999999999999E-003    4.416982667921738E-042
 -4.399999999999999E-003    7.590051936774972E-042
 -4.299999999999999E-003    1.104514882202639E-041
 -4.199999999999999E-003    1.458183313770332E-041
 -4.099999999999999E-003    1.791303000562872E-041
 -3.999999999999999E-003    2.062369952941795E-041
 -3.899999999999999E-003    2.213655123331771E-041
 -3.799999999999999E-003    2.168189366727304E-041
 -3.699999999999999E-003    1.829955885764002E-041
 -3.599999999999999E-003    1.089524197661918E-041
 -3.499999999999999E-003   -1.621784705336688E-042
 -3.399999999999999E-003   -2.011188578267410E-041
 -3.299999999999999E-003   -4.486555099807155E-041
 -3.199999999999999E-003   -7.519169857032586E-041
 -3.099999999999999E-003   -1.089682755944786E-040
 -2.999999999999999E-003   -1.422414502113554E-040
 -2.899999999999999E-003   -1.689955550920968E-040
 -2.799999999999999E-003   -1.812285104691519E-040
 -2.699999999999999E-003   -1.694804458788807E-040
 -2.599999999999999E-003   -1.239181357930183E-040
 -2.499999999999999E-003   -3.603942545311527E-041
 -2.399999999999999E-003    9.905533489069958E-041
 -2.299999999999999E-003    2.800324537231778E-040
 -2.199999999999999E-003    4.966677077281438E-040
 -2.099999999999999E-003    7.276800577364868E-040
 -1.999999999999999E-003    9.396903917602867E-040
 -1.899999999999999E-003    1.087975795147036E-039
 -1.799999999999999E-003    1.119644096250812E-039
 -1.699999999999999E-003    9.796306988232889E-040
 -1.599999999999999E-003    6.195484636324670E-040
 -1.499999999999999E-003    8.924764236494861E-042
 -1.399999999999999E-003   -8.522852179982560E-040
 -1.299999999999999E-003   -1.921660114683682E-039
 -1.199999999999999E-003   -3.105070363844952E-039
 -1.099999999999999E-003   -4.252910864611140E-039
 -9.999999999999989E-004   -5.164471206424132E-039
 -8.999999999999990E-004   -5.602634034224002E-039
 -7.999999999999990E-004   -5.320035199836322E-039
 -6.999999999999989E-004   -4.096238806266713E-039
 -5.999999999999990E-004   -1.783426439933291E-039
 -4.999999999999989E-004    1.644191740967016E-039
 -3.999999999999989E-004    6.044225525432808E-039
 -2.999999999999989E-004    1.107191898566265E-038
 -1.999999999999989E-004    1.616738642142711E-038
 -9.999999999999892E-005    2.057315868943229E-038
  1.084202172485504E-018    2.338866210009803E-038
  1.000000000000011E-004    2.366426474670916E-038
  2.000000000000011E-004    2.053190755391134E-038
  3.000000000000011E-004    1.336262150054077E-038
  4.000000000000011E-004    1.934199323892597E-039
  5.000000000000011E-004   -1.341396800136682E-038
  6.000000000000011E-004   -3.166620726202858E-038
  7.000000000000011E-004   -5.108445786544508E-038
  8.000000000000011E-004   -6.925611290833950E-038
  9.000000000000012E-004   -8.325349343309064E-038
  1.000000000000001E-003   -8.991022290676769E-038
  1.100000000000001E-003   -8.620375294536359E-038
  1.200000000000001E-003   -6.971503159925038E-038
  1.300000000000001E-003   -3.911843478838909E-038
  1.400000000000001E-003    5.359950443500188E-039
  1.500000000000001E-003    6.158641987552434E-038
  1.600000000000001E-003    1.253376279252952E-037
  1.700000000000001E-003    1.903541014568577E-037
  1.800000000000001E-003    2.486711514638406E-037
  1.900000000000001E-003    2.912393033296855E-037
  2.000000000000001E-003    3.088104867082371E-037
  2.100000000000001E-003    2.930275243140966E-037
  2.200000000000001E-003    2.376188049151596E-037
  2.300000000000001E-003    1.395721351022885E-037
  2.400000000000001E-003    1.470787268038989E-040
  2.500000000000001E-003   -1.744136015779810E-037
  2.600000000000001E-003   -3.725943632877903E-037
  2.700000000000001E-003   -5.778257837355594E-037
  2.800000000000001E-003   -7.692520915872107E-037
  2.900000000000001E-003   -9.230368704074080E-037
  3.000000000000001E-003   -1.014144936043689E-036
  3.100000000000001E-003   -1.018497260379956E-036
  3.200000000000001E-003   -9.153662572065126E-037
  3.300000000000001E-003   -6.898644303158572E-037
  3.400000000000001E-003   -3.353787128761409E-037
  3.500000000000001E-003    1.441919886783140E-037
  3.600000000000001E-003    7.325323566856469E-037
  3.700000000000001E-003    1.399479933132181E-036
  3.800000000000001E-003    2.100231762262092E-036
  3.900000000000001E-003    2.775389079856503E-036
  4.000000000000001E-003    3.352098628220621E-036
  4.100000000000001E-003    3.746600213099893E-036
  4.200000000000001E-003    3.868522042524590E-036
  4.300000000000001E-003    3.627248519881343E-036
  4.400000000000001E-003    2.940579506935860E-036
  4.500000000000001E-003    1.745697612010004E-036
  4.600000000000002E-003    1.212848972872595E-038
  4.700000000000001E-003   -2.244058000095326E-036
  4.800000000000001E-003   -4.946079358849298E-036
  4.900000000000002E-003   -7.944122174970162E-036
  5.000000000000001E-003   -1.100717032989402E-035
  5.100000000000001E-003   -1.382160006395774E-035
  5.200000000000001E-003   -1.599919232538984E-035
  5.300000000000002E-003   -1.709690442888619E-035
  5.400000000000001E-003   -1.664997865050029E-035
  5.500000000000001E-003   -1.421874063217918E-035
  5.600000000000002E-003   -9.447812065538141E-036
  5.700000000000001E-003   -2.134490583219698E-036
  5.800000000000001E-003    7.699043922077499E-036
  5.900000000000002E-003    1.973710550656425E-035
  6.000000000000001E-003    3.331456018859299E-035
  6.100000000000001E-003    4.738382777540293E-035
  6.200000000000002E-003    6.051536324312747E-035
  6.300000000000002E-003    7.094139266356466E-035
  6.400000000000001E-003    7.665075356003109E-035
  6.500000000000001E-003    7.553940094712158E-035
  6.600000000000002E-003    6.561667237694785E-035
  6.700000000000001E-003    4.526162143130716E-035
  6.800000000000001E-003    1.351701648833309E-035
  6.900000000000002E-003   -2.959894897772102E-035
  7.000000000000001E-003   -8.279108146357534E-035
  7.100000000000001E-003   -1.432312192418968E-034
  7.200000000000002E-003   -2.063900787953755E-034
  7.300000000000002E-003   -2.660038369808290E-034
  7.400000000000001E-003   -3.142234670492826E-034
  7.500000000000001E-003   -3.419917034078896E-034
  7.600000000000002E-003   -3.396820032713266E-034
  7.700000000000001E-003   -2.980163570956683E-034
  7.800000000000001E-003   -2.092510212005543E-034
  7.900000000000001E-003   -6.858332207958709E-035
  8.000000000000002E-003    1.243129508657090E-034
  8.100000000000001E-003    3.637654969871049E-034
  8.200000000000001E-003    6.367884890860515E-034
  8.300000000000002E-003    9.222118338088949E-034
  8.400000000000001E-003    1.190520768001961E-033
  8.500000000000002E-003    1.404674712176154E-033
  8.600000000000002E-003    1.522140021124602E-033
  8.700000000000001E-003    1.498292694101839E-033
  8.800000000000002E-003    1.291219206198229E-033
  8.900000000000002E-003    8.677636445178901E-034
  9.000000000000001E-003    2.104533730933944E-034
  9.100000000000002E-003   -6.753087154045614E-034
  9.200000000000002E-003   -1.754633911435032E-033
  9.300000000000001E-003   -2.958166874967909E-033
  9.400000000000002E-003   -4.179900889813979E-033
  9.500000000000001E-003   -5.278953092179646E-033
  9.600000000000001E-003   -6.086298580058548E-033
  9.700000000000002E-003   -6.417115671984644E-033
  9.800000000000001E-003   -6.088854240853822E-033
  9.900000000000001E-003   -4.944421627291357E-033
  1.000000000000000E-002   -2.879035748524796E-033
  1.010000000000000E-002    1.315886801066927E-034
  1.020000000000000E-002    4.004906284626957E-033
  1.030000000000000E-002    8.530886921870310E-033
  1.040000000000000E-002    1.336120999546120E-032
  1.050000000000000E-002    1.801237533369739E-032
  1.060000000000000E-002    2.188613714502174E-032
  1.070000000000000E-002    2.430944006071941E-032
  1.080000000000000E-002    2.459417744070308E-032
  1.090000000000000E-002    2.211477709744114E-032
  1.100000000000000E-002    1.639893795648852E-032
  1.110000000000000E-002    7.224076147549488E-033
  1.120000000000000E-002   -5.290469428033010E-033
  1.130000000000000E-002   -2.060739518658511E-032
  1.140000000000000E-002   -3.772448543548268E-032
  1.150000000000000E-002   -5.516940537839622E-032
  1.160000000000000E-002   -7.104715510972234E-032
  1.170000000000000E-002   -8.314766023131873E-032
  1.180000000000000E-002   -8.911592881412053E-032
  1.190000000000000E-002   -8.668079602487481E-032
  1.200000000000000E-002   -7.393081861786777E-032
  1.210000000000000E-002   -4.961800779513878E-032
  1.220000000000000E-002   -1.346256972745288E-032
  1.230000000000000E-002    3.357450806386198E-032
  1.240000000000000E-002    8.908841798332452E-032
  1.250000000000000E-002    1.491356700360307E-031
  1.260000000000000E-002    2.082835310632581E-031
  1.270000000000000E-002    2.598329261846327E-031
  1.280000000000000E-002    2.962326530085612E-031
  1.290000000000000E-002    3.096865639976220E-031
  1.300000000000000E-002    2.929357164546347E-031
  1.310000000000000E-002    2.401746298419148E-031
  1.320000000000000E-002    1.480368608449251E-031
  1.330000000000000E-002    1.656224160369133E-032
  1.340000000000000E-002   -1.499616407334595E-031
  1.350000000000000E-002   -3.424042056673811E-031
  1.360000000000000E-002   -5.465672697395693E-031
  1.370000000000000E-002   -7.434471980060309E-031
  1.380000000000000E-002   -9.100775312005199E-031
  1.390000000000000E-002   -1.021007017157322E-030
  1.400000000000000E-002   -1.050414289967683E-030
  1.410000000000000E-002   -9.747913972599389E-031
  1.420000000000000E-002   -7.760504459265291E-031
  1.430000000000000E-002   -4.448232600929282E-031
  1.440000000000000E-002    1.635502612781486E-032
  1.450000000000000E-002    5.903547657701328E-031
  1.460000000000000E-002    1.243670704046265E-030
  1.470000000000000E-002    1.925975679996934E-030
  1.480000000000000E-002    2.571393493201843E-030
  1.490000000000000E-002    3.101782370161644E-030
  1.500000000000000E-002    3.432170603866446E-030
  1.510000000000000E-002    3.478281672065773E-030
  1.520000000000000E-002    3.165836002019549E-030
  1.530000000000000E-002    2.441042198942462E-030
  1.540000000000000E-002    1.281408146886058E-030
  1.550000000000000E-002   -2.942418289249416E-031
  1.560000000000000E-002   -2.217848409835187E-030
  1.570000000000000E-002   -4.367676230810871E-030
  1.580000000000000E-002   -6.568677165321214E-030
  1.590000000000000E-002   -8.598763242303205E-030
  1.600000000000000E-002   -1.020169830601370E-029
  1.610000000000000E-002   -1.110673854329243E-029
  1.620000000000000E-002   -1.105444204386321E-029
  1.630000000000000E-002   -9.827236110069784E-030
  1.640000000000000E-002   -7.282481985043080E-030
  1.650000000000000E-002   -3.384989538024963E-030
  1.660000000000000E-002    1.764707096559752E-030
  1.670000000000000E-002    7.910340648939799E-030
  1.680000000000000E-002    1.463220323034304E-029
  1.690000000000000E-002    2.135530482321086E-029
  1.700000000000000E-002    2.737599623927196E-029
  1.710000000000000E-002    3.190822219061718E-029
  1.720000000000000E-002    3.414866905163667E-029
  1.730000000000000E-002    3.335787401789238E-029
  1.740000000000000E-002    2.895200349867489E-029
  1.750000000000000E-002    2.059776268117536E-029
  1.760000000000000E-002    8.300959866016617E-030
  1.770000000000000E-002   -7.521991168145101E-030
  1.780000000000000E-002   -2.600075673359775E-029
  1.790000000000000E-002   -4.580635495225855E-029
  1.800000000000000E-002   -6.519337121956494E-029
  1.810000000000000E-002   -8.209426191861288E-029
  1.820000000000000E-002   -9.426635146040222E-029
  1.830000000000000E-002   -9.948673956003931E-029
  1.840000000000000E-002   -9.578438997215836E-029
  1.850000000000000E-002   -8.169264006352388E-029
  1.860000000000000E-002   -5.650007056214744E-029
  1.870000000000000E-002   -2.047350370697554E-029