 -4.000000000000000E-002    0.000000000000000E+000
 -3.990000000000000E-002    0.000000000000000E+000
 -3.980000000000000E-002    0.000000000000000E+000
 -3.970000000000000E-002    0.000000000000000E+000
 -3.960000000000000E-002    0.000000000000000E+000
 -3.950000000000000E-002    0.000000000000000E+000
 -3.940000000000000E-002    0.000000000000000E+000
 -3.930000000000000E-002    0.000000000000000E+000
 -3.920000000000000E-002    0.000000000000000E+000
 -3.910000000000000E-002    0.000000000000000E+000
 -3.900000000000000E-002    0.000000000000000E+000
 -3.890000000000000E-002    0.000000000000000E+000
 -3.880000000000000E-002    0.000000000000000E+000
 -3.870000000000000E-002    0.000000000000000E+000
 -3.860000000000000E-002    0.000000000000000E+000
 -3.850000000000000E-002    0.000000000000000E+000
 -3.840000000000000E-002    0.000000000000000E+000
 -3.830000000000000E-002    0.000000000000000E+000
 -3.820000000000000E-002    0.000000000000000E+000
 -3.810000000000000E-002    0.000000000000000E+000
 -3.800000000000000E-002    0.000000000000000E+000
 -3.790000000000000E-002    0.000000000000000E+000
 -3.780000000000000E-002    0.000000000000000E+000
 -3.770000000000000E-002    0.000000000000000E+000
 -3.760000000000000E-002    0.000000000000000E+000
 -3.750000000000000E-002    0.000000000000000E+000
 -3.740000000000000E-002    0.000000000000000E+000
 -3.730000000000000E-002    0.000000000000000E+000
 -3.720000000000000E-002    0.000000000000000E+000
 -3.710000000000000E-002    0.000000000000000E+000
 -3.700000000000000E-002    0.000000000000000E+000
 -3.690000000000000E-002    0.000000000000000E+000
 -3.680000000000000E-002    0.000000000000000E+000
 -3.670000000000000E-002    0.000000000000000E+000
 -3.660000000000000E-002    0.000000000000000E+000
 -3.650000000000000E-002    0.000000000000000E+000
 -3.640000000000000E-002    0.000000000000000E+000
 -3.630000000000000E-002    0.000000000000000E+000
 -3.620000000000000E-002    0.000000000000000E+000
 -3.610000000000000E-002    0.000000000000000E+000
 -3.600000000000000E-002    0.000000000000000E+000
 -3.590000000000000E-002    0.000000000000000E+000
 -3.580000000000000E-002    0.000000000000000E+000
 -3.570000000000000E-002    0.000000000000000E+000
 -3.560000000000000E-002    0.000000000000000E+000
 -3.550000000000000E-002    0.000000000000000E+000
 -3.540000000000000E-002    0.000000000000000E+000
 -3.530000000000000E-002    0.000000000000000E+000
 -3.520000000000000E-002    0.000000000000000E+000
 -3.510000000000000E-002    0.000000000000000E+000
 -3.500000000000000E-002    0.000000000000000E+000
 -3.490000000000000E-002    0.000000000000000E+000
 -3.480000000000000E-002    0.000000000000000E+000
 -3.470000000000000E-002    0.000000000000000E+000
 -3.460000000000000E-002    0.000000000000000E+000
 -3.450000000000000E-002    0.000000000000000E+000
 -3.440000000000000E-002    0.000000000000000E+000
 -3.430000000000000E-002    0.000000000000000E+000
 -3.420000000000000E-002    0.000000000000000E+000
 -3.410000000000000E-002    0.000000000000000E+000
 -3.400000000000000E-002    0.000000000000000E+000
 -3.390000000000000E-002    0.000000000000000E+000
 -3.380000000000000E-002    0.000000000000000E+000
 -3.370000000000000E-002    0.000000000000000E+000
 -3.360000000000000E-002    0.000000000000000E+000
 -3.350000000000000E-002    0.000000000000000E+000
 -3.340000000000000E-002    0.000000000000000E+000
 -3.330000000000000E-002    0.000000000000000E+000
 -3.320000000000000E-002    0.000000000000000E+000
 -3.310000000000000E-002    0.000000000000000E+000
 -3.300000000000000E-002    0.000000000000000E+000
 -3.290000000000000E-002    0.000000000000000E+000
 -3.280000000000000E-002    0.000000000000000E+000
 -3.270000000000000E-002    0.000000000000000E+000
 -3.260000000000000E-002    0.000000000000000E+000
 -3.250000000000000E-002    0.000000000000000E+000
 -3.240000000000000E-002    0.000000000000000E+000
 -3.230000000000000E-002    0.000000000000000E+000
 -3.220000000000000E-002    0.000000000000000E+000
 -3.210000000000000E-002    0.000000000000000E+000
 -3.200000000000000E-002    0.000000000000000E+000
 -3.190000000000000E-002    0.000000000000000E+000
 -3.180000000000000E-002    0.000000000000000E+000
 -3.170000000000000E-002    0.000000000000000E+000
 -3.160000000000000E-002    0.000000000000000E+000
 -3.150000000000000E-002    0.000000000000000E+000
 -3.140000000000000E-002    0.000000000000000E+000
 -3.130000000000000E-002    0.000000000000000E+000
 -3.120000000000000E-002    0.000000000000000E+000
 -3.110000000000000E-002    0.000000000000000E+000
 -3.100000000000000E-002    0.000000000000000E+000
 -3.090000000000000E-002    0.000000000000000E+000
 -3.080000000000000E-002    0.000000000000000E+000
 -3.070000000000000E-002    0.000000000000000E+000
 -3.060000000000000E-002    0.000000000000000E+000
 -3.050000000000000E-002    0.000000000000000E+000
 -3.040000000000000E-002    0.000000000000000E+000
 -3.030000000000000E-002    0.000000000000000E+000
 -3.020000000000000E-002    0.000000000000000E+000
 -3.010000000000000E-002    0.000000000000000E+000
 -3.000000000000000E-002    0.000000000000000E+000
 -2.990000000000000E-002    0.000000000000000E+000
 -2.980000000000000E-002    0.000000000000000E+000
 -2.970000000000000E-002    0.000000000000000E+000
 -2.960000000000000E-002    0.000000000000000E+000
 -2.950000000000000E-002    0.000000000000000E+000
 -2.940000000000000E-002    0.000000000000000E+000
 -2.930000000000000E-002    0.000000000000000E+000
 -2.920000000000000E-002    0.000000000000000E+000
 -2.910000000000000E-002    0.000000000000000E+000
 -2.900000000000000E-002    0.000000000000000E+000
 -2.890000000000000E-002    0.000000000000000E+000
 -2.880000000000000E-002    0.000000000000000E+000
 -2.870000000000000E-002    0.000000000000000E+000
 -2.860000000000000E-002    0.000000000000000E+000
 -2.850000000000000E-002    0.000000000000000E+000
 -2.840000000000000E-002    0.000000000000000E+000
 -2.830000000000000E-002    0.000000000000000E+000
 -2.820000000000000E-002    0.000000000000000E+000
 -2.810000000000000E-002    0.000000000000000E+000
 -2.800000000000000E-002    0.000000000000000E+000
 -2.790000000000000E-002    0.000000000000000E+000
 -2.780000000000000E-002    0.000000000000000E+000
 -2.770000000000000E-002    0.000000000000000E+000
 -2.760000000000000E-002    0.000000000000000E+000
 -2.750000000000000E-002    0.000000000000000E+000
 -2.740000000000000E-002    0.000000000000000E+000
 -2.730000000000000E-002    0.000000000000000E+000
 -2.720000000000000E-002    0.000000000000000E+000
 -2.710000000000000E-002    0.000000000000000E+000
 -2.700000000000000E-002    0.000000000000000E+000
 -2.690000000000000E-002    0.000000000000000E+000
 -2.680000000000000E-002    0.000000000000000E+000
 -2.670000000000000E-002    0.000000000000000E+000
 -2.660000000000000E-002    0.000000000000000E+000
 -2.650000000000000E-002    0.000000000000000E+000
 -2.640000000000000E-002    0.000000000000000E+000
 -2.630000000000000E-002    0.000000000000000E+000
 -2.620000000000000E-002    0.000000000000000E+000
 -2.610000000000000E-002    0.000000000000000E+000
 -2.600000000000000E-002    0.000000000000000E+000
 -2.590000000000000E-002    0.000000000000000E+000
 -2.580000000000000E-002    0.000000000000000E+000
 -2.570000000000000E-002    0.000000000000000E+000
 -2.560000000000000E-002    0.000000000000000E+000
 -2.550000000000000E-002    0.000000000000000E+000
 -2.540000000000000E-002    0.000000000000000E+000
 -2.530000000000000E-002    0.000000000000000E+000
 -2.520000000000000E-002    0.000000000000000E+000
 -2.510000000000000E-002    0.000000000000000E+000
 -2.500000000000000E-002    0.000000000000000E+000
 -2.490000000000000E-002    0.000000000000000E+000
 -2.480000000000000E-002    0.000000000000000E+000
 -2.470000000000000E-002    0.000000000000000E+000
 -2.460000000000000E-002    0.000000000000000E+000
 -2.450000000000000E-002    0.000000000000000E+000
 -2.440000000000000E-002    0.000000000000000E+000
 -2.430000000000000E-002    0.000000000000000E+000
 -2.420000000000000E-002    0.000000000000000E+000
 -2.410000000000000E-002    0.000000000000000E+000
 -2.400000000000000E-002    0.000000000000000E+000
 -2.390000000000000E-002    0.000000000000000E+000
 -2.380000000000000E-002    0.000000000000000E+000
 -2.370000000000000E-002    0.000000000000000E+000
 -2.360000000000000E-002    0.000000000000000E+000
 -2.350000000000000E-002    0.000000000000000E+000
 -2.340000000000000E-002    0.000000000000000E+000
 -2.330000000000000E-002    0.000000000000000E+000
 -2.320000000000000E-002    0.000000000000000E+000
 -2.310000000000000E-002    0.000000000000000E+000
 -2.300000000000000E-002    0.000000000000000E+000
 -2.290000000000000E-002    0.000000000000000E+000
 -2.280000000000000E-002    0.000000000000000E+000
 -2.270000000000000E-002    0.000000000000000E+000
 -2.260000000000000E-002    0.000000000000000E+000
 -2.250000000000000E-002    0.000000000000000E+000
 -2.240000000000000E-002    0.000000000000000E+000
 -2.230000000000000E-002    0.000000000000000E+000
 -2.220000000000000E-002    0.000000000000000E+000
 -2.210000000000000E-002    0.000000000000000E+000
 -2.200000000000000E-002    0.000000000000000E+000
 -2.190000000000000E-002    0.000000000000000E+000
 -2.180000000000000E-002    0.000000000000000E+000
 -2.170000000000000E-002    0.000000000000000E+000
 -2.160000000000000E-002    0.000000000000000E+000
 -2.150000000000000E-002    0.000000000000000E+000
 -2.140000000000000E-002    0.000000000000000E+000
 -2.130000000000000E-002    0.000000000000000E+000
 -2.120000000000000E-002    0.000000000000000E+000
 -2.110000000000000E-002    0.000000000000000E+000
 -2.100000000000000E-002    0.000000000000000E+000
 -2.090000000000000E-002    0.000000000000000E+000
 -2.080000000000000E-002    0.000000000000000E+000
 -2.070000000000000E-002    0.000000000000000E+000
 -2.060000000000000E-002    0.000000000000000E+000
 -2.050000000000000E-002    0.000000000000000E+000
 -2.040000000000000E-002    0.000000000000000E+000
 -2.030000000000000E-002    0.000000000000000E+000
 -2.020000000000000E-002    0.000000000000000E+000
 -2.010000000000000E-002    0.000000000000000E+000
 -2.000000000000000E-002    0.000000000000000E+000
 -1.990000000000000E-002    0.000000000000000E+000
 -1.980000000000000E-002    0.000000000000000E+000
 -1.970000000000000E-002    0.000000000000000E+000
 -1.960000000000000E-002    0.000000000000000E+000
 -1.950000000000000E-002    0.000000000000000E+000
 -1.940000000000000E-002    0.000000000000000E+000
 -1.930000000000000E-002    0.000000000000000E+000
 -1.920000000000000E-002    0.000000000000000E+000
 -1.910000000000000E-002    0.000000000000000E+000
 -1.900000000000000E-002    0.000000000000000E+000
 -1.890000000000000E-002    0.000000000000000E+000
 -1.880000000000000E-002    0.000000000000000E+000
 -1.870000000000000E-002    0.000000000000000E+000
 -1.860000000000000E-002    0.000000000000000E+000
 -1.850000000000000E-002    0.000000000000000E+000
 -1.840000000000000E-002    0.000000000000000E+000
 -1.830000000000000E-002    0.000000000000000E+000
 -1.820000000000000E-002    0.000000000000000E+000
 -1.810000000000000E-002    0.000000000000000E+000
 -1.800000000000000E-002    0.000000000000000E+000
 -1.790000000000000E-002    0.000000000000000E+000
 -1.780000000000000E-002    0.000000000000000E+000
 -1.770000000000000E-002    0.000000000000000E+000
 -1.760000000000000E-002    0.000000000000000E+000
 -1.750000000000000E-002    0.000000000000000E+000
 -1.740000000000000E-002    0.000000000000000E+000
 -1.730000000000000E-002    0.000000000000000E+000
 -1.720000000000000E-002    0.000000000000000E+000
 -1.710000000000000E-002    0.000000000000000E+000
 -1.700000000000000E-002    0.000000000000000E+000
 -1.690000000000000E-002    0.000000000000000E+000
 -1.680000000000000E-002    0.000000000000000E+000
 -1.670000000000000E-002    0.000000000000000E+000
 -1.660000000000000E-002    0.000000000000000E+000
 -1.650000000000000E-002    0.000000000000000E+000
 -1.640000000000000E-002    0.000000000000000E+000
 -1.630000000000000E-002    0.000000000000000E+000
 -1.620000000000000E-002    0.000000000000000E+000
 -1.610000000000000E-002    0.000000000000000E+000
 -1.600000000000000E-002    0.000000000000000E+000
 -1.590000000000000E-002    0.000000000000000E+000
 -1.580000000000000E-002    0.000000000000000E+000
 -1.570000000000000E-002    0.000000000000000E+000
 -1.560000000000000E-002    0.000000000000000E+000
 -1.550000000000000E-002    0.000000000000000E+000
 -1.540000000000000E-002    0.000000000000000E+000
 -1.530000000000000E-002    0.000000000000000E+000
 -1.520000000000000E-002    0.000000000000000E+000
 -1.510000000000000E-002    0.000000000000000E+000
 -1.500000000000000E-002    0.000000000000000E+000
 -1.490000000000000E-002    0.000000000000000E+000
 -1.480000000000000E-002    0.000000000000000E+000
 -1.470000000000000E-002    0.000000000000000E+000
 -1.460000000000000E-002    0.000000000000000E+000
 -1.450000000000000E-002    0.000000000000000E+000
 -1.440000000000000E-002    0.000000000000000E+000
 -1.430000000000000E-002    0.000000000000000E+000
 -1.420000000000000E-002    0.000000000000000E+000
 -1.410000000000000E-002    0.000000000000000E+000
 -1.400000000000000E-002    0.000000000000000E+000
 -1.390000000000000E-002    0.000000000000000E+000
 -1.380000000000000E-002    0.000000000000000E+000
 -1.370000000000000E-002    1.522147052291724E-048
 -1.360000000000000E-002    1.522147052291724E-048
 -1.350000000000000E-002    1.522147052291724E-048
 -1.340000000000000E-002    1.522147052291724E-048
 -1.330000000000000E-002    0.000000000000000E+000
 -1.320000000000000E-002   -3.044294104583448E-048
 -1.310000000000000E-002   -7.610735261458620E-048
 -1.300000000000000E-002   -1.217717641833379E-047
 -1.290000000000000E-002   -1.674361757520896E-047
 -1.280000000000000E-002   -2.425287644047712E-047
 -1.270000000000000E-002   -5.927014114848373E-048
 -1.260000000000000E-002   -9.364692553638450E-048
 -1.250000000000000E-002   -6.713782783261631E-048
 -1.240000000000000E-002    1.386470582246919E-047
 -1.230000000000000E-002    6.466452359470837E-047
 -1.220000000000000E-002    8.731290796205655E-047
 -1.210000000000000E-002    9.282238398330039E-047
 -1.200000000000000E-002    2.036675774075030E-046
 -1.190000000000000E-002    2.774073773740238E-046
 -1.180000000000000E-002    2.824423739201292E-046
 -1.170000000000000E-002    1.982264889056540E-046
 -1.160000000000000E-002    5.104607103937951E-047
 -1.150000000000000E-002   -2.982252320042813E-046
 -1.140000000000000E-002   -7.596668429951666E-046
 -1.130000000000000E-002   -1.218469882933485E-045
 -1.120000000000000E-002   -1.985411682805879E-045
 -1.110000000000000E-002   -2.368783427398715E-045
 -1.100000000000000E-002   -2.284541505644883E-045
 -1.090000000000000E-002   -2.269526081028106E-045
 -1.080000000000000E-002   -1.238398765329671E-045
 -1.070000000000000E-002   -2.697977596426269E-047
 -1.060000000000000E-002    1.711198494289673E-045
 -1.050000000000000E-002    4.072083007293096E-045
 -1.040000000000000E-002    8.014522091083022E-045
 -1.030000000000000E-002    1.207312622097036E-044
 -1.020000000000000E-002    1.603700634274408E-044
 -1.010000000000000E-002    1.876171610930479E-044
 -1.000000000000000E-002    1.902777261422413E-044
 -9.899999999999999E-003    1.686674616944291E-044
 -9.800000000000000E-003    9.908342180361878E-045
 -9.699999999999999E-003   -2.166560167161108E-045
 -9.599999999999999E-003   -1.920441587000337E-044
 -9.500000000000000E-003   -4.062119401121985E-044
 -9.399999999999999E-003   -6.430412977045127E-044
 -9.299999999999999E-003   -8.610449925776849E-044
 -9.200000000000000E-003   -1.030657953546752E-043
 -9.099999999999999E-003   -1.082903064156674E-043
 -8.999999999999999E-003   -9.626322695187110E-044
 -8.900000000000000E-003   -6.188956178730787E-044
 -8.799999999999999E-003   -2.085757010432087E-045
 -8.699999999999999E-003    8.387222584001511E-044
 -8.600000000000000E-003    1.911547540283554E-043
 -8.499999999999999E-003    3.098179222251035E-043
 -8.399999999999999E-003    4.245015300598098E-043
 -8.300000000000000E-003    5.136286018798760E-043
 -8.199999999999999E-003    5.510236785319027E-043
 -8.100000000000000E-003    5.109136506563970E-043
 -8.000000000000000E-003    3.695803609945403E-043
 -7.899999999999999E-003    1.115590700158687E-043
 -7.800000000000000E-003   -2.648233140832904E-043
 -7.699999999999999E-003   -7.429337119014810E-043
 -7.599999999999999E-003   -1.283915002335336E-042
 -7.499999999999999E-003   -1.825524497585781E-042
 -7.399999999999999E-003   -2.283668877707093E-042
 -7.299999999999999E-003   -2.557159085131502E-042
 -7.199999999999999E-003   -2.540983852580056E-042
 -7.100000000000000E-003   -2.136250904674827E-042
 -6.999999999999999E-003   -1.268742372349728E-042
 -6.899999999999999E-003    9.340901005975241E-044
 -6.800000000000000E-003    1.923305459267042E-042
 -6.699999999999999E-003    4.121413709790546E-042
 -6.599999999999999E-003    6.507559887016638E-042
 -6.499999999999999E-003    8.819988947303958E-042
 -6.399999999999999E-003    1.072734127512267E-041
 -6.299999999999999E-003    1.184714236929884E-041
 -6.199999999999999E-003    1.177669181606762E-041
 -6.100000000000000E-003    1.012960637240537E-041
 -5.999999999999999E-003    6.582714210761556E-042
 -5.899999999999999E-003    9.300623212311270E-043
 -5.800000000000000E-003   -6.864338932928591E-042
 -5.699999999999999E-003   -1.660620913634193E-041
 -5.599999999999999E-003   -2.781187058067534E-041
 -5.499999999999999E-003   -3.965570812402650E-041
 -5.399999999999999E-003   -5.092302821334892E-041
 -5.299999999999999E-003   -5.998295522645541E-041
 -5.199999999999999E-003   -6.480362106501121E-041
 -5.099999999999999E-003   -6.301808127102480E-041
 -4.999999999999999E-003   -5.208155004207659E-041
 -4.899999999999999E-003   -2.953651059285942E-041
 -4.799999999999999E-003    6.581811581089958E-042
 -4.699999999999999E-003    5.719959518512221E-041
 -4.599999999999999E-003    1.215353289850228E-040
 -4.499999999999999E-003    1.963571108268037E-040
 -4.399999999999999E-003    2.752785913402528E-040
 -4.299999999999999E-003    3.482423068442705E-040
 -4.199999999999999E-003    4.013904898608985E-040
 -4.099999999999999E-003    4.175492113996092E-040
 -3.999999999999999E-003    3.775443766951262E-040
 -3.899999999999999E-003    2.625163298809781E-040
 -3.799999999999999E-003    5.727455581404300E-041
 -3.699999999999999E-003   -2.454300964409341E-040
 -3.599999999999999E-003   -6.400821271983524E-040
 -3.499999999999999E-003   -1.103655380288641E-039
 -3.399999999999999E-003   -1.591838848967225E-039
 -3.299999999999999E-003   -2.037334770702953E-039
 -3.199999999999999E-003   -2.351404526871359E-039
 -3.099999999999999E-003   -2.429757089445470E-039
 -2.999999999999999E-003   -2.163506682035379E-039
 -2.899999999999999E-003   -1.455350354028548E-039
 -2.799999999999999E-003   -2.402128066644288E-040
 -2.699999999999999E-003    1.491427499874004E-039
 -2.599999999999999E-003    3.670483521271312E-039
 -2.499999999999999E-003    6.130463426600093E-039
 -2.399999999999999E-003    8.597633232878096E-039
 -2.299999999999999E-003    1.069501688822159E-038
 -2.199999999999999E-003    1.196449409778539E-038
 -2.099999999999999E-003    1.190970630362310E-038
 -1.999999999999999E-003    1.005999273758252E-038
 -1.899999999999999E-003    6.052190468477941E-039
 -1.799999999999999E-003   -2.767536412191168E-040
 -1.699999999999999E-003   -8.797411881622120E-039
 -1.599999999999999E-003   -1.901021672720118E-038
 -1.499999999999999E-003   -2.999908910252242E-038
 -1.399999999999999E-003   -4.043307732167552E-038
 -1.299999999999999E-003   -4.863023478194787E-038
 -1.199999999999999E-003   -5.269259247570858E-038
 -1.099999999999999E-003   -5.071291182237426E-038
 -9.999999999999989E-004   -4.104337650207381E-038
 -8.999999999999990E-004   -2.260470564368545E-038
 -7.999999999999990E-004    4.797398610576433E-039
 -6.999999999999989E-004    4.019089658015027E-038
 -5.999999999999990E-004    8.123925515052812E-038
 -4.999999999999989E-004    1.241745629426284E-037
 -3.999999999999989E-004    1.639033210354049E-037
 -2.999999999999989E-004    1.943126305138115E-037
 -1.999999999999989E-004    2.087839915713982E-037
 -9.999999999999892E-005    2.008972000300313E-037
  1.084202172485504E-018    1.652790966011708E-037
  1.000000000000011E-004    9.852561447738925E-038
  2.000000000000011E-004    1.040117556442931E-040
  3.000000000000011E-004   -1.268726654592971E-037
  4.000000000000011E-004   -2.751098862917039E-037
  5.000000000000011E-004   -4.329391326414897E-037
  6.000000000000011E-004   -5.845533772032640E-037
  7.000000000000011E-004   -7.107266403211948E-037
  8.000000000000011E-004   -7.900402249028020E-037
  9.000000000000012E-004   -8.005956105483667E-037
  1.000000000000001E-003   -7.221576247840410E-037
  1.100000000000001E-003   -5.386312679033872E-037
  1.200000000000001E-003   -2.407387756893731E-037
  1.300000000000001E-003    1.712705677419723E-037
  1.400000000000001E-003    6.850843333015675E-037
  1.500000000000001E-003    1.274210847300095E-036
  1.600000000000001E-003    1.896572691801598E-036
  1.700000000000001E-003    2.494150597474311E-036
  1.800000000000001E-003    2.994055181430842E-036
  1.900000000000001E-003    3.311427884213223E-036
  2.000000000000001E-003    3.354547122263963E-036
  2.100000000000001E-003    3.032437884377127E-036
  2.200000000000001E-003    2.265104709685983E-036
  2.300000000000001E-003    9.962214411225888E-037
  2.400000000000001E-003   -7.922878389800760E-037
  2.500000000000001E-003   -3.064846766069730E-036
  2.600000000000001E-003   -5.717652005246642E-036
  2.700000000000001E-003   -8.567141212611149E-036
  2.800000000000001E-003   -1.134419280183420E-035
  2.900000000000001E-003   -1.369701442266198E-035
  3.000000000000001E-003   -1.520558728423515E-035
  3.100000000000001E-003   -1.540999868917399E-035
  3.200000000000001E-003   -1.385390068703705E-035
  3.300000000000001E-003   -1.014267957602471E-035
  3.400000000000001E-003   -4.013730385356114E-036
  3.500000000000001E-003    4.586316792204633E-036
  3.600000000000001E-003    1.542525171859320E-035
  3.700000000000001E-003    2.792014198645643E-035
  3.800000000000001E-003    4.109547350427010E-035
  3.900000000000001E-003    5.357751924117624E-035
  4.000000000000001E-003    6.363704186993435E-035
  4.100000000000001E-003    6.928999393214353E-035
  4.200000000000001E-003    6.846132302613056E-035
  4.300000000000001E-003    5.921052491677436E-035
  4.400000000000001E-003    4.000960899660993E-035
  4.500000000000001E-003    1.005485181727827E-035
  4.600000000000002E-003   -3.041557906305296E-035
  4.700000000000001E-003   -7.983461647605164E-035
  4.800000000000001E-003   -1.350930413696373E-034
  4.900000000000002E-003   -1.914465030366780E-034
  5.000000000000001E-003   -2.425879556783510E-034
  5.100000000000001E-003   -2.809246857677699E-034
  5.200000000000001E-003   -2.980860899547236E-034
  5.300000000000002E-003   -2.856697833447830E-034
  5.400000000000001E-003   -2.362090386937832E-034
  5.500000000000001E-003   -1.443147400333851E-034
  5.600000000000002E-003   -7.912586378286160E-036
  5.700000000000001E-003    1.705373765728271E-034
  5.800000000000001E-003    3.829819222904211E-034
  5.900000000000002E-003    6.150437581525647E-034
  6.000000000000001E-003    8.457983421428686E-034
  6.100000000000001E-003    1.048234712100348E-033
  6.200000000000002E-003    1.190551881973247E-033
  6.300000000000002E-003    1.238393383322648E-033
  6.400000000000001E-003    1.158047032233883E-033
  6.500000000000001E-003    9.205316203096955E-034
  6.600000000000002E-003    5.063667027513732E-034
  6.700000000000001E-003   -8.932322161272329E-035
  6.800000000000001E-003   -8.518676509191818E-034
  6.900000000000002E-003   -1.742903287570099E-033
  7.000000000000001E-003   -2.697759357806133E-033
  7.100000000000001E-003   -3.625148520451546E-033
  7.200000000000002E-003   -4.409909020123769E-033
  7.300000000000002E-003   -4.919389827476495E-033
  7.400000000000001E-003   -5.013818933143561E-033
  7.500000000000001E-003   -4.560598960743340E-033
  7.600000000000002E-003   -3.451983262698471E-033
  7.700000000000001E-003   -1.625007535403323E-033
  7.800000000000001E-003    9.180712395995341E-034
  7.900000000000001E-003    4.091134896289540E-033
  8.000000000000002E-003    7.710137983665350E-033
  8.100000000000001E-003    1.148661736315276E-032
  8.200000000000001E-003    1.503171150791488E-032
  8.300000000000002E-003    1.787317515597666E-032
  8.400000000000001E-003    1.948698042347232E-032
  8.500000000000002E-003    1.934377813231865E-032
  8.600000000000002E-003    1.696878018199780E-032
  8.700000000000001E-003    1.201162321699928E-032
  8.800000000000002E-003    4.320702990085540E-033
  8.900000000000002E-003   -5.985541119332213E-033
  9.000000000000001E-003   -1.845946257796290E-032
  9.100000000000002E-003   -3.228717141754034E-032
  9.200000000000002E-003   -4.628354746014450E-032
  9.300000000000001E-003   -5.892813760485428E-032
  9.400000000000002E-003   -6.844812402087314E-032
  9.500000000000001E-003   -7.295097230950037E-032
  9.600000000000001E-003   -7.060417879002620E-032
  9.700000000000002E-003   -5.985393508886387E-032
  9.800000000000001E-003   -3.966808517960183E-032
  9.900000000000001E-003   -9.782706915161144E-033
  1.000000000000000E-002    2.907355874016979E-032
  1.010000000000000E-002    7.500722274360565E-032
  1.020000000000000E-002    1.248706120846905E-031
  1.030000000000000E-002    1.742853296343901E-031
  1.040000000000000E-002    2.178028872968447E-031
  1.050000000000000E-002    2.492191229751590E-031
  1.060000000000000E-002    2.620461052233451E-031
  1.070000000000000E-002    2.501307037880562E-031
  1.080000000000000E-002    2.083907494523087E-031
  1.090000000000000E-002    1.336211634815668E-031
  1.100000000000000E-002    2.530364218429780E-032
  1.110000000000000E-002   -1.136630185102749E-031
  1.120000000000000E-002   -2.764067236556925E-031
  1.130000000000000E-002   -4.518014031009119E-031
  1.140000000000000E-002   -6.245588317093840E-031
  1.150000000000000E-002   -7.757781786920869E-031
  1.160000000000000E-002   -8.840116018038495E-031
  1.170000000000000E-002   -9.268663542953197E-031
  1.180000000000000E-002   -8.831144314908273E-031
  1.190000000000000E-002   -7.352191748595567E-031
  1.200000000000000E-002   -4.721219813942091E-031
  1.210000000000000E-002   -9.206272657466794E-032
  1.220000000000000E-002    3.948541847831892E-031
  1.230000000000000E-002    9.646877421835972E-031
  1.240000000000000E-002    1.578644811527695E-030
  1.250000000000000E-002    2.183381275744632E-030
  1.260000000000000E-002    2.712927688431233E-030
  1.270000000000000E-002    3.092459419805185E-030
  1.280000000000000E-002    3.243980028360041E-030
  1.290000000000000E-002    3.093803668812881E-030
  1.300000000000000E-002    2.581491825544471E-030
  1.310000000000000E-002    1.669646972322157E-030
  1.320000000000000E-002    3.537244629330474E-031
  1.330000000000000E-002   -1.329204231281969E-030
  1.340000000000000E-002   -3.293950175805289E-030
  1.350000000000000E-002   -5.404251021290780E-030
  1.360000000000000E-002   -7.474572072725433E-030
  1.370000000000000E-002   -9.277648906900073E-030
  1.380000000000000E-002   -1.055838396346747E-029
  1.390000000000000E-002   -1.105414777341675E-029
  1.400000000000000E-002   -1.052084966729377E-029
  1.410000000000000E-002   -8.763358456179707E-030
  1.420000000000000E-002   -5.668031456333645E-030
  1.430000000000000E-002   -1.234351918710656E-030
  1.440000000000000E-002    4.397947599890051E-030
  1.450000000000000E-002    1.093024864909308E-029
  1.460000000000000E-002    1.789888732811104E-029
  1.470000000000000E-002    2.468502461076771E-029
  1.480000000000000E-002    3.054320422628898E-029
  1.490000000000000E-002    3.464984694105431E-029
  1.500000000000000E-002    3.617110652722982E-029
  1.510000000000000E-002    3.434728475179167E-029
  1.520000000000000E-002    2.858869840156790E-029
  1.530000000000000E-002    1.857546213707770E-029
  1.540000000000000E-002    4.351679581551143E-030
  1.550000000000000E-002   -1.359702653168563E-029
  1.560000000000000E-002   -3.429431210077020E-029
  1.570000000000000E-002   -5.626353319739067E-029
  1.580000000000000E-002   -7.756739772221574E-029
  1.590000000000000E-002   -9.590335767796732E-029
  1.600000000000000E-002   -1.087570422915330E-028
  1.610000000000000E-002   -1.136105037903969E-028
  1.620000000000000E-002   -1.081957563912595E-028
  1.630000000000000E-002   -9.077762770130321E-029
  1.640000000000000E-002   -6.044341293197572E-029
  1.650000000000000E-002   -1.737182778045617E-029
  1.660000000000000E-002    3.695028254732675E-029
  1.670000000000000E-002    9.959605471992849E-029
  1.680000000000000E-002    1.661822038185628E-028
  1.690000000000000E-002    2.309940619524524E-028
  1.700000000000000E-002    2.872685545614356E-028
  1.710000000000000E-002    3.276400844372134E-028
  1.720000000000000E-002    3.447384996812079E-028
  1.730000000000000E-002    3.319117736005356E-028
  1.740000000000000E-002    2.840275072250385E-028
  1.750000000000000E-002    1.982911821893610E-028
  1.760000000000000E-002    7.500427467583538E-029
  1.770000000000000E-002   -8.182406550605228E-029
  1.780000000000000E-002   -2.641006807891707E-028
  1.790000000000000E-002   -4.595913399846927E-028
  1.800000000000000E-002   -6.522531076581874E-028
  1.810000000000000E-002   -8.230014137568151E-028
  1.820000000000000E-002   -9.509247774649501E-028
  1.830000000000000E-002   -1.014919480634329E-027
  1.840000000000000E-002   -9.956700345883783E-028
  1.850000000000000E-002   -8.778542040658664E-028
  1.860000000000000E-002   -6.524055729951016E-028
  1.870000000000000E-002   -3.186297513892177E-028