 -4.000000000000000E-002    0.000000000000000E+000
 -3.990000000000000E-002    0.000000000000000E+000
 -3.980000000000000E-002    0.000000000000000E+000
 -3.970000000000000E-002    0.000000000000000E+000
 -3.960000000000000E-002    0.000000000000000E+000
 -3.950000000000000E-002    0.000000000000000E+000
 -3.940000000000000E-002    0.000000000000000E+000
 -3.930000000000000E-002    0.000000000000000E+000
 -3.920000000000000E-002    0.000000000000000E+000
 -3.910000000000000E-002    0.000000000000000E+000
 -3.900000000000000E-002    0.000000000000000E+000
 -3.890000000000000E-002    0.000000000000000E+000
 -3.880000000000000E-002    0.000000000000000E+000
 -3.870000000000000E-002    0.000000000000000E+000
 -3.860000000000000E-002    0.000000000000000E+000
 -3.850000000000000E-002    0.000000000000000E+000
 -3.840000000000000E-002    0.000000000000000E+000
 -3.830000000000000E-002    0.000000000000000E+000
 -3.820000000000000E-002    0.000000000000000E+000
 -3.810000000000000E-002    0.000000000000000E+000
 -3.800000000000000E-002    0.000000000000000E+000
 -3.790000000000000E-002    0.000000000000000E+000
 -3.780000000000000E-002    0.000000000000000E+000
 -3.770000000000000E-002    0.000000000000000E+000
 -3.760000000000000E-002    0.000000000000000E+000
 -3.750000000000000E-002    0.000000000000000E+000
 -3.740000000000000E-002    0.000000000000000E+000
 -3.730000000000000E-002    0.000000000000000E+000
 -3.720000000000000E-002    0.000000000000000E+000
 -3.710000000000000E-002    0.000000000000000E+000
 -3.700000000000000E-002    0.000000000000000E+000
 -3.690000000000000E-002    0.000000000000000E+000
 -3.680000000000000E-002    0.000000000000000E+000
 -3.670000000000000E-002    0.000000000000000E+000
 -3.660000000000000E-002    0.000000000000000E+000
 -3.650000000000000E-002    0.000000000000000E+000
 -3.640000000000000E-002    0.000000000000000E+000
 -3.630000000000000E-002    0.000000000000000E+000
 -3.620000000000000E-002    0.000000000000000E+000
 -3.610000000000000E-002    0.000000000000000E+000
 -3.600000000000000E-002    0.000000000000000E+000
 -3.590000000000000E-002    0.000000000000000E+000
 -3.580000000000000E-002    0.000000000000000E+000
 -3.570000000000000E-002    0.000000000000000E+000
 -3.560000000000000E-002    0.000000000000000E+000
 -3.550000000000000E-002    0.000000000000000E+000
 -3.540000000000000E-002    0.000000000000000E+000
 -3.530000000000000E-002    0.000000000000000E+000
 -3.520000000000000E-002    0.000000000000000E+000
 -3.510000000000000E-002    0.000000000000000E+000
 -3.500000000000000E-002    0.000000000000000E+000
 -3.490000000000000E-002    0.000000000000000E+000
 -3.480000000000000E-002    0.000000000000000E+000
 -3.470000000000000E-002    0.000000000000000E+000
 -3.460000000000000E-002    0.000000000000000E+000
 -3.450000000000000E-002    0.000000000000000E+000
 -3.440000000000000E-002    0.000000000000000E+000
 -3.430000000000000E-002    0.000000000000000E+000
 -3.420000000000000E-002    0.000000000000000E+000
 -3.410000000000000E-002    0.000000000000000E+000
 -3.400000000000000E-002    0.000000000000000E+000
 -3.390000000000000E-002    0.000000000000000E+000
 -3.380000000000000E-002    0.000000000000000E+000
 -3.370000000000000E-002    0.000000000000000E+000
 -3.360000000000000E-002    0.000000000000000E+000
 -3.350000000000000E-002    0.000000000000000E+000
 -3.340000000000000E-002    0.000000000000000E+000
 -3.330000000000000E-002    0.000000000000000E+000
 -3.320000000000000E-002    0.000000000000000E+000
 -3.310000000000000E-002    0.000000000000000E+000
 -3.300000000000000E-002    0.000000000000000E+000
 -3.290000000000000E-002    0.000000000000000E+000
 -3.280000000000000E-002    0.000000000000000E+000
 -3.270000000000000E-002    0.000000000000000E+000
 -3.260000000000000E-002    0.000000000000000E+000
 -3.250000000000000E-002    0.000000000000000E+000
 -3.240000000000000E-002    0.000000000000000E+000
 -3.230000000000000E-002    0.000000000000000E+000
 -3.220000000000000E-002    0.000000000000000E+000
 -3.210000000000000E-002    0.000000000000000E+000
 -3.200000000000000E-002    0.000000000000000E+000
 -3.190000000000000E-002    0.000000000000000E+000
 -3.180000000000000E-002    0.000000000000000E+000
 -3.170000000000000E-002    0.000000000000000E+000
 -3.160000000000000E-002    0.000000000000000E+000
 -3.150000000000000E-002    0.000000000000000E+000
 -3.140000000000000E-002    0.000000000000000E+000
 -3.130000000000000E-002    0.000000000000000E+000
 -3.120000000000000E-002    0.000000000000000E+000
 -3.110000000000000E-002    0.000000000000000E+000
 -3.100000000000000E-002    0.000000000000000E+000
 -3.090000000000000E-002    0.000000000000000E+000
 -3.080000000000000E-002    0.000000000000000E+000
 -3.070000000000000E-002    0.000000000000000E+000
 -3.060000000000000E-002    0.000000000000000E+000
 -3.050000000000000E-002    0.000000000000000E+000
 -3.040000000000000E-002    0.000000000000000E+000
 -3.030000000000000E-002    0.000000000000000E+000
 -3.020000000000000E-002    0.000000000000000E+000
 -3.010000000000000E-002    0.000000000000000E+000
 -3.000000000000000E-002    0.000000000000000E+000
 -2.990000000000000E-002    0.000000000000000E+000
 -2.980000000000000E-002    0.000000000000000E+000
 -2.970000000000000E-002    0.000000000000000E+000
 -2.960000000000000E-002    0.000000000000000E+000
 -2.950000000000000E-002    0.000000000000000E+000
 -2.940000000000000E-002    0.000000000000000E+000
 -2.930000000000000E-002    0.000000000000000E+000
 -2.920000000000000E-002    0.000000000000000E+000
 -2.910000000000000E-002    0.000000000000000E+000
 -2.900000000000000E-002    0.000000000000000E+000
 -2.890000000000000E-002    0.000000000000000E+000
 -2.880000000000000E-002    0.000000000000000E+000
 -2.870000000000000E-002    0.000000000000000E+000
 -2.860000000000000E-002    0.000000000000000E+000
 -2.850000000000000E-002    0.000000000000000E+000
 -2.840000000000000E-002    0.000000000000000E+000
 -2.830000000000000E-002    0.000000000000000E+000
 -2.820000000000000E-002    0.000000000000000E+000
 -2.810000000000000E-002    0.000000000000000E+000
 -2.800000000000000E-002    0.000000000000000E+000
 -2.790000000000000E-002    0.000000000000000E+000
 -2.780000000000000E-002    0.000000000000000E+000
 -2.770000000000000E-002    0.000000000000000E+000
 -2.760000000000000E-002    0.000000000000000E+000
 -2.750000000000000E-002    0.000000000000000E+000
 -2.740000000000000E-002    0.000000000000000E+000
 -2.730000000000000E-002    0.000000000000000E+000
 -2.720000000000000E-002    0.000000000000000E+000
 -2.710000000000000E-002    0.000000000000000E+000
 -2.700000000000000E-002    0.000000000000000E+000
 -2.690000000000000E-002    0.000000000000000E+000
 -2.680000000000000E-002    0.000000000000000E+000
 -2.670000000000000E-002    0.000000000000000E+000
 -2.660000000000000E-002    0.000000000000000E+000
 -2.650000000000000E-002    0.000000000000000E+000
 -2.640000000000000E-002    0.000000000000000E+000
 -2.630000000000000E-002    0.000000000000000E+000
 -2.620000000000000E-002    0.000000000000000E+000
 -2.610000000000000E-002    0.000000000000000E+000
 -2.600000000000000E-002    0.000000000000000E+000
 -2.590000000000000E-002    0.000000000000000E+000
 -2.580000000000000E-002    0.000000000000000E+000
 -2.570000000000000E-002    0.000000000000000E+000
 -2.560000000000000E-002    0.000000000000000E+000
 -2.550000000000000E-002    0.000000000000000E+000
 -2.540000000000000E-002    0.000000000000000E+000
 -2.530000000000000E-002    0.000000000000000E+000
 -2.520000000000000E-002    0.000000000000000E+000
 -2.510000000000000E-002    0.000000000000000E+000
 -2.500000000000000E-002    0.000000000000000E+000
 -2.490000000000000E-002    0.000000000000000E+000
 -2.480000000000000E-002    0.000000000000000E+000
 -2.470000000000000E-002    0.000000000000000E+000
 -2.460000000000000E-002    0.000000000000000E+000
 -2.450000000000000E-002    0.000000000000000E+000
 -2.440000000000000E-002    0.000000000000000E+000
 -2.430000000000000E-002    0.000000000000000E+000
 -2.420000000000000E-002    0.000000000000000E+000
 -2.410000000000000E-002    0.000000000000000E+000
 -2.400000000000000E-002    0.000000000000000E+000
 -2.390000000000000E-002    0.000000000000000E+000
 -2.380000000000000E-002    0.000000000000000E+000
 -2.370000000000000E-002    0.000000000000000E+000
 -2.360000000000000E-002    0.000000000000000E+000
 -2.350000000000000E-002    0.000000000000000E+000
 -2.340000000000000E-002    0.000000000000000E+000
 -2.330000000000000E-002    0.000000000000000E+000
 -2.320000000000000E-002    0.000000000000000E+000
 -2.310000000000000E-002    0.000000000000000E+000
 -2.300000000000000E-002    0.000000000000000E+000
 -2.290000000000000E-002    0.000000000000000E+000
 -2.280000000000000E-002    0.000000000000000E+000
 -2.270000000000000E-002    0.000000000000000E+000
 -2.260000000000000E-002    0.000000000000000E+000
 -2.250000000000000E-002    0.000000000000000E+000
 -2.240000000000000E-002    0.000000000000000E+000
 -2.230000000000000E-002    0.000000000000000E+000
 -2.220000000000000E-002    0.000000000000000E+000
 -2.210000000000000E-002    0.000000000000000E+000
 -2.200000000000000E-002    0.000000000000000E+000
 -2.190000000000000E-002    0.000000000000000E+000
 -2.180000000000000E-002    0.000000000000000E+000
 -2.170000000000000E-002    0.000000000000000E+000
 -2.160000000000000E-002    0.000000000000000E+000
 -2.150000000000000E-002    0.000000000000000E+000
 -2.140000000000000E-002    0.000000000000000E+000
 -2.130000000000000E-002    0.000000000000000E+000
 -2.120000000000000E-002    0.000000000000000E+000
 -2.110000000000000E-002    0.000000000000000E+000
 -2.100000000000000E-002    0.000000000000000E+000
 -2.090000000000000E-002    0.000000000000000E+000
 -2.080000000000000E-002    0.000000000000000E+000
 -2.070000000000000E-002    0.000000000000000E+000
 -2.060000000000000E-002    0.000000000000000E+000
 -2.050000000000000E-002    0.000000000000000E+000
 -2.040000000000000E-002    0.000000000000000E+000
 -2.030000000000000E-002    0.000000000000000E+000
 -2.020000000000000E-002    0.000000000000000E+000
 -2.010000000000000E-002    0.000000000000000E+000
 -2.000000000000000E-002    0.000000000000000E+000
 -1.990000000000000E-002    0.000000000000000E+000
 -1.980000000000000E-002    0.000000000000000E+000
 -1.970000000000000E-002    0.000000000000000E+000
 -1.960000000000000E-002    0.000000000000000E+000
 -1.950000000000000E-002    0.000000000000000E+000
 -1.940000000000000E-002    0.000000000000000E+000
 -1.930000000000000E-002    0.000000000000000E+000
 -1.920000000000000E-002    0.000000000000000E+000
 -1.910000000000000E-002    0.000000000000000E+000
 -1.900000000000000E-002    0.000000000000000E+000
 -1.890000000000000E-002    0.000000000000000E+000
 -1.880000000000000E-002    0.000000000000000E+000
 -1.870000000000000E-002    0.000000000000000E+000
 -1.860000000000000E-002    0.000000000000000E+000
 -1.850000000000000E-002    0.000000000000000E+000
 -1.840000000000000E-002    0.000000000000000E+000
 -1.830000000000000E-002    0.000000000000000E+000
 -1.820000000000000E-002    0.000000000000000E+000
 -1.810000000000000E-002    0.000000000000000E+000
 -1.800000000000000E-002    0.000000000000000E+000
 -1.790000000000000E-002    0.000000000000000E+000
 -1.780000000000000E-002    0.000000000000000E+000
 -1.770000000000000E-002    0.000000000000000E+000
 -1.760000000000000E-002    0.000000000000000E+000
 -1.750000000000000E-002    0.000000000000000E+000
 -1.740000000000000E-002    0.000000000000000E+000
 -1.730000000000000E-002    0.000000000000000E+000
 -1.720000000000000E-002    0.000000000000000E+000
 -1.710000000000000E-002    0.000000000000000E+000
 -1.700000000000000E-002    0.000000000000000E+000
 -1.690000000000000E-002    0.000000000000000E+000
 -1.680000000000000E-002    0.000000000000000E+000
 -1.670000000000000E-002    0.000000000000000E+000
 -1.660000000000000E-002    0.000000000000000E+000
 -1.650000000000000E-002    0.000000000000000E+000
 -1.640000000000000E-002    0.000000000000000E+000
 -1.630000000000000E-002    0.000000000000000E+000
 -1.620000000000000E-002    0.000000000000000E+000
 -1.610000000000000E-002    0.000000000000000E+000
 -1.600000000000000E-002    0.000000000000000E+000
 -1.590000000000000E-002    0.000000000000000E+000
 -1.580000000000000E-002    0.000000000000000E+000
 -1.570000000000000E-002    0.000000000000000E+000
 -1.560000000000000E-002    0.000000000000000E+000
 -1.550000000000000E-002    0.000000000000000E+000
 -1.540000000000000E-002    0.000000000000000E+000
 -1.530000000000000E-002    0.000000000000000E+000
 -1.520000000000000E-002    0.000000000000000E+000
 -1.510000000000000E-002    0.000000000000000E+000
 -1.500000000000000E-002    0.000000000000000E+000
 -1.490000000000000E-002    0.000000000000000E+000
 -1.480000000000000E-002    0.000000000000000E+000
 -1.470000000000000E-002    0.000000000000000E+000
 -1.460000000000000E-002    0.000000000000000E+000
 -1.450000000000000E-002    0.000000000000000E+000
 -1.440000000000000E-002    0.000000000000000E+000
 -1.430000000000000E-002    0.000000000000000E+000
 -1.420000000000000E-002    0.000000000000000E+000
 -1.410000000000000E-002    0.000000000000000E+000
 -1.400000000000000E-002    0.000000000000000E+000
 -1.390000000000000E-002    0.000000000000000E+000
 -1.380000000000000E-002    0.000000000000000E+000
 -1.370000000000000E-002    0.000000000000000E+000
 -1.360000000000000E-002    0.000000000000000E+000
 -1.350000000000000E-002    0.000000000000000E+000
 -1.340000000000000E-002    0.000000000000000E+000
 -1.330000000000000E-002    0.000000000000000E+000
 -1.320000000000000E-002    0.000000000000000E+000
 -1.310000000000000E-002    0.000000000000000E+000
 -1.300000000000000E-002    0.000000000000000E+000
 -1.290000000000000E-002    0.000000000000000E+000
 -1.280000000000000E-002    0.000000000000000E+000
 -1.270000000000000E-002    0.000000000000000E+000
 -1.260000000000000E-002    0.000000000000000E+000
 -1.250000000000000E-002    0.000000000000000E+000
 -1.240000000000000E-002    0.000000000000000E+000
 -1.230000000000000E-002    0.000000000000000E+000
 -1.220000000000000E-002    0.000000000000000E+000
 -1.210000000000000E-002    0.000000000000000E+000
 -1.200000000000000E-002    0.000000000000000E+000
 -1.190000000000000E-002    0.000000000000000E+000
 -1.180000000000000E-002    0.000000000000000E+000
 -1.170000000000000E-002    0.000000000000000E+000
 -1.160000000000000E-002    0.000000000000000E+000
 -1.150000000000000E-002    0.000000000000000E+000
 -1.140000000000000E-002    0.000000000000000E+000
 -1.130000000000000E-002    0.000000000000000E+000
 -1.120000000000000E-002    0.000000000000000E+000
 -1.110000000000000E-002    0.000000000000000E+000
 -1.100000000000000E-002    0.000000000000000E+000
 -1.090000000000000E-002    0.000000000000000E+000
 -1.080000000000000E-002    0.000000000000000E+000
 -1.070000000000000E-002    0.000000000000000E+000
 -1.060000000000000E-002    0.000000000000000E+000
 -1.050000000000000E-002    0.000000000000000E+000
 -1.040000000000000E-002    0.000000000000000E+000
 -1.030000000000000E-002    0.000000000000000E+000
 -1.020000000000000E-002    0.000000000000000E+000
 -1.010000000000000E-002    0.000000000000000E+000
 -1.000000000000000E-002    0.000000000000000E+000
 -9.899999999999999E-003    0.000000000000000E+000
 -9.800000000000000E-003    0.000000000000000E+000
 -9.699999999999999E-003    0.000000000000000E+000
 -9.599999999999999E-003    0.000000000000000E+000
 -9.500000000000000E-003    0.000000000000000E+000
 -9.399999999999999E-003    0.000000000000000E+000
 -9.299999999999999E-003    0.000000000000000E+000
 -9.200000000000000E-003    0.000000000000000E+000
 -9.099999999999999E-003    0.000000000000000E+000
 -8.999999999999999E-003    0.000000000000000E+000
 -8.900000000000000E-003    0.000000000000000E+000
 -8.799999999999999E-003    0.000000000000000E+000
 -8.699999999999999E-003    0.000000000000000E+000
 -8.600000000000000E-003    0.000000000000000E+000
 -8.499999999999999E-003    0.000000000000000E+000
 -8.399999999999999E-003    0.000000000000000E+000
 -8.300000000000000E-003    0.000000000000000E+000
 -8.199999999999999E-003    0.000000000000000E+000
 -8.100000000000000E-003    0.000000000000000E+000
 -8.000000000000000E-003    0.000000000000000E+000
 -7.899999999999999E-003    0.000000000000000E+000
 -7.800000000000000E-003    0.000000000000000E+000
 -7.699999999999999E-003    0.000000000000000E+000
 -7.599999999999999E-003    0.000000000000000E+000
 -7.499999999999999E-003    0.000000000000000E+000
 -7.399999999999999E-003    0.000000000000000E+000
 -7.299999999999999E-003    0.000000000000000E+000
 -7.199999999999999E-003    0.000000000000000E+000
 -7.100000000000000E-003    0.000000000000000E+000
 -6.999999999999999E-003    0.000000000000000E+000
 -6.899999999999999E-003    0.000000000000000E+000
 -6.800000000000000E-003    0.000000000000000E+000
 -6.699999999999999E-003    0.000000000000000E+000
 -6.599999999999999E-003    0.000000000000000E+000
 -6.499999999999999E-003    0.000000000000000E+000
 -6.399999999999999E-003    0.000000000000000E+000
 -6.299999999999999E-003    0.000000000000000E+000
 -6.199999999999999E-003    0.000000000000000E+000
 -6.100000000000000E-003    0.000000000000000E+000
 -5.999999999999999E-003    0.000000000000000E+000
 -5.899999999999999E-003    0.000000000000000E+000
 -5.800000000000000E-003    0.000000000000000E+000
 -5.699999999999999E-003    0.000000000000000E+000
 -5.599999999999999E-003    8.210456020062442E-049
 -5.499999999999999E-003    1.642091204012488E-048
 -5.399999999999999E-003    1.642091204012488E-048
 -5.299999999999999E-003   -1.587354870440656E-048
 -5.199999999999999E-003   -1.401741225038184E-047
 -5.099999999999999E-003   -2.800504589713460E-047
 -4.999999999999999E-003   -5.044774814669374E-047
 -4.899999999999999E-003   -5.619506736073745E-047
 -4.799999999999999E-003   -5.871294050032802E-047
 -4.699999999999999E-003   -4.225718049818215E-047
 -4.599999999999999E-003   -1.855126134875284E-047
 -4.499999999999999E-003   -8.099335408285762E-048
 -4.399999999999999E-003    3.499007331820259E-047
 -4.299999999999999E-003    9.589927755395265E-047
 -4.199999999999999E-003    2.167496265969424E-046
 -4.099999999999999E-003    3.553325589699030E-046
 -3.999999999999999E-003    5.131406545520068E-046
 -3.899999999999999E-003    6.177862536525738E-046
 -3.799999999999999E-003    5.961040243622447E-046
 -3.699999999999999E-003    4.962358777221493E-046
 -3.599999999999999E-003    2.083903722632452E-046
 -3.499999999999999E-003   -3.322262800507171E-046
 -3.399999999999999E-003   -4.939012036938383E-046
 -3.299999999999999E-003   -1.084242574680725E-045
 -3.199999999999999E-003   -1.727702163901937E-045
 -3.099999999999999E-003   -3.349029693515047E-045
 -2.999999999999999E-003   -4.449838273533388E-045
 -2.899999999999999E-003   -5.402872474381931E-045
 -2.799999999999999E-003   -5.719475434418914E-045
 -2.699999999999999E-003   -4.750061027917227E-045
 -2.599999999999999E-003   -3.462579852093111E-045
 -2.499999999999999E-003   -6.794640756802845E-046
 -2.399999999999999E-003    3.890770951849549E-045
 -2.299999999999999E-003    9.847130801316445E-045
 -2.199999999999999E-003    1.787295274908285E-044
 -2.099999999999999E-003    2.564860242055196E-044
 -1.999999999999999E-003    3.099081549920201E-044
 -1.899999999999999E-003    3.411034174549852E-044
 -1.799999999999999E-003    3.243187982639927E-044
 -1.699999999999999E-003    2.406262772062496E-044
 -1.599999999999999E-003    8.588931029718295E-045
 -1.499999999999999E-003   -1.393589588322252E-044
 -1.399999999999999E-003   -4.305449442102260E-044
 -1.299999999999999E-003   -7.552497106153488E-044
 -1.199999999999999E-003   -1.077101854402383E-043
 -1.099999999999999E-003   -1.333923411488370E-043
 -9.999999999999989E-004   -1.463330434145522E-043
 -8.999999999999990E-004   -1.399531448618081E-043
 -7.999999999999990E-004   -1.097032598029735E-043
 -6.999999999999989E-004   -5.336715798475773E-044
 -5.999999999999990E-004    2.934356712355591E-044
 -4.999999999999989E-004    1.329606579324290E-043
 -3.999999999999989E-004    2.474320470803773E-043
 -2.999999999999989E-004    3.573772576591839E-043
 -1.999999999999989E-004    4.455732504379017E-043
 -9.999999999999892E-005    4.927891051986809E-043
  1.084202172485504E-018    4.833174451063629E-043
  1.000000000000011E-004    4.051414540853826E-043
  2.000000000000011E-004    2.562841737955764E-043
  3.000000000000011E-004    4.279555590811875E-044
  4.000000000000011E-004   -2.162089715750597E-043
  5.000000000000011E-004   -4.935749599214535E-043
  6.000000000000011E-004   -7.548543012578969E-043
  7.000000000000011E-004   -9.673178100486257E-043
  8.000000000000011E-004   -1.101934069302645E-042
  9.000000000000012E-004   -1.144389855183806E-042
  1.000000000000001E-003   -1.097421754634250E-042
  1.100000000000001E-003   -9.819628294820405E-043
  1.200000000000001E-003   -8.351448010075815E-043
  1.300000000000001E-003   -6.974752893212660E-043
  1.400000000000001E-003   -5.982956410227748E-043
  1.500000000000001E-003   -5.402595294722580E-043
  1.600000000000001E-003   -4.787001592296513E-043
  1.700000000000001E-003   -3.106808312876544E-043
  1.800000000000001E-003    1.257738750021735E-043
  1.900000000000001E-003    1.033357355699234E-042
  2.000000000000001E-003    2.619063540313874E-042
  2.100000000000001E-003    5.030739457128578E-042
  2.200000000000001E-003    8.280083899049505E-042
  2.300000000000001E-003    1.216107367795902E-041
  2.400000000000001E-003    1.617074964349009E-041
  2.500000000000001E-003    1.947399798912645E-041
  2.600000000000001E-003    2.091108891412970E-041
  2.700000000000001E-003    1.909173341964986E-041
  2.800000000000001E-003    1.258240648988362E-041
  2.900000000000001E-003    1.826961744370493E-043
  3.000000000000001E-003   -1.871505567888326E-041
  3.100000000000001E-003   -4.373632158474542E-041
  3.200000000000001E-003   -7.315172483939905E-041
  3.300000000000001E-003   -1.036158687737403E-040
  3.400000000000001E-003   -1.301076677429491E-040
  3.500000000000001E-003   -1.461532899498291E-040
  3.600000000000001E-003   -1.444131714292260E-040
  3.700000000000001E-003   -1.176469262761095E-040
  3.800000000000001E-003   -6.002674229506889E-041
  3.900000000000001E-003    3.129986612522517E-041
  4.000000000000001E-003    1.546015604730862E-040
  4.100000000000001E-003    3.021594679153434E-040
  4.200000000000001E-003    4.593798352065697E-040
  4.300000000000001E-003    6.047465515697903E-040
  4.400000000000001E-003    7.109019801413978E-040
  4.500000000000001E-003    7.470258811770603E-040
  4.600000000000002E-003    6.825593779429577E-040
  4.700000000000001E-003    4.920686360939899E-040
  4.800000000000001E-003    1.608382895102101E-040
  4.900000000000002E-003   -3.094668709929631E-040
  5.000000000000001E-003   -8.959258408909022E-040
  5.100000000000001E-003   -1.551234745226203E-039
  5.200000000000001E-003   -2.203277490065381E-039
  5.300000000000002E-003   -2.758200719221368E-039
  5.400000000000001E-003   -3.107460176864665E-039
  5.500000000000001E-003   -3.138871326470074E-039
  5.600000000000002E-003   -2.751099943468630E-039
  5.700000000000001E-003   -1.870445893044476E-039
  5.800000000000001E-003   -4.681872242188171E-040
  5.900000000000002E-003    1.423704685654975E-039
  6.000000000000001E-003    3.700873359817394E-039
  6.100000000000001E-003    6.181292035881622E-039
  6.200000000000002E-003    8.608380055668797E-039
  6.300000000000002E-003    1.066388057714334E-038
  6.400000000000001E-003    1.199090872969466E-038
  6.500000000000001E-003    1.222651143378879E-038
  6.600000000000002E-003    1.104193854744137E-038
  6.700000000000001E-003    8.187767383158208E-039
  6.800000000000001E-003    3.540176597456584E-039
  6.900000000000002E-003   -2.855905257738350E-039
  7.000000000000001E-003   -1.075129843615141E-038
  7.100000000000001E-003   -1.966915136106500E-038
  7.200000000000002E-003   -2.889777162353788E-038
  7.300000000000002E-003   -3.750329087371495E-038
  7.400000000000001E-003   -4.436527289012367E-038
  7.500000000000001E-003   -4.823763353203471E-038
  7.600000000000002E-003   -4.783649967620824E-038
  7.700000000000001E-003   -4.195553162518001E-038
  7.800000000000001E-003   -2.960769432264542E-038
  7.900000000000001E-003   -1.018995309550859E-038
  8.000000000000002E-003    1.633602484700912E-038
  8.100000000000001E-003    4.925900880492263E-038
  8.200000000000001E-003    8.694688741891924E-038
  8.300000000000002E-003    1.267132020585752E-037
  8.400000000000001E-003    1.647525196188701E-037
  8.500000000000002E-003    1.961805159001058E-037
  8.600000000000002E-003    2.152165689408458E-037
  8.700000000000001E-003    2.155434019180096E-037
  8.800000000000002E-003    1.908682064069092E-037
  8.900000000000002E-003    1.356916509799626E-037
  9.000000000000001E-003    4.626387416143891E-038
  9.100000000000002E-003   -7.832790729692734E-038
  9.200000000000002E-003   -2.350357056433142E-037
  9.300000000000001E-003   -4.158281473205865E-037
  9.400000000000002E-003   -6.069431839201647E-037
  9.500000000000001E-003   -7.886153188304147E-037
  9.600000000000001E-003   -9.354836602180814E-037
  9.700000000000002E-003   -1.017865987828361E-036
  9.800000000000001E-003   -1.004032013973612E-036
  9.900000000000001E-003   -8.635199682982590E-037
  1.000000000000000E-002   -5.714177176031347E-037
  1.010000000000000E-002   -1.133755188344134E-037
  1.020000000000000E-002    5.090517371300951E-037
  1.030000000000000E-002    1.273315027814351E-036
  1.040000000000000E-002    2.131763519822348E-036
  1.050000000000000E-002    3.009366544020065E-036
  1.060000000000000E-002    3.804147931906160E-036
  1.070000000000000E-002    4.391154790435539E-036
  1.080000000000000E-002    4.630605113836561E-036
  1.090000000000000E-002    4.380537706987048E-036
  1.100000000000000E-002    3.513825972676306E-036
  1.110000000000000E-002    1.938832049076141E-036
  1.120000000000000E-002   -3.777182711437528E-037
  1.130000000000000E-002   -3.387784615426766E-036
  1.140000000000000E-002   -6.941858426485494E-036
  1.150000000000000E-002   -1.077503172644584E-035
  1.160000000000000E-002   -1.450307582969675E-035
  1.170000000000000E-002   -1.763227326344330E-035
  1.180000000000000E-002   -1.958622288955054E-035
  1.190000000000000E-002   -1.975173146382757E-035
  1.200000000000000E-002   -1.754414232254517E-035
  1.210000000000000E-002   -1.249003885499369E-035
  1.220000000000000E-002   -4.322338015389257E-036
  1.230000000000000E-002    6.920465642703660E-036
  1.240000000000000E-002    2.080246497709908E-035
  1.250000000000000E-002    3.642016533296604E-035
  1.260000000000000E-002    5.237015208122514E-035
  1.270000000000000E-002    6.677088027483053E-035
  1.280000000000000E-002    7.735306614147708E-035
  1.290000000000000E-002    8.162848149258714E-035
  1.300000000000000E-002    7.713975197792526E-035
  1.310000000000000E-002    6.178370687893249E-035
  1.320000000000000E-002    3.418839243422803E-035
  1.330000000000000E-002   -5.889116997561967E-036
  1.340000000000000E-002   -5.719042148051114E-035
  1.350000000000000E-002   -1.166657697623764E-034
  1.360000000000000E-002   -1.793291659058156E-034
  1.370000000000000E-002   -2.383213794390905E-034
  1.380000000000000E-002   -2.852340742744247E-034
  1.390000000000000E-002   -3.107290467804581E-034
  1.400000000000000E-002   -3.054574302564089E-034
  1.410000000000000E-002   -2.612446973686139E-034
  1.420000000000000E-002   -1.724630594017944E-034
  1.430000000000000E-002   -3.746497268692875E-035
  1.440000000000000E-002    1.400914449396624E-034
  1.450000000000000E-002    3.502262555197521E-034
  1.460000000000000E-002    5.761476210291561E-034
  1.470000000000000E-002    7.944935990176187E-034
  1.480000000000000E-002    9.764715609614536E-034
  1.490000000000000E-002    1.089989225394851E-033
  1.500000000000000E-002    1.102766922434415E-033
  1.510000000000000E-002    9.862933933078156E-034
  1.520000000000000E-002    7.203425716221406E-034
  1.530000000000000E-002    2.976272120297518E-034
  1.540000000000000E-002   -2.719592140135331E-034
  1.550000000000000E-002   -9.581462257818202E-034
  1.560000000000000E-002   -1.708793236895939E-033
  1.570000000000000E-002   -2.450706344103590E-033
  1.580000000000000E-002   -3.093231156810887E-033
  1.590000000000000E-002   -3.534856880128444E-033
  1.600000000000000E-002   -3.672751375191547E-033
  1.610000000000000E-002   -3.414772209990156E-033
  1.620000000000000E-002   -2.693083309625178E-033
  1.630000000000000E-002   -1.478121887372101E-033
  1.640000000000000E-002    2.086891299131418E-034
  1.650000000000000E-002    2.285281959656814E-033
  1.660000000000000E-002    4.604218255820796E-033
  1.670000000000000E-002    6.954577152497888E-033
  1.680000000000000E-002    9.071759309063278E-033
  1.690000000000000E-002    1.065586229285680E-032
  1.700000000000000E-002    1.139841482772779E-032
  1.710000000000000E-002    1.101622760158554E-032
  1.720000000000000E-002    9.290024361258807E-033
  1.730000000000000E-002    6.104413752508220E-033
  1.740000000000000E-002    1.484863671765413E-033
  1.750000000000000E-002   -4.373268424547106E-033
  1.760000000000000E-002   -1.108880616617450E-032
  1.770000000000000E-002   -1.809663424683805E-032
  1.780000000000000E-002   -2.467113979138448E-032
  1.790000000000000E-002   -2.997328227657341E-032
  1.800000000000000E-002   -3.312104008180843E-032
  1.810000000000000E-002   -3.328030695798617E-032
  1.820000000000000E-002   -2.977021280335813E-032
  1.830000000000000E-002   -2.217400643454758E-032
  1.840000000000000E-002   -1.044383905502620E-032
  1.850000000000000E-002    5.013742060564653E-033
  1.860000000000000E-002    2.328574369841647E-032
  1.870000000000000E-002    4.294713091086676E-032