 -4.000000000000000E-002    0.000000000000000E+000
 -3.990000000000000E-002    0.000000000000000E+000
 -3.980000000000000E-002    0.000000000000000E+000
 -3.970000000000000E-002    0.000000000000000E+000
 -3.960000000000000E-002    0.000000000000000E+000
 -3.950000000000000E-002    0.000000000000000E+000
 -3.940000000000000E-002    0.000000000000000E+000
 -3.930000000000000E-002    0.000000000000000E+000
 -3.920000000000000E-002    0.000000000000000E+000
 -3.910000000000000E-002    0.000000000000000E+000
 -3.900000000000000E-002    0.000000000000000E+000
 -3.890000000000000E-002    0.000000000000000E+000
 -3.880000000000000E-002    0.000000000000000E+000
 -3.870000000000000E-002    0.000000000000000E+000
 -3.860000000000000E-002    0.000000000000000E+000
 -3.850000000000000E-002    0.000000000000000E+000
 -3.840000000000000E-002    0.000000000000000E+000
 -3.830000000000000E-002    0.000000000000000E+000
 -3.820000000000000E-002    0.000000000000000E+000
 -3.810000000000000E-002    0.000000000000000E+000
 -3.800000000000000E-002    0.000000000000000E+000
 -3.790000000000000E-002    0.000000000000000E+000
 -3.780000000000000E-002    0.000000000000000E+000
 -3.770000000000000E-002    0.000000000000000E+000
 -3.760000000000000E-002    0.000000000000000E+000
 -3.750000000000000E-002    0.000000000000000E+000
 -3.740000000000000E-002    0.000000000000000E+000
 -3.730000000000000E-002    0.000000000000000E+000
 -3.720000000000000E-002    0.000000000000000E+000
 -3.710000000000000E-002    0.000000000000000E+000
 -3.700000000000000E-002    0.000000000000000E+000
 -3.690000000000000E-002    0.000000000000000E+000
 -3.680000000000000E-002    0.000000000000000E+000
 -3.670000000000000E-002    0.000000000000000E+000
 -3.660000000000000E-002    0.000000000000000E+000
 -3.650000000000000E-002    0.000000000000000E+000
 -3.640000000000000E-002    0.000000000000000E+000
 -3.630000000000000E-002    0.000000000000000E+000
 -3.620000000000000E-002    0.000000000000000E+000
 -3.610000000000000E-002    0.000000000000000E+000
 -3.600000000000000E-002    0.000000000000000E+000
 -3.590000000000000E-002    0.000000000000000E+000
 -3.580000000000000E-002    0.000000000000000E+000
 -3.570000000000000E-002    0.000000000000000E+000
 -3.560000000000000E-002    0.000000000000000E+000
 -3.550000000000000E-002    0.000000000000000E+000
 -3.540000000000000E-002    0.000000000000000E+000
 -3.530000000000000E-002    0.000000000000000E+000
 -3.520000000000000E-002    0.000000000000000E+000
 -3.510000000000000E-002    0.000000000000000E+000
 -3.500000000000000E-002    0.000000000000000E+000
 -3.490000000000000E-002    0.000000000000000E+000
 -3.480000000000000E-002    0.000000000000000E+000
 -3.470000000000000E-002    7.057901610326301E-048
 -3.460000000000000E-002    1.411580322065260E-047
 -3.450000000000000E-002    3.779861394507342E-047
 -3.440000000000000E-002    9.710879292559911E-047
 -3.430000000000000E-002    2.065202935112464E-046
 -3.420000000000000E-002    3.716574318985699E-046
 -3.410000000000000E-002    6.487769481147687E-046
 -3.400000000000000E-002    1.055101449396641E-045
 -3.390000000000000E-002    1.589262474644001E-045
 -3.380000000000000E-002    2.159770073750013E-045
 -3.370000000000000E-002    2.431093089841857E-045
 -3.360000000000000E-002    4.718499404377995E-046
 -3.350000000000000E-002   -3.345106608511092E-045
 -3.340000000000000E-002   -1.221909471287206E-044
 -3.330000000000000E-002   -2.992359849328735E-044
 -3.320000000000000E-002   -6.405166002026026E-044
 -3.310000000000000E-002   -1.236153782369674E-043
 -3.300000000000000E-002   -2.205376550068437E-043
 -3.290000000000000E-002   -3.701393086898877E-043
 -3.280000000000000E-002   -5.863410034956492E-043
 -3.270000000000000E-002   -8.714369666363149E-043
 -3.260000000000000E-002   -1.201157954141847E-042
 -3.250000000000000E-002   -1.497726852368869E-042
 -3.240000000000000E-002   -1.579892876138920E-042
 -3.230000000000000E-002   -1.095314219893083E-042
 -3.220000000000000E-002    5.688820393678758E-043
 -3.210000000000000E-002    4.397220112186506E-042
 -3.200000000000000E-002    1.185314230391861E-041
 -3.190000000000000E-002    2.493783718171272E-041
 -3.180000000000000E-002    4.610860589787005E-041
 -3.170000000000000E-002    7.792643102301987E-041
 -3.160000000000000E-002    1.222169095184852E-040
 -3.150000000000000E-002    1.784571483544650E-040
 -3.140000000000000E-002    2.410650614423643E-040
 -3.130000000000000E-002    2.952576711269870E-040
 -3.120000000000000E-002    3.112989197776288E-040
 -3.110000000000000E-002    2.373046826433887E-040
 -3.100000000000000E-002   -8.528839776634352E-042
 -3.090000000000000E-002   -5.442530467387659E-040
 -3.080000000000000E-002   -1.525328362665388E-039
 -3.070000000000000E-002   -3.134675860555795E-039
 -3.060000000000000E-002   -5.553048827734560E-039
 -3.050000000000000E-002   -8.898727254715406E-039
 -3.040000000000000E-002   -1.312412149179581E-038
 -3.030000000000000E-002   -1.785801607787443E-038
 -3.020000000000000E-002   -2.218795539929394E-038
 -3.010000000000000E-002   -2.439020437554990E-038
 -3.000000000000000E-002   -2.163761294707033E-038
 -2.990000000000000E-002   -9.750647475080555E-039
 -2.980000000000000E-002    1.689545683109586E-038
 -2.970000000000000E-002    6.513691478784456E-038
 -2.960000000000000E-002    1.422308752389991E-037
 -2.950000000000000E-002    2.542315134042377E-037
 -2.940000000000000E-002    4.032469841182073E-037
 -2.930000000000000E-002    5.833528219807924E-037
 -2.920000000000000E-002    7.751106373406368E-037
 -2.910000000000000E-002    9.389692376897796E-037
 -2.900000000000000E-002    1.008343953641533E-036
 -2.890000000000000E-002    8.838919358841767E-037
 -2.880000000000000E-002    4.313949667660917E-037
 -2.870000000000000E-002   -5.133700598611198E-037
 -2.860000000000000E-002   -2.128541285232475E-036
 -2.850000000000000E-002   -4.574191290423966E-036
 -2.840000000000000E-002   -7.940161725140928E-036
 -2.830000000000000E-002   -1.217110554238157E-035
 -2.820000000000000E-002   -1.696963157436442E-035
 -2.810000000000000E-002   -2.168418177140275E-035
 -2.800000000000000E-002   -2.519640353712914E-035
 -2.790000000000000E-002   -2.583306864647033E-035
 -2.780000000000000E-002   -2.133897573910920E-035
 -2.770000000000000E-002   -8.958100717584164E-036
 -2.760000000000000E-002    1.432247766704228E-035
 -2.750000000000000E-002    5.131129259665371E-035
 -2.740000000000000E-002    1.038909284753465E-034
 -2.730000000000000E-002    1.720211802866336E-034
 -2.720000000000000E-002    2.524999607974040E-034
 -2.710000000000000E-002    3.375843078426343E-034
 -2.700000000000000E-002    4.136631585931501E-034
 -2.690000000000000E-002    4.602747663593844E-034
 -2.680000000000000E-002    4.498618197442189E-034
 -2.670000000000000E-002    3.487350656607085E-034
 -2.660000000000000E-002    1.197453659970009E-034
 -2.650000000000000E-002   -2.728878750922846E-034
 -2.640000000000000E-002   -8.563068433254742E-034
 -2.630000000000000E-002   -1.639319061348814E-033
 -2.620000000000000E-002   -2.600735415774653E-033
 -2.610000000000000E-002   -3.676787594341870E-033
 -2.600000000000000E-002   -4.749340941140629E-033
 -2.590000000000000E-002   -5.637309989940430E-033
 -2.580000000000000E-002   -6.094267544952798E-033
 -2.570000000000000E-002   -5.815576695203658E-033
 -2.560000000000000E-002   -4.458297307529416E-033
 -2.550000000000000E-002   -1.676481996557479E-033
 -2.540000000000000E-002    2.826851698631784E-033
 -2.530000000000000E-002    9.231838219661984E-033
 -2.520000000000000E-002    1.752145395568182E-032
 -2.510000000000000E-002    2.739545517990841E-032
 -2.500000000000000E-002    3.818856374051797E-032
 -2.490000000000000E-002    4.880588911636530E-032
 -2.480000000000000E-002    5.769073834087151E-032
 -2.470000000000000E-002    6.284065694041323E-032
 -2.460000000000000E-002    6.188642851310238E-032
 -2.450000000000000E-002    5.224545853751928E-032
 -2.440000000000000E-002    3.135561004430919E-032
 -2.430000000000000E-002   -3.011688855865142E-033
 -2.420000000000000E-002   -5.236840624568472E-032
 -2.410000000000000E-002   -1.170748122381990E-031
 -2.400000000000000E-002   -1.958779989955006E-031
 -2.390000000000000E-002   -2.854558620504751E-031
 -2.380000000000000E-002   -3.800032258920563E-031
 -2.370000000000000E-002   -4.709002758059823E-031
 -2.360000000000000E-002   -5.465074168486696E-031
 -2.350000000000000E-002   -5.921367675353770E-031
 -2.340000000000000E-002   -5.902617023539389E-031
 -2.330000000000000E-002   -5.210429253670329E-031
 -2.320000000000000E-002   -3.632740639527377E-031
 -2.310000000000000E-002   -9.587696452436778E-032
 -2.300000000000000E-002    2.998992904784797E-031
 -2.290000000000000E-002    8.374129838109742E-031
 -2.280000000000000E-002    1.520561299553715E-030
 -2.270000000000000E-002    2.338650814789355E-030
 -2.260000000000000E-002    3.260303441804839E-030
 -2.250000000000000E-002    4.226739235266268E-030
 -2.240000000000000E-002    5.145118683808980E-030
 -2.230000000000000E-002    5.883052671486383E-030
 -2.220000000000000E-002    6.265851989278466E-030
 -2.210000000000000E-002    6.078526512929459E-030
 -2.200000000000000E-002    5.074849220519259E-030
 -2.190000000000000E-002    2.995840746598050E-030
 -2.180000000000000E-002   -4.003394814090025E-031
 -2.170000000000000E-002   -5.296019195051488E-030
 -2.160000000000000E-002   -1.175964049333234E-029
 -2.150000000000000E-002   -1.968210312300638E-029
 -2.140000000000000E-002   -2.870934593467073E-029
 -2.130000000000000E-002   -3.817986557459365E-029
 -2.120000000000000E-002   -4.707899455635576E-029
 -2.110000000000000E-002   -5.402430662596144E-029
 -2.100000000000000E-002   -5.729779946519859E-029
 -2.090000000000000E-002   -5.493977244215947E-029
 -2.080000000000000E-002   -4.491595183345685E-029
 -2.070000000000000E-002   -2.536281199321295E-029
 -2.060000000000000E-002    5.093813995320128E-030
 -2.050000000000000E-002    4.696461211514684E-029
 -2.040000000000000E-002    9.949987766862497E-029
 -2.030000000000000E-002    1.603177676689226E-028
 -2.020000000000000E-002    2.251191503580904E-028
 -2.010000000000000E-002    2.875593718624377E-028
 -2.000000000000000E-002    3.393485028597283E-028
 -1.990000000000000E-002    3.706428599173625E-028
 -1.980000000000000E-002    3.707695217243286E-028
 -1.970000000000000E-002    3.292916866653871E-028
 -1.960000000000000E-002    2.373770195263300E-028
 -1.950000000000000E-002    8.937765498542411E-029
 -1.940000000000000E-002   -1.155268579067774E-028
 -1.930000000000000E-002   -3.718232349349784E-028
 -1.920000000000000E-002   -6.665324803002770E-028
 -1.910000000000000E-002   -9.787029800615420E-028
 -1.900000000000000E-002   -1.279760702647154E-027
 -1.890000000000000E-002   -1.534890424763536E-027
 -1.880000000000000E-002   -1.705524051258599E-027
 -1.870000000000000E-002   -1.752877563292201E-027
 -1.860000000000000E-002   -1.642317698017519E-027
 -1.850000000000000E-002   -1.348173178428727E-027
 -1.840000000000000E-002   -8.584535139855753E-028
 -1.830000000000000E-002   -1.788304984021802E-028
 -1.820000000000000E-002    6.647984466399536E-028
 -1.810000000000000E-002    1.625785830020312E-027
 -1.800000000000000E-002    2.638704066399120E-027
 -1.790000000000000E-002    3.623986279469846E-027
 -1.780000000000000E-002    4.495043214397788E-027
 -1.770000000000000E-002    5.167240362707292E-027
 -1.760000000000000E-002    5.567691790616242E-027
 -1.750000000000000E-002    5.644474461611891E-027
 -1.740000000000000E-002    5.373661521231630E-027
 -1.730000000000000E-002    4.762589273344198E-027
 -1.720000000000000E-002    3.848063010786911E-027
 -1.710000000000000E-002    2.688799674499095E-027
 -1.700000000000000E-002    1.352281938724110E-027
 -1.690000000000000E-002   -1.027215944705294E-028
 -1.680000000000000E-002   -1.645554937402942E-027
 -1.670000000000000E-002   -3.291501985676928E-027
 -1.660000000000000E-002   -5.113790196780212E-027
 -1.650000000000000E-002   -7.245266797832389E-027
 -1.640000000000000E-002   -9.865717185403628E-027
 -1.630000000000000E-002   -1.317207112906899E-026
 -1.620000000000000E-002   -1.733092304517470E-026
 -1.610000000000000E-002   -2.241567717112394E-026
 -1.600000000000000E-002   -2.833404584998229E-026
 -1.590000000000000E-002   -3.475511924595730E-026
 -1.580000000000000E-002   -4.104826292634157E-026
 -1.570000000000000E-002   -4.624815244484737E-026
 -1.560000000000000E-002   -4.906060073726449E-026
 -1.550000000000000E-002   -4.792217163285650E-026
 -1.540000000000000E-002   -4.112234578751131E-026
 -1.530000000000000E-002   -2.699055586787572E-026
 -1.520000000000000E-002   -4.141635858651411E-027
 -1.510000000000000E-002    2.823665545065467E-026
 -1.500000000000000E-002    7.008062670097191E-026
 -1.490000000000000E-002    1.201678359699073E-025
 -1.480000000000000E-002    1.758965922172227E-025
 -1.470000000000000E-002    2.331721562254055E-025
 -1.460000000000000E-002    2.864411579216571E-025
 -1.450000000000000E-002    3.289066906756929E-025
 -1.440000000000000E-002    3.529417274506904E-025
 -1.430000000000000E-002    3.506983427895903E-025
 -1.420000000000000E-002    3.148867858214608E-025
 -1.410000000000000E-002    2.396735329258371E-025
 -1.400000000000000E-002    1.216246822613321E-025
 -1.390000000000000E-002   -3.939723265974874E-026
 -1.380000000000000E-002   -2.394853949009718E-025
 -1.370000000000000E-002   -4.701926121490000E-025
 -1.360000000000000E-002   -7.183794706421550E-025
 -1.350000000000000E-002   -9.664772646553187E-025
 -1.340000000000000E-002   -1.193205083672927E-024
 -1.330000000000000E-002   -1.374742057794867E-024
 -1.320000000000000E-002   -1.486313690262330E-024
 -1.310000000000000E-002   -1.504110838401890E-024
 -1.300000000000000E-002   -1.407423277146948E-024
 -1.290000000000000E-002   -1.180841391458536E-024
 -1.280000000000000E-002   -8.163632094760672E-025
 -1.270000000000000E-002   -3.152366441761338E-025
 -1.260000000000000E-002    3.106282530586112E-025
 -1.250000000000000E-002    1.037828130327272E-024
 -1.240000000000000E-002    1.831346681479919E-024
 -1.230000000000000E-002    2.645249882035949E-024
 -1.220000000000000E-002    3.424269092771410E-024
 -1.210000000000000E-002    4.106306908803582E-024
 -1.200000000000000E-002    4.625857137406482E-024
 -1.190000000000000E-002    4.918272395080044E-024
 -1.180000000000000E-002    4.924743812822940E-024
 -1.170000000000000E-002    4.597763801338196E-024
 -1.160000000000000E-002    3.906743034675993E-024
 -1.150000000000000E-002    2.843334071448564E-024
 -1.140000000000000E-002    1.425906423249726E-024
 -1.130000000000000E-002   -2.974684905754157E-025
 -1.120000000000000E-002   -2.248199023972103E-024
 -1.110000000000000E-002   -4.319155115824852E-024
 -1.100000000000000E-002   -6.379929750558029E-024
 -1.090000000000000E-002   -8.285596903520850E-024
 -1.080000000000000E-002   -9.888768624015489E-024
 -1.070000000000000E-002   -1.105426984175642E-023
 -1.060000000000000E-002   -1.167515692700419E-023
 -1.050000000000000E-002   -1.168826666599107E-023
 -1.040000000000000E-002   -1.108701506834753E-023
 -1.030000000000000E-002   -9.928920834518880E-024
 -1.020000000000000E-002   -8.335385972882571E-024
 -1.010000000000000E-002   -6.481757622499968E-024
 -1.000000000000000E-002   -4.576590565583149E-024
 -9.899999999999999E-003   -2.830412703318056E-024
 -9.800000000000000E-003   -1.416005712959191E-024
 -9.699999999999999E-003   -4.241289483190607E-025
 -9.599999999999999E-003    1.795616109450580E-025
 -9.500000000000000E-003    5.890861420173808E-025
 -9.399999999999999E-003    1.176160598365104E-024
 -9.299999999999999E-003    2.483725218205338E-024
 -9.200000000000000E-003    5.188508134163677E-024
 -9.099999999999999E-003    1.002889126946116E-023
 -8.999999999999999E-003    1.769839773624814E-023
 -8.900000000000000E-003    2.871024089770287E-023
 -8.799999999999999E-003    4.324397547277526E-023
 -8.699999999999999E-003    6.099085676703830E-023
 -8.600000000000000E-003    8.101912209227158E-023
 -8.499999999999999E-003    1.016832404405397E-022
 -8.399999999999999E-003    1.206014965016648E-022
 -8.300000000000000E-003    1.347232997516844E-022
 -8.199999999999999E-003    1.405013587041069E-022
 -8.100000000000000E-003    1.341739876712874E-022
 -8.000000000000000E-003    1.121503186026495E-022
 -7.899999999999999E-003    7.147702961733873E-023
 -7.800000000000000E-003    1.035047360089156E-023
 -7.699999999999999E-003   -7.137466918888942E-023
 -7.599999999999999E-003   -1.717388686704294E-022
 -7.499999999999999E-003   -2.863562611102383E-022
 -7.399999999999999E-003   -4.082790096892658E-022
 -7.299999999999999E-003   -5.280988734633294E-022
 -7.199999999999999E-003   -6.343205606536437E-022
 -7.100000000000000E-003   -7.140178567651559E-022
 -6.999999999999999E-003   -7.537565107660878E-022
 -6.899999999999999E-003   -7.407370182371446E-022
 -6.800000000000000E-003   -6.640825752705098E-022
 -6.699999999999999E-003   -5.161723529285869E-022
 -6.599999999999999E-003   -2.939041681731345E-022
 -6.499999999999999E-003    2.374229876071750E-025
 -6.399999999999999E-003    3.574263239660944E-022
 -6.299999999999999E-003    7.621566649087144E-022
 -6.199999999999999E-003    1.192397718383205E-021
 -6.100000000000000E-003    1.620283651019884E-021
 -5.999999999999999E-003    2.013340094484061E-021
 -5.899999999999999E-003    2.336209340947981E-021
 -5.800000000000000E-003    2.552797027570302E-021
 -5.699999999999999E-003    2.628732454282024E-021
 -5.599999999999999E-003    2.534010164881277E-021
 -5.499999999999999E-003    2.245667327837068E-021
 -5.399999999999999E-003    1.750344837684286E-021
 -5.299999999999999E-003    1.046582398249443E-021
 -5.199999999999999E-003    1.467024547302895E-022
 -5.099999999999999E-003   -9.218568534029542E-022
 -4.999999999999999E-003   -2.115892829263910E-021
 -4.899999999999999E-003   -3.376605703625876E-021
 -4.799999999999999E-003   -4.630712276375180E-021
 -4.699999999999999E-003   -5.792627351011724E-021
 -4.599999999999999E-003   -6.767824740627423E-021
 -4.499999999999999E-003   -7.457450069740207E-021
 -4.399999999999999E-003   -7.764203878852187E-021
 -4.299999999999999E-003   -7.599419453325025E-021
 -4.199999999999999E-003   -6.891129386155102E-021
 -4.099999999999999E-003   -5.592758498950834E-021
 -3.999999999999999E-003   -3.691893230147738E-021
 -3.899999999999999E-003   -1.218381175439806E-021
 -3.799999999999999E-003    1.749151663062634E-021
 -3.699999999999999E-003    5.079399600482705E-021
 -3.599999999999999E-003    8.588166543025125E-021
 -3.499999999999999E-003    1.204283070583785E-020
 -3.399999999999999E-003    1.517223735842971E-020
 -3.299999999999999E-003    1.768238910576591E-020
 -3.199999999999999E-003    1.927775695765075E-020
 -3.099999999999999E-003    1.968735806426374E-020
 -2.999999999999999E-003    1.869401380921463E-020
 -2.899999999999999E-003    1.616445375994488E-020
 -2.799999999999999E-003    1.207727518276115E-020
 -2.699999999999999E-003    6.545341776233199E-021
 -2.599999999999999E-003   -1.709657043496677E-022
 -2.499999999999999E-003   -7.662970160832298E-021
 -2.399999999999999E-003   -1.538801488919899E-020
 -2.299999999999999E-003   -2.270034024267925E-020
 -2.199999999999999E-003   -2.889844402062945E-020
 -2.099999999999999E-003   -3.328688050758896E-020
 -1.999999999999999E-003   -3.524850343840072E-020
 -1.899999999999999E-003   -3.432106837555627E-020
 -1.799999999999999E-003   -3.027055945478539E-020
 -1.699999999999999E-003   -2.315243279660198E-020
 -1.599999999999999E-003   -1.335172568513350E-020
 -1.499999999999999E-003   -1.593761304554678E-021
 -1.399999999999999E-003    1.108105013298530E-020
 -1.299999999999999E-003    2.338188814575546E-020
 -1.199999999999999E-003    3.387131337338476E-020
 -1.099999999999999E-003    4.110337976534420E-020
 -9.999999999999989E-004    4.378650417614259E-020
 -8.999999999999990E-004    4.095702373417415E-020
 -7.999999999999990E-004    3.214575460948919E-020
 -6.999999999999989E-004    1.751760293291417E-020
 -5.999999999999990E-004   -2.036125051972240E-021
 -4.999999999999989E-004   -2.487119395481667E-020
 -3.999999999999989E-004   -4.864393802613990E-020
 -2.999999999999989E-004   -7.045265667842457E-020
 -1.999999999999989E-004   -8.706620665814924E-020
 -9.999999999999892E-005   -9.522964607806795E-020
  1.084202172485504E-018   -9.202668053120554E-020
  1.000000000000011E-004   -7.526915485327194E-020
  2.000000000000011E-004   -4.387646458415340E-020
  3.000000000000011E-004    1.797232806650478E-021
  4.000000000000011E-004    5.973125858837223E-020
  5.000000000000011E-004    1.261418295637808E-019
  6.000000000000011E-004    1.955527396751292E-019
  7.000000000000011E-004    2.610529353975410E-019
  8.000000000000011E-004    3.147450598524627E-019
  9.000000000000012E-004    3.483697436180407E-019
  1.000000000000001E-003    3.540719651732593E-019
  1.100000000000001E-003    3.252560020095156E-019
  1.200000000000001E-003    2.574601921039653E-019
  1.300000000000001E-003    1.491708092939093E-019
  1.400000000000001E-003    2.489226845979139E-021
  1.500000000000001E-003   -1.764316832445952E-019
  1.600000000000001E-003   -3.772564088156238E-019
  1.700000000000001E-003   -5.856972647438855E-019
  1.800000000000001E-003   -7.841390789815044E-019
  1.900000000000001E-003   -9.526594767349023E-019
  2.000000000000001E-003   -1.070414147043764E-018
  2.100000000000001E-003   -1.117319364927450E-018
  2.200000000000001E-003   -1.075933663310139E-018
  2.300000000000001E-003   -9.334088636887007E-019
  2.400000000000001E-003   -6.833601854085621E-019
  2.500000000000001E-003   -3.274926463304981E-019
  2.600000000000001E-003    1.231837345257596E-019
  2.700000000000001E-003    6.477058778604987E-019
  2.800000000000001E-003    1.215211472735131E-018
  2.900000000000001E-003    1.785797214352671E-018
  3.000000000000001E-003    2.312236422193605E-018
  3.100000000000001E-003    2.742560129435020E-018
  3.200000000000001E-003    3.023439731406829E-018
  3.300000000000001E-003    3.104246475009339E-018
  3.400000000000001E-003    2.941590939447093E-018
  3.500000000000001E-003    2.504080788452663E-018
  3.600000000000001E-003    1.776975845251785E-018
  3.700000000000001E-003    7.663695891038896E-019
  3.800000000000001E-003   -4.975058588088555E-019
  3.900000000000001E-003   -1.958259555255793E-018
  4.000000000000001E-003   -3.533002503089051E-018
  4.100000000000001E-003   -5.114028399700384E-018
  4.200000000000001E-003   -6.572767841552158E-018
  4.300000000000001E-003   -7.766143709797972E-018
  4.400000000000001E-003   -8.545296722989016E-018
  4.500000000000001E-003   -8.766450413881236E-018
  4.600000000000002E-003   -8.303469358854549E-018
  4.700000000000001E-003   -7.061443387960554E-018
  4.800000000000001E-003   -4.990398925738693E-018
  4.900000000000002E-003   -2.098059015846024E-018
  5.000000000000001E-003    1.539581233676646E-018
  5.100000000000001E-003    5.771153051242344E-018
  5.200000000000001E-003    1.036755978313850E-017
  5.300000000000002E-003    1.502548441793435E-017
  5.400000000000001E-003    1.937762520228884E-017
  5.500000000000001E-003    2.301012367009985E-017
  5.600000000000002E-003    2.548712261347653E-017
  5.700000000000001E-003    2.638183724399941E-017
  5.800000000000001E-003    2.531277659359489E-017
  5.900000000000002E-003    2.198315850307661E-017
  6.000000000000001E-003    1.622086187779240E-017
  6.100000000000001E-003    8.015764538553389E-018
  6.200000000000002E-003   -2.449061853761925E-018
  6.300000000000002E-003   -1.477593318314263E-017
  6.400000000000001E-003   -2.834444111074952E-017
  6.500000000000001E-003   -4.231963932874025E-017
  6.600000000000002E-003   -5.567880820032493E-017
  6.700000000000001E-003   -6.725788299925207E-017
  6.800000000000001E-003   -7.581731153139012E-017
  6.900000000000002E-003   -8.012547670200767E-017
  7.000000000000001E-003   -7.905611795137170E-017
  7.100000000000001E-003   -7.169448913677909E-017
  7.200000000000002E-003   -5.744548698003551E-017
  7.300000000000002E-003   -3.613561195299354E-017
  7.400000000000001E-003   -8.099946631264466E-018
  7.500000000000001E-003    2.575509013009778E-017
  7.600000000000002E-003    6.392198381176395E-017
  7.700000000000001E-003    1.043029701704395E-016
  7.800000000000001E-003    1.442673513336099E-016
  7.900000000000001E-003    1.807584557131948E-016
  8.000000000000002E-003    2.104501869309845E-016
  8.100000000000001E-003    2.299494760506982E-016
  8.200000000000001E-003    2.360368713261301E-016
  8.300000000000002E-003    2.259335225342556E-016
  8.400000000000001E-003    1.975790442732150E-016
  8.500000000000002E-003    1.499015495478392E-016
  8.600000000000002E-003    8.305883244916217E-017
  8.700000000000001E-003   -1.371500791932657E-018
  8.800000000000002E-003   -1.002747274655958E-016
  8.900000000000002E-003   -2.089744507956450E-016
  9.000000000000001E-003   -3.213171304909974E-016
  9.100000000000002E-003   -4.298765401329616E-016
  9.200000000000002E-003   -5.262820898439381E-016
  9.300000000000001E-003   -6.016666313981180E-016
  9.400000000000002E-003   -6.472203496653119E-016
  9.500000000000001E-003   -6.548274260396577E-016
  9.600000000000001E-003   -6.177527558716232E-016
  9.700000000000002E-003   -5.313379719517314E-016
  9.800000000000001E-003   -3.936582227533686E-016
  9.900000000000001E-003   -2.060879425976494E-016
  1.000000000000000E-002    2.627918573709928E-017
  1.010000000000000E-002    2.944072859252697E-016
  1.020000000000000E-002    5.853383711726915E-016
  1.030000000000000E-002    8.824908377991689E-016
  1.040000000000000E-002    1.166257567108736E-015
  1.050000000000000E-002    1.414907140237305E-015
  1.060000000000000E-002    1.605770117661419E-015
  1.070000000000000E-002    1.716671454374907E-015
  1.080000000000000E-002    1.727544406085250E-015
  1.090000000000000E-002    1.622142225232802E-015
  1.100000000000000E-002    1.389741379012291E-015
  1.110000000000000E-002    1.026717925913335E-015
  1.120000000000000E-002    5.378682655811894E-016
  1.130000000000000E-002   -6.265595582858743E-017
  1.140000000000000E-002   -7.509186475096325E-016
  1.150000000000000E-002   -1.493381487311171E-015
  1.160000000000000E-002   -2.247774173929062E-015
  1.170000000000000E-002   -2.964693242335072E-015
  1.180000000000000E-002   -3.589925728157017E-015
  1.190000000000000E-002   -4.067442559135860E-015
  1.200000000000000E-002   -4.342954539694987E-015
  1.210000000000000E-002   -4.367865888277140E-015
  1.220000000000000E-002   -4.103415369763469E-015
  1.230000000000000E-002   -3.524742701496420E-015
  1.240000000000000E-002   -2.624596248758684E-015
  1.250000000000000E-002   -1.416375388495632E-015
  1.260000000000000E-002    6.379530770309227E-017
  1.270000000000000E-002    1.756239344428309E-015
  1.280000000000000E-002    3.578381293477335E-015
  1.290000000000000E-002    5.427045602660540E-015
  1.300000000000000E-002    7.182476274057956E-015
  1.310000000000000E-002    8.714048272940141E-015
  1.320000000000000E-002    9.887517731067620E-015
  1.330000000000000E-002    1.057353543033743E-014
  1.340000000000000E-002    1.065702704541634E-014
  1.350000000000000E-002    1.004692326680368E-014
  1.360000000000000E-002    8.685628177731511E-015
  1.370000000000000E-002    6.557554105727350E-015
  1.380000000000000E-002    3.696016481573315E-015
  1.390000000000000E-002    1.877989744977095E-016
  1.400000000000000E-002   -3.825239879266607E-015
  1.410000000000000E-002   -8.148031445451899E-015
  1.420000000000000E-002   -1.253798402654873E-014
  1.430000000000000E-002   -1.671462223009744E-014
  1.440000000000000E-002   -2.037307761424411E-014
  1.450000000000000E-002   -2.320104586512762E-014
  1.460000000000000E-002   -2.489852487128253E-014
  1.470000000000000E-002   -2.519940874433681E-014
  1.480000000000000E-002   -2.389371815109562E-014
  1.490000000000000E-002   -2.084907889892573E-014
  1.500000000000000E-002   -1.602989918372167E-014
  1.510000000000000E-002   -9.512669819245605E-015
  1.520000000000000E-002   -1.495835575933659E-015
  1.530000000000000E-002    7.697121430864810E-015
  1.540000000000000E-002    1.762249792523877E-014
  1.550000000000000E-002    2.772979092181157E-014
  1.560000000000000E-002    3.738395509927521E-014
  1.570000000000000E-002    4.589616495020974E-014
  1.580000000000000E-002    5.256213946997316E-014
  1.590000000000000E-002    5.670643059093132E-014
  1.600000000000000E-002    5.773054434776244E-014
  1.610000000000000E-002    5.516214646372720E-014
  1.620000000000000E-002    4.870223714052045E-014
  1.630000000000000E-002    3.826692424983528E-014
  1.640000000000000E-002    2.402031774413439E-014
  1.650000000000000E-002    6.395264426174976E-015
  1.660000000000000E-002   -1.390097087917665E-014
  1.670000000000000E-002   -3.589835300130907E-014
  1.680000000000000E-002   -5.839442121442314E-014
  1.690000000000000E-002   -8.000364756159275E-014
  1.700000000000000E-002   -9.922490664706030E-014
  1.710000000000000E-002   -1.145248069858976E-013
  1.720000000000000E-002   -1.244333921119730E-013
  1.730000000000000E-002   -1.276473470766581E-013
  1.740000000000000E-002   -1.231348828500439E-013
  1.750000000000000E-002   -1.102356530471962E-013
  1.760000000000000E-002   -8.874844330372421E-014
  1.770000000000000E-002   -5.899952843379996E-014
  1.780000000000000E-002   -2.188485899993322E-014
  1.790000000000000E-002    2.111971878121919E-014
  1.800000000000000E-002    6.798470004820847E-014
  1.810000000000000E-002    1.161921529163992E-013
  1.820000000000000E-002    1.628402425564239E-013
  1.830000000000000E-002    2.047848024952525E-013
  1.840000000000000E-002    2.388129775709759E-013
  1.850000000000000E-002    2.618413964256060E-013
  1.860000000000000E-002    2.711288446923922E-013
  1.870000000000000E-002    2.644910534878664E-013