 -4.000000000000000E-002    0.000000000000000E+000
 -3.990000000000000E-002    0.000000000000000E+000
 -3.980000000000000E-002    0.000000000000000E+000
 -3.970000000000000E-002    0.000000000000000E+000
 -3.960000000000000E-002    0.000000000000000E+000
 -3.950000000000000E-002    0.000000000000000E+000
 -3.940000000000000E-002    0.000000000000000E+000
 -3.930000000000000E-002    0.000000000000000E+000
 -3.920000000000000E-002    0.000000000000000E+000
 -3.910000000000000E-002    0.000000000000000E+000
 -3.900000000000000E-002    0.000000000000000E+000
 -3.890000000000000E-002    0.000000000000000E+000
 -3.880000000000000E-002    0.000000000000000E+000
 -3.870000000000000E-002    0.000000000000000E+000
 -3.860000000000000E-002    0.000000000000000E+000
 -3.850000000000000E-002    0.000000000000000E+000
 -3.840000000000000E-002    0.000000000000000E+000
 -3.830000000000000E-002    0.000000000000000E+000
 -3.820000000000000E-002    0.000000000000000E+000
 -3.810000000000000E-002    0.000000000000000E+000
 -3.800000000000000E-002    0.000000000000000E+000
 -3.790000000000000E-002    0.000000000000000E+000
 -3.780000000000000E-002    0.000000000000000E+000
 -3.770000000000000E-002    0.000000000000000E+000
 -3.760000000000000E-002    0.000000000000000E+000
 -3.750000000000000E-002    0.000000000000000E+000
 -3.740000000000000E-002    0.000000000000000E+000
 -3.730000000000000E-002    0.000000000000000E+000
 -3.720000000000000E-002    0.000000000000000E+000
 -3.710000000000000E-002    0.000000000000000E+000
 -3.700000000000000E-002    0.000000000000000E+000
 -3.690000000000000E-002    0.000000000000000E+000
 -3.680000000000000E-002    0.000000000000000E+000
 -3.670000000000000E-002    0.000000000000000E+000
 -3.660000000000000E-002    0.000000000000000E+000
 -3.650000000000000E-002    0.000000000000000E+000
 -3.640000000000000E-002    0.000000000000000E+000
 -3.630000000000000E-002    0.000000000000000E+000
 -3.620000000000000E-002    0.000000000000000E+000
 -3.610000000000000E-002    0.000000000000000E+000
 -3.600000000000000E-002    0.000000000000000E+000
 -3.590000000000000E-002    0.000000000000000E+000
 -3.580000000000000E-002    0.000000000000000E+000
 -3.570000000000000E-002    0.000000000000000E+000
 -3.560000000000000E-002    0.000000000000000E+000
 -3.550000000000000E-002    0.000000000000000E+000
 -3.540000000000000E-002    0.000000000000000E+000
 -3.530000000000000E-002    0.000000000000000E+000
 -3.520000000000000E-002    0.000000000000000E+000
 -3.510000000000000E-002    0.000000000000000E+000
 -3.500000000000000E-002    0.000000000000000E+000
 -3.490000000000000E-002    0.000000000000000E+000
 -3.480000000000000E-002    0.000000000000000E+000
 -3.470000000000000E-002    0.000000000000000E+000
 -3.460000000000000E-002    0.000000000000000E+000
 -3.450000000000000E-002    0.000000000000000E+000
 -3.440000000000000E-002    0.000000000000000E+000
 -3.430000000000000E-002    0.000000000000000E+000
 -3.420000000000000E-002    0.000000000000000E+000
 -3.410000000000000E-002    0.000000000000000E+000
 -3.400000000000000E-002    0.000000000000000E+000
 -3.390000000000000E-002    0.000000000000000E+000
 -3.380000000000000E-002    0.000000000000000E+000
 -3.370000000000000E-002    0.000000000000000E+000
 -3.360000000000000E-002    0.000000000000000E+000
 -3.350000000000000E-002    0.000000000000000E+000
 -3.340000000000000E-002    0.000000000000000E+000
 -3.330000000000000E-002    0.000000000000000E+000
 -3.320000000000000E-002    0.000000000000000E+000
 -3.310000000000000E-002    0.000000000000000E+000
 -3.300000000000000E-002    0.000000000000000E+000
 -3.290000000000000E-002    0.000000000000000E+000
 -3.280000000000000E-002    0.000000000000000E+000
 -3.270000000000000E-002    0.000000000000000E+000
 -3.260000000000000E-002    0.000000000000000E+000
 -3.250000000000000E-002    0.000000000000000E+000
 -3.240000000000000E-002    0.000000000000000E+000
 -3.230000000000000E-002    0.000000000000000E+000
 -3.220000000000000E-002    0.000000000000000E+000
 -3.210000000000000E-002    0.000000000000000E+000
 -3.200000000000000E-002    0.000000000000000E+000
 -3.190000000000000E-002    0.000000000000000E+000
 -3.180000000000000E-002    0.000000000000000E+000
 -3.170000000000000E-002    0.000000000000000E+000
 -3.160000000000000E-002    0.000000000000000E+000
 -3.150000000000000E-002    0.000000000000000E+000
 -3.140000000000000E-002    0.000000000000000E+000
 -3.130000000000000E-002    0.000000000000000E+000
 -3.120000000000000E-002    0.000000000000000E+000
 -3.110000000000000E-002    0.000000000000000E+000
 -3.100000000000000E-002    0.000000000000000E+000
 -3.090000000000000E-002    0.000000000000000E+000
 -3.080000000000000E-002    0.000000000000000E+000
 -3.070000000000000E-002    0.000000000000000E+000
 -3.060000000000000E-002    0.000000000000000E+000
 -3.050000000000000E-002    0.000000000000000E+000
 -3.040000000000000E-002    0.000000000000000E+000
 -3.030000000000000E-002    0.000000000000000E+000
 -3.020000000000000E-002    0.000000000000000E+000
 -3.010000000000000E-002    0.000000000000000E+000
 -3.000000000000000E-002    0.000000000000000E+000
 -2.990000000000000E-002    0.000000000000000E+000
 -2.980000000000000E-002    0.000000000000000E+000
 -2.970000000000000E-002    0.000000000000000E+000
 -2.960000000000000E-002    0.000000000000000E+000
 -2.950000000000000E-002    0.000000000000000E+000
 -2.940000000000000E-002    0.000000000000000E+000
 -2.930000000000000E-002    0.000000000000000E+000
 -2.920000000000000E-002    0.000000000000000E+000
 -2.910000000000000E-002    0.000000000000000E+000
 -2.900000000000000E-002    0.000000000000000E+000
 -2.890000000000000E-002    0.000000000000000E+000
 -2.880000000000000E-002    0.000000000000000E+000
 -2.870000000000000E-002    0.000000000000000E+000
 -2.860000000000000E-002    0.000000000000000E+000
 -2.850000000000000E-002    0.000000000000000E+000
 -2.840000000000000E-002    0.000000000000000E+000
 -2.830000000000000E-002    0.000000000000000E+000
 -2.820000000000000E-002    0.000000000000000E+000
 -2.810000000000000E-002    0.000000000000000E+000
 -2.800000000000000E-002    0.000000000000000E+000
 -2.790000000000000E-002    0.000000000000000E+000
 -2.780000000000000E-002    0.000000000000000E+000
 -2.770000000000000E-002    0.000000000000000E+000
 -2.760000000000000E-002    0.000000000000000E+000
 -2.750000000000000E-002    0.000000000000000E+000
 -2.740000000000000E-002    0.000000000000000E+000
 -2.730000000000000E-002    0.000000000000000E+000
 -2.720000000000000E-002    0.000000000000000E+000
 -2.710000000000000E-002    0.000000000000000E+000
 -2.700000000000000E-002    0.000000000000000E+000
 -2.690000000000000E-002    0.000000000000000E+000
 -2.680000000000000E-002    0.000000000000000E+000
 -2.670000000000000E-002    0.000000000000000E+000
 -2.660000000000000E-002    0.000000000000000E+000
 -2.650000000000000E-002    0.000000000000000E+000
 -2.640000000000000E-002    0.000000000000000E+000
 -2.630000000000000E-002    0.000000000000000E+000
 -2.620000000000000E-002    0.000000000000000E+000
 -2.610000000000000E-002    0.000000000000000E+000
 -2.600000000000000E-002    0.000000000000000E+000
 -2.590000000000000E-002    0.000000000000000E+000
 -2.580000000000000E-002    0.000000000000000E+000
 -2.570000000000000E-002    0.000000000000000E+000
 -2.560000000000000E-002    0.000000000000000E+000
 -2.550000000000000E-002    0.000000000000000E+000
 -2.540000000000000E-002    0.000000000000000E+000
 -2.530000000000000E-002    0.000000000000000E+000
 -2.520000000000000E-002    0.000000000000000E+000
 -2.510000000000000E-002    0.000000000000000E+000
 -2.500000000000000E-002    0.000000000000000E+000
 -2.490000000000000E-002    0.000000000000000E+000
 -2.480000000000000E-002    0.000000000000000E+000
 -2.470000000000000E-002   -1.232785497270466E-047
 -2.460000000000000E-002   -2.871577096935980E-047
 -2.450000000000000E-002   -4.510368696601493E-047
 -2.440000000000000E-002   -8.607763577609606E-047
 -2.430000000000000E-002    4.748634555440832E-048
 -2.420000000000000E-002    1.160228819075833E-046
 -2.410000000000000E-002    2.799832512807038E-046
 -2.400000000000000E-002    4.429843765846855E-046
 -2.390000000000000E-002    6.833770012775073E-046
 -2.380000000000000E-002    8.935982737244587E-046
 -2.370000000000000E-002    1.148136215682875E-045
 -2.360000000000000E-002    1.237643419133275E-045
 -2.350000000000000E-002    1.086490887504547E-045
 -2.340000000000000E-002    4.627883941068176E-046
 -2.330000000000000E-002   -4.812176667688512E-046
 -2.320000000000000E-002   -1.938952699279120E-045
 -2.310000000000000E-002   -4.098975018714867E-045
 -2.300000000000000E-002   -7.209778611205188E-045
 -2.290000000000000E-002   -1.068987738466383E-044
 -2.280000000000000E-002   -1.450071674266520E-044
 -2.270000000000000E-002   -1.687035218142812E-044
 -2.260000000000000E-002   -1.845436374482982E-044
 -2.250000000000000E-002   -1.835811088413694E-044
 -2.240000000000000E-002   -1.383219615101376E-044
 -2.230000000000000E-002   -4.746007065869493E-045
 -2.220000000000000E-002    1.149979399661073E-044
 -2.210000000000000E-002    3.563221753791741E-044
 -2.200000000000000E-002    6.673250576631160E-044
 -2.190000000000000E-002    1.029317394870969E-043
 -2.180000000000000E-002    1.416670935160870E-043
 -2.170000000000000E-002    1.777365398705624E-043
 -2.160000000000000E-002    2.033055440503335E-043
 -2.150000000000000E-002    2.105677586493487E-043
 -2.140000000000000E-002    1.908783400795353E-043
 -2.130000000000000E-002    1.361824805214710E-043
 -2.120000000000000E-002    3.960470456481254E-044
 -2.110000000000000E-002   -1.038395414304031E-043
 -2.100000000000000E-002   -2.947940226994720E-043
 -2.090000000000000E-002   -5.318431390070581E-043
 -2.080000000000000E-002   -8.119430316937241E-043
 -2.070000000000000E-002   -1.130861897057203E-042
 -2.060000000000000E-002   -1.485431450157117E-042
 -2.050000000000000E-002   -1.870499934031437E-042
 -2.040000000000000E-002   -2.274720171055351E-042
 -2.030000000000000E-002   -2.669434938323828E-042
 -2.020000000000000E-002   -2.992486435653034E-042
 -2.010000000000000E-002   -3.121553367752006E-042
 -2.000000000000000E-002   -2.851891169347799E-042
 -1.990000000000000E-002   -1.870780438820986E-042
 -1.980000000000000E-002    2.364343582962098E-043
 -1.970000000000000E-002    3.960637549375467E-042
 -1.960000000000000E-002    9.782943307230605E-042
 -1.950000000000000E-002    1.802185943664352E-041
 -1.940000000000000E-002    2.861740000283468E-041
 -1.930000000000000E-002    4.084938724802725E-041
 -1.920000000000000E-002    5.304054543558106E-041
 -1.910000000000000E-002    6.231253240536761E-041
 -1.900000000000000E-002    6.449779118133410E-041
 -1.890000000000000E-002    5.433379751679221E-041
 -1.880000000000000E-002    2.607041485988442E-041
 -1.870000000000000E-002   -2.540968347695186E-041
 -1.860000000000000E-002   -1.029299151534990E-040
 -1.850000000000000E-002   -2.049358370409357E-040
 -1.840000000000000E-002   -3.232581861998883E-040
 -1.830000000000000E-002   -4.412190150336610E-040
 -1.820000000000000E-002   -5.327563192186001E-040
 -1.810000000000000E-002   -5.633853803949077E-040
 -1.800000000000000E-002   -4.937719838477508E-040
 -1.790000000000000E-002   -2.864814549752257E-040
 -1.780000000000000E-002    8.405075530355165E-041
 -1.770000000000000E-002    6.190781245119884E-040
 -1.760000000000000E-002    1.282422089708060E-039
 -1.750000000000000E-002    1.989612405447692E-039
 -1.740000000000000E-002    2.603208021672359E-039
 -1.730000000000000E-002    2.938766087638092E-039
 -1.720000000000000E-002    2.785561783460337E-039
 -1.710000000000000E-002    1.944620964496669E-039
 -1.700000000000000E-002    2.835592596210754E-040
 -1.690000000000000E-002   -2.196716066631883E-039
 -1.680000000000000E-002   -5.293993725655708E-039
 -1.670000000000000E-002   -8.551686266447425E-039
 -1.660000000000000E-002   -1.124161415150673E-038
 -1.650000000000000E-002   -1.240528280967783E-038
 -1.640000000000000E-002   -1.097334097240378E-038
 -1.630000000000000E-002   -5.973546350154191E-039
 -1.620000000000000E-002    3.178875676062339E-039
 -1.610000000000000E-002    1.633782039483989E-038
 -1.600000000000000E-002    3.228647618589637E-038
 -1.590000000000000E-002    4.848477731861979E-038
 -1.580000000000000E-002    6.100774710625035E-038
 -1.570000000000000E-002    6.478306897208627E-038
 -1.560000000000000E-002    5.421764307138572E-038
 -1.550000000000000E-002    2.425402418019397E-038
 -1.540000000000000E-002   -2.818312798707970E-038
 -1.530000000000000E-002   -1.024994198715193E-037
 -1.520000000000000E-002   -1.927755165181617E-037
 -1.510000000000000E-002   -2.865352777101984E-037
 -1.500000000000000E-002   -3.644098515822546E-037
 -1.490000000000000E-002   -4.011801542998744E-037
 -1.480000000000000E-002   -3.685854562457148E-037
 -1.470000000000000E-002   -2.400628662287546E-037
 -1.460000000000000E-002    2.772330416814527E-039
 -1.450000000000000E-002    3.625588106133525E-037
 -1.440000000000000E-002    8.187023022652148E-037
 -1.430000000000000E-002    1.321606686649165E-036
 -1.420000000000000E-002    1.790565510680172E-036
 -1.410000000000000E-002    2.117262219872502E-036
 -1.400000000000000E-002    2.176414117720895E-036
 -1.390000000000000E-002    1.844186022958671E-036
 -1.380000000000000E-002    1.023604461694681E-036
 -1.370000000000000E-002   -3.255688520039553E-037
 -1.360000000000000E-002   -2.156944422012106E-036
 -1.350000000000000E-002   -4.313716132207481E-036
 -1.340000000000000E-002   -6.518092632918836E-036
 -1.330000000000000E-002   -8.380933142798822E-036
 -1.320000000000000E-002   -9.436920246395748E-036
 -1.310000000000000E-002   -9.207238081345931E-036
 -1.300000000000000E-002   -7.286737014500330E-036
 -1.290000000000000E-002   -3.446508737655991E-036
 -1.280000000000000E-002    2.263487381580724E-036
 -1.270000000000000E-002    9.432331711217198E-036
 -1.260000000000000E-002    1.724977819757690E-035
 -1.250000000000000E-002    2.453360172383323E-035
 -1.240000000000000E-002    2.983818843641686E-035
 -1.230000000000000E-002    3.164840151393097E-035
 -1.220000000000000E-002    2.864633570970215E-035
 -1.210000000000000E-002    2.001987655425910E-035
 -1.200000000000000E-002    5.763453376981177E-036
 -1.190000000000000E-002   -1.309204094102394E-035
 -1.180000000000000E-002   -3.438806315080715E-035
 -1.170000000000000E-002   -5.494534170117489E-035
 -1.160000000000000E-002   -7.090482703344046E-035
 -1.150000000000000E-002   -7.830026167739133E-035
 -1.140000000000000E-002   -7.381049238618712E-035
 -1.130000000000000E-002   -5.558596193951018E-035
 -1.120000000000000E-002   -2.399764988493513E-035
 -1.110000000000000E-002    1.787192657330368E-035
 -1.100000000000000E-002    6.417286696823186E-035
 -1.090000000000000E-002    1.068016859927382E-034
 -1.080000000000000E-002    1.365352505941409E-034
 -1.070000000000000E-002    1.447131545058531E-034
 -1.060000000000000E-002    1.252550640637238E-034
 -1.050000000000000E-002    7.666134764312512E-035
 -1.040000000000000E-002    3.545181447573964E-036
 -1.030000000000000E-002   -8.278811317149799E-035
 -1.020000000000000E-002   -1.651260952380787E-034
 -1.010000000000000E-002   -2.227313128199163E-034
 -1.000000000000000E-002   -2.352549449673260E-034
 -9.899999999999999E-003   -1.877478420420532E-034
 -9.800000000000000E-003   -7.594630675762861E-035
 -9.699999999999999E-003    8.931607630931909E-035
 -9.599999999999999E-003    2.798867325401403E-034
 -9.500000000000000E-003    4.515000369737933E-034
 -9.399999999999999E-003    5.492661423805024E-034
 -9.299999999999999E-003    5.175946773738309E-034
 -9.200000000000000E-003    3.137447989531257E-034
 -9.099999999999999E-003   -7.690370349088405E-035
 -8.999999999999999E-003   -6.267862583136273E-034
 -8.900000000000000E-003   -1.256930530900915E-033
 -8.799999999999999E-003   -1.836346367554436E-033
 -8.699999999999999E-003   -2.193138817919996E-033
 -8.600000000000000E-003   -2.138926392594870E-033
 -8.499999999999999E-003   -1.505760482398310E-033
 -8.399999999999999E-003   -1.917873351424539E-034
 -8.300000000000000E-003    1.791205533162924E-033
 -8.199999999999999E-003    4.277839848330211E-033
 -8.100000000000000E-003    6.927728059136472E-033
 -8.000000000000000E-003    9.233144243389510E-033
 -7.899999999999999E-003    1.056370786598894E-032
 -7.800000000000000E-003    1.025092765041115E-032
 -7.699999999999999E-003    7.708356477721043E-033
 -7.599999999999999E-003    2.574751210329351E-033
 -7.499999999999999E-003   -5.140559763293607E-033
 -7.399999999999999E-003   -1.493734304545853E-032
 -7.299999999999999E-003   -2.575929007863484E-032
 -7.199999999999999E-003   -3.601196578601841E-032
 -7.100000000000000E-003   -4.368381987403993E-032
 -6.999999999999999E-003   -4.657625534135727E-032
 -6.899999999999999E-003   -4.263029234370284E-032
 -6.800000000000000E-003   -3.031669455921116E-032
 -6.699999999999999E-003   -9.037056737611220E-033
 -6.599999999999999E-003    2.053067760698492E-032
 -6.499999999999999E-003    5.621396171764420E-032
 -6.399999999999999E-003    9.431921003589820E-032
 -6.299999999999999E-003    1.298419228829957E-031
 -6.199999999999999E-003    1.569259817602797E-031
 -6.100000000000000E-003    1.695449451778044E-031
 -5.999999999999999E-003    1.623359268937279E-031
 -5.899999999999999E-003    1.314805233311117E-031
 -5.800000000000000E-003    7.550456381359270E-032
 -5.699999999999999E-003   -4.134148759580250E-033
 -5.599999999999999E-003   -1.027797491437146E-031
 -5.499999999999999E-003   -2.126997727460927E-031
 -5.399999999999999E-003   -3.235994728743876E-031
 -5.299999999999999E-003   -4.234681241612633E-031
 -5.199999999999999E-003   -4.996379499417091E-031
 -5.099999999999999E-003   -5.399011324400294E-031
 -4.999999999999999E-003   -5.335298231438754E-031
 -4.899999999999999E-003   -4.720827922056928E-031
 -4.799999999999999E-003   -3.499606085365878E-031
 -4.699999999999999E-003   -1.647676840034534E-031
 -4.599999999999999E-003    8.236117781023890E-032
 -4.499999999999999E-003    3.862499581200284E-031
 -4.399999999999999E-003    7.367648988914120E-031
 -4.299999999999999E-003    1.117361403010356E-030
 -4.199999999999999E-003    1.503145960908485E-030
 -4.099999999999999E-003    1.858776985959044E-030
 -3.999999999999999E-003    2.136832283578412E-030
 -3.899999999999999E-003    2.277553873221710E-030
 -3.799999999999999E-003    2.211050322610044E-030
 -3.699999999999999E-003    1.862995517288602E-030
 -3.599999999999999E-003    1.164551466087178E-030
 -3.499999999999999E-003    6.660303882972986E-032
 -3.399999999999999E-003   -1.442533643513672E-030
 -3.299999999999999E-003   -3.317905916479387E-030
 -3.199999999999999E-003   -5.440367391663336E-030
 -3.099999999999999E-003   -7.604774142086994E-030
 -2.999999999999999E-003   -9.518546062051636E-030
 -2.899999999999999E-003   -1.081493523478043E-029
 -2.799999999999999E-003   -1.108418723313735E-029
 -2.699999999999999E-003   -9.923593687606744E-030
 -2.599999999999999E-003   -7.004303391460646E-030
 -2.499999999999999E-003   -2.149082080274024E-030
 -2.399999999999999E-003    4.588601404682137E-030
 -2.299999999999999E-003    1.285704728405419E-029
 -2.199999999999999E-003    2.196514499278296E-029
 -2.099999999999999E-003    3.088227074572865E-029
 -1.999999999999999E-003    3.829127719476842E-029
 -1.899999999999999E-003    4.270129916630972E-029
 -1.799999999999999E-003    4.261896822395178E-029
 -1.699999999999999E-003    3.676709587971800E-029
 -1.599999999999999E-003    2.432930193968621E-029
 -1.499999999999999E-003    5.189828448878144E-030
 -1.399999999999999E-003   -1.986888516715502E-029
 -1.299999999999999E-003   -4.905038347457310E-029
 -1.199999999999999E-003   -7.954616957972344E-029
 -1.099999999999999E-003   -1.076814238778159E-028
 -9.999999999999989E-004   -1.292144014695481E-028
 -8.999999999999990E-004   -1.397788357695625E-028
 -7.999999999999990E-004   -1.354359370974025E-028
 -6.999999999999989E-004   -1.132800574499432E-028
 -5.999999999999990E-004   -7.202555939851484E-029
 -4.999999999999989E-004   -1.249130311380421E-029
 -3.999999999999989E-004    6.209772837957712E-029
 -2.999999999999989E-004    1.460615277385536E-028
 -1.999999999999989E-004    2.315125421666669E-028
 -9.999999999999892E-005    3.089099804134453E-028
  1.084202172485504E-018    3.678930942121405E-028
  1.000000000000011E-004    3.983249086495742E-028
  2.000000000000011E-004    3.914461837726466E-028
  3.000000000000011E-004    3.410173598332583E-028
  4.000000000000011E-004    2.443192719715233E-028
  5.000000000000011E-004    1.028935191865571E-028
  6.000000000000011E-004   -7.706744481036291E-029
  7.000000000000011E-004   -2.847354262892683E-028
  8.000000000000011E-004   -5.050720982266580E-028
  9.000000000000012E-004   -7.196332375704673E-028
  1.000000000000001E-003   -9.076808820666731E-028
  1.100000000000001E-003   -1.047517112278472E-027
  1.200000000000001E-003   -1.117954338005939E-027
  1.300000000000001E-003   -1.099847987224431E-027
  1.400000000000001E-003   -9.776539945349486E-028
  1.500000000000001E-003   -7.409944266991503E-028
  1.600000000000001E-003   -3.862338597179236E-028
  1.700000000000001E-003    8.192639248409228E-029
  1.800000000000001E-003    6.488769724717217E-028
  1.900000000000001E-003    1.288646542584053E-027
  2.000000000000001E-003    1.962768458937199E-027
  2.100000000000001E-003    2.619762406676016E-027
  2.200000000000001E-003    3.195637521540139E-027
  2.300000000000001E-003    3.615861295950912E-027
  2.400000000000001E-003    3.799245360818222E-027
  2.500000000000001E-003    3.664057924521645E-027
  2.600000000000001E-003    3.136487347351334E-027
  2.700000000000001E-003    2.161200327300154E-027
  2.800000000000001E-003    7.133640321323166E-028
  2.900000000000001E-003   -1.188990799605499E-027
  3.000000000000001E-003   -3.473812747648906E-027
  3.100000000000001E-003   -6.006967298534878E-027
  3.200000000000001E-003   -8.589318384013256E-027
  3.300000000000001E-003   -1.096087520695004E-026
  3.400000000000001E-003   -1.281352951500655E-026
  3.500000000000001E-003   -1.381318145523818E-026
  3.600000000000001E-003   -1.363098655782551E-026
  3.700000000000001E-003   -1.198223999285949E-026
  3.800000000000001E-003   -8.670040893268285E-027
  3.900000000000001E-003   -3.629653502575744E-027
  4.000000000000001E-003    3.031592247213298E-027
  4.100000000000001E-003    1.100462036704965E-026
  4.200000000000001E-003    1.976484450899902E-026
  4.300000000000001E-003    2.857940582824372E-026
  4.400000000000001E-003    3.653909090472558E-026
  4.500000000000001E-003    4.261644623740016E-026
  4.600000000000002E-003    4.574910785613432E-026
  4.700000000000001E-003    4.494429135454550E-026
  4.800000000000001E-003    3.939744773484514E-026
  4.900000000000002E-003    2.861533541637290E-026
  5.000000000000001E-003    1.253164735066651E-026
  5.100000000000001E-003   -8.398010271993721E-027
  5.200000000000001E-003   -3.313505959710685E-026
  5.300000000000002E-003   -6.004291072112583E-026
  5.400000000000001E-003   -8.692800753884482E-026
  5.500000000000001E-003   -1.111425273022964E-025
  5.600000000000002E-003   -1.297505255200915E-025
  5.700000000000001E-003   -1.397533014664644E-025
  5.800000000000001E-003   -1.383634015151794E-025
  5.900000000000002E-003   -1.233115153304678E-025
  6.000000000000001E-003   -9.316416910484017E-026
  6.100000000000001E-003   -4.762565581619465E-026
  6.200000000000002E-003    1.220558173891051E-026
  6.300000000000002E-003    8.365785673334704E-026
  6.400000000000001E-003    1.624149767196829E-025
  6.500000000000001E-003    2.425810504266211E-025
  6.600000000000002E-003    3.169014938357755E-025
  6.700000000000001E-003    3.771536047538278E-025
  6.800000000000001E-003    4.147064263347998E-025
  6.900000000000002E-003    4.212339211015901E-025
  7.000000000000001E-003    3.895509065751682E-025
  7.100000000000001E-003    3.145207003326386E-025
  7.200000000000002E-003    1.939674148167268E-025
  7.300000000000002E-003    2.950880849696502E-026
  7.400000000000001E-003   -1.727852153126984E-025
  7.500000000000001E-003   -4.020095346863338E-025
  7.600000000000002E-003   -6.424117313314853E-025
  7.700000000000001E-003   -8.738371361911513E-025
  7.800000000000001E-003   -1.072687926198833E-024
  7.900000000000001E-003   -1.213419522831653E-024
  8.000000000000002E-003   -1.270545104073194E-024
  8.100000000000001E-003   -1.221068710526053E-024
  8.200000000000001E-003   -1.047199243084267E-024
  8.300000000000002E-003   -7.391445059752314E-025
  8.400000000000001E-003   -2.977242864431193E-025
  8.500000000000002E-003    2.634886104516146E-025
  8.600000000000002E-003    9.168130634582928E-025
  8.700000000000001E-003    1.620185692217647E-024
  8.800000000000002E-003    2.318218766018454E-024
  8.900000000000002E-003    2.944757883059613E-024
  9.000000000000001E-003    3.426988859875085E-024
  9.100000000000002E-003    3.691003895546569E-024
  9.200000000000002E-003    3.668568233303446E-024
  9.300000000000001E-003    3.304658172421023E-024
  9.400000000000002E-003    2.565193986705274E-024
  9.500000000000001E-003    1.444256009887998E-024
  9.600000000000001E-003   -3.000279320900296E-026
  9.700000000000002E-003   -1.791539314525909E-024
  9.800000000000001E-003   -3.735452246107850E-024
  9.900000000000001E-003   -5.720431717426992E-024
  1.000000000000000E-002   -7.575000308641089E-024
  1.010000000000000E-002   -9.107626489713579E-024
  1.020000000000000E-002   -1.012040401523469E-023
  1.030000000000000E-002   -1.042567831648987E-023
  1.040000000000000E-002   -9.864583978941084E-024
  1.050000000000000E-002   -8.326160492882135E-024
  1.060000000000000E-002   -5.765460202169040E-024
  1.070000000000000E-002   -2.218914492131123E-024
  1.080000000000000E-002    2.184785043447680E-024
  1.090000000000000E-002    7.219915179546932E-024
  1.100000000000000E-002    1.256639161053399E-023
  1.110000000000000E-002    1.782079912824094E-023
  1.120000000000000E-002    2.251617531137697E-023
  1.130000000000000E-002    2.615028525681092E-023
  1.140000000000000E-002    2.822146814842250E-023
  1.150000000000000E-002    2.827033076474664E-023
  1.160000000000000E-002    2.592502541309258E-023
  1.170000000000000E-002    2.094709449601028E-023
  1.180000000000000E-002    1.327440778213050E-023
  1.190000000000000E-002    3.057411909877687E-024
  1.200000000000000E-002   -9.315309560783013E-024
  1.210000000000000E-002   -2.320594906341325E-023
  1.220000000000000E-002   -3.773438863258169E-023
  1.230000000000000E-002   -5.180583238794917E-023
  1.240000000000000E-002   -6.416074386999178E-023
  1.250000000000000E-002   -7.344759697378322E-023
  1.260000000000000E-002   -7.831674317370230E-023
  1.270000000000000E-002   -7.753216790832752E-023
  1.280000000000000E-002   -7.009545111273345E-023
  1.290000000000000E-002   -5.537418161088647E-023
  1.300000000000000E-002   -3.322502771169998E-023
  1.310000000000000E-002   -4.100031763498516E-024
  1.320000000000000E-002    3.087630396202806E-023
  1.330000000000000E-002    6.987179623909749E-023
  1.340000000000000E-002    1.103644858168902E-022
  1.350000000000000E-002    1.492234356671322E-022
  1.360000000000000E-002    1.828575445917525E-022
  1.370000000000000E-002    2.074334562850214E-022
  1.380000000000000E-002    2.191569845813217E-022
  1.390000000000000E-002    2.146060538657418E-022
  1.400000000000000E-002    1.910957197111133E-022
  1.410000000000000E-002    1.470495170047469E-022
  1.420000000000000E-002    8.234536721243720E-023
  1.430000000000000E-002   -1.399183833620381E-024
  1.440000000000000E-002   -1.006392102425697E-022
  1.450000000000000E-002   -2.098467346900728E-022
  1.460000000000000E-002   -3.216168634063062E-022
  1.470000000000000E-002   -4.269562342234103E-022
  1.480000000000000E-002   -5.157616821336148E-022
  1.490000000000000E-002   -5.774823462919552E-022
  1.500000000000000E-002   -6.019405920725865E-022
  1.510000000000000E-002   -5.802691802821391E-022
  1.520000000000000E-002   -5.059047635500182E-022
  1.530000000000000E-002   -3.755618178476338E-022
  1.540000000000000E-002   -1.901006708954493E-022
  1.550000000000000E-002    4.480424288479610E-023
  1.560000000000000E-002    3.182866831584855E-022
  1.570000000000000E-002    6.142860813632001E-022
  1.580000000000000E-002    9.119844993856379E-022
  1.590000000000000E-002    1.186724047919637E-021
  1.600000000000000E-002    1.411410619332906E-021
  1.610000000000000E-002    1.558370527810879E-021
  1.620000000000000E-002    1.601580564864785E-021
  1.630000000000000E-002    1.519150195179406E-021
  1.640000000000000E-002    1.295887582963477E-021
  1.650000000000000E-002    9.257484863934790E-022
  1.660000000000000E-002    4.139382551099471E-022
  1.670000000000000E-002   -2.215700709396777E-022
  1.680000000000000E-002   -9.493339545134907E-022
  1.690000000000000E-002   -1.724757816575497E-021
  1.700000000000000E-002   -2.491575850231511E-021
  1.710000000000000E-002   -3.184576330939791E-021
  1.720000000000000E-002   -3.733552711524853E-021
  1.730000000000000E-002   -4.068352350242852E-021
  1.740000000000000E-002   -4.124777804597550E-021
  1.750000000000000E-002   -3.850984263453722E-021
  1.760000000000000E-002   -3.213908710078227E-021
  1.770000000000000E-002   -2.205187684455839E-021
  1.780000000000000E-002   -8.459725363463586E-022
  1.790000000000000E-002    8.099533562925730E-022
  1.800000000000000E-002    2.675296830542006E-021
  1.810000000000000E-002    4.631056257987171E-021
  1.820000000000000E-002    6.531289807964091E-021
  1.830000000000000E-002    8.210905246142546E-021
  1.840000000000000E-002    9.496310332658648E-021
  1.850000000000000E-002    1.021846365826599E-020
  1.860000000000000E-002    1.022759869177544E-020
  1.870000000000000E-002    9.408649908855166E-021