 -4.000000000000000E-002    0.000000000000000E+000
 -3.990000000000000E-002    0.000000000000000E+000
 -3.980000000000000E-002    0.000000000000000E+000
 -3.970000000000000E-002    0.000000000000000E+000
 -3.960000000000000E-002    0.000000000000000E+000
 -3.950000000000000E-002    0.000000000000000E+000
 -3.940000000000000E-002    0.000000000000000E+000
 -3.930000000000000E-002    0.000000000000000E+000
 -3.920000000000000E-002    0.000000000000000E+000
 -3.910000000000000E-002    0.000000000000000E+000
 -3.900000000000000E-002    0.000000000000000E+000
 -3.890000000000000E-002    0.000000000000000E+000
 -3.880000000000000E-002    0.000000000000000E+000
 -3.870000000000000E-002    0.000000000000000E+000
 -3.860000000000000E-002    0.000000000000000E+000
 -3.850000000000000E-002    0.000000000000000E+000
 -3.840000000000000E-002    0.000000000000000E+000
 -3.830000000000000E-002    0.000000000000000E+000
 -3.820000000000000E-002    0.000000000000000E+000
 -3.810000000000000E-002    0.000000000000000E+000
 -3.800000000000000E-002    0.000000000000000E+000
 -3.790000000000000E-002    0.000000000000000E+000
 -3.780000000000000E-002    0.000000000000000E+000
 -3.770000000000000E-002    0.000000000000000E+000
 -3.760000000000000E-002    0.000000000000000E+000
 -3.750000000000000E-002    0.000000000000000E+000
 -3.740000000000000E-002    0.000000000000000E+000
 -3.730000000000000E-002    0.000000000000000E+000
 -3.720000000000000E-002    0.000000000000000E+000
 -3.710000000000000E-002    0.000000000000000E+000
 -3.700000000000000E-002    0.000000000000000E+000
 -3.690000000000000E-002    0.000000000000000E+000
 -3.680000000000000E-002    0.000000000000000E+000
 -3.670000000000000E-002    0.000000000000000E+000
 -3.660000000000000E-002    0.000000000000000E+000
 -3.650000000000000E-002    0.000000000000000E+000
 -3.640000000000000E-002    0.000000000000000E+000
 -3.630000000000000E-002    0.000000000000000E+000
 -3.620000000000000E-002    0.000000000000000E+000
 -3.610000000000000E-002    0.000000000000000E+000
 -3.600000000000000E-002    0.000000000000000E+000
 -3.590000000000000E-002    0.000000000000000E+000
 -3.580000000000000E-002    0.000000000000000E+000
 -3.570000000000000E-002    0.000000000000000E+000
 -3.560000000000000E-002    0.000000000000000E+000
 -3.550000000000000E-002    0.000000000000000E+000
 -3.540000000000000E-002    0.000000000000000E+000
 -3.530000000000000E-002    0.000000000000000E+000
 -3.520000000000000E-002    0.000000000000000E+000
 -3.510000000000000E-002    0.000000000000000E+000
 -3.500000000000000E-002    0.000000000000000E+000
 -3.490000000000000E-002    0.000000000000000E+000
 -3.480000000000000E-002    0.000000000000000E+000
 -3.470000000000000E-002    0.000000000000000E+000
 -3.460000000000000E-002    0.000000000000000E+000
 -3.450000000000000E-002    0.000000000000000E+000
 -3.440000000000000E-002    0.000000000000000E+000
 -3.430000000000000E-002    0.000000000000000E+000
 -3.420000000000000E-002    0.000000000000000E+000
 -3.410000000000000E-002    0.000000000000000E+000
 -3.400000000000000E-002    0.000000000000000E+000
 -3.390000000000000E-002    0.000000000000000E+000
 -3.380000000000000E-002    0.000000000000000E+000
 -3.370000000000000E-002    0.000000000000000E+000
 -3.360000000000000E-002    0.000000000000000E+000
 -3.350000000000000E-002    0.000000000000000E+000
 -3.340000000000000E-002    0.000000000000000E+000
 -3.330000000000000E-002    0.000000000000000E+000
 -3.320000000000000E-002    0.000000000000000E+000
 -3.310000000000000E-002    0.000000000000000E+000
 -3.300000000000000E-002    0.000000000000000E+000
 -3.290000000000000E-002    0.000000000000000E+000
 -3.280000000000000E-002    0.000000000000000E+000
 -3.270000000000000E-002    0.000000000000000E+000
 -3.260000000000000E-002    0.000000000000000E+000
 -3.250000000000000E-002    0.000000000000000E+000
 -3.240000000000000E-002    0.000000000000000E+000
 -3.230000000000000E-002    0.000000000000000E+000
 -3.220000000000000E-002    0.000000000000000E+000
 -3.210000000000000E-002    0.000000000000000E+000
 -3.200000000000000E-002    0.000000000000000E+000
 -3.190000000000000E-002    0.000000000000000E+000
 -3.180000000000000E-002    0.000000000000000E+000
 -3.170000000000000E-002    0.000000000000000E+000
 -3.160000000000000E-002    0.000000000000000E+000
 -3.150000000000000E-002    0.000000000000000E+000
 -3.140000000000000E-002    0.000000000000000E+000
 -3.130000000000000E-002    0.000000000000000E+000
 -3.120000000000000E-002    0.000000000000000E+000
 -3.110000000000000E-002    0.000000000000000E+000
 -3.100000000000000E-002    0.000000000000000E+000
 -3.090000000000000E-002    0.000000000000000E+000
 -3.080000000000000E-002    0.000000000000000E+000
 -3.070000000000000E-002    0.000000000000000E+000
 -3.060000000000000E-002    0.000000000000000E+000
 -3.050000000000000E-002    0.000000000000000E+000
 -3.040000000000000E-002    0.000000000000000E+000
 -3.030000000000000E-002    0.000000000000000E+000
 -3.020000000000000E-002    0.000000000000000E+000
 -3.010000000000000E-002    0.000000000000000E+000
 -3.000000000000000E-002    0.000000000000000E+000
 -2.990000000000000E-002    0.000000000000000E+000
 -2.980000000000000E-002    0.000000000000000E+000
 -2.970000000000000E-002    0.000000000000000E+000
 -2.960000000000000E-002    0.000000000000000E+000
 -2.950000000000000E-002    0.000000000000000E+000
 -2.940000000000000E-002    0.000000000000000E+000
 -2.930000000000000E-002    0.000000000000000E+000
 -2.920000000000000E-002    0.000000000000000E+000
 -2.910000000000000E-002    0.000000000000000E+000
 -2.900000000000000E-002    0.000000000000000E+000
 -2.890000000000000E-002    0.000000000000000E+000
 -2.880000000000000E-002    0.000000000000000E+000
 -2.870000000000000E-002    0.000000000000000E+000
 -2.860000000000000E-002    0.000000000000000E+000
 -2.850000000000000E-002    0.000000000000000E+000
 -2.840000000000000E-002    0.000000000000000E+000
 -2.830000000000000E-002    0.000000000000000E+000
 -2.820000000000000E-002    0.000000000000000E+000
 -2.810000000000000E-002    0.000000000000000E+000
 -2.800000000000000E-002    0.000000000000000E+000
 -2.790000000000000E-002    0.000000000000000E+000
 -2.780000000000000E-002    0.000000000000000E+000
 -2.770000000000000E-002    0.000000000000000E+000
 -2.760000000000000E-002    0.000000000000000E+000
 -2.750000000000000E-002    0.000000000000000E+000
 -2.740000000000000E-002    0.000000000000000E+000
 -2.730000000000000E-002    0.000000000000000E+000
 -2.720000000000000E-002    0.000000000000000E+000
 -2.710000000000000E-002    0.000000000000000E+000
 -2.700000000000000E-002    0.000000000000000E+000
 -2.690000000000000E-002    0.000000000000000E+000
 -2.680000000000000E-002    0.000000000000000E+000
 -2.670000000000000E-002    0.000000000000000E+000
 -2.660000000000000E-002    0.000000000000000E+000
 -2.650000000000000E-002    0.000000000000000E+000
 -2.640000000000000E-002    0.000000000000000E+000
 -2.630000000000000E-002    0.000000000000000E+000
 -2.620000000000000E-002    0.000000000000000E+000
 -2.610000000000000E-002    0.000000000000000E+000
 -2.600000000000000E-002    0.000000000000000E+000
 -2.590000000000000E-002    0.000000000000000E+000
 -2.580000000000000E-002    0.000000000000000E+000
 -2.570000000000000E-002    0.000000000000000E+000
 -2.560000000000000E-002    0.000000000000000E+000
 -2.550000000000000E-002    0.000000000000000E+000
 -2.540000000000000E-002    0.000000000000000E+000
 -2.530000000000000E-002    0.000000000000000E+000
 -2.520000000000000E-002    0.000000000000000E+000
 -2.510000000000000E-002    0.000000000000000E+000
 -2.500000000000000E-002    0.000000000000000E+000
 -2.490000000000000E-002    0.000000000000000E+000
 -2.480000000000000E-002    0.000000000000000E+000
 -2.470000000000000E-002    0.000000000000000E+000
 -2.460000000000000E-002    0.000000000000000E+000
 -2.450000000000000E-002    0.000000000000000E+000
 -2.440000000000000E-002    0.000000000000000E+000
 -2.430000000000000E-002    0.000000000000000E+000
 -2.420000000000000E-002    0.000000000000000E+000
 -2.410000000000000E-002    0.000000000000000E+000
 -2.400000000000000E-002    0.000000000000000E+000
 -2.390000000000000E-002    0.000000000000000E+000
 -2.380000000000000E-002    0.000000000000000E+000
 -2.370000000000000E-002    0.000000000000000E+000
 -2.360000000000000E-002    0.000000000000000E+000
 -2.350000000000000E-002    0.000000000000000E+000
 -2.340000000000000E-002    0.000000000000000E+000
 -2.330000000000000E-002    0.000000000000000E+000
 -2.320000000000000E-002    0.000000000000000E+000
 -2.310000000000000E-002    0.000000000000000E+000
 -2.300000000000000E-002    0.000000000000000E+000
 -2.290000000000000E-002    0.000000000000000E+000
 -2.280000000000000E-002    0.000000000000000E+000
 -2.270000000000000E-002    0.000000000000000E+000
 -2.260000000000000E-002    0.000000000000000E+000
 -2.250000000000000E-002    0.000000000000000E+000
 -2.240000000000000E-002    0.000000000000000E+000
 -2.230000000000000E-002    0.000000000000000E+000
 -2.220000000000000E-002    0.000000000000000E+000
 -2.210000000000000E-002    0.000000000000000E+000
 -2.200000000000000E-002    0.000000000000000E+000
 -2.190000000000000E-002    0.000000000000000E+000
 -2.180000000000000E-002    0.000000000000000E+000
 -2.170000000000000E-002    0.000000000000000E+000
 -2.160000000000000E-002    0.000000000000000E+000
 -2.150000000000000E-002    0.000000000000000E+000
 -2.140000000000000E-002    0.000000000000000E+000
 -2.130000000000000E-002    0.000000000000000E+000
 -2.120000000000000E-002    0.000000000000000E+000
 -2.110000000000000E-002    0.000000000000000E+000
 -2.100000000000000E-002    0.000000000000000E+000
 -2.090000000000000E-002    0.000000000000000E+000
 -2.080000000000000E-002    0.000000000000000E+000
 -2.070000000000000E-002    0.000000000000000E+000
 -2.060000000000000E-002    0.000000000000000E+000
 -2.050000000000000E-002    0.000000000000000E+000
 -2.040000000000000E-002    0.000000000000000E+000
 -2.030000000000000E-002    0.000000000000000E+000
 -2.020000000000000E-002    0.000000000000000E+000
 -2.010000000000000E-002    0.000000000000000E+000
 -2.000000000000000E-002    0.000000000000000E+000
 -1.990000000000000E-002    0.000000000000000E+000
 -1.980000000000000E-002    0.000000000000000E+000
 -1.970000000000000E-002    0.000000000000000E+000
 -1.960000000000000E-002    0.000000000000000E+000
 -1.950000000000000E-002    0.000000000000000E+000
 -1.940000000000000E-002    0.000000000000000E+000
 -1.930000000000000E-002    0.000000000000000E+000
 -1.920000000000000E-002    0.000000000000000E+000
 -1.910000000000000E-002    0.000000000000000E+000
 -1.900000000000000E-002    0.000000000000000E+000
 -1.890000000000000E-002    0.000000000000000E+000
 -1.880000000000000E-002    0.000000000000000E+000
 -1.870000000000000E-002    0.000000000000000E+000
 -1.860000000000000E-002    0.000000000000000E+000
 -1.850000000000000E-002    0.000000000000000E+000
 -1.840000000000000E-002    0.000000000000000E+000
 -1.830000000000000E-002    0.000000000000000E+000
 -1.820000000000000E-002    0.000000000000000E+000
 -1.810000000000000E-002    0.000000000000000E+000
 -1.800000000000000E-002    0.000000000000000E+000
 -1.790000000000000E-002    0.000000000000000E+000
 -1.780000000000000E-002    0.000000000000000E+000
 -1.770000000000000E-002    0.000000000000000E+000
 -1.760000000000000E-002    0.000000000000000E+000
 -1.750000000000000E-002    0.000000000000000E+000
 -1.740000000000000E-002    0.000000000000000E+000
 -1.730000000000000E-002    0.000000000000000E+000
 -1.720000000000000E-002    0.000000000000000E+000
 -1.710000000000000E-002    0.000000000000000E+000
 -1.700000000000000E-002    0.000000000000000E+000
 -1.690000000000000E-002    0.000000000000000E+000
 -1.680000000000000E-002    0.000000000000000E+000
 -1.670000000000000E-002    0.000000000000000E+000
 -1.660000000000000E-002    0.000000000000000E+000
 -1.650000000000000E-002    0.000000000000000E+000
 -1.640000000000000E-002    0.000000000000000E+000
 -1.630000000000000E-002    0.000000000000000E+000
 -1.620000000000000E-002    0.000000000000000E+000
 -1.610000000000000E-002    0.000000000000000E+000
 -1.600000000000000E-002    0.000000000000000E+000
 -1.590000000000000E-002    0.000000000000000E+000
 -1.580000000000000E-002    0.000000000000000E+000
 -1.570000000000000E-002    0.000000000000000E+000
 -1.560000000000000E-002    0.000000000000000E+000
 -1.550000000000000E-002    0.000000000000000E+000
 -1.540000000000000E-002    0.000000000000000E+000
 -1.530000000000000E-002    0.000000000000000E+000
 -1.520000000000000E-002    0.000000000000000E+000
 -1.510000000000000E-002    0.000000000000000E+000
 -1.500000000000000E-002    0.000000000000000E+000
 -1.490000000000000E-002    0.000000000000000E+000
 -1.480000000000000E-002    0.000000000000000E+000
 -1.470000000000000E-002    0.000000000000000E+000
 -1.460000000000000E-002    0.000000000000000E+000
 -1.450000000000000E-002    0.000000000000000E+000
 -1.440000000000000E-002    0.000000000000000E+000
 -1.430000000000000E-002    0.000000000000000E+000
 -1.420000000000000E-002    0.000000000000000E+000
 -1.410000000000000E-002    0.000000000000000E+000
 -1.400000000000000E-002    0.000000000000000E+000
 -1.390000000000000E-002    0.000000000000000E+000
 -1.380000000000000E-002    0.000000000000000E+000
 -1.370000000000000E-002   -1.919458833109229E-048
 -1.360000000000000E-002   -1.919458833109229E-048
 -1.350000000000000E-002   -1.919458833109229E-048
 -1.340000000000000E-002    0.000000000000000E+000
 -1.330000000000000E-002    1.919458833109229E-048
 -1.320000000000000E-002    5.758376499327686E-048
 -1.310000000000000E-002    1.734494375270059E-047
 -1.300000000000000E-002    2.502277908513750E-047
 -1.290000000000000E-002    3.641156825485360E-047
 -1.280000000000000E-002    3.813324900430603E-047
 -1.270000000000000E-002    5.547980324655645E-048
 -1.260000000000000E-002   -3.471512368743166E-047
 -1.250000000000000E-002   -5.700328417500198E-047
 -1.240000000000000E-002   -9.643861033161608E-047
 -1.230000000000000E-002   -1.821501834925077E-046
 -1.220000000000000E-002   -2.718645580133802E-046
 -1.210000000000000E-002   -3.479201081069747E-046
 -1.200000000000000E-002   -4.131630010022152E-046
 -1.190000000000000E-002   -4.697327458004293E-046
 -1.180000000000000E-002   -4.410503786618976E-046
 -1.170000000000000E-002   -2.867601182179256E-046
 -1.160000000000000E-002    2.480901392617363E-047
 -1.150000000000000E-002    2.642852767054561E-046
 -1.140000000000000E-002    8.471863747751662E-046
 -1.130000000000000E-002    1.769942149637427E-045
 -1.120000000000000E-002    3.289213684284820E-045
 -1.110000000000000E-002    4.922482703633031E-045
 -1.100000000000000E-002    6.434846493825887E-045
 -1.090000000000000E-002    7.533654813704919E-045
 -1.080000000000000E-002    7.281939298409087E-045
 -1.070000000000000E-002    6.642018111547773E-045
 -1.060000000000000E-002    4.067432156779395E-045
 -1.050000000000000E-002    3.970395248261414E-046
 -1.040000000000000E-002   -5.262792051745699E-045
 -1.030000000000000E-002   -1.171958945977106E-044
 -1.020000000000000E-002   -2.000278937287944E-044
 -1.010000000000000E-002   -2.827672942255103E-044
 -1.000000000000000E-002   -3.429714743493288E-044
 -9.899999999999999E-003   -3.713511489856498E-044
 -9.800000000000000E-003   -3.523508291739170E-044
 -9.699999999999999E-003   -2.452682792231622E-044
 -9.599999999999999E-003   -5.386362777739126E-045
 -9.500000000000000E-003    2.418626218814325E-044
 -9.399999999999999E-003    6.305363501263683E-044
 -9.299999999999999E-003    1.076285136969511E-043
 -9.200000000000000E-003    1.536842971480719E-043
 -9.099999999999999E-003    1.907666188385597E-043
 -8.999999999999999E-003    2.096258354375780E-043
 -8.900000000000000E-003    1.985534883659689E-043
 -8.799999999999999E-003    1.466578503797641E-043
 -8.699999999999999E-003    4.441879423838113E-044
 -8.600000000000000E-003   -1.094364151685210E-043
 -8.499999999999999E-003   -3.098553955253295E-043
 -8.399999999999999E-003   -5.398559299598864E-043
 -8.300000000000000E-003   -7.713849037009315E-043
 -8.199999999999999E-003   -9.651703508031823E-043
 -8.100000000000000E-003   -1.070447522548789E-042
 -8.000000000000000E-003   -1.034621735664905E-042
 -7.899999999999999E-003   -8.078813151676352E-043
 -7.800000000000000E-003   -3.544325466724489E-043
 -7.699999999999999E-003    3.360704257174034E-043
 -7.599999999999999E-003    1.238210319369295E-042
 -7.499999999999999E-003    2.280680367807826E-042
 -7.399999999999999E-003    3.343296936842029E-042
 -7.299999999999999E-003    4.261515980299630E-042
 -7.199999999999999E-003    4.835619144461402E-042
 -7.100000000000000E-003    4.851108913371142E-042
 -6.999999999999999E-003    4.112559341078369E-042
 -6.899999999999999E-003    2.476645050651141E-042
 -6.800000000000000E-003   -1.091264173622999E-043
 -6.699999999999999E-003   -3.567350879080921E-042
 -6.599999999999999E-003   -7.665524479047699E-042
 -6.499999999999999E-003   -1.200919937913401E-041
 -6.399999999999999E-003   -1.604955688991371E-041
 -6.299999999999999E-003   -1.912394758085532E-041
 -6.199999999999999E-003   -2.051823634574045E-041
 -6.100000000000000E-003   -1.955004462916720E-041
 -5.999999999999999E-003   -1.566840008225321E-041
 -5.899999999999999E-003   -8.547123384087904E-042
 -5.800000000000000E-003    1.822077158329012E-042
 -5.699999999999999E-003    1.507367225944776E-041
 -5.599999999999999E-003    3.043377832099506E-041
 -5.499999999999999E-003    4.673980139327814E-041
 -5.399999999999999E-003    6.248184999479485E-041
 -5.299999999999999E-003    7.587881992065804E-041
 -5.199999999999999E-003    8.496364439110872E-041
 -5.099999999999999E-003    8.766793955719540E-041
 -4.999999999999999E-003    8.189494264398271E-041
 -4.899999999999999E-003    6.558222913353004E-041
 -4.799999999999999E-003    3.678424235578117E-041
 -4.699999999999999E-003   -6.194346520155706E-042
 -4.599999999999999E-003   -6.454667406293463E-041
 -4.499999999999999E-003   -1.385332488323029E-040
 -4.399999999999999E-003   -2.268268527339054E-040
 -4.299999999999999E-003   -3.256152689866225E-040
 -4.199999999999999E-003   -4.275239013379927E-040
 -4.099999999999999E-003   -5.205232005047100E-040
 -3.999999999999999E-003   -5.870752541977952E-040
 -3.899999999999999E-003   -6.039261409561750E-040
 -3.799999999999999E-003   -5.429799798031830E-040
 -3.699999999999999E-003   -3.737437775731578E-040
 -3.599999999999999E-003   -6.771350688849860E-041
 -3.499999999999999E-003    3.951588607779783E-040
 -3.399999999999999E-003    1.018128958283051E-039
 -3.299999999999999E-003    1.778220685784081E-039
 -3.199999999999999E-003    2.617011617788833E-039
 -3.099999999999999E-003    3.433599372879698E-039
 -2.999999999999999E-003    4.082192610528958E-039
 -2.899999999999999E-003    4.376945578790176E-039
 -2.799999999999999E-003    4.106479492987564E-039
 -2.699999999999999E-003    3.059700591929549E-039
 -2.599999999999999E-003    1.063103323094299E-039
 -2.499999999999999E-003   -1.972325974123482E-039
 -2.399999999999999E-003   -5.999073994557093E-039
 -2.299999999999999E-003   -1.078315234373300E-038
 -2.199999999999999E-003   -1.586599569544934E-038
 -2.099999999999999E-003   -2.054968981113449E-038
 -1.999999999999999E-003   -2.391733473408691E-038
 -1.899999999999999E-003   -2.489868519218465E-038
 -1.799999999999999E-003   -2.238712663789271E-038
 -1.699999999999999E-003   -1.540744129794241E-038
 -1.599999999999999E-003   -3.324921409763962E-039
 -1.499999999999999E-003    1.392402735700452E-038
 -1.399999999999999E-003    3.561020208941138E-038
 -1.299999999999999E-003    6.003845714057276E-038
 -1.199999999999999E-003    8.446813167052578E-038
 -1.099999999999999E-003    1.051720784241549E-037
 -9.999999999999989E-004    1.176717440785061E-037
 -8.999999999999990E-004    1.171696682723728E-037
 -7.999999999999990E-004    9.917636590413192E-038
 -6.999999999999989E-004    6.029656225022931E-038
 -5.999999999999990E-004   -8.955939995590373E-040
 -4.999999999999989E-004   -8.299865325310077E-038
 -3.999999999999989E-004   -1.810787181749978E-037
 -2.999999999999989E-004   -2.862695946106067E-037
 -1.999999999999989E-004   -3.858294682544671E-037
 -9.999999999999892E-005   -4.637806765644283E-037
  1.084202172485504E-018   -5.022088950141274E-037
  1.000000000000011E-004   -4.832226454402104E-037
  2.000000000000011E-004   -3.914793805615772E-037
  3.000000000000011E-004   -2.170772976533463E-037
  4.000000000000011E-004    4.149250336549764E-038
  5.000000000000011E-004    3.747259806838943E-037
  6.000000000000011E-004    7.602658542273600E-037
  7.000000000000011E-004    1.162294053077402E-036
  8.000000000000011E-004    1.532554536139390E-036
  9.000000000000012E-004    1.813284038419632E-036
  1.000000000000001E-003    1.942144366152544E-036
  1.100000000000001E-003    1.859011531267112E-036
  1.200000000000001E-003    1.514209927129592E-036
  1.300000000000001E-003    8.775046784801243E-037
  1.400000000000001E-003   -5.307783022289144E-038
  1.500000000000001E-003   -1.243714616499410E-036
  1.600000000000001E-003   -2.619731450633815E-036
  1.700000000000001E-003   -4.064187822765890E-036
  1.800000000000001E-003   -5.421086210275854E-036
  1.900000000000001E-003   -6.503873921412826E-036
  2.000000000000001E-003   -7.109460634298475E-036
  2.100000000000001E-003   -7.037427907150886E-036
  2.200000000000001E-003   -6.113494395796279E-036
  2.300000000000001E-003   -4.215668908597344E-036
  2.400000000000001E-003   -1.300932424116674E-036
  2.500000000000001E-003    2.570215527138140E-036
  2.600000000000001E-003    7.214361026813790E-036
  2.700000000000001E-003    1.231410247061942E-035
  2.800000000000001E-003    1.741837288181543E-035
  2.900000000000001E-003    2.195685199558858E-035
  3.000000000000001E-003    2.527044679728665E-035
  3.100000000000001E-003    2.665876350614950E-035
  3.200000000000001E-003    2.544409632387763E-035
  3.300000000000001E-003    2.104971473517344E-035
  3.400000000000001E-003    1.308823472656673E-035
  3.500000000000001E-003    1.453725387028123E-036
  3.600000000000001E-003   -1.359098021269174E-035
  3.700000000000001E-003   -3.134214864799067E-035
  3.800000000000001E-003   -5.060999802162975E-035
  3.900000000000001E-003   -6.971277517865096E-035
  4.000000000000001E-003   -8.652171903467613E-035
  4.100000000000001E-003   -9.856626863834275E-035
  4.200000000000001E-003   -1.032051548892749E-034
  4.300000000000001E-003   -9.786317719834942E-035
  4.400000000000001E-003   -8.032645409996901E-035
  4.500000000000001E-003   -4.908024369430117E-035
  4.600000000000002E-003   -3.664708358153789E-036
  4.700000000000001E-003    5.498494905976696E-035
  4.800000000000001E-003    1.242544585520066E-034
  4.900000000000002E-003    1.996678828172430E-034
  5.000000000000001E-003    2.748525604289314E-034
  5.100000000000001E-003    3.416939376474996E-034
  5.200000000000001E-003    3.907137532022063E-034
  5.300000000000002E-003    4.116904410758355E-034
  5.400000000000001E-003    3.945212814497741E-034
  5.500000000000001E-003    3.303019334903485E-034
  5.600000000000002E-003    2.125723932780065E-034
  5.700000000000001E-003    3.865026722541963E-035
  5.800000000000001E-003   -1.890550148097077E-034
  5.900000000000002E-003   -4.618778060330642E-034
  6.000000000000001E-003   -7.640323340365434E-034
  6.100000000000001E-003   -1.072212072296779E-033
  6.200000000000002E-003   -1.355817955374144E-033
  6.300000000000002E-003   -1.577971797632461E-033
  6.400000000000001E-003   -1.697445130008049E-033
  6.500000000000001E-003   -1.671591066098497E-033
  6.600000000000002E-003   -1.460299368498597E-033
  6.700000000000001E-003   -1.030905157309518E-033
  6.800000000000001E-003   -3.638603673270847E-034
  6.900000000000002E-003    5.411634589214160E-034
  7.000000000000001E-003    1.659240142242064E-033
  7.100000000000001E-003    2.934892094651490E-033
  7.200000000000002E-003    4.278369788823056E-033
  7.300000000000002E-003    5.564471508828565E-033
  7.400000000000001E-003    6.634929314804556E-033
  7.500000000000001E-003    7.305340622862473E-033
  7.600000000000002E-003    7.377432773514130E-033
  7.700000000000001E-003    6.657072198395450E-033
  7.800000000000001E-003    4.977864740567482E-033
  7.900000000000001E-003    2.229420696057832E-033
  8.000000000000002E-003   -1.611569013915169E-033
  8.100000000000001E-003   -6.450313539952788E-033
  8.200000000000001E-003   -1.204684824103431E-032
  8.300000000000002E-003   -1.799761557592788E-032
  8.400000000000001E-003   -2.373090093406797E-032
  8.500000000000002E-003   -2.852129379432319E-032
  8.600000000000002E-003   -3.152756832311915E-032
  8.700000000000001E-003   -3.185681954088112E-032
  8.800000000000002E-003   -2.865519419056133E-032
  8.900000000000002E-003   -2.122221424662458E-032
  9.000000000000001E-003   -9.141756441998668E-033
  9.100000000000002E-003    7.581551257544564E-033
  9.200000000000002E-003    2.839587123087640E-032
  9.300000000000001E-003    5.210433473299846E-032
  9.400000000000002E-003    7.681649097981602E-032
  9.500000000000001E-003    9.996943448443141E-032
  9.600000000000001E-003    1.184362943310051E-031
  9.700000000000002E-003    1.287338326936996E-031
  9.800000000000001E-003    1.273319146419580E-031
  9.900000000000001E-003    1.110560179149299E-031
  1.000000000000000E-002    7.755992674374919E-032
  1.010000000000000E-002    2.583129308774380E-032
  1.020000000000000E-002   -4.332132853766350E-032
  1.030000000000000E-002   -1.268627544799614E-031
  1.040000000000000E-002   -2.192761383047400E-031
  1.050000000000000E-002   -3.125281596947975E-031
  1.060000000000000E-002   -3.963160756870124E-031
  1.070000000000000E-002   -4.586408748144963E-031
  1.080000000000000E-002   -4.867241707838985E-031
  1.090000000000000E-002   -4.682514377780786E-031
  1.100000000000000E-002   -3.928825069064907E-031
  1.110000000000000E-002   -2.539255426638439E-031
  1.120000000000000E-002   -5.002687143591129E-032
  1.130000000000000E-002    2.133085293609884E-031
  1.140000000000000E-002    5.225769203355865E-031
  1.150000000000000E-002    8.557359156333444E-031
  1.160000000000000E-002    1.182471272063775E-030
  1.170000000000000E-002    1.465437927353518E-030
  1.180000000000000E-002    1.662576983857149E-030
  1.190000000000000E-002    1.730518365876808E-030
  1.200000000000000E-002    1.628963272316241E-030
  1.210000000000000E-002    1.325812158770805E-030
  1.220000000000000E-002    8.026655037638415E-031
  1.230000000000000E-002    6.019913422616677E-032
  1.240000000000000E-002   -8.771902476055261E-031
  1.250000000000000E-002   -1.958144125768519E-030
  1.260000000000000E-002   -3.103186711853205E-030
  1.270000000000000E-002   -4.206285873804938E-030
  1.280000000000000E-002   -5.139620174845087E-030
  1.290000000000000E-002   -5.761823725205795E-030
  1.300000000000000E-002   -5.929680065508829E-030
  1.310000000000000E-002   -5.512860739858749E-030
  1.320000000000000E-002   -4.410887513654407E-030
  1.330000000000000E-002   -2.571065845108212E-030
  1.340000000000000E-002   -5.718196595952971E-033
  1.350000000000000E-002    3.193269633467088E-030
  1.360000000000000E-002    6.844789042592607E-030
  1.370000000000000E-002    1.067594354635103E-029
  1.380000000000000E-002    1.432857275885803E-029
  1.390000000000000E-002    1.737637040447907E-029
  1.400000000000000E-002    1.935334746972147E-029
  1.410000000000000E-002    1.979334941365137E-029
  1.420000000000000E-002    1.827909743027912E-029
  1.430000000000000E-002    1.449782718718901E-029
  1.440000000000000E-002    8.299197018428955E-030
  1.450000000000000E-002   -2.501526851760606E-031
  1.460000000000000E-002   -1.082197975622140E-029
  1.470000000000000E-002   -2.279886455122696E-029
  1.480000000000000E-002   -3.527062414076062E-029
  1.490000000000000E-002   -4.706076649148392E-029
  1.500000000000000E-002   -5.678717548891058E-029
  1.510000000000000E-002   -6.295862232401340E-029
  1.520000000000000E-002   -6.410516271556268E-029
  1.530000000000000E-002   -5.893646685883964E-029
  1.540000000000000E-002   -4.651777400365235E-029
  1.550000000000000E-002   -2.644891642573161E-029
  1.560000000000000E-002    9.717599351961303E-031
  1.570000000000000E-002    3.461920487769885E-029
  1.580000000000000E-002    7.247076399737104E-029
  1.590000000000000E-002    1.116127636619195E-028
  1.600000000000000E-002    1.483412011857571E-028
  1.610000000000000E-002    1.783667767697979E-028
  1.620000000000000E-002    1.971259624449834E-028
  1.630000000000000E-002    2.001888570441791E-028
  1.640000000000000E-002    1.837426646834357E-028
  1.650000000000000E-002    1.451170341610203E-028
  1.660000000000000E-002    8.330610892890907E-029
  1.670000000000000E-002   -5.673112695820713E-031
  1.680000000000000E-002   -1.029054710845544E-028
  1.690000000000000E-002   -2.174677186582602E-028
  1.700000000000000E-002   -3.354356717010197E-028
  1.710000000000000E-002   -4.457537590843838E-028
  1.720000000000000E-002   -5.357677802473299E-028
  1.730000000000000E-002   -5.921587119448694E-028
  1.740000000000000E-002   -6.021378638581769E-028
  1.750000000000000E-002   -5.548368290204402E-028
  1.760000000000000E-002   -4.427917104270344E-028
  1.770000000000000E-002   -2.633917018817371E-028
  1.780000000000000E-002   -2.014005792947771E-029
  1.790000000000000E-002    2.764366374757003E-028
  1.800000000000000E-002    6.083920086751490E-028
  1.810000000000000E-002    9.506175581602152E-028
  1.820000000000000E-002    1.271859280570846E-027
  1.830000000000000E-002    1.536542366230066E-027
  1.840000000000000E-002    1.707382701543418E-027
  1.850000000000000E-002    1.748682827712553E-027
  1.860000000000000E-002    1.630121938646992E-027
  1.870000000000000E-002    1.330765016065115E-027