 -4.000000000000000E-002    0.000000000000000E+000
 -3.990000000000000E-002    0.000000000000000E+000
 -3.980000000000000E-002    0.000000000000000E+000
 -3.970000000000000E-002    0.000000000000000E+000
 -3.960000000000000E-002    0.000000000000000E+000
 -3.950000000000000E-002    0.000000000000000E+000
 -3.940000000000000E-002   -3.872247747064281E-023
 -3.930000000000000E-002   -4.667942373277319E-022
 -3.920000000000000E-002   -2.990997804915636E-021
 -3.910000000000000E-002   -1.350328221371557E-020
 -3.900000000000000E-002   -4.806385527731105E-020
 -3.890000000000000E-002   -1.431467698273567E-019
 -3.880000000000000E-002   -3.697495543773647E-019
 -3.870000000000000E-002   -8.477087236162366E-019
 -3.860000000000000E-002   -1.751541476808631E-018
 -3.850000000000000E-002   -3.293220557350923E-018
 -3.840000000000000E-002   -5.662468296619148E-018
 -3.830000000000000E-002   -8.904424510821529E-018
 -3.820000000000000E-002   -1.272135946988815E-017
 -3.810000000000000E-002   -1.620236111369043E-017
 -3.800000000000000E-002   -1.751358135462410E-017
 -3.790000000000000E-002   -1.361933176047533E-017
 -3.780000000000000E-002   -1.444312672505548E-019
 -3.770000000000000E-002    2.848024295471987E-017
 -3.760000000000000E-002    7.843794437520521E-017
 -3.750000000000000E-002    1.553885601234375E-016
 -3.740000000000000E-002    2.627247690787661E-016
 -3.730000000000000E-002    3.992969550508125E-016
 -3.720000000000000E-002    5.568447060804383E-016
 -3.710000000000000E-002    7.175483112256691E-016
 -3.700000000000000E-002    8.522650233733680E-016
 -3.690000000000000E-002    9.200926207879561E-016
 -3.680000000000000E-002    8.698613265572326E-016
 -3.670000000000000E-002    6.439638552650639E-016
 -3.660000000000000E-002    1.845774446290512E-016
 -3.650000000000000E-002   -5.581397033648059E-016
 -3.640000000000000E-002   -1.616828508520628E-015
 -3.630000000000000E-002   -2.998092589048682E-015
 -3.620000000000000E-002   -4.675703494102284E-015
 -3.610000000000000E-002   -6.587412979583279E-015
 -3.600000000000000E-002   -8.636391063324561E-015
 -3.590000000000000E-002   -1.069730753684235E-014
 -3.580000000000000E-002   -1.262568733090921E-014
 -3.570000000000000E-002   -1.426766112826059E-014
 -3.560000000000000E-002   -1.546589748093483E-014
 -3.550000000000000E-002   -1.605685453209895E-014
 -3.540000000000000E-002   -1.585488081069079E-014
 -3.530000000000000E-002   -1.462064912827748E-014
 -3.520000000000000E-002   -1.201481546744407E-014
 -3.510000000000000E-002   -7.542879335588053E-015
 -3.500000000000000E-002   -5.030310866315503E-016
 -3.490000000000000E-002    1.004534957499425E-014
 -3.480000000000000E-002    2.527036887842117E-014
 -3.470000000000000E-002    4.648968983777845E-014
 -3.460000000000000E-002    7.500484472701231E-014
 -3.450000000000000E-002    1.118347078630260E-013
 -3.440000000000000E-002    1.573489094267891E-013
 -3.430000000000000E-002    2.108210692832296E-013
 -3.420000000000000E-002    2.699440678036015E-013
 -3.410000000000000E-002    3.303732757716334E-013
 -3.400000000000000E-002    3.853828736106206E-013
 -3.390000000000000E-002    4.257327046573762E-013
 -3.380000000000000E-002    4.398431750619842E-013
 -3.370000000000000E-002    4.143602747258568E-013
 -3.360000000000000E-002    3.351597611665724E-013
 -3.350000000000000E-002    1.887909173475760E-013
 -3.340000000000000E-002   -3.570191907240136E-014
 -3.330000000000000E-002   -3.447100532639615E-013
 -3.320000000000000E-002   -7.379386065558308E-013
 -3.310000000000000E-002   -1.206479859301205E-012
 -3.300000000000000E-002   -1.731357479591428E-012
 -3.290000000000000E-002   -2.282812524722909E-012
 -3.280000000000000E-002   -2.820561111359157E-012
 -3.270000000000000E-002   -3.295169592357864E-012
 -3.260000000000000E-002   -3.650581545559965E-012
 -3.250000000000000E-002   -3.827695833042387E-012
 -3.240000000000000E-002   -3.768756497436600E-012
 -3.230000000000000E-002   -3.422186929956012E-012
 -3.220000000000000E-002   -2.747429668198863E-012
 -3.210000000000000E-002   -1.719309350562186E-012
 -3.200000000000000E-002   -3.314839944293409E-013
 -3.190000000000000E-002    1.401347483917430E-012
 -3.180000000000000E-002    3.442648834465783E-012
 -3.170000000000000E-002    5.734620017106975E-012
 -3.160000000000000E-002    8.199899893666679E-012
 -3.150000000000000E-002    1.074396962999232E-011
 -3.140000000000000E-002    1.325772838304044E-011
 -3.130000000000000E-002    1.561970224091272E-011
 -3.120000000000000E-002    1.769747112742346E-011
 -3.110000000000000E-002    1.934812413286390E-011
 -3.100000000000000E-002    2.041791484102625E-011
 -3.090000000000000E-002    2.074166370084458E-011
 -3.080000000000000E-002    2.014286017548688E-011
 -3.070000000000000E-002    1.843573306638880E-011
 -3.060000000000000E-002    1.543066623357358E-011
 -3.050000000000000E-002    1.094430670920810E-011
 -3.040000000000000E-002    4.815318205355811E-012
 -3.030000000000000E-002   -3.073889093242774E-012
 -3.020000000000000E-002   -1.277000663098635E-011
 -3.010000000000000E-002   -2.421785672343255E-011
 -3.000000000000000E-002   -3.722828965865052E-011
 -2.990000000000000E-002   -5.144860343051848E-011
 -2.980000000000000E-002   -6.633986610853819E-011
 -2.970000000000000E-002   -8.116578823694250E-011
 -2.960000000000000E-002   -9.499747910016544E-011
 -2.950000000000000E-002   -1.067375486962563E-010
 -2.940000000000000E-002   -1.151655250061927E-010
 -2.930000000000000E-002   -1.190045846005139E-010
 -2.920000000000000E-002   -1.170072260715664E-010
 -2.910000000000000E-002   -1.080551023403999E-010
 -2.900000000000000E-002   -9.126614002575725E-011
 -2.890000000000000E-002   -6.610026523752958E-011
 -2.880000000000000E-002   -3.245415210760645E-011
 -2.870000000000000E-002    9.264492236238940E-012
 -2.860000000000000E-002    5.809164398955835E-011
 -2.850000000000000E-002    1.124971980236297E-010
 -2.840000000000000E-002    1.704141324341763E-010
 -2.830000000000000E-002    2.293070093209999E-010
 -2.820000000000000E-002    2.862763389752171E-010
 -2.810000000000000E-002    3.381922332987146E-010
 -2.800000000000000E-002    3.818480536558915E-010
 -2.790000000000000E-002    4.141233972117047E-010
 -2.780000000000000E-002    4.321449344976339E-010
 -2.770000000000000E-002    4.334349712354224E-010
 -2.760000000000000E-002    4.160391850716026E-010
 -2.750000000000000E-002    3.786280059042724E-010
 -2.740000000000000E-002    3.205695209067634E-010
 -2.730000000000000E-002    2.419746247275147E-010
 -2.720000000000000E-002    1.437180938961383E-010
 -2.710000000000000E-002    2.744068463357204E-011
 -2.700000000000000E-002   -1.044621136409748E-010
 -2.690000000000000E-002   -2.488602199902461E-010
 -2.680000000000000E-002   -4.019153019576955E-010
 -2.670000000000000E-002   -5.591143271727868E-010
 -2.660000000000000E-002   -7.153140426968954E-010
 -2.650000000000000E-002   -8.648033137619924E-010
 -2.640000000000000E-002   -1.001392466243064E-009
 -2.630000000000000E-002   -1.118539400025989E-009
 -2.620000000000000E-002   -1.209521139255573E-009
 -2.610000000000000E-002   -1.267655002707324E-009
 -2.600000000000000E-002   -1.286570887289609E-009
 -2.590000000000000E-002   -1.260528597814569E-009
 -2.580000000000000E-002   -1.184766378216191E-009
 -2.570000000000000E-002   -1.055863592345056E-009
 -2.560000000000000E-002   -8.720921647539707E-010
 -2.550000000000000E-002   -6.337302035041297E-010
 -2.540000000000000E-002   -3.433107073685615E-010
 -2.530000000000000E-002   -5.780028525362464E-012
 -2.520000000000000E-002    3.714531213356930E-010
 -2.510000000000000E-002    7.785905810737244E-010
 -2.500000000000000E-002    1.203642892350470E-009
 -2.490000000000000E-002    1.632746574852315E-009
 -2.480000000000000E-002    2.050586893313734E-009
 -2.470000000000000E-002    2.440904552204686E-009
 -2.460000000000000E-002    2.787062382987350E-009
 -2.450000000000000E-002    3.072644446079817E-009
 -2.440000000000000E-002    3.282063959663472E-009
 -2.430000000000000E-002    3.401157179584028E-009
 -2.420000000000000E-002    3.417747832490972E-009
 -2.410000000000000E-002    3.322168739480095E-009
 -2.400000000000000E-002    3.107734399637440E-009
 -2.390000000000000E-002    2.771157450460642E-009
 -2.380000000000000E-002    2.312902527877876E-009
 -2.370000000000000E-002    1.737469553421455E-009
 -2.360000000000000E-002    1.053591329572392E-009
 -2.350000000000000E-002    2.743278333184059E-010
 -2.340000000000000E-002   -5.829692872246282E-010
 -2.330000000000000E-002   -1.496845811565837E-009
 -2.320000000000000E-002   -2.442114793535248E-009
 -2.310000000000000E-002   -3.390426303591872E-009
 -2.300000000000000E-002   -4.311043771138798E-009
 -2.290000000000000E-002   -5.171820950205196E-009
 -2.280000000000000E-002   -5.940349892531608E-009
 -2.270000000000000E-002   -6.585233193656452E-009
 -2.260000000000000E-002   -7.077413139073634E-009
 -2.250000000000000E-002   -7.391476457268035E-009
 -2.240000000000000E-002   -7.506843209300391E-009
 -2.230000000000000E-002   -7.408755603199512E-009
 -2.220000000000000E-002   -7.088989804241527E-009
 -2.210000000000000E-002   -6.546237500580170E-009
 -2.200000000000000E-002   -5.786134764352445E-009
 -2.190000000000000E-002   -4.820948642660407E-009
 -2.180000000000000E-002   -3.668968203172790E-009
 -2.170000000000000E-002   -2.353677228300628E-009
 -2.160000000000000E-002   -9.028070323641497E-010
 -2.150000000000000E-002    6.526195808602210E-010
 -2.140000000000000E-002    2.279154821786498E-009
 -2.130000000000000E-002    3.941616994475320E-009
 -2.120000000000000E-002    5.603563388042783E-009
 -2.110000000000000E-002    7.227541461656894E-009
 -2.100000000000000E-002    8.775159920204904E-009
 -2.090000000000000E-002    1.020707909144995E-008
 -2.080000000000000E-002    1.148303850912472E-008
 -2.070000000000000E-002    1.256206503987272E-008
 -2.060000000000000E-002    1.340300349262159E-008
 -2.050000000000000E-002    1.396548322739841E-008
 -2.040000000000000E-002    1.421137614685340E-008
 -2.030000000000000E-002    1.410675206380785E-008
 -2.020000000000000E-002    1.362424167182385E-008
 -2.010000000000000E-002    1.274565297242287E-008
 -2.000000000000000E-002    1.146460504868606E-008
 -1.990000000000000E-002    9.788905281126265E-009
 -1.980000000000000E-002    7.742373685737763E-009
 -1.970000000000000E-002    5.365822973887252E-009
 -1.960000000000000E-002    2.716970890355455E-009
 -1.950000000000000E-002   -1.308733146334644E-010
 -1.940000000000000E-002   -3.091380941851042E-009
 -1.930000000000000E-002   -6.068950837596392E-009
 -1.920000000000000E-002   -8.963416434716383E-009
 -1.910000000000000E-002   -1.167538471118431E-008
 -1.900000000000000E-002   -1.411179740254252E-008
 -1.890000000000000E-002   -1.619125583634396E-008
 -1.880000000000000E-002   -1.784865240526035E-008
 -1.870000000000000E-002   -1.903869534610861E-008
 -1.860000000000000E-002   -1.973802161212541E-008
 -1.850000000000000E-002   -1.994570491143983E-008
 -1.840000000000000E-002   -1.968213545626383E-008
 -1.830000000000000E-002   -1.898638504223190E-008
 -1.820000000000000E-002   -1.791234425804041E-008
 -1.810000000000000E-002   -1.652399516492321E-008
 -1.800000000000000E-002   -1.489029155684817E-008
 -1.790000000000000E-002   -1.308011803712286E-008
 -1.780000000000000E-002   -1.115777332555372E-008
 -1.770000000000000E-002   -9.179347873901190E-009
 -1.760000000000000E-002   -7.190237231593885E-009
 -1.750000000000000E-002   -5.223900948239493E-009
 -1.740000000000000E-002   -3.301819885769974E-009
 -1.730000000000000E-002   -1.434478317250261E-009
 -1.720000000000000E-002    3.769209752874932E-010
 -1.710000000000000E-002    2.138357253697221E-009
 -1.700000000000000E-002    3.860880313643672E-009
 -1.690000000000000E-002    5.558829505139813E-009
 -1.680000000000000E-002    7.248654068694302E-009
 -1.670000000000000E-002    8.948506410385219E-009
 -1.660000000000000E-002    1.067865868639654E-008
 -1.650000000000000E-002    1.246268442032008E-008
 -1.640000000000000E-002    1.432923240554910E-008
 -1.630000000000000E-002    1.631416868444417E-008
 -1.620000000000000E-002    1.846281579824515E-008
 -1.610000000000000E-002    2.083204248672890E-008
 -1.600000000000000E-002    2.349198036152873E-008
 -1.590000000000000E-002    2.652723245792164E-008
 -1.580000000000000E-002    3.003753924446148E-008
 -1.570000000000000E-002    3.413790942269670E-008
 -1.560000000000000E-002    3.895837859109215E-008
 -1.550000000000000E-002    4.464350217700400E-008
 -1.540000000000000E-002    5.135178742002410E-008
 -1.530000000000000E-002    5.925523870769479E-008
 -1.520000000000000E-002    6.853909608661877E-008
 -1.510000000000000E-002    7.940182383220801E-008
 -1.500000000000000E-002    9.205534819099022E-008
 -1.490000000000000E-002    1.067253362720259E-007
 -1.480000000000000E-002    1.236515486498671E-007
 -1.470000000000000E-002    1.430878585572392E-007
 -1.460000000000000E-002    1.653020683260501E-007
 -1.450000000000000E-002    1.905752106442671E-007
 -1.440000000000000E-002    2.192004837025282E-007
 -1.430000000000000E-002    2.514818830143726E-007
 -1.420000000000000E-002    2.877327945349240E-007
 -1.410000000000000E-002    3.282747821913237E-007
 -1.400000000000000E-002    3.734370321563539E-007
 -1.390000000000000E-002    4.235567832801518E-007
 -1.380000000000000E-002    4.789809620002425E-007
 -1.370000000000000E-002    5.400691456107486E-007
 -1.360000000000000E-002    6.071980544336969E-007
 -1.350000000000000E-002    6.807674243310937E-007
 -1.340000000000000E-002    7.612060718598489E-007
 -1.330000000000000E-002    8.489787329497076E-007
 -1.320000000000000E-002    9.445923426705660E-007
 -1.310000000000000E-002    1.048600585233806E-006
 -1.300000000000000E-002    1.161606678630103E-006
 -1.290000000000000E-002    1.284263581707753E-006
 -1.280000000000000E-002    1.417270110597247E-006
 -1.270000000000000E-002    1.561365461452647E-006
 -1.260000000000000E-002    1.717318888062205E-006
 -1.250000000000000E-002    1.885918169622743E-006
 -1.240000000000000E-002    2.067955560536117E-006
 -1.230000000000000E-002    2.264213597402568E-006
 -1.220000000000000E-002    2.475451406642210E-006
 -1.210000000000000E-002    2.702393810988444E-006
 -1.200000000000000E-002    2.945722296841584E-006
 -1.190000000000000E-002    3.206071621417828E-006
 -1.180000000000000E-002    3.484031065131288E-006
 -1.170000000000000E-002    3.780150329746762E-006
 -1.160000000000000E-002    4.094951144477019E-006
 -1.150000000000000E-002    4.428944030804744E-006
 -1.140000000000000E-002    4.782647035464191E-006
 -1.130000000000000E-002    5.156607652257939E-006
 -1.120000000000000E-002    5.551426626676770E-006
 -1.110000000000000E-002    5.967778229371645E-006
 -1.100000000000000E-002    6.406430345565838E-006
 -1.090000000000000E-002    6.868262159155411E-006
 -1.080000000000000E-002    7.354274036481164E-006
 -1.070000000000000E-002    7.865596635540266E-006
 -1.060000000000000E-002    8.403491509108122E-006
 -1.050000000000000E-002    8.969351821381163E-006
 -1.040000000000000E-002    9.564695948283208E-006
 -1.030000000000000E-002    1.019115958817593E-005
 -1.020000000000000E-002    1.085048959118784E-005
 -1.010000000000000E-002    1.154453466647783E-005
 -1.000000000000000E-002    1.227524356821904E-005
 -9.899999999999999E-003    1.304465847814425E-005
 -9.800000000000000E-003    1.385492206103198E-005
 -9.699999999999999E-003    1.470828513393630E-005
 -9.599999999999999E-003    1.560711716878368E-005
 -9.500000000000000E-003    1.655392489975315E-005
 -9.399999999999999E-003    1.755137483770777E-005
 -9.299999999999999E-003    1.860231905870582E-005
 -9.200000000000000E-003    1.970981845105913E-005
 -9.099999999999999E-003    2.087716977052391E-005
 -8.999999999999999E-003    2.210793427679822E-005
 -8.900000000000000E-003    2.340595275304895E-005
 -8.799999999999999E-003    2.477535977012669E-005
 -8.699999999999999E-003    2.622060174972536E-005
 -8.600000000000000E-003    2.774643230760241E-005
 -8.499999999999999E-003    2.935791100312158E-005
 -8.399999999999999E-003    3.106039267293667E-005
 -8.300000000000000E-003    3.285950511432438E-005
 -8.199999999999999E-003    3.476113441826192E-005
 -8.100000000000000E-003    3.677139769693331E-005
 -8.000000000000000E-003    3.889662164169442E-005
 -7.899999999999999E-003    4.114331631448638E-005
 -7.800000000000000E-003    4.351815510356329E-005
 -7.699999999999999E-003    4.602796994402601E-005
 -7.599999999999999E-003    4.867973804462381E-005
 -7.499999999999999E-003    5.148058623719819E-005
 -7.399999999999999E-003    5.443781790988954E-005
 -7.299999999999999E-003    5.755892071796643E-005
 -7.199999999999999E-003    6.085160560197596E-005
 -7.100000000000000E-003    6.432385509345584E-005
 -6.999999999999999E-003    6.798395763418015E-005
 -6.899999999999999E-003    7.184055766290075E-005
 -6.800000000000000E-003    7.590270930513942E-005
 -6.699999999999999E-003    8.017990279485524E-005
 -6.599999999999999E-003    8.468212614330826E-005
 -6.499999999999999E-003    8.941988609814887E-005
 -6.399999999999999E-003    9.440422295897576E-005
 -6.299999999999999E-003    9.964671162829327E-005
 -6.199999999999999E-003    1.051595037211925E-004
 -6.100000000000000E-003    1.109552470727921E-004
 -5.999999999999999E-003    1.170471267182845E-004
 -5.899999999999999E-003    1.234488030593067E-004
 -5.800000000000000E-003    1.301743897103559E-004
 -5.699999999999999E-003    1.372384399612265E-004
 -5.599999999999999E-003    1.446558920137408E-004
 -5.499999999999999E-003    1.524420519885237E-004
 -5.399999999999999E-003    1.606126245710433E-004
 -5.299999999999999E-003    1.691836686214633E-004
 -5.199999999999999E-003    1.781716409776125E-004
 -5.099999999999999E-003    1.875934238789092E-004
 -4.999999999999999E-003    1.974663660934342E-004
 -4.899999999999999E-003    2.078083570936656E-004
 -4.799999999999999E-003    2.186378634175172E-004
 -4.699999999999999E-003    2.299740704767939E-004
 -4.599999999999999E-003    2.418369162820891E-004
 -4.499999999999999E-003    2.542472139371259E-004
 -4.399999999999999E-003    2.672267295746393E-004
 -4.299999999999999E-003    2.807982658653824E-004
 -4.199999999999999E-003    2.949857196925548E-004
 -4.099999999999999E-003    3.098141771073317E-004
 -3.999999999999999E-003    3.253099381607922E-004
 -3.899999999999999E-003    3.415005499036888E-004
 -3.799999999999999E-003    3.584148349035416E-004
 -3.699999999999999E-003    3.760829387312264E-004
 -3.599999999999999E-003    3.945362238474611E-004
 -3.499999999999999E-003    4.138073869312271E-004
 -3.399999999999999E-003    4.339303167242700E-004
 -3.299999999999999E-003    4.549402275127712E-004
 -3.199999999999999E-003    4.768735359553795E-004
 -3.099999999999999E-003    4.997678982905052E-004
 -2.999999999999999E-003    5.236622385448700E-004
 -2.899999999999999E-003    5.485967382822847E-004
 -2.799999999999999E-003    5.746129454250220E-004
 -2.699999999999999E-003    6.017537983350746E-004
 -2.599999999999999E-003    6.300637604618288E-004
 -2.499999999999999E-003    6.595888086349444E-004
 -2.399999999999999E-003    6.903765657049353E-004
 -2.299999999999999E-003    7.224764580103830E-004
 -2.199999999999999E-003    7.559396503679474E-004
 -2.099999999999999E-003    7.908193770112437E-004
 -1.999999999999999E-003    8.271706978994470E-004
 -1.899999999999999E-003    8.650507450145700E-004
 -1.799999999999999E-003    9.045186349474872E-004
 -1.699999999999999E-003    9.456356198913860E-004
 -1.599999999999999E-003    9.884648787448994E-004
 -1.499999999999999E-003    1.033071546528278E-003
 -1.399999999999999E-003    1.079522663952582E-003
 -1.299999999999999E-003    1.127886929065995E-003
 -1.199999999999999E-003    1.178234965207869E-003
 -1.099999999999999E-003    1.230638966011594E-003
 -9.999999999999989E-004    1.285172703706150E-003
 -8.999999999999990E-004    1.341911494682446E-003
 -7.999999999999990E-004    1.400932343581487E-003
 -6.999999999999989E-004    1.462313602093189E-003
 -5.999999999999990E-004    1.526135478191284E-003
 -4.999999999999989E-004    1.592479567686138E-003
 -3.999999999999989E-004    1.661429422689390E-003
 -2.999999999999989E-004    1.733070160167251E-003
 -1.999999999999989E-004    1.807489133496826E-003
 -9.999999999999892E-005    1.884775622488651E-003
  1.084202172485504E-018    1.965020850481352E-003
  1.000000000000011E-004    2.048318411713114E-003
  2.000000000000011E-004    2.134764076377405E-003
  3.000000000000011E-004    2.224455875790860E-003
  4.000000000000011E-004    2.317494237219790E-003
  5.000000000000011E-004    2.413981926979199E-003
  6.000000000000011E-004    2.514023832583229E-003
  7.000000000000011E-004    2.617726919504965E-003
  8.000000000000011E-004    2.725200633093926E-003
  9.000000000000012E-004    2.836556211397875E-003
  1.000000000000001E-003    2.951906959598656E-003
  1.100000000000001E-003    3.071368195077669E-003
  1.200000000000001E-003    3.195057127359341E-003
  1.300000000000001E-003    3.323092857385735E-003
  1.400000000000001E-003    3.455596350530942E-003
  1.500000000000001E-003    3.592690589843605E-003
  1.600000000000001E-003    3.734500280783444E-003
  1.700000000000001E-003    3.881151965167923E-003
  1.800000000000001E-003    4.032774734711342E-003
  1.900000000000001E-003    4.189499593979022E-003
  2.000000000000001E-003    4.351459652208893E-003
  2.100000000000001E-003    4.518790454998402E-003
  2.200000000000001E-003    4.691630394974944E-003
  2.300000000000001E-003    4.870120209153373E-003
  2.400000000000001E-003    5.054402664246594E-003
  2.500000000000001E-003    5.244624016025402E-003
  2.600000000000001E-003    5.440932891964483E-003
  2.700000000000001E-003    5.643480459573571E-003
  2.800000000000001E-003    5.852421041368129E-003
  2.900000000000001E-003    6.067911034104883E-003
  3.000000000000001E-003    6.290110214499363E-003
  3.100000000000001E-003    6.519180464391399E-003
  3.200000000000001E-003    6.755286315849885E-003
  3.300000000000001E-003    6.998595402814540E-003
  3.400000000000001E-003    7.249276601338764E-003
  3.500000000000001E-003    7.507502403125846E-003
  3.600000000000001E-003    7.773446088585945E-003
  3.700000000000001E-003    8.047284758493208E-003
  3.800000000000001E-003    8.329197174787794E-003
  3.900000000000001E-003    8.619363850916096E-003
  4.000000000000001E-003    8.917968208798314E-003
  4.100000000000001E-003    9.225194756234801E-003
  4.200000000000001E-003    9.541231432805726E-003
  4.300000000000001E-003    9.866266870205944E-003
  4.400000000000001E-003    1.020049270856142E-002
  4.500000000000001E-003    1.054410289404295E-002
  4.600000000000002E-003    1.089729301307290E-002
  4.700000000000001E-003    1.126025869695815E-002
  4.800000000000001E-003    1.163319998713539E-002
  4.900000000000002E-003    1.201631705899190E-002
  5.000000000000001E-003    1.240981197905316E-002
  5.100000000000001E-003    1.281388819052624E-002
  5.200000000000001E-003    1.322875100124525E-002
  5.300000000000002E-003    1.365460571863591E-002
  5.400000000000001E-003    1.409165876999324E-002
  5.500000000000001E-003    1.454011925063596E-002
  5.600000000000002E-003    1.500019365811615E-002
  5.700000000000001E-003    1.547209150707628E-002
  5.800000000000001E-003    1.595602276777392E-002
  5.900000000000002E-003    1.645219708318959E-002
  6.000000000000001E-003    1.696082568719337E-002
  6.100000000000001E-003    1.748211787277669E-002
  6.200000000000002E-003    1.801628394996624E-002
  6.300000000000002E-003    1.856353430146581E-002
  6.400000000000001E-003    1.912407946409307E-002
  6.500000000000001E-003    1.969812954518341E-002
  6.600000000000002E-003    2.028589458650953E-002
  6.700000000000001E-003    2.088758414869538E-002
  6.800000000000001E-003    2.150340665538332E-002
  6.900000000000002E-003    2.213356887693008E-002
  7.000000000000001E-003    2.277827876284653E-002
  7.100000000000001E-003    2.343774160005540E-002
  7.200000000000002E-003    2.411216298782929E-002
  7.300000000000002E-003    2.480174707894892E-002
  7.400000000000001E-003    2.550669647872639E-002
  7.500000000000001E-003    2.622721095679464E-002
  7.600000000000002E-003    2.696349081411935E-002
  7.700000000000001E-003    2.771573492233751E-002
  7.800000000000001E-003    2.848413687272965E-002
  7.900000000000001E-003    2.926889090556563E-002
  8.000000000000002E-003    3.007019039891171E-002
  8.100000000000001E-003    3.088822468471486E-002
  8.200000000000001E-003    3.172318090264258E-002
  8.300000000000002E-003    3.257524527708720E-002
  8.400000000000001E-003    3.344460170258792E-002
  8.500000000000002E-003    3.433143015937021E-002
  8.600000000000002E-003    3.523591137313373E-002
  8.700000000000001E-003    3.615821966198670E-002
  8.800000000000002E-003    3.709852882770494E-002
  8.900000000000002E-003    3.805700963781186E-002
  9.000000000000001E-003    3.903383040526699E-002
  9.100000000000002E-003    4.002915563385484E-002
  9.200000000000002E-003    4.104315023183053E-002
  9.300000000000001E-003    4.207597245667757E-002
  9.400000000000002E-003    4.312777583043904E-002
  9.500000000000001E-003    4.419871832323254E-002
  9.600000000000001E-003    4.528894689781282E-002
  9.700000000000002E-003    4.639860630525943E-002
  9.800000000000001E-003    4.752784078680227E-002
  9.900000000000001E-003    4.867678607734167E-002
  1.000000000000000E-002    4.984558132142554E-002
  1.010000000000000E-002    5.103435124151031E-002
  1.020000000000000E-002    5.224322441078314E-002
  1.030000000000000E-002    5.347232745145345E-002
  1.040000000000000E-002    5.472177294176604E-002
  1.050000000000000E-002    5.599167263625374E-002
  1.060000000000000E-002    5.728214167102984E-002
  1.070000000000000E-002    5.859328595108051E-002
  1.080000000000000E-002    5.992520189199595E-002
  1.090000000000000E-002    6.127798608495319E-002
  1.100000000000000E-002    6.265173458740309E-002
  1.110000000000000E-002    6.404653739604772E-002
  1.120000000000000E-002    6.546247225877452E-002
  1.130000000000000E-002    6.689962156271873E-002
  1.140000000000000E-002    6.835806169121939E-002
  1.150000000000000E-002    6.983786398340082E-002
  1.160000000000000E-002    7.133908512133151E-002
  1.170000000000000E-002    7.286178819324254E-002
  1.180000000000000E-002    7.440602496741384E-002
  1.190000000000000E-002    7.597184172180316E-002
  1.200000000000000E-002    7.755927123151225E-002
  1.210000000000000E-002    7.916835124253234E-002
  1.220000000000000E-002    8.079911360716427E-002
  1.230000000000000E-002    8.245157011968207E-002
  1.240000000000000E-002    8.412573857624490E-002
  1.250000000000000E-002    8.582162947754858E-002
  1.260000000000000E-002    8.753923910593991E-002
  1.270000000000000E-002    8.927855984559212E-002
  1.280000000000000E-002    9.103957962716845E-002
  1.290000000000000E-002    9.282227828025161E-002
  1.300000000000000E-002    9.462662753895544E-002
  1.310000000000000E-002    9.645259042349882E-002
  1.320000000000000E-002    9.830012251889073E-002
  1.330000000000000E-002    0.100169177923449     
  1.340000000000000E-002    0.102059690896379     
  1.350000000000000E-002    0.103971600874576     
  1.360000000000000E-002    0.105904828621132     
  1.370000000000000E-002    0.107859281315262     
  1.380000000000000E-002    0.109834872858209     
  1.390000000000000E-002    0.111831490419307     
  1.400000000000000E-002    0.113849018523974     
  1.410000000000000E-002    0.115887338790713     
  1.420000000000000E-002    0.117946305026149     
  1.430000000000000E-002    0.120025771110213     
  1.440000000000000E-002    0.122125579900539     
  1.450000000000000E-002    0.124245556466892     
  1.460000000000000E-002    0.126385512150904     
  1.470000000000000E-002    0.128545254596710     
  1.480000000000000E-002    0.130724567030085     
  1.490000000000000E-002    0.132923211050400     
  1.500000000000000E-002    0.135140952931923     
  1.510000000000000E-002    0.137377529738050     
  1.520000000000000E-002    0.139632672300831     
  1.530000000000000E-002    0.141906067081907     
  1.540000000000000E-002    0.144197416477437     
  1.550000000000000E-002    0.146506383379276     
  1.560000000000000E-002    0.148832605192413     
  1.570000000000000E-002    0.151175721793238     
  1.580000000000000E-002    0.153535333818011     
  1.590000000000000E-002    0.155911035884920     
  1.600000000000000E-002    0.158302379893139     
  1.610000000000000E-002    0.160708900843050     
  1.620000000000000E-002    0.163130110632605     
  1.630000000000000E-002    0.165565486298288     
  1.640000000000000E-002    0.168014491766253     
  1.650000000000000E-002    0.170476546119579     
  1.660000000000000E-002    0.172951055065331     
  1.670000000000000E-002    0.175437374114429     
  1.680000000000000E-002    0.177934842054415     
  1.690000000000000E-002    0.180442761082143     
  1.700000000000000E-002    0.182960384189050     
  1.710000000000000E-002    0.185486929454951     
  1.720000000000000E-002    0.188021576854561     
  1.730000000000000E-002    0.190563483255407     
  1.740000000000000E-002    0.193111742177831     
  1.750000000000000E-002    0.195665422250395     
  1.760000000000000E-002    0.198223534263658     
  1.770000000000000E-002    0.200785050577632     
  1.780000000000000E-002    0.203348888963553     
  1.790000000000000E-002    0.205913931425354     
  1.800000000000000E-002    0.208479000583496     
  1.810000000000000E-002    0.211042865003712     
  1.820000000000000E-002    0.213604244409489     
  1.830000000000000E-002    0.216161803444916     
  1.840000000000000E-002    0.218714123403649     
  1.850000000000000E-002    0.221259760335006     
  1.860000000000000E-002    0.223797164679123     
  1.870000000000000E-002    0.226324769461664     