 -4.000000000000000E-002    0.000000000000000E+000
 -3.990000000000000E-002    0.000000000000000E+000
 -3.980000000000000E-002    0.000000000000000E+000
 -3.970000000000000E-002    0.000000000000000E+000
 -3.960000000000000E-002    0.000000000000000E+000
 -3.950000000000000E-002    0.000000000000000E+000
 -3.940000000000000E-002    0.000000000000000E+000
 -3.930000000000000E-002    0.000000000000000E+000
 -3.920000000000000E-002    0.000000000000000E+000
 -3.910000000000000E-002    0.000000000000000E+000
 -3.900000000000000E-002    0.000000000000000E+000
 -3.890000000000000E-002    0.000000000000000E+000
 -3.880000000000000E-002    0.000000000000000E+000
 -3.870000000000000E-002    0.000000000000000E+000
 -3.860000000000000E-002    0.000000000000000E+000
 -3.850000000000000E-002    0.000000000000000E+000
 -3.840000000000000E-002    0.000000000000000E+000
 -3.830000000000000E-002    0.000000000000000E+000
 -3.820000000000000E-002    0.000000000000000E+000
 -3.810000000000000E-002    0.000000000000000E+000
 -3.800000000000000E-002    0.000000000000000E+000
 -3.790000000000000E-002    0.000000000000000E+000
 -3.780000000000000E-002    0.000000000000000E+000
 -3.770000000000000E-002    0.000000000000000E+000
 -3.760000000000000E-002    0.000000000000000E+000
 -3.750000000000000E-002    0.000000000000000E+000
 -3.740000000000000E-002    0.000000000000000E+000
 -3.730000000000000E-002    0.000000000000000E+000
 -3.720000000000000E-002    0.000000000000000E+000
 -3.710000000000000E-002    0.000000000000000E+000
 -3.700000000000000E-002    0.000000000000000E+000
 -3.690000000000000E-002    0.000000000000000E+000
 -3.680000000000000E-002    0.000000000000000E+000
 -3.670000000000000E-002    0.000000000000000E+000
 -3.660000000000000E-002    0.000000000000000E+000
 -3.650000000000000E-002    0.000000000000000E+000
 -3.640000000000000E-002    0.000000000000000E+000
 -3.630000000000000E-002    0.000000000000000E+000
 -3.620000000000000E-002    0.000000000000000E+000
 -3.610000000000000E-002    0.000000000000000E+000
 -3.600000000000000E-002    0.000000000000000E+000
 -3.590000000000000E-002    0.000000000000000E+000
 -3.580000000000000E-002    0.000000000000000E+000
 -3.570000000000000E-002    0.000000000000000E+000
 -3.560000000000000E-002    0.000000000000000E+000
 -3.550000000000000E-002    0.000000000000000E+000
 -3.540000000000000E-002    0.000000000000000E+000
 -3.530000000000000E-002    0.000000000000000E+000
 -3.520000000000000E-002    0.000000000000000E+000
 -3.510000000000000E-002    0.000000000000000E+000
 -3.500000000000000E-002    0.000000000000000E+000
 -3.490000000000000E-002    0.000000000000000E+000
 -3.480000000000000E-002    0.000000000000000E+000
 -3.470000000000000E-002    0.000000000000000E+000
 -3.460000000000000E-002    0.000000000000000E+000
 -3.450000000000000E-002    0.000000000000000E+000
 -3.440000000000000E-002    0.000000000000000E+000
 -3.430000000000000E-002    0.000000000000000E+000
 -3.420000000000000E-002    0.000000000000000E+000
 -3.410000000000000E-002    0.000000000000000E+000
 -3.400000000000000E-002    0.000000000000000E+000
 -3.390000000000000E-002    0.000000000000000E+000
 -3.380000000000000E-002    0.000000000000000E+000
 -3.370000000000000E-002    0.000000000000000E+000
 -3.360000000000000E-002    0.000000000000000E+000
 -3.350000000000000E-002    0.000000000000000E+000
 -3.340000000000000E-002    0.000000000000000E+000
 -3.330000000000000E-002    0.000000000000000E+000
 -3.320000000000000E-002    0.000000000000000E+000
 -3.310000000000000E-002    0.000000000000000E+000
 -3.300000000000000E-002    0.000000000000000E+000
 -3.290000000000000E-002    0.000000000000000E+000
 -3.280000000000000E-002    0.000000000000000E+000
 -3.270000000000000E-002    0.000000000000000E+000
 -3.260000000000000E-002    0.000000000000000E+000
 -3.250000000000000E-002    0.000000000000000E+000
 -3.240000000000000E-002    0.000000000000000E+000
 -3.230000000000000E-002    0.000000000000000E+000
 -3.220000000000000E-002    0.000000000000000E+000
 -3.210000000000000E-002    0.000000000000000E+000
 -3.200000000000000E-002    0.000000000000000E+000
 -3.190000000000000E-002    0.000000000000000E+000
 -3.180000000000000E-002    0.000000000000000E+000
 -3.170000000000000E-002    0.000000000000000E+000
 -3.160000000000000E-002    0.000000000000000E+000
 -3.150000000000000E-002    0.000000000000000E+000
 -3.140000000000000E-002    0.000000000000000E+000
 -3.130000000000000E-002    0.000000000000000E+000
 -3.120000000000000E-002    0.000000000000000E+000
 -3.110000000000000E-002    0.000000000000000E+000
 -3.100000000000000E-002    0.000000000000000E+000
 -3.090000000000000E-002    0.000000000000000E+000
 -3.080000000000000E-002    0.000000000000000E+000
 -3.070000000000000E-002    0.000000000000000E+000
 -3.060000000000000E-002    0.000000000000000E+000
 -3.050000000000000E-002    0.000000000000000E+000
 -3.040000000000000E-002    0.000000000000000E+000
 -3.030000000000000E-002    0.000000000000000E+000
 -3.020000000000000E-002    0.000000000000000E+000
 -3.010000000000000E-002    0.000000000000000E+000
 -3.000000000000000E-002    0.000000000000000E+000
 -2.990000000000000E-002    0.000000000000000E+000
 -2.980000000000000E-002    0.000000000000000E+000
 -2.970000000000000E-002    0.000000000000000E+000
 -2.960000000000000E-002    0.000000000000000E+000
 -2.950000000000000E-002    0.000000000000000E+000
 -2.940000000000000E-002    0.000000000000000E+000
 -2.930000000000000E-002    0.000000000000000E+000
 -2.920000000000000E-002    0.000000000000000E+000
 -2.910000000000000E-002    0.000000000000000E+000
 -2.900000000000000E-002    0.000000000000000E+000
 -2.890000000000000E-002    0.000000000000000E+000
 -2.880000000000000E-002    0.000000000000000E+000
 -2.870000000000000E-002    0.000000000000000E+000
 -2.860000000000000E-002    0.000000000000000E+000
 -2.850000000000000E-002    0.000000000000000E+000
 -2.840000000000000E-002    0.000000000000000E+000
 -2.830000000000000E-002    0.000000000000000E+000
 -2.820000000000000E-002    0.000000000000000E+000
 -2.810000000000000E-002    0.000000000000000E+000
 -2.800000000000000E-002    0.000000000000000E+000
 -2.790000000000000E-002    0.000000000000000E+000
 -2.780000000000000E-002    0.000000000000000E+000
 -2.770000000000000E-002    0.000000000000000E+000
 -2.760000000000000E-002    0.000000000000000E+000
 -2.750000000000000E-002    0.000000000000000E+000
 -2.740000000000000E-002    0.000000000000000E+000
 -2.730000000000000E-002    0.000000000000000E+000
 -2.720000000000000E-002    0.000000000000000E+000
 -2.710000000000000E-002    0.000000000000000E+000
 -2.700000000000000E-002    0.000000000000000E+000
 -2.690000000000000E-002    0.000000000000000E+000
 -2.680000000000000E-002    0.000000000000000E+000
 -2.670000000000000E-002    0.000000000000000E+000
 -2.660000000000000E-002    0.000000000000000E+000
 -2.650000000000000E-002    0.000000000000000E+000
 -2.640000000000000E-002    0.000000000000000E+000
 -2.630000000000000E-002    0.000000000000000E+000
 -2.620000000000000E-002    0.000000000000000E+000
 -2.610000000000000E-002    0.000000000000000E+000
 -2.600000000000000E-002    0.000000000000000E+000
 -2.590000000000000E-002    0.000000000000000E+000
 -2.580000000000000E-002    0.000000000000000E+000
 -2.570000000000000E-002    0.000000000000000E+000
 -2.560000000000000E-002    0.000000000000000E+000
 -2.550000000000000E-002    0.000000000000000E+000
 -2.540000000000000E-002    0.000000000000000E+000
 -2.530000000000000E-002    0.000000000000000E+000
 -2.520000000000000E-002    0.000000000000000E+000
 -2.510000000000000E-002    0.000000000000000E+000
 -2.500000000000000E-002    0.000000000000000E+000
 -2.490000000000000E-002    0.000000000000000E+000
 -2.480000000000000E-002    0.000000000000000E+000
 -2.470000000000000E-002    0.000000000000000E+000
 -2.460000000000000E-002    0.000000000000000E+000
 -2.450000000000000E-002    0.000000000000000E+000
 -2.440000000000000E-002    0.000000000000000E+000
 -2.430000000000000E-002    0.000000000000000E+000
 -2.420000000000000E-002    0.000000000000000E+000
 -2.410000000000000E-002    0.000000000000000E+000
 -2.400000000000000E-002    0.000000000000000E+000
 -2.390000000000000E-002    0.000000000000000E+000
 -2.380000000000000E-002    0.000000000000000E+000
 -2.370000000000000E-002    0.000000000000000E+000
 -2.360000000000000E-002    0.000000000000000E+000
 -2.350000000000000E-002    0.000000000000000E+000
 -2.340000000000000E-002    0.000000000000000E+000
 -2.330000000000000E-002    0.000000000000000E+000
 -2.320000000000000E-002    0.000000000000000E+000
 -2.310000000000000E-002    0.000000000000000E+000
 -2.300000000000000E-002    0.000000000000000E+000
 -2.290000000000000E-002    0.000000000000000E+000
 -2.280000000000000E-002    0.000000000000000E+000
 -2.270000000000000E-002    0.000000000000000E+000
 -2.260000000000000E-002    0.000000000000000E+000
 -2.250000000000000E-002    0.000000000000000E+000
 -2.240000000000000E-002    0.000000000000000E+000
 -2.230000000000000E-002    0.000000000000000E+000
 -2.220000000000000E-002    0.000000000000000E+000
 -2.210000000000000E-002    0.000000000000000E+000
 -2.200000000000000E-002    0.000000000000000E+000
 -2.190000000000000E-002    0.000000000000000E+000
 -2.180000000000000E-002    0.000000000000000E+000
 -2.170000000000000E-002    0.000000000000000E+000
 -2.160000000000000E-002    0.000000000000000E+000
 -2.150000000000000E-002    0.000000000000000E+000
 -2.140000000000000E-002    0.000000000000000E+000
 -2.130000000000000E-002    0.000000000000000E+000
 -2.120000000000000E-002    0.000000000000000E+000
 -2.110000000000000E-002    0.000000000000000E+000
 -2.100000000000000E-002    0.000000000000000E+000
 -2.090000000000000E-002    0.000000000000000E+000
 -2.080000000000000E-002    0.000000000000000E+000
 -2.070000000000000E-002    0.000000000000000E+000
 -2.060000000000000E-002    0.000000000000000E+000
 -2.050000000000000E-002    0.000000000000000E+000
 -2.040000000000000E-002    0.000000000000000E+000
 -2.030000000000000E-002    0.000000000000000E+000
 -2.020000000000000E-002    0.000000000000000E+000
 -2.010000000000000E-002    0.000000000000000E+000
 -2.000000000000000E-002    0.000000000000000E+000
 -1.990000000000000E-002    0.000000000000000E+000
 -1.980000000000000E-002    0.000000000000000E+000
 -1.970000000000000E-002    0.000000000000000E+000
 -1.960000000000000E-002    0.000000000000000E+000
 -1.950000000000000E-002    0.000000000000000E+000
 -1.940000000000000E-002    0.000000000000000E+000
 -1.930000000000000E-002    0.000000000000000E+000
 -1.920000000000000E-002    0.000000000000000E+000
 -1.910000000000000E-002    0.000000000000000E+000
 -1.900000000000000E-002    0.000000000000000E+000
 -1.890000000000000E-002    0.000000000000000E+000
 -1.880000000000000E-002    0.000000000000000E+000
 -1.870000000000000E-002    0.000000000000000E+000
 -1.860000000000000E-002    0.000000000000000E+000
 -1.850000000000000E-002    0.000000000000000E+000
 -1.840000000000000E-002    0.000000000000000E+000
 -1.830000000000000E-002    0.000000000000000E+000
 -1.820000000000000E-002    0.000000000000000E+000
 -1.810000000000000E-002    0.000000000000000E+000
 -1.800000000000000E-002    0.000000000000000E+000
 -1.790000000000000E-002    0.000000000000000E+000
 -1.780000000000000E-002    0.000000000000000E+000
 -1.770000000000000E-002    0.000000000000000E+000
 -1.760000000000000E-002    0.000000000000000E+000
 -1.750000000000000E-002    0.000000000000000E+000
 -1.740000000000000E-002    0.000000000000000E+000
 -1.730000000000000E-002    0.000000000000000E+000
 -1.720000000000000E-002    0.000000000000000E+000
 -1.710000000000000E-002    0.000000000000000E+000
 -1.700000000000000E-002    0.000000000000000E+000
 -1.690000000000000E-002    0.000000000000000E+000
 -1.680000000000000E-002    0.000000000000000E+000
 -1.670000000000000E-002    0.000000000000000E+000
 -1.660000000000000E-002    0.000000000000000E+000
 -1.650000000000000E-002    0.000000000000000E+000
 -1.640000000000000E-002    0.000000000000000E+000
 -1.630000000000000E-002    0.000000000000000E+000
 -1.620000000000000E-002    0.000000000000000E+000
 -1.610000000000000E-002    0.000000000000000E+000
 -1.600000000000000E-002    0.000000000000000E+000
 -1.590000000000000E-002    0.000000000000000E+000
 -1.580000000000000E-002    0.000000000000000E+000
 -1.570000000000000E-002    0.000000000000000E+000
 -1.560000000000000E-002    0.000000000000000E+000
 -1.550000000000000E-002    0.000000000000000E+000
 -1.540000000000000E-002    0.000000000000000E+000
 -1.530000000000000E-002    0.000000000000000E+000
 -1.520000000000000E-002   -2.187399346209049E-048
 -1.510000000000000E-002   -4.374798692418097E-048
 -1.500000000000000E-002   -4.374798692418097E-048
 -1.490000000000000E-002   -4.374798692418097E-048
 -1.480000000000000E-002   -2.187399346209049E-048
 -1.470000000000000E-002    8.829157129745039E-048
 -1.460000000000000E-002    2.203311295190817E-047
 -1.450000000000000E-002    3.961186746648941E-047
 -1.440000000000000E-002    5.054886419753465E-047
 -1.430000000000000E-002    6.790223245041389E-047
 -1.420000000000000E-002    7.423904422733904E-047
 -1.410000000000000E-002    3.258914312792061E-047
 -1.400000000000000E-002    2.206868209492742E-047
 -1.390000000000000E-002    2.832331010755639E-047
 -1.380000000000000E-002    1.833214698933947E-048
 -1.370000000000000E-002   -8.761961259481498E-047
 -1.360000000000000E-002   -2.579740534681473E-046
 -1.350000000000000E-002   -4.786656674063379E-046
 -1.340000000000000E-002   -7.932895700588718E-046
 -1.330000000000000E-002   -1.087604663251816E-045
 -1.320000000000000E-002   -1.269342650532538E-045
 -1.310000000000000E-002   -1.355180671330519E-045
 -1.300000000000000E-002   -1.112807819090731E-045
 -1.290000000000000E-002   -5.901465273868067E-046
 -1.280000000000000E-002    5.870160443302695E-046
 -1.270000000000000E-002    2.537986148432270E-045
 -1.260000000000000E-002    3.930906221919499E-045
 -1.250000000000000E-002    5.361318370688238E-045
 -1.240000000000000E-002    7.212374589593077E-045
 -1.230000000000000E-002    9.243147749916962E-045
 -1.220000000000000E-002    9.999157710786630E-045
 -1.210000000000000E-002    8.901496331385344E-045
 -1.200000000000000E-002    5.428575225292938E-045
 -1.190000000000000E-002   -9.022363129149039E-046
 -1.180000000000000E-002   -1.098150178112701E-044
 -1.170000000000000E-002   -2.337220606675537E-044
 -1.160000000000000E-002   -3.807319262720732E-044
 -1.150000000000000E-002   -5.236121704520903E-044
 -1.140000000000000E-002   -6.417264552481646E-044
 -1.130000000000000E-002   -6.835123153246380E-044
 -1.120000000000000E-002   -6.139739599405225E-044
 -1.110000000000000E-002   -3.854629251742481E-044
 -1.100000000000000E-002    2.732016517203120E-045
 -1.090000000000000E-002    6.455875164258864E-044
 -1.080000000000000E-002    1.438558269950356E-043
 -1.070000000000000E-002    2.328735143850602E-043
 -1.060000000000000E-002    3.203864095767593E-043
 -1.050000000000000E-002    3.878484234524828E-043
 -1.040000000000000E-002    4.117785459808959E-043
 -1.030000000000000E-002    3.667704070745311E-043
 -1.020000000000000E-002    2.307620285656592E-043
 -1.010000000000000E-002   -1.392829297130949E-044
 -1.000000000000000E-002   -3.706540818729672E-043
 -9.899999999999999E-003   -8.215076109880838E-043
 -9.800000000000000E-003   -1.322642294057548E-042
 -9.699999999999999E-003   -1.803817941546356E-042
 -9.599999999999999E-003   -2.164086176954830E-042
 -9.500000000000000E-003   -2.283934391106224E-042
 -9.399999999999999E-003   -2.035055486587241E-042
 -9.299999999999999E-003   -1.306310198982768E-042
 -9.200000000000000E-003   -2.631160957883885E-044
 -9.099999999999999E-003    1.805559544152790E-042
 -8.999999999999999E-003    4.087769812619077E-042
 -8.900000000000000E-003    6.596578352844921E-042
 -8.799999999999999E-003    8.977577733297976E-042
 -8.699999999999999E-003    1.075620637094281E-041
 -8.600000000000000E-003    1.138015122949837E-041
 -8.499999999999999E-003    1.028251815979724E-041
 -8.399999999999999E-003    6.983496497634580E-042
 -8.300000000000000E-003    1.200121618150148E-042
 -8.199999999999999E-003   -7.027662300699430E-042
 -8.100000000000000E-003   -1.722790965666081E-041
 -8.000000000000000E-003   -2.841985028644118E-041
 -7.899999999999999E-003   -3.910732723503157E-041
 -7.800000000000000E-003   -4.735089840427022E-041
 -7.699999999999999E-003   -5.093811619514632E-041
 -7.599999999999999E-003   -4.766273829622649E-041
 -7.499999999999999E-003   -3.568756293553296E-041
 -7.399999999999999E-003   -1.395745528787473E-041
 -7.299999999999999E-003    1.738381009167713E-041
 -7.199999999999999E-003    5.665012086649605E-041
 -7.100000000000000E-003    1.004193762106384E-040
 -6.999999999999999E-003    1.435556199121949E-040
 -6.899999999999999E-003    1.795140645755658E-040
 -6.800000000000000E-003    2.009314717683235E-040
 -6.699999999999999E-003    2.004994394347014E-040
 -6.599999999999999E-003    1.720227713863310E-040
 -6.499999999999999E-003    1.115634172805095E-040
 -6.399999999999999E-003    1.848594544134216E-041
 -6.299999999999999E-003   -1.037556179356423E-040
 -6.199999999999999E-003   -2.472586465279210E-040
 -6.100000000000000E-003   -3.998548656490957E-040
 -5.999999999999999E-003   -5.458564369404277E-040
 -5.899999999999999E-003   -6.673100930277226E-040
 -5.800000000000000E-003   -7.455824544535850E-040
 -5.699999999999999E-003   -7.630263596589803E-040
 -5.599999999999999E-003   -7.044575692449511E-040
 -5.499999999999999E-003   -5.582077698645912E-040
 -5.399999999999999E-003   -3.166374472226986E-040
 -5.299999999999999E-003    2.379661394442538E-041
 -5.199999999999999E-003    4.625849877490090E-040
 -5.099999999999999E-003    9.947683884378940E-040
 -4.999999999999999E-003    1.609388262165620E-039
 -4.899999999999999E-003    2.286116451062572E-039
 -4.799999999999999E-003    2.989671631209179E-039
 -4.699999999999999E-003    3.662190835823339E-039
 -4.599999999999999E-003    4.214603126520113E-039
 -4.499999999999999E-003    4.519067764511686E-039
 -4.399999999999999E-003    4.405644116239750E-039
 -4.299999999999999E-003    3.667145408089142E-039
 -4.199999999999999E-003    2.076422930772848E-039
 -4.099999999999999E-003   -5.803523066260337E-040
 -3.999999999999999E-003   -4.452669383696752E-039
 -3.899999999999999E-003   -9.558316043094647E-039
 -3.799999999999999E-003   -1.570548887771574E-038
 -3.699999999999999E-003   -2.241537861013529E-038
 -3.599999999999999E-003   -2.886155001245614E-038
 -3.499999999999999E-003   -3.384671092855144E-038
 -3.399999999999999E-003   -3.583951749577280E-038
 -3.299999999999999E-003   -3.309233723182106E-038
 -3.199999999999999E-003   -2.385439256492768E-038
 -3.099999999999999E-003   -6.682640595150189E-039
 -2.999999999999999E-003    1.916483203400833E-038
 -2.899999999999999E-003    5.328978688342113E-038
 -2.799999999999999E-003    9.372961432518821E-038
 -2.699999999999999E-003    1.366298393874217E-037
 -2.599999999999999E-003    1.761102419548894E-037
 -2.499999999999999E-003    2.044246376715388E-037
 -2.399999999999999E-003    2.125009636005992E-037
 -2.299999999999999E-003    1.909146610051279E-037
 -2.199999999999999E-003    1.312939769919025E-037
 -2.099999999999999E-003    2.808140380411911E-038
 -1.999999999999999E-003   -1.195103710872132E-037
 -1.899999999999999E-003   -3.055995119133029E-037
 -1.799999999999999E-003   -5.161212077983703E-037
 -1.699999999999999E-003   -7.280764184966137E-037
 -1.599999999999999E-003   -9.099235847191316E-037
 -1.499999999999999E-003   -1.023437716181708E-036
 -1.399999999999999E-003   -1.027234013722215E-036
 -1.299999999999999E-003   -8.819565188532599E-037
 -1.199999999999999E-003   -5.568755468355002E-037
 -1.099999999999999E-003   -3.734154913956716E-038
 -9.999999999999989E-004    6.677550767748362E-037
 -8.999999999999990E-004    1.519625579473796E-036
 -7.999999999999990E-004    2.445598550113355E-036
 -6.999999999999989E-004    3.338809804321112E-036
 -5.999999999999990E-004    4.062701533337083E-036
 -4.999999999999989E-004    4.461104161568583E-036
 -3.999999999999989E-004    4.374098566666570E-036
 -2.999999999999989E-004    3.659091927323015E-036
 -1.999999999999989E-004    2.215672217869435E-036
 -9.999999999999892E-005    1.189022205812036E-038
  1.084202172485504E-018   -2.891192429188285E-036
  1.000000000000011E-004   -6.320459441392647E-036
  2.000000000000011E-004   -9.981222605895455E-036
  3.000000000000011E-004   -1.346103506809189E-035
  4.000000000000011E-004   -1.624990853365374E-035
  5.000000000000011E-004   -1.777866616750037E-035
  6.000000000000011E-004   -1.747533765353313E-035
  7.000000000000011E-004   -1.483722585216673E-035
  8.000000000000011E-004   -9.513746197094375E-036
  9.000000000000012E-004   -1.392643943975943E-036
  1.000000000000001E-003    9.320065810510621E-036
  1.100000000000001E-003    2.203771812771481E-035
  1.200000000000001E-003    3.576016287528884E-035
  1.300000000000001E-003    4.908203690912399E-035
  1.400000000000001E-003    6.025180141600213E-035
  1.500000000000001E-003    6.728779218998300E-035
  1.600000000000001E-003    6.815264041469245E-035
  1.700000000000001E-003    6.098104356051938E-035
  1.800000000000001E-003    4.434866569599607E-035
  1.900000000000001E-003    1.756194554492663E-035
  2.000000000000001E-003   -1.905901425128309E-035
  2.100000000000001E-003   -6.393888839925017E-035
  2.200000000000001E-003   -1.140859668497056E-034
  2.300000000000001E-003   -1.650518065631811E-034
  2.400000000000001E-003   -2.110493255154632E-034
  2.500000000000001E-003   -2.452591760513404E-034
  2.600000000000001E-003   -2.603405242793310E-034
  2.700000000000001E-003   -2.491433900411942E-034
  2.800000000000001E-003   -2.055948999774482E-034
  2.900000000000001E-003   -1.257040459868369E-034
  3.000000000000001E-003   -8.599948358327672E-036
  3.100000000000001E-003    1.425090659948228E-034
  3.200000000000001E-003    3.195898392934710E-034
  3.300000000000001E-003    5.093979220974981E-034
  3.400000000000001E-003    6.935930484386499E-034
  3.500000000000001E-003    8.494779177248688E-034
  3.600000000000001E-003    9.514395375553860E-034
  3.700000000000001E-003    9.731099214196245E-034
  3.800000000000001E-003    8.901819972104605E-034
  3.900000000000001E-003    6.837224405961140E-034
  4.000000000000001E-003    3.437250434893730E-034
  4.100000000000001E-003   -1.274421642110966E-034
  4.200000000000001E-003   -7.121166463384765E-034
  4.300000000000001E-003   -1.375405596961692E-033
  4.400000000000001E-003   -2.064687053530159E-033
  4.500000000000001E-003   -2.710943073778204E-033
  4.600000000000002E-003   -3.232201799822145E-033
  4.700000000000001E-003   -3.539196790528856E-033
  4.800000000000001E-003   -3.543135875896606E-033
  4.900000000000002E-003   -3.165229087188777E-033
  5.000000000000001E-003   -2.347369180792872E-033
  5.100000000000001E-003   -1.063132144823547E-033
  5.200000000000001E-003    6.719325387711433E-034
  5.300000000000002E-003    2.791871307556836E-033
  5.400000000000001E-003    5.174941585947846E-033
  5.500000000000001E-003    7.642403728574616E-033
  5.600000000000002E-003    9.962458877336617E-033
  5.700000000000001E-003    1.186005248206254E-032
  5.800000000000001E-003    1.303292081340409E-032
  5.900000000000002E-003    1.317385925138101E-032
  6.000000000000001E-003    1.199871531670438E-032
  6.100000000000001E-003    9.279087206710537E-033
  6.200000000000002E-003    4.878158685414547E-033
  6.300000000000002E-003   -1.212514256445188E-033
  6.400000000000001E-003   -8.838098332105798E-033
  6.500000000000001E-003   -1.765092746954747E-032
  6.600000000000002E-003   -2.709042233905435E-032
  6.700000000000001E-003   -3.637713446708608E-032
  6.800000000000001E-003   -4.452587888968717E-032
  6.900000000000002E-003   -5.038287792724152E-032
  7.000000000000001E-003   -5.269118839972738E-032
  7.100000000000001E-003   -5.018733865680968E-032
  7.200000000000002E-003   -4.172970179682110E-032
  7.300000000000002E-003   -2.645575223215025E-032
  7.400000000000001E-003   -3.960859518990208E-033
  7.500000000000001E-003    2.551410822206905E-032
  7.600000000000002E-003    6.090494214463929E-032
  7.700000000000001E-003    1.001802034488116E-031
  7.800000000000001E-003    1.402601917970425E-031
  7.900000000000001E-003    1.770300032930258E-031
  8.000000000000002E-003    2.054771730115994E-031
  8.100000000000001E-003    2.199791830953141E-031
  8.200000000000001E-003    2.147555627752014E-031
  8.300000000000002E-003    1.844836295920102E-031
  8.400000000000001E-003    1.250551603293625E-031
  8.500000000000002E-003    3.442673591732937E-032
  8.600000000000002E-003   -8.651123001735261E-032
  8.700000000000001E-003   -2.331475039871857E-031
  8.800000000000002E-003   -3.965665946614938E-031
  8.900000000000002E-003   -5.633022213609209E-031
  9.000000000000001E-003   -7.155590793785046E-031
  9.100000000000002E-003   -8.320139957905682E-031
  9.200000000000002E-003   -8.892698609362585E-031
  9.300000000000001E-003   -8.639751117014122E-031
  9.400000000000002E-003   -7.355434135836555E-031
  9.500000000000001E-003   -4.893181196655126E-031
  9.600000000000001E-003   -1.199277041757740E-031
  9.700000000000002E-003    3.655127410111344E-031
  9.800000000000001E-003    9.447738855574009E-031
  9.900000000000001E-003    1.578921190495021E-030
  1.000000000000000E-002    2.212223930025992E-030
  1.010000000000000E-002    2.773968708203112E-030
  1.020000000000000E-002    3.182468325819636E-030
  1.030000000000000E-002    3.351371318831765E-030
  1.040000000000000E-002    3.198143919471341E-030
  1.050000000000000E-002    2.654310679143441E-030
  1.060000000000000E-002    1.676741676815488E-030
  1.070000000000000E-002    2.589775406557005E-031
  1.080000000000000E-002   -1.558665377571058E-030
  1.090000000000000E-002   -3.681635013652966E-030
  1.100000000000000E-002   -5.957808906438854E-030
  1.110000000000000E-002   -8.179657175574656E-030
  1.120000000000000E-002   -1.009300560490039E-029
  1.130000000000000E-002   -1.141304057395831E-029
  1.140000000000000E-002   -1.184756255422022E-029
  1.150000000000000E-002   -1.112671378834133E-029
  1.160000000000000E-002   -9.037521458013809E-030
  1.170000000000000E-002   -5.460708356359598E-030
  1.180000000000000E-002   -4.063562393008951E-031
  1.190000000000000E-002    5.955642373637651E-030
  1.200000000000000E-002    1.327482493484841E-029
  1.210000000000000E-002    2.101358969734603E-029
  1.220000000000000E-002    2.845887639453305E-029
  1.230000000000000E-002    3.475516560499296E-029
  1.240000000000000E-002    3.896037881810990E-029
  1.250000000000000E-002    4.012419053558939E-029
  1.260000000000000E-002    3.738581535716197E-029
  1.270000000000000E-002    3.008563865975032E-029
  1.280000000000000E-002    1.788220897937743E-029
  1.290000000000000E-002    8.636693469375096E-031
  1.300000000000000E-002   -2.035936361526199E-029
  1.310000000000000E-002   -4.459352818954745E-029
  1.320000000000000E-002   -7.004900077048764E-029
  1.330000000000000E-002   -9.438468372783509E-029
  1.340000000000000E-002   -1.148213368782571E-028
  1.350000000000000E-002   -1.283268137708427E-028
  1.360000000000000E-002   -1.318708288516525E-028
  1.370000000000000E-002   -1.227389991696762E-028
  1.380000000000000E-002   -9.888713278162766E-029
  1.390000000000000E-002   -5.930829322639666E-029
  1.400000000000000E-002   -4.377372134878689E-030
  1.410000000000000E-002    6.386785751192542E-029
  1.420000000000000E-002    1.415529293540052E-028
  1.430000000000000E-002    2.229427522341558E-028
  1.440000000000000E-002    3.006041696751839E-028
  1.450000000000000E-002    3.657805929017744E-028
  1.460000000000000E-002    4.089878177032627E-028
  1.470000000000000E-002    4.208193374882474E-028
  1.480000000000000E-002    3.929249091260173E-028
  1.490000000000000E-002    3.191001433316140E-028
  1.500000000000000E-002    1.963997324977710E-028
  1.510000000000000E-002    2.616475211672364E-029
  1.520000000000000E-002   -1.851600067387490E-028
  1.530000000000000E-002   -4.255487112624428E-028
  1.540000000000000E-002   -6.773801819695400E-028
  1.550000000000000E-002   -9.179884518076280E-028
  1.560000000000000E-002   -1.120844457999457E-027
  1.570000000000000E-002   -1.257384386217566E-027
  1.580000000000000E-002   -1.299437032255005E-027
  1.590000000000000E-002   -1.222133211373597E-027
  1.600000000000000E-002   -1.007104190728736E-027
  1.610000000000000E-002   -6.457083724479883E-028
  1.620000000000000E-002   -1.419679580763722E-028
  1.630000000000000E-002    4.851399642575667E-028
  1.640000000000000E-002    1.200401470138410E-027
  1.650000000000000E-002    1.952429988980496E-027
  1.660000000000000E-002    2.675347480347900E-027
  1.670000000000000E-002    3.292247743776406E-027
  1.680000000000000E-002    3.720463272429323E-027
  1.690000000000000E-002    3.878481808456748E-027
  1.700000000000000E-002    3.694164785466233E-027
  1.710000000000000E-002    3.113722351930035E-027
  1.720000000000000E-002    2.110717643144750E-027
  1.730000000000000E-002    6.942228152284918E-028
  1.740000000000000E-002   -1.084837120637824E-027
  1.750000000000000E-002   -3.130131060221733E-027
  1.760000000000000E-002   -5.300056412647306E-027
  1.770000000000000E-002   -7.412276364212067E-027
  1.780000000000000E-002   -9.253086063601075E-027
  1.790000000000000E-002   -1.059165132222602E-026
  1.800000000000000E-002   -1.119869211455361E-026
  1.810000000000000E-002   -1.086869549269126E-026
  1.820000000000000E-002   -9.444195187037484E-027
  1.830000000000000E-002   -6.840211574361490E-027
  1.840000000000000E-002   -3.066540256429664E-027
  1.850000000000000E-002    1.754637463968934E-027
  1.860000000000000E-002    7.378391252810157E-027
  1.870000000000000E-002    1.343628732707004E-026