 -4.000000000000000E-002    0.000000000000000E+000
 -3.990000000000000E-002    0.000000000000000E+000
 -3.980000000000000E-002    0.000000000000000E+000
 -3.970000000000000E-002    0.000000000000000E+000
 -3.960000000000000E-002    0.000000000000000E+000
 -3.950000000000000E-002    0.000000000000000E+000
 -3.940000000000000E-002    0.000000000000000E+000
 -3.930000000000000E-002    0.000000000000000E+000
 -3.920000000000000E-002    0.000000000000000E+000
 -3.910000000000000E-002    0.000000000000000E+000
 -3.900000000000000E-002    0.000000000000000E+000
 -3.890000000000000E-002   -1.136173866879647E-038
 -3.880000000000000E-002   -2.414854334983278E-037
 -3.870000000000000E-002   -2.658053507760797E-036
 -3.860000000000000E-002   -2.016359231116946E-035
 -3.850000000000000E-002   -1.183774189516706E-034
 -3.840000000000000E-002   -5.727246056084932E-034
 -3.830000000000000E-002   -2.374691564178595E-033
 -3.820000000000000E-002   -8.665380273296482E-033
 -3.810000000000000E-002   -2.836310316326572E-032
 -3.800000000000000E-002   -8.446144990652332E-032
 -3.790000000000000E-002   -2.313136017716286E-031
 -3.780000000000000E-002   -5.875262344751666E-031
 -3.770000000000000E-002   -1.393094777341594E-030
 -3.760000000000000E-002   -3.099296552191676E-030
 -3.750000000000000E-002   -6.494266821844008E-030
 -3.740000000000000E-002   -1.285097718557687E-029
 -3.730000000000000E-002   -2.405086280115875E-029
 -3.720000000000000E-002   -4.257877144339498E-029
 -3.710000000000000E-002   -7.119886026066902E-029
 -3.700000000000000E-002   -1.120092861172830E-028
 -3.690000000000000E-002   -1.644518221309240E-028
 -3.680000000000000E-002   -2.217565091793753E-028
 -3.670000000000000E-002   -2.652937929105601E-028
 -3.660000000000000E-002   -2.564766615192783E-028
 -3.650000000000000E-002   -1.263170515225175E-028
 -3.640000000000000E-002    2.363852312398952E-028
 -3.630000000000000E-002    9.958659675363707E-028
 -3.620000000000000E-002    2.374984975621337E-027
 -3.610000000000000E-002    4.649054897550138E-027
 -3.600000000000000E-002    8.119082282156073E-027
 -3.590000000000000E-002    1.305391516660056E-026
 -3.580000000000000E-002    1.959066745232262E-026
 -3.570000000000000E-002    2.758549091782524E-026
 -3.560000000000000E-002    3.641346853550170E-026
 -3.550000000000000E-002    4.472822257492547E-026
 -3.540000000000000E-002    5.020885388105244E-026
 -3.530000000000000E-002    4.934264447316986E-026
 -3.520000000000000E-002    3.731327669291078E-026
 -3.510000000000000E-002    8.079253364024967E-027
 -3.500000000000000E-002   -4.527245367081322E-026
 -3.490000000000000E-002   -1.298382967455910E-025
 -3.480000000000000E-002   -2.518779066799237E-025
 -3.470000000000000E-002   -4.155664486332094E-025
 -3.460000000000000E-002   -6.217613814835173E-025
 -3.450000000000000E-002   -8.671777426462922E-025
 -3.440000000000000E-002   -1.144481852670717E-024
 -3.430000000000000E-002   -1.443824568571974E-024
 -3.420000000000000E-002   -1.756147804863215E-024
 -3.410000000000000E-002   -2.078099531561776E-024
 -3.400000000000000E-002   -2.417511258267706E-024
 -3.390000000000000E-002   -2.797071487178737E-024
 -3.380000000000000E-002   -3.252221732047747E-024
 -3.370000000000000E-002   -3.817527571092462E-024
 -3.360000000000000E-002   -4.494556829613470E-024
 -3.350000000000000E-002   -5.194024980657631E-024
 -3.340000000000000E-002   -5.646936343648867E-024
 -3.330000000000000E-002   -5.284308074239315E-024
 -3.320000000000000E-002   -3.094080221912714E-024
 -3.310000000000000E-002    2.522900895736393E-024
 -3.300000000000000E-002    1.385861262955394E-023
 -3.290000000000000E-002    3.390635137878316E-023
 -3.280000000000000E-002    6.619446284049724E-023
 -3.270000000000000E-002    1.143550392872962E-022
 -3.260000000000000E-002    1.813380217785002E-022
 -3.250000000000000E-002    2.682019091347079E-022
 -3.240000000000000E-002    3.724614924931291E-022
 -3.230000000000000E-002    4.860565226496208E-022
 -3.220000000000000E-002    5.931219629546113E-022
 -3.210000000000000E-002    6.678855015379403E-022
 -3.200000000000000E-002    6.731829865352417E-022
 -3.190000000000000E-002    5.602217819008249E-022
 -3.180000000000000E-002    2.703369803947901E-022
 -3.170000000000000E-002   -2.605127089127897E-022
 -3.160000000000000E-002   -1.093870527461391E-021
 -3.150000000000000E-002   -2.277179435675961E-021
 -3.140000000000000E-002   -3.828574593521083E-021
 -3.130000000000000E-002   -5.718859374275371E-021
 -3.120000000000000E-002   -7.852226250551663E-021
 -3.110000000000000E-002   -1.004815664330550E-020
 -3.100000000000000E-002   -1.202768219876836E-020
 -3.090000000000000E-002   -1.340772965859911E-020
 -3.080000000000000E-002   -1.370740149493135E-020
 -3.070000000000000E-002   -1.236964959226219E-020
 -3.060000000000000E-002   -8.800654071506001E-021
 -3.050000000000000E-002   -2.427590869456167E-021
 -3.040000000000000E-002    7.226809244561369E-021
 -3.030000000000000E-002    2.045706507658201E-020
 -3.020000000000000E-002    3.728159690783992E-020
 -3.010000000000000E-002    5.735157027180871E-020
 -3.000000000000000E-002    7.987113645914667E-020
 -2.990000000000000E-002    1.035375261651824E-019
 -2.980000000000000E-002    1.265076995630872E-019
 -2.970000000000000E-002    1.463947001126562E-019
 -2.960000000000000E-002    1.602930564476848E-019
 -2.950000000000000E-002    1.648294013617033E-019
 -2.940000000000000E-002    1.562326786647659E-019
 -2.930000000000000E-002    1.304209648393677E-019
 -2.920000000000000E-002    8.310817819166149E-020
 -2.910000000000000E-002    9.945370472405411E-021
 -2.900000000000000E-002   -9.327074761392008E-020
 -2.890000000000000E-002   -2.302725532703489E-019
 -2.880000000000000E-002   -4.038123950784232E-019
 -2.870000000000000E-002   -6.148937463689935E-019
 -2.860000000000000E-002   -8.616722624238715E-019
 -2.850000000000000E-002   -1.137987190367614E-018
 -2.840000000000000E-002   -1.431539230241001E-018
 -2.830000000000000E-002   -1.721819423275307E-018
 -2.820000000000000E-002   -1.978016552909104E-018
 -2.810000000000000E-002   -2.157264231216456E-018
 -2.800000000000000E-002   -2.203740966478847E-018
 -2.790000000000000E-002   -2.049245081265120E-018
 -2.780000000000000E-002   -1.615944749662007E-018
 -2.770000000000000E-002   -8.219667081366023E-019
 -2.760000000000000E-002    4.096586751917699E-019
 -2.750000000000000E-002    2.138488526877993E-018
 -2.740000000000000E-002    4.390859575703032E-018
 -2.730000000000000E-002    7.141664182761849E-018
 -2.720000000000000E-002    1.029533481344796E-017
 -2.710000000000000E-002    1.366841051325034E-017
 -2.700000000000000E-002    1.697675210223865E-017
 -2.690000000000000E-002    1.983096807815274E-017
 -2.680000000000000E-002    2.174367482602319E-017
 -2.670000000000000E-002    2.215192071638257E-017
 -2.660000000000000E-002    2.045705616760451E-017
 -2.650000000000000E-002    1.608275331405371E-017
 -2.640000000000000E-002    8.549651382153790E-018
 -2.630000000000000E-002   -2.437610231197147E-018
 -2.620000000000000E-002   -1.689809075100936E-017
 -2.610000000000000E-002   -3.448685603352327E-017
 -2.600000000000000E-002   -5.442406365767127E-017
 -2.590000000000000E-002   -7.545397380418445E-017
 -2.580000000000000E-002   -9.584702851280444E-017
 -2.570000000000000E-002   -1.134557413353685E-016
 -2.560000000000000E-002   -1.258314135095391E-016
 -2.550000000000000E-002   -1.304025827574415E-016
 -2.540000000000000E-002   -1.247087842053256E-016
 -2.530000000000000E-002   -1.066752021860405E-016
 -2.520000000000000E-002   -7.490536812511843E-017
 -2.510000000000000E-002   -2.896260118205797E-017
 -2.500000000000000E-002    3.039372777862820E-017
 -2.490000000000000E-002    1.010517386580180E-016
 -2.480000000000000E-002    1.795016537904610E-016
 -2.470000000000000E-002    2.609244947178026E-016
 -2.460000000000000E-002    3.394253659858683E-016
 -2.450000000000000E-002    4.084059705372181E-016
 -2.440000000000000E-002    4.610527818150285E-016
 -2.430000000000000E-002    4.909005117168325E-016
 -2.420000000000000E-002    4.924155744106782E-016
 -2.410000000000000E-002    4.615354494948899E-016
 -2.400000000000000E-002    3.960986146663560E-016
 -2.390000000000000E-002    2.961080400142954E-016
 -2.380000000000000E-002    1.637878733336425E-016
 -2.370000000000000E-002    3.419232915365120E-018
 -2.360000000000000E-002   -1.790280056426488E-016
 -2.350000000000000E-002   -3.764171750790325E-016
 -2.340000000000000E-002   -5.810410939107438E-016
 -2.330000000000000E-002   -7.851924737573335E-016
 -2.320000000000000E-002   -9.815990344100934E-016
 -2.310000000000000E-002   -1.163628387639066E-015
 -2.300000000000000E-002   -1.325191994282988E-015
 -2.290000000000000E-002   -1.460328887936668E-015
 -2.280000000000000E-002   -1.562509325401307E-015
 -2.270000000000000E-002   -1.623766509085370E-015
 -2.260000000000000E-002   -1.633828186954723E-015
 -2.250000000000000E-002   -1.579469719504182E-015
 -2.240000000000000E-002   -1.444331491312973E-015
 -2.230000000000000E-002   -1.209434471825935E-015
 -2.220000000000000E-002   -8.545678311688659E-016
 -2.210000000000000E-002   -3.606301410361811E-016
 -2.200000000000000E-002    2.871301320881265E-016
 -2.190000000000000E-002    1.095187054961756E-015
 -2.180000000000000E-002    2.057496166083470E-015
 -2.170000000000000E-002    3.151459941017648E-015
 -2.160000000000000E-002    4.334721808676374E-015
 -2.150000000000000E-002    5.543445265796992E-015
 -2.140000000000000E-002    6.692685077932107E-015
 -2.130000000000000E-002    7.679318403422386E-015
 -2.120000000000000E-002    8.387755322728125E-015
 -2.110000000000000E-002    8.698352137318138E-015
 -2.100000000000000E-002    8.498079059864774E-015
 -2.090000000000000E-002    7.692634428277109E-015
 -2.080000000000000E-002    6.218880055417695E-015
 -2.070000000000000E-002    4.056239025296189E-015
 -2.060000000000000E-002    1.235615354783840E-015
 -2.050000000000000E-002   -2.155524661020394E-015
 -2.040000000000000E-002   -5.972991784944470E-015
 -2.030000000000000E-002   -1.002127375211981E-014
 -2.020000000000000E-002   -1.406454359159996E-014
 -2.010000000000000E-002   -1.784264504750002E-014
 -2.000000000000000E-002   -2.109077102301065E-014
 -1.990000000000000E-002   -2.356093349864580E-014
 -1.980000000000000E-002   -2.504296110224496E-014
 -1.970000000000000E-002   -2.538258375587099E-014
 -1.960000000000000E-002   -2.449433992223752E-014
 -1.950000000000000E-002   -2.236750972345265E-014
 -1.940000000000000E-002   -1.906410351657302E-014
 -1.930000000000000E-002   -1.470886827974495E-014
 -1.920000000000000E-002   -9.472437956034604E-015
 -1.910000000000000E-002   -3.549790834160154E-015
 -1.900000000000000E-002    2.862965549774003E-015
 -1.890000000000000E-002    9.589898319394408E-015
 -1.880000000000000E-002    1.649103344010520E-014
 -1.870000000000000E-002    2.346944531107409E-014
 -1.860000000000000E-002    3.046749313493994E-014
 -1.850000000000000E-002    3.745148206261114E-014
 -1.840000000000000E-002    4.438576232955652E-014
 -1.830000000000000E-002    5.119912230741908E-014
 -1.820000000000000E-002    5.774802184275376E-014
 -1.810000000000000E-002    6.378242266706598E-014
 -1.800000000000000E-002    6.892062070436914E-014
 -1.790000000000000E-002    7.263924665870786E-014
 -1.780000000000000E-002    7.428345852070192E-014
 -1.770000000000000E-002    7.310040194798220E-014
 -1.760000000000000E-002    6.829633709359831E-014
 -1.750000000000000E-002    5.911469741981425E-014
 -1.740000000000000E-002    4.492930468403427E-014
 -1.730000000000000E-002    2.534401692235617E-014
 -1.720000000000000E-002    2.881811535499257E-016
 -1.710000000000000E-002   -2.990370359018459E-014
 -1.700000000000000E-002   -6.443925859722152E-014
 -1.690000000000000E-002   -1.020518057527663E-013
 -1.680000000000000E-002   -1.410263281982594E-013
 -1.670000000000000E-002   -1.792699129241482E-013
 -1.660000000000000E-002   -2.144237907900262E-013
 -1.650000000000000E-002   -2.440094377541328E-013
 -1.640000000000000E-002   -2.655970580111449E-013
 -1.630000000000000E-002   -2.769814930890184E-013
 -1.620000000000000E-002   -2.763495319395105E-013
 -1.610000000000000E-002   -2.624226166539721E-013
 -1.600000000000000E-002   -2.345618570595471E-013
 -1.590000000000000E-002   -1.928255579328828E-013
 -1.580000000000000E-002   -1.379756707681694E-013
 -1.570000000000000E-002   -7.143464837344453E-014
 -1.560000000000000E-002    4.799843336445463E-015
 -1.550000000000000E-002    8.827014983981243E-014
 -1.540000000000000E-002    1.761889316902378E-013
 -1.530000000000000E-002    2.655686033177321E-013
 -1.520000000000000E-002    3.533355724323143E-013
 -1.510000000000000E-002    4.364187041729393E-013
 -1.500000000000000E-002    5.118068213861424E-013
 -1.490000000000000E-002    5.765764679731712E-013
 -1.480000000000000E-002    6.278974071893184E-013
 -1.470000000000000E-002    6.630289990070608E-013
 -1.460000000000000E-002    6.793233632704852E-013
 -1.450000000000000E-002    6.742528120048089E-013
 -1.440000000000000E-002    6.454763094087883E-013
 -1.430000000000000E-002    5.909540358197571E-013
 -1.420000000000000E-002    5.091124301609105E-013
 -1.410000000000000E-002    3.990529503254298E-013
 -1.400000000000000E-002    2.607878863320889E-013
 -1.390000000000000E-002    9.547928721378158E-014
 -1.380000000000000E-002   -9.434870042633968E-014
 -1.370000000000000E-002   -3.046555628786810E-013
 -1.360000000000000E-002   -5.298178738484085E-013
 -1.350000000000000E-002   -7.626730713734915E-013
 -1.340000000000000E-002   -9.946864696451414E-013
 -1.330000000000000E-002   -1.216241279836427E-012
 -1.320000000000000E-002   -1.417039001128783E-012
 -1.310000000000000E-002   -1.586582807253235E-012
 -1.300000000000000E-002   -1.714708679972068E-012
 -1.290000000000000E-002   -1.792122072477598E-012
 -1.280000000000000E-002   -1.810896543085584E-012
 -1.270000000000000E-002   -1.764897444009480E-012
 -1.260000000000000E-002   -1.650103016733051E-012
 -1.250000000000000E-002   -1.464807329981339E-012
 -1.240000000000000E-002   -1.209706266466610E-012
 -1.230000000000000E-002   -8.878811903112142E-013
 -1.220000000000000E-002   -5.047080329636997E-013
 -1.210000000000000E-002   -6.772272932163415E-014
 -1.200000000000000E-002    4.135221163842974E-013
 -1.190000000000000E-002    9.275835776715002E-013
 -1.180000000000000E-002    1.461224948990934E-012
 -1.170000000000000E-002    1.999484944024510E-012
 -1.160000000000000E-002    2.525743018069317E-012
 -1.150000000000000E-002    3.021819426025525E-012
 -1.140000000000000E-002    3.468161657867194E-012
 -1.130000000000000E-002    3.844174672274345E-012
 -1.120000000000000E-002    4.128742901223024E-012
 -1.110000000000000E-002    4.300978286137827E-012
 -1.100000000000000E-002    4.341203571005244E-012
 -1.090000000000000E-002    4.232142418656307E-012
 -1.080000000000000E-002    3.960257039737120E-012
 -1.070000000000000E-002    3.517133424360169E-012
 -1.060000000000000E-002    2.900791095996382E-012
 -1.050000000000000E-002    2.116775516397166E-012
 -1.040000000000000E-002    1.178894127948867E-012
 -1.030000000000000E-002    1.094716852020054E-013
 -1.020000000000000E-002   -1.060961429962519E-012
 -1.010000000000000E-002   -2.294584433959382E-012
 -1.000000000000000E-002   -3.547781563991845E-012
 -9.899999999999999E-003   -4.773132540347097E-012
 -9.800000000000000E-003   -5.921752706658580E-012
 -9.699999999999999E-003   -6.945793321357748E-012
 -9.599999999999999E-003   -7.800891170566034E-012
 -9.500000000000000E-003   -8.448348468583986E-012
 -9.399999999999999E-003   -8.856861814787944E-012
 -9.299999999999999E-003   -9.003657452779520E-012
 -9.200000000000000E-003   -8.874965932285090E-012
 -9.099999999999999E-003   -8.465860012112288E-012
 -8.999999999999999E-003   -7.779538637890615E-012
 -8.900000000000000E-003   -6.826233314917071E-012
 -8.799999999999999E-003   -5.621958075612654E-012
 -8.699999999999999E-003   -4.187327777141651E-012
 -8.600000000000000E-003   -2.546682092732367E-012
 -8.499999999999999E-003   -7.276787009247407E-013
 -8.399999999999999E-003    1.238550108370448E-012
 -8.300000000000000E-003    3.316689110509778E-012
 -8.199999999999999E-003    5.466102460287479E-012
 -8.100000000000000E-003    7.639495323744617E-012
 -8.000000000000000E-003    9.781681628561179E-012
 -7.899999999999999E-003    1.182881522322397E-011
 -7.800000000000000E-003    1.370843228113289E-011
 -7.699999999999999E-003    1.534061168322116E-011
 -7.599999999999999E-003    1.664043495327092E-011
 -7.499999999999999E-003    1.752181570272734E-011
 -7.399999999999999E-003    1.790254916495396E-011
 -7.299999999999999E-003    1.771030461858950E-011
 -7.199999999999999E-003    1.688908447382452E-011
 -7.100000000000000E-003    1.540556530816533E-011
 -6.999999999999999E-003    1.325466118622084E-011
 -6.899999999999999E-003    1.046366433987865E-011
 -6.800000000000000E-003    7.094382655769549E-012
 -6.699999999999999E-003    3.242854450158194E-012
 -6.599999999999999E-003   -9.635569804566123E-013
 -6.499999999999999E-003   -5.371655420221256E-012
 -6.399999999999999E-003   -9.810166481173098E-012
 -6.299999999999999E-003   -1.409920605700512E-011
 -6.199999999999999E-003   -1.806069557295346E-011
 -6.100000000000000E-003   -2.152884531180112E-011
 -5.999999999999999E-003   -2.435978532804318E-011
 -5.899999999999999E-003   -2.643948805169908E-011
 -5.800000000000000E-003   -2.768929446070575E-011
 -5.699999999999999E-003   -2.806859995799502E-011
 -5.599999999999999E-003   -2.757453807565316E-011
 -5.499999999999999E-003   -2.623884853256779E-011
 -5.399999999999999E-003   -2.412239940808761E-011
 -5.299999999999999E-003   -2.130810034285163E-011
 -5.199999999999999E-003   -1.789310417819389E-011
 -5.099999999999999E-003   -1.398127328924590E-011
 -4.999999999999999E-003   -9.676815675695609E-012
 -4.899999999999999E-003   -5.079847872749893E-012
 -4.799999999999999E-003   -2.843778678341825E-013
 -4.699999999999999E-003    4.621179538071518E-012
 -4.599999999999999E-003    9.551120944720514E-012
 -4.499999999999999E-003    1.441780238303270E-011
 -4.399999999999999E-003    1.912606813450734E-011
 -4.299999999999999E-003    2.356780664023536E-011
 -4.199999999999999E-003    2.761778150944258E-011
 -4.099999999999999E-003    3.113179903782283E-011
 -3.999999999999999E-003    3.394809506695934E-011
 -3.899999999999999E-003    3.589246102253575E-011
 -3.799999999999999E-003    3.678727725741188E-011
 -3.699999999999999E-003    3.646413290065659E-011
 -3.599999999999999E-003    3.477917934089585E-011
 -3.499999999999999E-003    3.163008333773929E-011
 -3.399999999999999E-003    2.697306655741591E-011
 -3.299999999999999E-003    2.083828085449341E-011
 -3.199999999999999E-003    1.334183773386562E-011
 -3.099999999999999E-003    4.692973823624286E-012
 -2.999999999999999E-003   -4.804975642820002E-012
 -2.899999999999999E-003   -1.476051820210033E-011
 -2.799999999999999E-003   -2.470716940325544E-011
 -2.699999999999999E-003   -3.412343612697385E-011
 -2.599999999999999E-003   -4.245872514142625E-011
 -2.499999999999999E-003   -4.916365786153683E-011
 -2.399999999999999E-003   -5.372290664185991E-011
 -2.299999999999999E-003   -5.568836815888259E-011
 -2.199999999999999E-003   -5.471034844454335E-011
 -2.099999999999999E-003   -5.056460622545139E-011
 -1.999999999999999E-003   -4.317330400713357E-011
 -1.899999999999999E-003   -3.261827905621211E-011
 -1.799999999999999E-003   -1.914578881813450E-011
 -1.699999999999999E-003   -3.162268076902274E-012
 -1.599999999999999E-003    1.477851838896138E-011
 -1.499999999999999E-003    3.399608204639772E-011
 -1.399999999999999E-003    5.370999336426557E-011
 -1.299999999999999E-003    7.307120748690360E-011
 -1.199999999999999E-003    9.119564116236704E-011
 -1.099999999999999E-003    1.071979990194473E-010
 -9.999999999999989E-004    1.202239084235944E-010
 -8.999999999999990E-004    1.294786178793838E-010
 -7.999999999999990E-004    1.342512444676698E-010
 -6.999999999999989E-004    1.339339744226698E-010
 -5.999999999999990E-004    1.280362194316750E-010
 -4.999999999999989E-004    1.161944633688181E-010
 -3.999999999999989E-004    9.817908037436079E-011
 -2.999999999999989E-004    7.389947320599547E-011
 -1.999999999999989E-004    4.340957986090500E-011
 -9.999999999999892E-005    6.915060918088006E-012
  1.084202172485504E-018   -3.521631530210016E-011
  1.000000000000011E-004   -8.244034165140982E-011
  2.000000000000011E-004   -1.340182956733635E-010
  3.000000000000011E-004   -1.889959522955942E-010
  4.000000000000011E-004   -2.461815328092942E-010
  5.000000000000011E-004   -3.041256713341944E-010
  6.000000000000011E-004   -3.611065617875170E-010
  7.000000000000011E-004   -4.151243633264555E-010
  8.000000000000011E-004   -4.639090193075330E-010
  9.000000000000012E-004   -5.049449011414647E-010
  1.000000000000001E-003   -5.355153914325924E-010
  1.100000000000001E-003   -5.527685329240386E-010
  1.200000000000001E-003   -5.538043074167900E-010
  1.300000000000001E-003   -5.357813671167075E-010
  1.400000000000001E-003   -4.960397713945785E-010
  1.500000000000001E-003   -4.322341646682068E-010
  1.600000000000001E-003   -3.424706292305544E-010
  1.700000000000001E-003   -2.254394424524034E-010
  1.800000000000001E-003   -8.053519464375778E-011
  1.900000000000001E-003    9.204307687971238E-011
  2.000000000000001E-003    2.912186090328900E-010
  2.100000000000001E-003    5.149952424851513E-010
  2.200000000000001E-003    7.604505018887760E-010
  2.300000000000001E-003    1.023762158868953E-009
  2.400000000000001E-003    1.300266695076305E-009
  2.500000000000001E-003    1.584542490850440E-009
  2.600000000000001E-003    1.870512479817143E-009
  2.700000000000001E-003    2.151554578071460E-009
  2.800000000000001E-003    2.420612824048246E-009
  2.900000000000001E-003    2.670301069025209E-009
  3.000000000000001E-003    2.892990598703120E-009
  3.100000000000001E-003    3.080881040961154E-009
  3.200000000000001E-003    3.226054555879404E-009
  3.300000000000001E-003    3.320515039044541E-009
  3.400000000000001E-003    3.356228327648843E-009
  3.500000000000001E-003    3.325168934643570E-009
  3.600000000000001E-003    3.219398291598456E-009
  3.700000000000001E-003    3.031188553050089E-009
  3.800000000000001E-003    2.753214090836722E-009
  3.900000000000001E-003    2.378829703351756E-009
  4.000000000000001E-003    1.902453802661399E-009
  4.100000000000001E-003    1.320066766186202E-009
  4.200000000000001E-003    6.298328427019732E-010
  4.300000000000001E-003   -1.671561070877243E-010
  4.400000000000001E-003   -1.066019966660155E-009
  4.500000000000001E-003   -2.057130670808255E-009
  4.600000000000002E-003   -3.125072818760499E-009
  4.700000000000001E-003   -4.247555554138530E-009
  4.800000000000001E-003   -5.394303463531555E-009
  4.900000000000002E-003   -6.525961972467286E-009
  5.000000000000001E-003   -7.593058795307827E-009
  5.100000000000001E-003   -8.535039697087745E-009
  5.200000000000001E-003   -9.279420700897800E-009
  5.300000000000002E-003   -9.741069623147849E-009
  5.400000000000001E-003   -9.821646465773190E-009
  5.500000000000001E-003   -9.409185948231144E-009
  5.600000000000002E-003   -8.377847141272357E-009
  5.700000000000001E-003   -6.587806873656931E-009
  5.800000000000001E-003   -3.885277538754746E-009
  5.900000000000002E-003   -1.026393635979042E-010
  6.000000000000001E-003    4.941348520049396E-009
  6.100000000000001E-003    1.144129186367831E-008
  6.200000000000002E-003    1.960487542404062E-008
  6.300000000000002E-003    2.965258807119694E-008
  6.400000000000001E-003    4.181747749217510E-008
  6.500000000000001E-003    5.634496494776440E-008
  6.600000000000002E-003    7.349270464387787E-008
  6.700000000000001E-003    9.353055833124721E-008
  6.800000000000001E-003    1.167406002689136E-007
  6.900000000000002E-003    1.434172397482694E-007
  7.000000000000001E-003    1.738673926185600E-007
  7.100000000000001E-003    2.084106920912975E-007
  7.200000000000002E-003    2.473797736891400E-007
  7.300000000000002E-003    2.911205227092879E-007
  7.400000000000001E-003    3.399924397668887E-007
  7.500000000000001E-003    3.943689454340832E-007
  7.600000000000002E-003    4.546375325617027E-007
  7.700000000000001E-003    5.212001966732898E-007
  7.800000000000001E-003    5.944736053384300E-007
  7.900000000000001E-003    6.748894466558303E-007
  8.000000000000002E-003    7.628944885724532E-007
  8.100000000000001E-003    8.589510164097650E-007
  8.200000000000001E-003    9.635368955007268E-007
  8.300000000000002E-003    1.077146282440439E-006
  8.400000000000001E-003    1.200289592387198E-006
  8.500000000000002E-003    1.333494172863448E-006
  8.600000000000002E-003    1.477305050099824E-006
  8.700000000000001E-003    1.632285202089518E-006
  8.800000000000002E-003    1.799016958773756E-006
  8.900000000000002E-003    1.978102553978659E-006
  9.000000000000001E-003    2.170165647358396E-006
  9.100000000000002E-003    2.375852257681101E-006
  9.200000000000002E-003    2.595832569532113E-006
  9.300000000000001E-003    2.830802365649638E-006
  9.400000000000002E-003    3.081485809761167E-006
  9.500000000000001E-003    3.348636445159573E-006
  9.600000000000001E-003    3.633040453409963E-006
  9.700000000000002E-003    3.935519222114463E-006
  9.800000000000001E-003    4.256932352754387E-006
  9.900000000000001E-003    4.598180801761092E-006
  1.000000000000000E-002    4.960211307502591E-006
  1.010000000000000E-002    5.344019478230814E-006
  1.020000000000000E-002    5.750654405968754E-006
  1.030000000000000E-002    6.181225125667579E-006
  1.040000000000000E-002    6.636903180139294E-006
  1.050000000000000E-002    7.118930578564330E-006
  1.060000000000000E-002    7.628623937453631E-006
  1.070000000000000E-002    8.167380508590055E-006
  1.080000000000000E-002    8.736685940104747E-006
  1.090000000000000E-002    9.338119482432878E-006
  1.100000000000000E-002    9.973359556083140E-006
  1.110000000000000E-002    1.064419144381245E-005
  1.120000000000000E-002    1.135251334542694E-005
  1.130000000000000E-002    1.210034293992328E-005
  1.140000000000000E-002    1.288982103349860E-005
  1.150000000000000E-002    1.372321871452619E-005
  1.160000000000000E-002    1.460294359993644E-005
  1.170000000000000E-002    1.553154490994692E-005
  1.180000000000000E-002    1.651171598057637E-005
  1.190000000000000E-002    1.754630079037569E-005
  1.200000000000000E-002    1.863829973765634E-005
  1.210000000000000E-002    1.979087364600876E-005
  1.220000000000000E-002    2.100734837428049E-005
  1.230000000000000E-002    2.229121706557051E-005
  1.240000000000000E-002    2.364614810710351E-005
  1.250000000000000E-002    2.507599137551714E-005
  1.260000000000000E-002    2.658477950899400E-005
  1.270000000000000E-002    2.817673950861809E-005
  1.280000000000000E-002    2.985629284654508E-005
  1.290000000000000E-002    3.162806859236629E-005
  1.300000000000000E-002    3.349691198125596E-005
  1.310000000000000E-002    3.546788002575888E-005
  1.320000000000000E-002    3.754627284098459E-005
  1.330000000000000E-002    3.973762115275735E-005
  1.340000000000000E-002    4.204770828220827E-005
  1.350000000000000E-002    4.448258348901610E-005
  1.360000000000000E-002    4.704856485546441E-005
  1.370000000000000E-002    4.975225718343517E-005
  1.380000000000000E-002    5.260056303825689E-005
  1.390000000000000E-002    5.560069516372821E-005
  1.400000000000000E-002    5.876018319728236E-005
  1.410000000000000E-002    6.208689360446592E-005
  1.420000000000000E-002    6.558904913706871E-005
  1.430000000000000E-002    6.927522443863023E-005
  1.440000000000000E-002    7.315436212101740E-005
  1.450000000000000E-002    7.723580084621873E-005
  1.460000000000000E-002    8.152926849680793E-005
  1.470000000000000E-002    8.604490976657709E-005
  1.480000000000000E-002    9.079328987123689E-005
  1.490000000000000E-002    9.578540306204837E-005
  1.500000000000000E-002    1.010327066050578E-004
  1.510000000000000E-002    1.065471086285440E-004
  1.520000000000000E-002    1.123410053179756E-004
  1.530000000000000E-002    1.184272834610642E-004
  1.540000000000000E-002    1.248193417330429E-004
  1.550000000000000E-002    1.315311284571612E-004
  1.560000000000000E-002    1.385771095531718E-004
  1.570000000000000E-002    1.459723445364342E-004
  1.580000000000000E-002    1.537324957742359E-004
  1.590000000000000E-002    1.618738215728338E-004
  1.600000000000000E-002    1.704132376321997E-004
  1.610000000000000E-002    1.793683045391360E-004
  1.620000000000000E-002    1.887572745027298E-004
  1.630000000000000E-002    1.985991331865835E-004
  1.640000000000000E-002    2.089135635021487E-004
  1.650000000000000E-002    2.197210383325465E-004
  1.660000000000000E-002    2.310427816745448E-004
  1.670000000000000E-002    2.429008284631579E-004
  1.680000000000000E-002    2.553180279264167E-004
  1.690000000000000E-002    2.683180674633001E-004
  1.700000000000000E-002    2.819255071680570E-004
  1.710000000000000E-002    2.961657490353700E-004
  1.720000000000000E-002    3.110651088892387E-004
  1.730000000000000E-002    3.266508344525386E-004
  1.740000000000000E-002    3.429510759923333E-004
  1.750000000000000E-002    3.599949606059546E-004
  1.760000000000000E-002    3.778126039803614E-004
  1.770000000000000E-002    3.964351234665242E-004
  1.780000000000000E-002    4.158946739685126E-004
  1.790000000000000E-002    4.362244530345998E-004
  1.800000000000000E-002    4.574587701626741E-004
  1.810000000000000E-002    4.796330385955520E-004
  1.820000000000000E-002    5.027838465564038E-004
  1.830000000000000E-002    5.269489462595911E-004
  1.840000000000000E-002    5.521673387429085E-004
  1.850000000000000E-002    5.784792014394667E-004
  1.860000000000000E-002    6.059260227121602E-004
  1.870000000000000E-002    6.345506174292662E-004