 -4.000000000000000E-002    0.000000000000000E+000
 -3.990000000000000E-002    0.000000000000000E+000
 -3.980000000000000E-002    0.000000000000000E+000
 -3.970000000000000E-002    0.000000000000000E+000
 -3.960000000000000E-002    0.000000000000000E+000
 -3.950000000000000E-002    0.000000000000000E+000
 -3.940000000000000E-002    0.000000000000000E+000
 -3.930000000000000E-002    0.000000000000000E+000
 -3.920000000000000E-002    0.000000000000000E+000
 -3.910000000000000E-002    0.000000000000000E+000
 -3.900000000000000E-002    0.000000000000000E+000
 -3.890000000000000E-002    0.000000000000000E+000
 -3.880000000000000E-002    0.000000000000000E+000
 -3.870000000000000E-002   -7.018935336710645E-043
 -3.860000000000000E-002   -1.728613521586420E-041
 -3.850000000000000E-002   -2.188986973429321E-040
 -3.840000000000000E-002   -1.897483107960351E-039
 -3.830000000000000E-002   -1.264547177078098E-038
 -3.820000000000000E-002   -6.899661705618256E-038
 -3.810000000000000E-002   -3.205238463679896E-037
 -3.800000000000000E-002   -1.301727217163620E-036
 -3.790000000000000E-002   -4.709506228397143E-036
 -3.780000000000000E-002   -1.538930025327488E-035
 -3.770000000000000E-002   -4.588891728582718E-035
 -3.760000000000000E-002   -1.258158057540824E-034
 -3.750000000000000E-002   -3.188849778008891E-034
 -3.740000000000000E-002   -7.496464163203292E-034
 -3.730000000000000E-002   -1.636544175870362E-033
 -3.720000000000000E-002   -3.313029446916344E-033
 -3.710000000000000E-002   -6.186286444061711E-033
 -3.700000000000000E-002   -1.052485815405762E-032
 -3.690000000000000E-002   -1.587591707279409E-032
 -3.680000000000000E-002   -1.979517521848463E-032
 -3.670000000000000E-002   -1.545681036601600E-032
 -3.660000000000000E-002    1.233101754592002E-032
 -3.650000000000000E-002    9.301751405857892E-032
 -3.640000000000000E-002    2.778592249272638E-031
 -3.630000000000000E-002    6.476814823706084E-031
 -3.620000000000000E-002    1.317347799492722E-030
 -3.610000000000000E-002    2.430448942672176E-030
 -3.600000000000000E-002    4.134077946062777E-030
 -3.590000000000000E-002    6.520093669380667E-030
 -3.580000000000000E-002    9.517612225596767E-030
 -3.570000000000000E-002    1.272408323568901E-029
 -3.560000000000000E-002    1.517227004378682E-029
 -3.550000000000000E-002    1.505077179073765E-029
 -3.540000000000000E-002    9.427893415392334E-030
 -3.530000000000000E-002   -5.928816833326504E-030
 -3.520000000000000E-002   -3.649956710197416E-029
 -3.510000000000000E-002   -8.855321316864044E-029
 -3.500000000000000E-002   -1.681069600982871E-028
 -3.490000000000000E-002   -2.791850107001256E-028
 -3.480000000000000E-002   -4.213929918877871E-028
 -3.470000000000000E-002   -5.870534203244601E-028
 -3.460000000000000E-002   -7.584472562689270E-028
 -3.450000000000000E-002   -9.060146255202134E-028
 -3.440000000000000E-002   -9.885608504389401E-028
 -3.430000000000000E-002   -9.564148950108203E-028
 -3.420000000000000E-002   -7.578853558416358E-028
 -3.410000000000000E-002   -3.480701800833880E-028
 -3.400000000000000E-002    3.029735206940579E-028
 -3.390000000000000E-002    1.208321638290502E-027
 -3.380000000000000E-002    2.376829939551384E-027
 -3.370000000000000E-002    3.850324533245029E-027
 -3.360000000000000E-002    5.774421164317147E-027
 -3.350000000000000E-002    8.506836420143851E-027
 -3.340000000000000E-002    1.275526061671764E-026
 -3.330000000000000E-002    1.971748325637080E-026
 -3.320000000000000E-002    3.116925456733352E-026
 -3.310000000000000E-002    4.941319003489618E-026
 -3.300000000000000E-002    7.697063369168041E-026
 -3.290000000000000E-002    1.158782289430720E-025
 -3.280000000000000E-002    1.664558272662802E-025
 -3.270000000000000E-002    2.254600082314017E-025
 -3.260000000000000E-002    2.836435470434575E-025
 -3.250000000000000E-002    3.229178780858247E-025
 -3.240000000000000E-002    3.135676657587201E-025
 -3.230000000000000E-002    2.122714995013996E-025
 -3.220000000000000E-002   -3.799122595484956E-026
 -3.210000000000000E-002   -5.047944892130443E-025
 -3.200000000000000E-002   -1.258394466168733E-024
 -3.190000000000000E-002   -2.357774025578848E-024
 -3.180000000000000E-002   -3.829742110643687E-024
 -3.170000000000000E-002   -5.641189721596082E-024
 -3.160000000000000E-002   -7.666079045437736E-024
 -3.150000000000000E-002   -9.650688737208498E-024
 -3.140000000000000E-002   -1.118285995735401E-023
 -3.130000000000000E-002   -1.167325089187623E-023
 -3.120000000000000E-002   -1.035840544861174E-023
 -3.110000000000000E-002   -6.336284028573133E-024
 -3.100000000000000E-002    1.355771993927841E-024
 -3.090000000000000E-002    1.361340104906318E-023
 -3.080000000000000E-002    3.108569038048577E-023
 -3.070000000000000E-002    5.394892535363621E-023
 -3.060000000000000E-002    8.164800845176292E-023
 -3.050000000000000E-002    1.126301358346646E-022
 -3.040000000000000E-002    1.441050125903728E-022
 -3.030000000000000E-002    1.718736228010214E-022
 -3.020000000000000E-002    1.902714226782015E-022
 -3.010000000000000E-002    1.922705786220279E-022
 -3.000000000000000E-002    1.697787634537450E-022
 -2.990000000000000E-002    1.141592569497192E-022
 -2.980000000000000E-002    1.698106079698726E-023
 -2.970000000000000E-002   -1.290107534154258E-022
 -2.960000000000000E-002   -3.287286780797002E-022
 -2.950000000000000E-002   -5.834162076277380E-022
 -2.940000000000000E-002   -8.891990507817880E-022
 -2.930000000000000E-002   -1.235549762712188E-021
 -2.920000000000000E-002   -1.603695039509045E-021
 -2.910000000000000E-002   -1.965000039825546E-021
 -2.900000000000000E-002   -2.279385794130514E-021
 -2.890000000000000E-002   -2.493893052204102E-021
 -2.880000000000000E-002   -2.541617851679718E-021
 -2.870000000000000E-002   -2.341409446080879E-021
 -2.860000000000000E-002   -1.798938852551334E-021
 -2.850000000000000E-002   -8.099978359154988E-022
 -2.840000000000000E-002    7.328783148968638E-022
 -2.830000000000000E-002    2.929228244408409E-021
 -2.820000000000000E-002    5.853725435878390E-021
 -2.810000000000000E-002    9.532619702061527E-021
 -2.800000000000000E-002    1.391342164700234E-020
 -2.790000000000000E-002    1.882888076358116E-020
 -2.780000000000000E-002    2.395797820600611E-020
 -2.770000000000000E-002    2.878874255883254E-020
 -2.760000000000000E-002    3.258999247935435E-020
 -2.750000000000000E-002    3.440123578798005E-020
 -2.740000000000000E-002    3.305161197251120E-020
 -2.730000000000000E-002    2.721918826189325E-020
 -2.720000000000000E-002    1.554069576587061E-020
 -2.710000000000000E-002   -3.221680436680099E-021
 -2.700000000000000E-002   -2.995599815691162E-020
 -2.690000000000000E-002   -6.492689703329219E-020
 -2.680000000000000E-002   -1.074718896031261E-019
 -2.670000000000000E-002   -1.556990858286642E-019
 -2.660000000000000E-002   -2.062302676439719E-019
 -2.650000000000000E-002   -2.540429170147256E-019
 -2.640000000000000E-002   -2.924711175772718E-019
 -2.630000000000000E-002   -3.134230300629874E-019
 -2.620000000000000E-002   -3.078632477073459E-019
 -2.610000000000000E-002   -2.665867573624143E-019
 -2.600000000000000E-002   -1.812802212605175E-019
 -2.590000000000000E-002   -4.582498089886662E-020
 -2.580000000000000E-002    1.422505611401396E-019
 -2.570000000000000E-002    3.803101266963720E-019
 -2.560000000000000E-002    6.593234449549012E-019
 -2.550000000000000E-002    9.629666278792213E-019
 -2.540000000000000E-002    1.267330188869859E-018
 -2.530000000000000E-002    1.541433308882933E-018
 -2.520000000000000E-002    1.748692319073646E-018
 -2.510000000000000E-002    1.849404881196031E-018
 -2.500000000000000E-002    1.804196178982065E-018
 -2.490000000000000E-002    1.578241493539326E-018
 -2.480000000000000E-002    1.145939856082866E-018
 -2.470000000000000E-002    4.955880557221481E-019
 -2.460000000000000E-002   -3.664827193074719E-019
 -2.450000000000000E-002   -1.412883017265773E-018
 -2.440000000000000E-002   -2.593795562726096E-018
 -2.430000000000000E-002   -3.837678650822312E-018
 -2.420000000000000E-002   -5.054285043907891E-018
 -2.410000000000000E-002   -6.139960878452550E-018
 -2.400000000000000E-002   -6.984923412092669E-018
 -2.390000000000000E-002   -7.481898474713218E-018
 -2.380000000000000E-002   -7.535276649251333E-018
 -2.370000000000000E-002   -7.069777815123177E-018
 -2.360000000000000E-002   -6.037599214894266E-018
 -2.350000000000000E-002   -4.423158683610899E-018
 -2.340000000000000E-002   -2.244840769788248E-018
 -2.330000000000000E-002    4.464052586090170E-019
 -2.320000000000000E-002    3.571247081109134E-018
 -2.310000000000000E-002    7.028015838952028E-018
 -2.300000000000000E-002    1.069925705670290E-017
 -2.290000000000000E-002    1.445715939142112E-017
 -2.280000000000000E-002    1.816623036439075E-017
 -2.270000000000000E-002    2.168198205035765E-017
 -2.260000000000000E-002    2.484501591792343E-017
 -2.250000000000000E-002    2.747101538042176E-017
 -2.240000000000000E-002    2.933828191264418E-017
 -2.230000000000000E-002    3.017575334949799E-017
 -2.220000000000000E-002    2.965547472218521E-017
 -2.210000000000000E-002    2.739409300579028E-017
 -2.200000000000000E-002    2.296792758674726E-017
 -2.190000000000000E-002    1.594522913018111E-017
 -2.180000000000000E-002    5.937465951624136E-018
 -2.170000000000000E-002   -7.331214958442383E-018
 -2.160000000000000E-002   -2.394050918830657E-017
 -2.150000000000000E-002   -4.368420777516049E-017
 -2.140000000000000E-002   -6.598528536155821E-017
 -2.130000000000000E-002   -8.982949617925009E-017
 -2.120000000000000E-002   -1.137322623602828E-016
 -2.110000000000000E-002   -1.357529528902904E-016
 -2.100000000000000E-002   -1.535676388850411E-016
 -2.090000000000000E-002   -1.646062054628759E-016
 -2.080000000000000E-002   -1.662523220292540E-016
 -2.070000000000000E-002   -1.560963617441582E-016
 -2.060000000000000E-002   -1.322221842542495E-016
 -2.050000000000000E-002   -9.350048343044531E-017
 -2.040000000000000E-002   -3.985545017029084E-017
 -2.030000000000000E-002    2.753129800202228E-017
 -2.020000000000000E-002    1.061138201118553E-016
 -2.010000000000000E-002    1.919997233601485E-016
 -2.000000000000000E-002    2.801090292269539E-016
 -1.990000000000000E-002    3.644750884735826E-016
 -1.980000000000000E-002    4.386705364610218E-016
 -1.970000000000000E-002    4.963237203146197E-016
 -1.960000000000000E-002    5.316743558509782E-016
 -1.950000000000000E-002    5.401072743917442E-016
 -1.940000000000000E-002    5.185986842333342E-016
 -1.930000000000000E-002    4.660146230748753E-016
 -1.920000000000000E-002    3.832154972113017E-016
 -1.910000000000000E-002    2.729434328182204E-016
 -1.900000000000000E-002    1.394981563377963E-016
 -1.890000000000000E-002   -1.176100611824154E-017
 -1.880000000000000E-002   -1.750194003036997E-016
 -1.870000000000000E-002   -3.446258640501224E-016
 -1.860000000000000E-002   -5.156224488526390E-016
 -1.850000000000000E-002   -6.840829650366958E-016
 -1.840000000000000E-002   -8.471773047258101E-016
 -1.830000000000000E-002   -1.002913940508529E-015
 -1.820000000000000E-002   -1.149561350327887E-015
 -1.810000000000000E-002   -1.284804972295098E-015
 -1.800000000000000E-002   -1.404755638054306E-015
 -1.790000000000000E-002   -1.502970996857679E-015
 -1.780000000000000E-002   -1.569686260463248E-015
 -1.770000000000000E-002   -1.591455453080487E-015
 -1.760000000000000E-002   -1.551382665377651E-015
 -1.750000000000000E-002   -1.430066563186940E-015
 -1.740000000000000E-002   -1.207300345679981E-015
 -1.730000000000000E-002   -8.644643529444805E-016
 -1.720000000000000E-002   -3.874359634982662E-016
 -1.710000000000000E-002    2.302650001385714E-016
 -1.700000000000000E-002    9.844622970346766E-016
 -1.690000000000000E-002    1.857855657190388E-015
 -1.680000000000000E-002    2.818510124867508E-015
 -1.670000000000000E-002    3.819656259933823E-015
 -1.660000000000000E-002    4.801044138456111E-015
 -1.650000000000000E-002    5.691926788355548E-015
 -1.640000000000000E-002    6.415566078737886E-015
 -1.630000000000000E-002    6.894950209216146E-015
 -1.620000000000000E-002    7.059230836549015E-015
 -1.610000000000000E-002    6.850255223224525E-015
 -1.600000000000000E-002    6.228501386340873E-015
 -1.590000000000000E-002    5.177740001364249E-015
 -1.580000000000000E-002    3.707857174706215E-015
 -1.570000000000000E-002    1.855460564952660E-015
 -1.560000000000000E-002   -3.178471441629634E-016
 -1.550000000000000E-002   -2.729356891474699E-015
 -1.540000000000000E-002   -5.280853420715625E-015
 -1.530000000000000E-002   -7.865232772050715E-015
 -1.520000000000000E-002   -1.037328868432225E-014
 -1.510000000000000E-002   -1.269979903150557E-014
 -1.500000000000000E-002   -1.474812281173075E-014
 -1.490000000000000E-002   -1.643275883442041E-014
 -1.480000000000000E-002   -1.767963324844612E-014
 -1.470000000000000E-002   -1.842429630357251E-014
 -1.460000000000000E-002   -1.860860601771135E-014
 -1.450000000000000E-002   -1.817682682959398E-014
 -1.440000000000000E-002   -1.707231348118472E-014
 -1.430000000000000E-002   -1.523600743810574E-014
 -1.420000000000000E-002   -1.260785851747631E-014
 -1.410000000000000E-002   -9.131921184779875E-015
 -1.400000000000000E-002   -4.765389595454678E-015
 -1.390000000000000E-002    5.088380138836808E-016
 -1.380000000000000E-002    6.667125260071118E-015
 -1.370000000000000E-002    1.362930372385417E-014
 -1.360000000000000E-002    2.124429968324660E-014
 -1.350000000000000E-002    2.927956111023372E-014
 -1.340000000000000E-002    3.741665369797802E-014
 -1.330000000000000E-002    4.525486631857413E-014
 -1.320000000000000E-002    5.232408079327631E-014
 -1.310000000000000E-002    5.810704957068643E-014
 -1.300000000000000E-002    6.207019094655082E-014
 -1.290000000000000E-002    6.370083325919276E-014
 -1.280000000000000E-002    6.254793053162230E-014
 -1.270000000000000E-002    5.826251158610046E-014
 -1.260000000000000E-002    5.063393822858798E-014
 -1.250000000000000E-002    3.961817646258851E-014
 -1.240000000000000E-002    2.535507232766822E-014
 -1.230000000000000E-002    8.172616930952720E-015
 -1.220000000000000E-002   -1.142232534790235E-014
 -1.210000000000000E-002   -3.276586857995857E-014
 -1.200000000000000E-002   -5.506920805478593E-014
 -1.190000000000000E-002   -7.745743903245079E-014
 -1.180000000000000E-002   -9.901104565684091E-014
 -1.170000000000000E-002   -1.188058387281783E-013
 -1.160000000000000E-002   -1.359478114970221E-013
 -1.150000000000000E-002   -1.496004672928618E-013
 -1.140000000000000E-002   -1.590036800903290E-013
 -1.130000000000000E-002   -1.634849800105849E-013
 -1.120000000000000E-002   -1.624656968573339E-013
 -1.110000000000000E-002   -1.554656536562556E-013
 -1.100000000000000E-002   -1.421106575603801E-013
 -1.090000000000000E-002   -1.221469225659953E-013
 -1.080000000000000E-002   -9.546540496266815E-014
 -1.070000000000000E-002   -6.213718884713859E-014
 -1.060000000000000E-002   -2.245864830716201E-014
 -1.050000000000000E-002    2.299759854292917E-014
 -1.040000000000000E-002    7.333234705168215E-014
 -1.030000000000000E-002    1.272785714859549E-013
 -1.020000000000000E-002    1.831785726741566E-013
 -1.010000000000000E-002    2.389884986854727E-013
 -1.000000000000000E-002    2.923175288015985E-013
 -9.899999999999999E-003    3.405059454889759E-013
 -9.800000000000000E-003    3.807421127184662E-013
 -9.699999999999999E-003    4.102136591525061E-013
 -9.599999999999999E-003    4.262835573107403E-013
 -9.500000000000000E-003    4.266773109913015E-013
 -9.399999999999999E-003    4.096652529382749E-013
 -9.299999999999999E-003    3.742219562490626E-013
 -9.200000000000000E-003    3.201467406689661E-013
 -9.099999999999999E-003    2.481317701905680E-013
 -8.999999999999999E-003    1.597694171120210E-013
 -8.900000000000000E-003    5.749693801765983E-014
 -8.799999999999999E-003   -5.551660612812625E-014
 -8.699999999999999E-003   -1.755300016380521E-013
 -8.600000000000000E-003   -2.984192258688604E-013
 -8.499999999999999E-003   -4.198768732915534E-013
 -8.399999999999999E-003   -5.356013892114919E-013
 -8.300000000000000E-003   -6.414583352914208E-013
 -8.199999999999999E-003   -7.336002540101788E-013
 -8.100000000000000E-003   -8.085398752646146E-013
 -8.000000000000000E-003   -8.631787838889908E-013
 -7.899999999999999E-003   -8.948014973018395E-013
 -7.800000000000000E-003   -9.010528126725188E-013
 -7.699999999999999E-003   -8.799187703531065E-013
 -7.599999999999999E-003   -8.297337036877315E-013
 -7.499999999999999E-003   -7.492325463969798E-013
 -7.399999999999999E-003   -6.376594901249853E-013
 -7.299999999999999E-003   -4.949358591316432E-013
 -7.199999999999999E-003   -3.218772224836467E-013
 -7.100000000000000E-003   -1.204379482310398E-013
 -6.999999999999999E-003    1.060486225271938E-013
 -6.899999999999999E-003    3.526741239687286E-013
 -6.800000000000000E-003    6.128436674537415E-013
 -6.699999999999999E-003    8.782880630289751E-013
 -6.599999999999999E-003    1.139227317450163E-012
 -6.499999999999999E-003    1.384700016009305E-012
 -6.399999999999999E-003    1.603053771079362E-012
 -6.299999999999999E-003    1.782572438566077E-012
 -6.199999999999999E-003    1.912196848941183E-012
 -6.100000000000000E-003    1.982278046114186E-012
 -5.999999999999999E-003    1.985295170459398E-012
 -5.899999999999999E-003    1.916466044628526E-012
 -5.800000000000000E-003    1.774184222244699E-012
 -5.699999999999999E-003    1.560233460234291E-012
 -5.599999999999999E-003    1.279750018444190E-012
 -5.499999999999999E-003    9.409312356467770E-013
 -5.399999999999999E-003    5.545157993579582E-013
 -5.299999999999999E-003    1.330886338627800E-013
 -5.199999999999999E-003   -3.097169781192927E-013
 -5.099999999999999E-003   -7.600347833478258E-013
 -4.999999999999999E-003   -1.204511382159428E-012
 -4.899999999999999E-003   -1.630903467019992E-012
 -4.799999999999999E-003   -2.028469000828500E-012
 -4.699999999999999E-003   -2.388121016742611E-012
 -4.599999999999999E-003   -2.702345325971756E-012
 -4.499999999999999E-003   -2.964916774596157E-012
 -4.399999999999999E-003   -3.170478574513264E-012
 -4.299999999999999E-003   -3.314068242241682E-012
 -4.199999999999999E-003   -3.390686127908901E-012
 -4.099999999999999E-003   -3.394999314136775E-012
 -3.999999999999999E-003   -3.321253389267709E-012
 -3.899999999999999E-003   -3.163442048344906E-012
 -3.799999999999999E-003   -2.915745411981701E-012
 -3.699999999999999E-003   -2.573208595292327E-012
 -3.599999999999999E-003   -2.132595263691095E-012
 -3.499999999999999E-003   -1.593318216664911E-012
 -3.399999999999999E-003   -9.583336011303836E-013
 -3.299999999999999E-003   -2.348764695808487E-013
 -3.199999999999999E-003    5.650700655135766E-013
 -3.099999999999999E-003    1.424653148627810E-012
 -2.999999999999999E-003    2.322421542270700E-012
 -2.899999999999999E-003    3.232986871757067E-012
 -2.799999999999999E-003    4.128024139458858E-012
 -2.699999999999999E-003    4.977521995187222E-012
 -2.599999999999999E-003    5.751163825381443E-012
 -2.499999999999999E-003    6.419699254313559E-012
 -2.399999999999999E-003    6.956177367407201E-012
 -2.299999999999999E-003    7.336929154287743E-012
 -2.199999999999999E-003    7.542223468813562E-012
 -2.099999999999999E-003    7.556577920886373E-012
 -1.999999999999999E-003    7.368743877763031E-012
 -1.899999999999999E-003    6.971450580000632E-012
 -1.799999999999999E-003    6.361019448577350E-012
 -1.699999999999999E-003    5.536991046932632E-012
 -1.599999999999999E-003    4.501904996723737E-012
 -1.499999999999999E-003    3.261349677001484E-012
 -1.399999999999999E-003    1.824367501215180E-012
 -1.299999999999999E-003    2.042318067899635E-013
 -1.199999999999999E-003   -1.580445671874721E-012
 -1.099999999999999E-003   -3.504392829848796E-012
 -9.999999999999989E-004   -5.534300109506553E-012
 -8.999999999999990E-004   -7.627615173136765E-012
 -7.999999999999990E-004   -9.731722762057914E-012
 -6.999999999999989E-004   -1.178374339175094E-011
 -5.999999999999990E-004   -1.371112145004694E-011
 -4.999999999999989E-004   -1.543313585620645E-011
 -3.999999999999989E-004   -1.686336320434703E-011
 -2.999999999999989E-004   -1.791304781694231E-011
 -1.999999999999989E-004   -1.849523724820622E-011
 -9.999999999999892E-005   -1.852946144377560E-011
  1.084202172485504E-018   -1.794666523274130E-011
  1.000000000000011E-004   -1.669408224592613E-011
  2.000000000000011E-004   -1.473971521932937E-011
  3.000000000000011E-004   -1.207611861612624E-011
  4.000000000000011E-004   -8.723230253379099E-012
  5.000000000000011E-004   -4.730054485623322E-012
  6.000000000000011E-004   -1.750937747596255E-013
  7.000000000000011E-004    4.834492932229795E-012
  8.000000000000011E-004    1.016496947879200E-011
  9.000000000000012E-004    1.565920594277142E-011
  1.000000000000001E-003    2.114082304298976E-011
  1.100000000000001E-003    2.641909832679341E-011
  1.200000000000001E-003    3.129446275970381E-011
  1.300000000000001E-003    3.556438625981051E-011
  1.400000000000001E-003    3.902952444583549E-011
  1.500000000000001E-003    4.149995789298056E-011
  1.600000000000001E-003    4.280146432623573E-011
  1.700000000000001E-003    4.278169813381728E-011
  1.800000000000001E-003    4.131620946011460E-011
  1.900000000000001E-003    3.831423505715557E-011
  2.000000000000001E-003    3.372413125888963E-011
  2.100000000000001E-003    2.753836409576877E-011
  2.200000000000001E-003    1.979788176072209E-011
  2.300000000000001E-003    1.059572570190300E-011
  2.400000000000001E-003    7.969030720227090E-014
  2.500000000000001E-003   -1.154617134521432E-011
  2.600000000000001E-003   -2.402136133868115E-011
  2.700000000000001E-003   -3.703026284253247E-011
  2.800000000000001E-003   -5.020512544835999E-011
  2.900000000000001E-003   -6.313084882925219E-011
  3.000000000000001E-003   -7.535164192289896E-011
  3.100000000000001E-003   -8.637964487828181E-011
  3.200000000000001E-003   -9.570554952812745E-011
  3.300000000000001E-003   -1.028112262000767E-010
  3.400000000000001E-003   -1.071843464913233E-010
  3.500000000000001E-003   -1.083349160338705E-010
  3.600000000000001E-003   -1.058136154201635E-010
  3.700000000000001E-003   -9.923172110491400E-011
  3.800000000000001E-003   -8.828232774682122E-011
  3.900000000000001E-003   -7.276238816855431E-011
  4.000000000000001E-003   -5.259501607674355E-011
  4.100000000000001E-003   -2.785122606529553E-011
  4.200000000000001E-003    1.229772478041696E-012
  4.300000000000001E-003    3.422292371252760E-011
  4.400000000000001E-003    7.050348785713460E-011
  4.500000000000001E-003    1.092384352915202E-010
  4.600000000000002E-003    1.493843689882205E-010
  4.700000000000001E-003    1.896932300568861E-010
  4.800000000000001E-003    2.287270972005189E-010
  4.900000000000002E-003    2.648827220486785E-010
  5.000000000000001E-003    2.964264695962394E-010
  5.100000000000001E-003    3.215397773392028E-010
  5.200000000000001E-003    3.383748931894522E-010
  5.300000000000002E-003    3.451197760549328E-010
  5.400000000000001E-003    3.400711011803925E-010
  5.500000000000001E-003    3.217132984690094E-010
  5.600000000000002E-003    2.888013916631596E-010
  5.700000000000001E-003    2.404450012788075E-010
  5.800000000000001E-003    1.761901670812898E-010
  5.900000000000002E-003    9.609604087368496E-011
  6.000000000000001E-003    8.025564162039126E-013
  6.100000000000001E-003   -1.084140255521460E-010
  6.200000000000002E-003   -2.296017388099283E-010
  6.300000000000002E-003   -3.601128425099708E-010
  6.400000000000001E-003   -4.966060766676205E-010
  6.500000000000001E-003   -6.350744480999106E-010
  6.600000000000002E-003   -7.709003375574316E-010
  6.700000000000001E-003   -8.989395923334197E-010
  6.800000000000001E-003   -1.013635319634763E-009
  6.900000000000002E-003   -1.109160828046596E-009
  7.000000000000001E-003   -1.179589969019691E-009
  7.100000000000001E-003   -1.219092134417082E-009
  7.200000000000002E-003   -1.222147124107580E-009
  7.300000000000002E-003   -1.183774430478974E-009
  7.400000000000001E-003   -1.099769592245842E-009
  7.500000000000001E-003   -9.669396813277692E-010
  7.600000000000002E-003   -7.833282415739029E-010
  7.700000000000001E-003   -5.484209067058928E-010
  7.800000000000001E-003   -2.633219731233675E-010
  7.900000000000001E-003    6.910724333706149E-011
  8.000000000000002E-003    4.441563261349239E-010
  8.100000000000001E-003    8.552255364547993E-010
  8.200000000000001E-003    1.293843115076337E-009
  8.300000000000002E-003    1.749742289636720E-009
  8.400000000000001E-003    2.210998356220617E-009
  8.500000000000002E-003    2.664222266242740E-009
  8.600000000000002E-003    3.094810071397758E-009
  8.700000000000001E-003    3.487238971908902E-009
  8.800000000000002E-003    3.825405599264633E-009
  8.900000000000002E-003    4.092996907852019E-009
  9.000000000000001E-003    4.273889665203289E-009
  9.100000000000002E-003    4.352566934454908E-009
  9.200000000000002E-003    4.314549170917152E-009
  9.300000000000001E-003    4.146833794741977E-009
  9.400000000000002E-003    3.838341313688882E-009
  9.500000000000001E-003    3.380365747670149E-009
  9.600000000000001E-003    2.767030289693279E-009
  9.700000000000002E-003    1.995750107498989E-009
  9.800000000000001E-003    1.067705198393528E-009
  9.900000000000001E-003   -1.167442728168821E-011
  1.000000000000000E-002   -1.232207757916474E-009
  1.010000000000000E-002   -2.578442324299840E-009
  1.020000000000000E-002   -4.029112312859216E-009
  1.030000000000000E-002   -5.556575821244784E-009
  1.040000000000000E-002   -7.126230631268778E-009
  1.050000000000000E-002   -8.695907566621392E-009
  1.060000000000000E-002   -1.021525089520424E-008
  1.070000000000000E-002   -1.162508538503137E-008
  1.080000000000000E-002   -1.285677717651388E-008
  1.090000000000000E-002   -1.383159527025206E-008
  1.100000000000000E-002   -1.446008132245158E-008
  1.110000000000000E-002   -1.464143285322578E-008
  1.120000000000000E-002   -1.426292086404621E-008
  1.130000000000000E-002   -1.319932306489441E-008
  1.140000000000000E-002   -1.131242784342376E-008
  1.150000000000000E-002   -8.450560176057596E-009
  1.160000000000000E-002   -4.448183921931251E-009
  1.170000000000000E-002    8.744261403200181E-010
  1.180000000000000E-002    7.711459369884842E-009
  1.190000000000000E-002    1.627175438029151E-008
  1.200000000000000E-002    2.677889950543757E-008
  1.210000000000000E-002    3.947127665540391E-008
  1.220000000000000E-002    5.460204551495709E-008
  1.230000000000000E-002    7.243902185565065E-008
  1.240000000000000E-002    9.326456326797155E-008
  1.250000000000000E-002    1.173754469284454E-007
  1.260000000000000E-002    1.450825796267554E-007
  1.270000000000000E-002    1.767109238975187E-007
  1.280000000000000E-002    2.125993844792671E-007
  1.290000000000000E-002    2.531006649875409E-007
  1.300000000000000E-002    2.985812652350162E-007
  1.310000000000000E-002    3.494216673809719E-007
  1.320000000000000E-002    4.060163746438593E-007
  1.330000000000000E-002    4.687743633154480E-007
  1.340000000000000E-002    5.381192768153874E-007
  1.350000000000000E-002    6.144902061847383E-007
  1.360000000000000E-002    6.983420073273987E-007
  1.370000000000000E-002    7.901460924839178E-007
  1.380000000000000E-002    8.903909830963377E-007
  1.390000000000000E-002    9.995832605077719E-007
  1.400000000000000E-002    1.118248152881856E-006
  1.410000000000000E-002    1.246930288020405E-006
  1.420000000000000E-002    1.386194695441022E-006
  1.430000000000000E-002    1.536627025486046E-006
  1.440000000000000E-002    1.698834841166176E-006
  1.450000000000000E-002    1.873448122583754E-006
  1.460000000000000E-002    2.061120000109315E-006
  1.470000000000000E-002    2.262528070412510E-006
  1.480000000000000E-002    2.478374800902781E-006
  1.490000000000000E-002    2.709389546062626E-006
  1.500000000000000E-002    2.956329401571176E-006
  1.510000000000000E-002    3.219981015744780E-006
  1.520000000000000E-002    3.501163247761972E-006
  1.530000000000000E-002    3.800728863207558E-006
  1.540000000000000E-002    4.119568127729469E-006
  1.550000000000000E-002    4.458611087344830E-006
  1.560000000000000E-002    4.818831905015205E-006
  1.570000000000000E-002    5.201251918767749E-006
  1.580000000000000E-002    5.606945693347066E-006
  1.590000000000000E-002    6.037043305886443E-006
  1.600000000000000E-002    6.492737107215864E-006
  1.610000000000000E-002    6.975286954802761E-006
  1.620000000000000E-002    7.486023553936133E-006
  1.630000000000000E-002    8.026355924068856E-006
  1.640000000000000E-002    8.597775710677118E-006
  1.650000000000000E-002    9.201864034693247E-006
  1.660000000000000E-002    9.840295580661774E-006
  1.670000000000000E-002    1.051484680688352E-005
  1.680000000000000E-002    1.122739781162205E-005
  1.690000000000000E-002    1.197994316909398E-005
  1.700000000000000E-002    1.277459214299474E-005
  1.710000000000000E-002    1.361357990799293E-005
  1.720000000000000E-002    1.449926996800700E-005
  1.730000000000000E-002    1.543416262227566E-005
  1.740000000000000E-002    1.642089827728274E-005
  1.750000000000000E-002    1.746226790321655E-005
  1.760000000000000E-002    1.856121665123463E-005
  1.770000000000000E-002    1.972085020217510E-005
  1.780000000000000E-002    2.094444519857779E-005
  1.790000000000000E-002    2.223545206033757E-005
  1.800000000000000E-002    2.359750689049235E-005
  1.810000000000000E-002    2.503443534681900E-005
  1.820000000000000E-002    2.655025819964003E-005
  1.830000000000000E-002    2.814920744544322E-005
  1.840000000000000E-002    2.983572450545161E-005
  1.850000000000000E-002    3.161447802318126E-005
  1.860000000000000E-002    3.349036142108722E-005
  1.870000000000000E-002    3.546850629441487E-005