 -4.000000000000000E-002    0.000000000000000E+000
 -3.990000000000000E-002    0.000000000000000E+000
 -3.980000000000000E-002    0.000000000000000E+000
 -3.970000000000000E-002    0.000000000000000E+000
 -3.960000000000000E-002    0.000000000000000E+000
 -3.950000000000000E-002    0.000000000000000E+000
 -3.940000000000000E-002    0.000000000000000E+000
 -3.930000000000000E-002    0.000000000000000E+000
 -3.920000000000000E-002    0.000000000000000E+000
 -3.910000000000000E-002    0.000000000000000E+000
 -3.900000000000000E-002    0.000000000000000E+000
 -3.890000000000000E-002    0.000000000000000E+000
 -3.880000000000000E-002    0.000000000000000E+000
 -3.870000000000000E-002    0.000000000000000E+000
 -3.860000000000000E-002    0.000000000000000E+000
 -3.850000000000000E-002    0.000000000000000E+000
 -3.840000000000000E-002    0.000000000000000E+000
 -3.830000000000000E-002    0.000000000000000E+000
 -3.820000000000000E-002    0.000000000000000E+000
 -3.810000000000000E-002    0.000000000000000E+000
 -3.800000000000000E-002    0.000000000000000E+000
 -3.790000000000000E-002    0.000000000000000E+000
 -3.780000000000000E-002    0.000000000000000E+000
 -3.770000000000000E-002    0.000000000000000E+000
 -3.760000000000000E-002    0.000000000000000E+000
 -3.750000000000000E-002    0.000000000000000E+000
 -3.740000000000000E-002    0.000000000000000E+000
 -3.730000000000000E-002    0.000000000000000E+000
 -3.720000000000000E-002    0.000000000000000E+000
 -3.710000000000000E-002    0.000000000000000E+000
 -3.700000000000000E-002    0.000000000000000E+000
 -3.690000000000000E-002    0.000000000000000E+000
 -3.680000000000000E-002    0.000000000000000E+000
 -3.670000000000000E-002    0.000000000000000E+000
 -3.660000000000000E-002    0.000000000000000E+000
 -3.650000000000000E-002    0.000000000000000E+000
 -3.640000000000000E-002    0.000000000000000E+000
 -3.630000000000000E-002    0.000000000000000E+000
 -3.620000000000000E-002    0.000000000000000E+000
 -3.610000000000000E-002    0.000000000000000E+000
 -3.600000000000000E-002    0.000000000000000E+000
 -3.590000000000000E-002    0.000000000000000E+000
 -3.580000000000000E-002    0.000000000000000E+000
 -3.570000000000000E-002    0.000000000000000E+000
 -3.560000000000000E-002    0.000000000000000E+000
 -3.550000000000000E-002    0.000000000000000E+000
 -3.540000000000000E-002    0.000000000000000E+000
 -3.530000000000000E-002    0.000000000000000E+000
 -3.520000000000000E-002    0.000000000000000E+000
 -3.510000000000000E-002    0.000000000000000E+000
 -3.500000000000000E-002    0.000000000000000E+000
 -3.490000000000000E-002    0.000000000000000E+000
 -3.480000000000000E-002    0.000000000000000E+000
 -3.470000000000000E-002    0.000000000000000E+000
 -3.460000000000000E-002    0.000000000000000E+000
 -3.450000000000000E-002    0.000000000000000E+000
 -3.440000000000000E-002    0.000000000000000E+000
 -3.430000000000000E-002    0.000000000000000E+000
 -3.420000000000000E-002    0.000000000000000E+000
 -3.410000000000000E-002    0.000000000000000E+000
 -3.400000000000000E-002    0.000000000000000E+000
 -3.390000000000000E-002    0.000000000000000E+000
 -3.380000000000000E-002    0.000000000000000E+000
 -3.370000000000000E-002   -3.823222796122513E-048
 -3.360000000000000E-002   -1.030059438362008E-047
 -3.350000000000000E-002   -4.445017753194155E-047
 -3.340000000000000E-002   -1.153560866009418E-046
 -3.330000000000000E-002   -2.098173515875214E-046
 -3.320000000000000E-002   -3.397853626394613E-046
 -3.310000000000000E-002   -4.980626337535183E-046
 -3.300000000000000E-002   -6.452890199977676E-046
 -3.290000000000000E-002   -7.707395995824388E-046
 -3.280000000000000E-002   -6.882732775901393E-046
 -3.270000000000000E-002   -5.853510968473217E-047
 -3.260000000000000E-002    2.828747431584182E-045
 -3.250000000000000E-002    7.276831811670706E-045
 -3.240000000000000E-002    1.447638164913943E-044
 -3.230000000000000E-002    2.776030875829849E-044
 -3.220000000000000E-002    4.931130626483710E-044
 -3.210000000000000E-002    8.077469960167585E-044
 -3.200000000000000E-002    1.252390357435399E-043
 -3.190000000000000E-002    1.804203649687649E-043
 -3.180000000000000E-002    2.404945103679219E-043
 -3.170000000000000E-002    2.840336592357657E-043
 -3.160000000000000E-002    2.715819477813259E-043
 -3.150000000000000E-002    1.299976212873689E-043
 -3.140000000000000E-002   -2.615302125454107E-043
 -3.130000000000000E-002   -1.084202029567090E-042
 -3.120000000000000E-002   -2.587799133752496E-042
 -3.110000000000000E-002   -5.084849452502945E-042
 -3.100000000000000E-002   -8.905523234809578E-042
 -3.090000000000000E-002   -1.430076818565756E-041
 -3.080000000000000E-002   -2.125213287247032E-041
 -3.070000000000000E-002   -2.915937120338398E-041
 -3.060000000000000E-002   -3.637304125839448E-041
 -3.050000000000000E-002   -3.955722462832782E-041
 -3.040000000000000E-002   -3.292845417574733E-041
 -3.030000000000000E-002   -7.471238647238190E-042
 -3.020000000000000E-002    4.960298907466285E-041
 -3.010000000000000E-002    1.547518622631440E-040
 -3.000000000000000E-002    3.266994785955840E-040
 -2.990000000000000E-002    5.828750644752533E-040
 -2.980000000000000E-002    9.326413955926858E-040
 -2.970000000000000E-002    1.366257095162146E-039
 -2.960000000000000E-002    1.838795189465449E-039
 -2.950000000000000E-002    2.249029427052636E-039
 -2.940000000000000E-002    2.414809911605280E-039
 -2.930000000000000E-002    2.048855494722546E-039
 -2.920000000000000E-002    7.422681054954242E-040
 -2.910000000000000E-002   -2.032642682991207E-039
 -2.900000000000000E-002   -6.884015759607946E-039
 -2.890000000000000E-002   -1.440630201483806E-038
 -2.880000000000000E-002   -2.500822323478765E-038
 -2.870000000000000E-002   -3.864328470662522E-038
 -2.860000000000000E-002   -5.443321772261053E-038
 -2.850000000000000E-002   -7.019496316025665E-038
 -2.840000000000000E-002   -8.191510212900620E-038
 -2.830000000000000E-002   -8.326316214494437E-038
 -2.820000000000000E-002   -6.529561975385251E-038
 -2.810000000000000E-002   -1.656979727638902E-038
 -2.800000000000000E-002    7.605054140301247E-038
 -2.790000000000000E-002    2.255767266068965E-037
 -2.780000000000000E-002    4.417525573532316E-037
 -2.770000000000000E-002    7.263668582886465E-037
 -2.760000000000000E-002    1.067004840558208E-036
 -2.750000000000000E-002    1.429568853947204E-036
 -2.740000000000000E-002    1.750400090781190E-036
 -2.730000000000000E-002    1.929475987532560E-036
 -2.720000000000000E-002    1.826886549518515E-036
 -2.710000000000000E-002    1.265500726517952E-036
 -2.700000000000000E-002    4.324659870880171E-038
 -2.690000000000000E-002   -2.041468262670842E-036
 -2.680000000000000E-002   -5.148258625618595E-036
 -2.670000000000000E-002   -9.335791987357051E-036
 -2.660000000000000E-002   -1.448668643870057E-035
 -2.650000000000000E-002   -2.022162258013423E-035
 -2.640000000000000E-002   -2.581320609006149E-035
 -2.630000000000000E-002   -3.011607101549556E-035
 -2.620000000000000E-002   -3.153563775212518E-035
 -2.610000000000000E-002   -2.806272161624665E-035
 -2.600000000000000E-002   -1.740320514320014E-035
 -2.590000000000000E-002    2.770341910945811E-036
 -2.580000000000000E-002    3.442670494810002E-035
 -2.570000000000000E-002    7.864123084878352E-035
 -2.560000000000000E-002    1.349395442235827E-034
 -2.550000000000000E-002    2.005721329894063E-034
 -2.540000000000000E-002    2.698078237675288E-034
 -2.530000000000000E-002    3.333706435937293E-034
 -2.520000000000000E-002    3.781753354003185E-034
 -2.510000000000000E-002    3.875347063744453E-034
 -2.500000000000000E-002    3.420092543923999E-034
 -2.490000000000000E-002    2.210392961326501E-034
 -2.480000000000000E-002    5.437055298710126E-036
 -2.470000000000000E-002   -3.192794030631838E-034
 -2.460000000000000E-002   -7.588512748655170E-034
 -2.450000000000000E-002   -1.305825500878354E-033
 -2.440000000000000E-002   -1.935103611756898E-033
 -2.430000000000000E-002   -2.600037379936300E-033
 -2.420000000000000E-002   -3.229693691311568E-033
 -2.410000000000000E-002   -3.727935481150170E-033
 -2.400000000000000E-002   -3.974920831849447E-033
 -2.390000000000000E-002   -3.831521165015632E-033
 -2.380000000000000E-002   -3.147013269675792E-033
 -2.370000000000000E-002   -1.770252014611778E-033
 -2.360000000000000E-002    4.355907620002100E-034
 -2.350000000000000E-002    3.574680244182682E-033
 -2.340000000000000E-002    7.696494200557311E-033
 -2.330000000000000E-002    1.276997313726955E-032
 -2.320000000000000E-002    1.865363633652729E-032
 -2.310000000000000E-002    2.506162940445814E-032
 -2.300000000000000E-002    3.152622424396663E-032
 -2.290000000000000E-002    3.735854218395985E-032
 -2.280000000000000E-002    4.161144930336864E-032
 -2.270000000000000E-002    4.305177844155389E-032
 -2.260000000000000E-002    4.015326672427883E-032
 -2.250000000000000E-002    3.112641361779188E-032
 -2.240000000000000E-002    1.400609582449242E-032
 -2.230000000000000E-002   -1.317906952630806E-032
 -2.220000000000000E-002   -5.213164822411809E-032
 -2.210000000000000E-002   -1.038858834699934E-031
 -2.200000000000000E-002   -1.682775235304196E-031
 -2.190000000000000E-002   -2.432980831188700E-031
 -2.180000000000000E-002   -3.243795207204336E-031
 -2.170000000000000E-002   -4.036945255150115E-031
 -2.160000000000000E-002   -4.696022061906687E-031
 -2.150000000000000E-002   -5.064127691229702E-031
 -2.140000000000000E-002   -4.946792845233499E-031
 -2.130000000000000E-002   -4.122381494099984E-031
 -2.120000000000000E-002   -2.362012781658967E-031
 -2.110000000000000E-002    5.396213558717659E-032
 -2.100000000000000E-002    4.722343712848901E-031
 -2.090000000000000E-002    1.020906046143167E-030
 -2.080000000000000E-002    1.684866997821101E-030
 -2.070000000000000E-002    2.425982072549108E-030
 -2.060000000000000E-002    3.178470990477724E-030
 -2.050000000000000E-002    3.846441841153798E-030
 -2.040000000000000E-002    4.304860917365851E-030
 -2.030000000000000E-002    4.405223879311601E-030
 -2.020000000000000E-002    3.986958649437508E-030
 -2.010000000000000E-002    2.895100615620764E-030
 -2.000000000000000E-002    1.004020242639214E-030
 -1.990000000000000E-002   -1.754034472474786E-030
 -1.980000000000000E-002   -5.358004076023347E-030
 -1.970000000000000E-002   -9.668359384940784E-030
 -1.960000000000000E-002   -1.440348415006487E-029
 -1.950000000000000E-002   -1.912761396392295E-029
 -1.940000000000000E-002   -2.325598287385927E-029
 -1.930000000000000E-002   -2.608214468476199E-029
 -1.920000000000000E-002   -2.683076428326767E-029
 -1.910000000000000E-002   -2.473642891310521E-029
 -1.900000000000000E-002   -1.914536590340244E-029
 -1.890000000000000E-002   -9.632617989544888E-030
 -1.880000000000000E-002    3.877326393545384E-030
 -1.870000000000000E-002    2.100242694263466E-029
 -1.860000000000000E-002    4.082628531374662E-029
 -1.850000000000000E-002    6.187197902974472E-029
 -1.840000000000000E-002    8.214374503169580E-029
 -1.830000000000000E-002    9.924806844707906E-029
 -1.820000000000000E-002    1.105969839759774E-028
 -1.810000000000000E-002    1.136844462301898E-028
 -1.800000000000000E-002    1.064131460681363E-028
 -1.790000000000000E-002    8.743551028160160E-029
 -1.780000000000000E-002    5.646137920124509E-029
 -1.770000000000000E-002    1.447814060552254E-029
 -1.760000000000000E-002   -3.616998351498970E-029
 -1.750000000000000E-002   -9.188699955619597E-029
 -1.740000000000000E-002   -1.481378939731085E-028
 -1.730000000000000E-002   -1.999629664177991E-028
 -1.720000000000000E-002   -2.426508169366288E-028
 -1.710000000000000E-002   -2.724877444874486E-028
 -1.700000000000000E-002   -2.874653734113282E-028
 -1.690000000000000E-002   -2.878032787018003E-028
 -1.680000000000000E-002   -2.761367816867091E-028
 -1.670000000000000E-002   -2.572387424663848E-028
 -1.660000000000000E-002   -2.371921578793789E-028
 -1.650000000000000E-002   -2.220080329938747E-028
 -1.640000000000000E-002   -2.157862682481064E-028
 -1.630000000000000E-002   -2.186333831896380E-028
 -1.620000000000000E-002   -2.246671343844192E-028
 -1.610000000000000E-002   -2.205306057208702E-028
 -1.600000000000000E-002   -1.848862155286836E-028
 -1.590000000000000E-002   -8.934059035430224E-029
 -1.580000000000000E-002    9.885051127540443E-029
 -1.570000000000000E-002    4.121420234172911E-028
 -1.560000000000000E-002    8.762462275206260E-028
 -1.550000000000000E-002    1.502330212585011E-027
 -1.540000000000000E-002    2.278694481196741E-027
 -1.530000000000000E-002    3.163104648089215E-027
 -1.520000000000000E-002    4.077201042489193E-027
 -1.510000000000000E-002    4.904512434450085E-027
 -1.500000000000000E-002    5.493498352731896E-027
 -1.490000000000000E-002    5.666696122680181E-027
 -1.480000000000000E-002    5.236455629603313E-027
 -1.470000000000000E-002    4.026925074275860E-027
 -1.460000000000000E-002    1.900984539315428E-027
 -1.450000000000000E-002   -1.210184783709100E-027
 -1.440000000000000E-002   -5.278126489622248E-027
 -1.430000000000000E-002   -1.015263199752524E-026
 -1.420000000000000E-002   -1.554593740064997E-026
 -1.410000000000000E-002   -2.102955227405628E-026
 -1.400000000000000E-002   -2.604688232009377E-026
 -1.390000000000000E-002   -2.994345818870302E-026
 -1.380000000000000E-002   -3.201477403837509E-026
 -1.370000000000000E-002   -3.156964019241971E-026
 -1.360000000000000E-002   -2.800479493750227E-026
 -1.350000000000000E-002   -2.088459688260162E-026
 -1.340000000000000E-002   -1.001821423558244E-026
 -1.330000000000000E-002    4.473991716730921E-027
 -1.320000000000000E-002    2.211294769874676E-026
 -1.310000000000000E-002    4.203919269145783E-026
 -1.300000000000000E-002    6.302204976162783E-026
 -1.290000000000000E-002    8.350217806816720E-026
 -1.280000000000000E-002    1.016671717444671E-025
 -1.270000000000000E-002    1.155572144342947E-025
 -1.260000000000000E-002    1.231955107682699E-025
 -1.250000000000000E-002    1.227364547009953E-025
 -1.240000000000000E-002    1.126237550474321E-025
 -1.230000000000000E-002    9.175026661899760E-026
 -1.220000000000000E-002    5.961143328823333E-026
 -1.210000000000000E-002    1.644420881100610E-026
 -1.200000000000000E-002   -3.665711344036448E-026
 -1.190000000000000E-002   -9.765795042822706E-026
 -1.180000000000000E-002   -1.635449924169342E-025
 -1.170000000000000E-002   -2.303466165310806E-025
 -1.160000000000000E-002   -2.932281455815913E-025
 -1.150000000000000E-002   -3.466792330944454E-025
 -1.140000000000000E-002   -3.848081337572549E-025
 -1.130000000000000E-002   -4.017515369470640E-025
 -1.120000000000000E-002   -3.921972023513369E-025
 -1.110000000000000E-002   -3.519996527151774E-025
 -1.100000000000000E-002   -2.788476573861576E-025
 -1.090000000000000E-002   -1.729181578144175E-025
 -1.080000000000000E-002   -3.742831447535500E-026
 -1.070000000000000E-002    1.210203328062763E-025
 -1.060000000000000E-002    2.924170894882216E-025
 -1.050000000000000E-002    4.637384209896725E-025
 -1.040000000000000E-002    6.198363876381213E-025
 -1.030000000000000E-002    7.448365971587431E-025
 -1.020000000000000E-002    8.239903883878291E-025
 -1.010000000000000E-002    8.458377561855730E-025
 -1.000000000000000E-002    8.044438775636013E-025
 -9.899999999999999E-003    7.013904673568247E-025
 -9.800000000000000E-003    5.471449839527357E-025
 -9.699999999999999E-003    3.614181724076808E-025
 -9.599999999999999E-003    1.721649414606743E-025
 -9.500000000000000E-003    1.299663074596979E-026
 -9.399999999999999E-003   -8.104528613258552E-026
 -9.299999999999999E-003   -7.916260127578423E-026
 -9.200000000000000E-003    3.855212267657768E-026
 -9.099999999999999E-003    2.742498818339361E-025
 -8.999999999999999E-003    6.062452753703285E-025
 -8.900000000000000E-003    9.848883807388853E-025
 -8.799999999999999E-003    1.331585080340390E-024
 -8.699999999999999E-003    1.542022240076580E-024
 -8.600000000000000E-003    1.494322029145635E-024
 -8.499999999999999E-003    1.062333394561396E-024
 -8.399999999999999E-003    1.335794849872647E-025
 -8.300000000000000E-003   -1.369396455967038E-024
 -8.199999999999999E-003   -3.466348136101749E-024
 -8.100000000000000E-003   -6.098061608081014E-024
 -8.000000000000000E-003   -9.109765728683582E-024
 -7.899999999999999E-003   -1.224263103898096E-023
 -7.800000000000000E-003   -1.513651713315798E-023
 -7.699999999999999E-003   -1.734640565193788E-023
 -7.599999999999999E-003   -1.837375444984580E-023
 -7.499999999999999E-003   -1.771240269649116E-023
 -7.399999999999999E-003   -1.490675806865807E-023
 -7.299999999999999E-003   -9.618024005960711E-024
 -7.199999999999999E-003   -1.692356823367934E-024
 -7.100000000000000E-003    8.776570463632239E-024
 -6.999999999999999E-003    2.139896964888494E-023
 -6.899999999999999E-003    3.546259079171781E-023
 -6.800000000000000E-003    4.993591381226964E-023
 -6.699999999999999E-003    6.350607210406037E-023
 -6.599999999999999E-003    7.465378864649812E-023
 -6.499999999999999E-003    8.176383999998857E-023
 -6.399999999999999E-003    8.326553479557877E-023
 -6.299999999999999E-003    7.779362439406095E-023
 -6.199999999999999E-003    6.435656272235590E-023
 -6.100000000000000E-003    4.249639539177959E-023
 -5.999999999999999E-003    1.242338259073992E-023
 -5.899999999999999E-003   -2.489113592090553E-023
 -5.800000000000000E-003   -6.767793049282218E-023
 -5.699999999999999E-003   -1.133995970632206E-022
 -5.599999999999999E-003   -1.588520169598701E-022
 -5.499999999999999E-003   -2.003364676328133E-022
 -5.399999999999999E-003   -2.338949852124278E-022
 -5.299999999999999E-003   -2.555951100698293E-022
 -5.199999999999999E-003   -2.618450800601912E-022
 -5.099999999999999E-003   -2.497167190686284E-022
 -4.999999999999999E-003   -2.172515117111840E-022
 -4.899999999999999E-003   -1.637256703877366E-022
 -4.799999999999999E-003   -8.985222430523256E-023
 -4.699999999999999E-003    2.097879012056840E-024
 -4.599999999999999E-003    1.082687578772453E-022
 -4.499999999999999E-003    2.232939004149665E-022
 -4.399999999999999E-003    3.404740036033885E-022
 -4.299999999999999E-003    4.520553196180215E-022
 -4.199999999999999E-003    5.496016919419277E-022
 -4.099999999999999E-003    6.244501825818066E-022
 -3.999999999999999E-003    6.682375973007604E-022
 -3.899999999999999E-003    6.734818228184698E-022
 -3.799999999999999E-003    6.341989005260197E-022
 -3.699999999999999E-003    5.465308170924340E-022
 -3.599999999999999E-003    4.093519511062637E-022
 -3.499999999999999E-003    2.248130003799756E-022
 -3.399999999999999E-003   -1.229075617593970E-024
 -3.299999999999999E-003   -2.589562202979056E-022
 -3.199999999999999E-003   -5.345777233077439E-022
 -3.099999999999999E-003   -8.106316598267479E-022
 -2.999999999999999E-003   -1.066661452874875E-021
 -2.899999999999999E-003   -1.280311269384087E-021
 -2.799999999999999E-003   -1.428852747403661E-021
 -2.699999999999999E-003   -1.491108809373356E-021
 -2.599999999999999E-003   -1.449685374003506E-021
 -2.499999999999999E-003   -1.293356237126209E-021
 -2.399999999999999E-003   -1.019381666585917E-021
 -2.299999999999999E-003   -6.354873492769287E-022
 -2.199999999999999E-003   -1.611893619037053E-022
 -2.099999999999999E-003    3.718519596735680E-022
 -1.999999999999999E-003    9.207355310081421E-022
 -1.899999999999999E-003    1.433689756247057E-021
 -1.799999999999999E-003    1.853988044435206E-021
 -1.699999999999999E-003    2.125319113323929E-021
 -1.599999999999999E-003    2.198318635365631E-021
 -1.499999999999999E-003    2.037749658665632E-021
 -1.399999999999999E-003    1.629614205724262E-021
 -1.299999999999999E-003    9.873135357591629E-022
 -1.199999999999999E-003    1.558790386088502E-022
 -1.099999999999999E-003   -7.866928320086831E-022
 -9.999999999999989E-004   -1.731832662822228E-021
 -8.999999999999990E-004   -2.547089636933498E-021
 -7.999999999999990E-004   -3.087284877751432E-021
 -6.999999999999989E-004   -3.209787217475703E-021
 -5.999999999999990E-004   -2.792984037055883E-021
 -4.999999999999989E-004   -1.756427286971435E-021
 -3.999999999999989E-004   -8.060444189307700E-023
 -2.999999999999989E-004    2.176140453386227E-021
 -1.999999999999989E-004    4.866173315076430E-021
 -9.999999999999892E-005    7.749206886018727E-021
  1.084202172485504E-018    1.049915160845615E-020
  1.000000000000011E-004    1.272262687314509E-020
  2.000000000000011E-004    1.398945129358356E-020
  3.000000000000011E-004    1.387419749352090E-020
  4.000000000000011E-004    1.200638241747342E-020
  5.000000000000011E-004    8.125440715065786E-021
  6.000000000000011E-004    2.135316929999509E-021
  7.000000000000011E-004   -5.847450186582263E-021
  8.000000000000011E-004   -1.545872152898934E-020
  9.000000000000012E-004   -2.607122276263781E-020
  1.000000000000001E-003   -3.680398065739604E-020
  1.100000000000001E-003   -4.656054755803407E-020
  1.200000000000001E-003   -5.409745226887290E-020
  1.300000000000001E-003   -5.812153606020230E-020
  1.400000000000001E-003   -5.741139244532854E-020
  1.500000000000001E-003   -5.095511402079223E-020
  1.600000000000001E-003   -3.809332621940122E-020
  1.700000000000001E-003   -1.865432182435147E-020
  1.800000000000001E-003    6.933400830888734E-021
  1.900000000000001E-003    3.756596407838436E-020
  2.000000000000001E-003    7.143988855901632E-020
  2.100000000000001E-003    1.060896529843717E-019
  2.200000000000001E-003    1.384937439607829E-019
  2.300000000000001E-003    1.652505508348129E-019
  2.400000000000001E-003    1.828194797225443E-019
  2.500000000000001E-003    1.878157768813691E-019
  2.600000000000001E-003    1.773415525760213E-019
  2.700000000000001E-003    1.493293923905645E-019
  2.800000000000001E-003    1.028708859952299E-019
  2.900000000000001E-003    3.849941309251876E-020
  3.000000000000001E-003   -4.160366168018121E-020
  3.100000000000001E-003   -1.335084978553882E-019
  3.200000000000001E-003   -2.315666040764277E-019
  3.300000000000001E-003   -3.285884759485595E-019
  3.400000000000001E-003   -4.161777493648376E-019
  3.500000000000001E-003   -4.852192881628514E-019
  3.600000000000001E-003   -5.265065185300753E-019
  3.700000000000001E-003   -5.314809418419039E-019
  3.800000000000001E-003   -4.930436874496589E-019
  3.900000000000001E-003   -4.063876534480750E-019
  4.000000000000001E-003   -2.697894644865074E-019
  4.100000000000001E-003   -8.529342533005204E-020
  4.200000000000001E-003    1.407833642494645E-019
  4.300000000000001E-003    3.975939754184886E-019
  4.400000000000001E-003    6.698161099218317E-019
  4.500000000000001E-003    9.380677920142147E-019
  4.600000000000002E-003    1.179717777333317E-018
  4.700000000000001E-003    1.370098704299359E-018
  4.800000000000001E-003    1.484102694831399E-018
  4.900000000000002E-003    1.498105648048772E-018
  5.000000000000001E-003    1.392130715957480E-018
  5.100000000000001E-003    1.152125271807281E-018
  5.200000000000001E-003    7.721932833472891E-019
  5.300000000000002E-003    2.565963612196327E-019
  5.400000000000001E-003   -3.786804108195210E-019
  5.500000000000001E-003   -1.105005947608151E-018
  5.600000000000002E-003   -1.881021216980182E-018
  5.700000000000001E-003   -2.653565602620212E-018
  5.800000000000001E-003   -3.359727688044522E-018
  5.900000000000002E-003   -3.930067974182382E-018
  6.000000000000001E-003   -4.292973831101108E-018
  6.100000000000001E-003   -4.380003089848883E-018
  6.200000000000002E-003   -4.131968970657710E-018
  6.300000000000002E-003   -3.505407372218046E-018
  6.400000000000001E-003   -2.478971182839307E-018
  6.500000000000001E-003   -1.059218525557277E-018
  6.600000000000002E-003    7.147861210445258E-019
  6.700000000000001E-003    2.768644567625777E-018
  6.800000000000001E-003    4.992116170024909E-018
  6.900000000000002E-003    7.241382949198345E-018
  7.000000000000001E-003    9.344394417477750E-018
  7.100000000000001E-003    1.110940061693058E-017
  7.200000000000002E-003    1.233654777904470E-017
  7.300000000000002E-003    1.283213234791508E-017
  7.400000000000001E-003    1.242484821825674E-017
  7.500000000000001E-003    1.098306699069944E-017
  7.600000000000002E-003    8.431976468584494E-018
  7.700000000000001E-003    4.769205098258852E-018
  7.800000000000001E-003    7.746006125918553E-020
  7.900000000000001E-003   -5.467288263530176E-018
  8.000000000000002E-003   -1.159344405194844E-017
  8.100000000000001E-003   -1.793836917147494E-017
  8.200000000000001E-003   -2.406068273608371E-017
  8.300000000000002E-003   -2.946057950192555E-017
  8.400000000000001E-003   -3.360790005205265E-017
  8.500000000000002E-003   -3.597704426107207E-017
  8.600000000000002E-003   -3.608719743439331E-017
  8.700000000000001E-003   -3.354566045538502E-017
  8.800000000000002E-003   -2.809152463874339E-017
  8.900000000000002E-003   -1.963649259443433E-017
  9.000000000000001E-003   -8.299350195064140E-018
  9.100000000000002E-003    5.569440511082298E-018
  9.200000000000002E-003    2.137637212067608E-017
  9.300000000000001E-003    3.828961992413115E-017
  9.400000000000002E-003    5.526198236208730E-017
  9.500000000000001E-003    7.107314903721390E-017
  9.600000000000001E-003    8.439112971170394E-017
  9.700000000000002E-003    9.385130729518593E-017
  9.800000000000001E-003    9.815003763099419E-017
  9.900000000000001E-003    9.614820673050559E-017
  1.000000000000000E-002    8.697877333839856E-017
  1.010000000000000E-002    7.015116680382776E-017
  1.020000000000000E-002    4.564456575199880E-017
  1.030000000000000E-002    1.398171142372993E-017
  1.040000000000000E-002   -2.372492001719551E-017
  1.050000000000000E-002   -6.576196524665605E-017
  1.060000000000000E-002   -1.098450141853690E-016
  1.070000000000000E-002   -1.531934524248247E-016
  1.080000000000000E-002   -1.926515569497404E-016
  1.090000000000000E-002   -2.248541572821814E-016
  1.100000000000000E-002   -2.464316960073982E-016
  1.110000000000000E-002   -2.542460628674182E-016
  1.120000000000000E-002   -2.456451052856305E-016
  1.130000000000000E-002   -2.187207259948669E-016
  1.140000000000000E-002   -1.725529608610949E-016
  1.150000000000000E-002   -1.074210107519170E-016
  1.160000000000000E-002   -2.496168360547829E-017
  1.170000000000000E-002    7.174350450855334E-017
  1.180000000000000E-002    1.781688542383589E-016
  1.190000000000000E-002    2.884453301085942E-016
  1.200000000000000E-002    3.955692006207376E-016
  1.210000000000000E-002    4.917195177701464E-016
  1.220000000000000E-002    5.686781419302931E-016
  1.230000000000000E-002    6.183379420846635E-016
  1.240000000000000E-002    6.332766291657015E-016
  1.250000000000000E-002    6.073663037778477E-016
  1.260000000000000E-002    5.363812358043279E-016
  1.270000000000000E-002    4.185623663627763E-016
  1.280000000000000E-002    2.550929518001878E-016
  1.290000000000000E-002    5.044055723391331E-017
  1.300000000000000E-002   -1.874775861062995E-016
  1.310000000000000E-002   -4.473418937404320E-016
  1.320000000000000E-002   -7.147171072878144E-016
  1.330000000000000E-002   -9.725925169495869E-016
  1.340000000000000E-002   -1.202174512501500E-015
  1.350000000000000E-002   -1.383912356439372E-015
  1.360000000000000E-002   -1.498719916971814E-015
  1.370000000000000E-002   -1.529336435997787E-015
  1.380000000000000E-002   -1.461754303047588E-015
  1.390000000000000E-002   -1.286623970932276E-015
  1.400000000000000E-002   -1.000538186492776E-015
  1.410000000000000E-002   -6.070909185067903E-016
  1.420000000000000E-002   -1.176078766500847E-016
  1.430000000000000E-002    4.485465397568072E-016
  1.440000000000000E-002    1.064164510616496E-015
  1.450000000000000E-002    1.694947924207230E-015
  1.460000000000000E-002    2.300844973946269E-015
  1.470000000000000E-002    2.837957522991570E-015
  1.480000000000000E-002    3.260968575508545E-015
  1.490000000000000E-002    3.525995581199531E-015
  1.500000000000000E-002    3.593733250614003E-015
  1.510000000000000E-002    3.432712000639711E-015
  1.520000000000000E-002    3.022466732220210E-015
  1.530000000000000E-002    2.356390630745720E-015
  1.540000000000000E-002    1.444037685522753E-015
  1.550000000000000E-002    3.126450043327723E-016
  1.560000000000000E-002   -9.923303529710265E-016
  1.570000000000000E-002   -2.407827149819746E-015
  1.580000000000000E-002   -3.855058457248438E-015
  1.590000000000000E-002   -5.242692158466017E-015
  1.600000000000000E-002   -6.471287679340950E-015
  1.610000000000000E-002   -7.438855587536582E-015
  1.620000000000000E-002   -8.047311570643569E-015
  1.630000000000000E-002   -8.209502649403669E-015
  1.640000000000000E-002   -7.856410467609250E-015
  1.650000000000000E-002   -6.944072160193314E-015
  1.660000000000000E-002   -5.459712167239578E-015
  1.670000000000000E-002   -3.426578085266548E-015
  1.680000000000000E-002   -9.069936234452734E-016
  1.690000000000000E-002    1.996804211565379E-015
  1.700000000000000E-002    5.144371733124345E-015
  1.710000000000000E-002    8.361519280121879E-015
  1.720000000000000E-002    1.144756143444882E-014
  1.730000000000000E-002    1.418522524486141E-014
  1.740000000000000E-002    1.635287760745219E-014
  1.750000000000000E-002    1.773854299479604E-014
  1.760000000000000E-002    1.815500138259246E-014
  1.770000000000000E-002    1.745508793617827E-014
  1.780000000000000E-002    1.554620855117216E-014
  1.790000000000000E-002    1.240300872878419E-014
  1.800000000000000E-002    8.077151242957834E-015
  1.810000000000000E-002    2.703191558444384E-015
  1.820000000000000E-002   -3.500277946911188E-015
  1.830000000000000E-002   -1.023485713774011E-014
  1.840000000000000E-002   -1.713227969117823E-014
  1.850000000000000E-002   -2.377009644440413E-014
  1.860000000000000E-002   -2.969270940269408E-014
  1.870000000000000E-002   -3.443699080569432E-014