 -4.000000000000000E-002    0.000000000000000E+000
 -3.990000000000000E-002    0.000000000000000E+000
 -3.980000000000000E-002    0.000000000000000E+000
 -3.970000000000000E-002    0.000000000000000E+000
 -3.960000000000000E-002    0.000000000000000E+000
 -3.950000000000000E-002    0.000000000000000E+000
 -3.940000000000000E-002    0.000000000000000E+000
 -3.930000000000000E-002    0.000000000000000E+000
 -3.920000000000000E-002    0.000000000000000E+000
 -3.910000000000000E-002    0.000000000000000E+000
 -3.900000000000000E-002    0.000000000000000E+000
 -3.890000000000000E-002    0.000000000000000E+000
 -3.880000000000000E-002    0.000000000000000E+000
 -3.870000000000000E-002    0.000000000000000E+000
 -3.860000000000000E-002    0.000000000000000E+000
 -3.850000000000000E-002    0.000000000000000E+000
 -3.840000000000000E-002    0.000000000000000E+000
 -3.830000000000000E-002    0.000000000000000E+000
 -3.820000000000000E-002    0.000000000000000E+000
 -3.810000000000000E-002    0.000000000000000E+000
 -3.800000000000000E-002    0.000000000000000E+000
 -3.790000000000000E-002    0.000000000000000E+000
 -3.780000000000000E-002    0.000000000000000E+000
 -3.770000000000000E-002    0.000000000000000E+000
 -3.760000000000000E-002    0.000000000000000E+000
 -3.750000000000000E-002    0.000000000000000E+000
 -3.740000000000000E-002    0.000000000000000E+000
 -3.730000000000000E-002    0.000000000000000E+000
 -3.720000000000000E-002    0.000000000000000E+000
 -3.710000000000000E-002    0.000000000000000E+000
 -3.700000000000000E-002    0.000000000000000E+000
 -3.690000000000000E-002    0.000000000000000E+000
 -3.680000000000000E-002    1.121444292430108E-046
 -3.670000000000000E-002    1.945167011646743E-046
 -3.660000000000000E-002    8.189698891432536E-046
 -3.650000000000000E-002    2.877572484767973E-045
 -3.640000000000000E-002    8.371385021355615E-045
 -3.630000000000000E-002    2.326996794701043E-044
 -3.620000000000000E-002    6.459607350593282E-044
 -3.610000000000000E-002    1.727939683978368E-043
 -3.600000000000000E-002    4.427187995019551E-043
 -3.590000000000000E-002    1.084337108539854E-042
 -3.580000000000000E-002    2.548190701321917E-042
 -3.570000000000000E-002    5.747142702685698E-042
 -3.560000000000000E-002    1.244705948581299E-041
 -3.550000000000000E-002    2.588851681043954E-041
 -3.540000000000000E-002    5.168413456110697E-041
 -3.530000000000000E-002    9.892443304997593E-041
 -3.520000000000000E-002    1.811372570623688E-040
 -3.510000000000000E-002    3.161453768899929E-040
 -3.500000000000000E-002    5.227346532856113E-040
 -3.490000000000000E-002    8.101596760547298E-040
 -3.480000000000000E-002    1.153641402246966E-039
 -3.470000000000000E-002    1.445130334243436E-039
 -3.460000000000000E-002    1.404156380822288E-039
 -3.450000000000000E-002    4.299451426953598E-040
 -3.440000000000000E-002   -2.623857212817716E-039
 -3.430000000000000E-002   -9.761132794871304E-039
 -3.420000000000000E-002   -2.422396089724539E-038
 -3.410000000000000E-002   -5.086651020407530E-038
 -3.400000000000000E-002   -9.634332477717476E-038
 -3.390000000000000E-002   -1.687671951583679E-037
 -3.380000000000000E-002   -2.762519724451176E-037
 -3.370000000000000E-002   -4.234437890657737E-037
 -3.360000000000000E-002   -6.047951119642805E-037
 -3.350000000000000E-002   -7.930359626765634E-037
 -3.340000000000000E-002   -9.212150738864256E-037
 -3.330000000000000E-002   -8.571017427021444E-037
 -3.320000000000000E-002   -3.700758202576472E-037
 -3.310000000000000E-002    9.065552538598301E-037
 -3.300000000000000E-002    3.509937306507614E-036
 -3.290000000000000E-002    8.163149205131363E-036
 -3.280000000000000E-002    1.574529636938766E-035
 -3.270000000000000E-002    2.717586987428124E-035
 -3.260000000000000E-002    4.315748838175573E-035
 -3.250000000000000E-002    6.370725738558200E-035
 -3.240000000000000E-002    8.740043741287492E-035
 -3.230000000000000E-002    1.102605008980196E-034
 -3.220000000000000E-002    1.242700217434451E-034
 -3.210000000000000E-002    1.155645545547405E-034
 -3.200000000000000E-002    6.252557725998726E-035
 -3.190000000000000E-002   -6.577294144219185E-035
 -3.180000000000000E-002   -3.099772509851881E-034
 -3.170000000000000E-002   -7.185193871461703E-034
 -3.160000000000000E-002   -1.341662649368062E-033
 -3.150000000000000E-002   -2.219425259207117E-033
 -3.140000000000000E-002   -3.361047178928623E-033
 -3.130000000000000E-002   -4.713848612473882E-033
 -3.120000000000000E-002   -6.120258993215244E-033
 -3.110000000000000E-002   -7.263835822566092E-033
 -3.100000000000000E-002   -7.608671576118179E-033
 -3.090000000000000E-002   -6.342016071556239E-033
 -3.080000000000000E-002   -2.337357734358405E-033
 -3.070000000000000E-002    5.835690803701437E-033
 -3.060000000000000E-002    1.981848767213663E-032
 -3.050000000000000E-002    4.124254750325518E-032
 -3.040000000000000E-002    7.133138981243444E-032
 -3.030000000000000E-002    1.102796323400012E-031
 -3.020000000000000E-002    1.563818979535426E-031
 -3.010000000000000E-002    2.049220999655952E-031
 -3.000000000000000E-002    2.468975963679380E-031
 -2.990000000000000E-002    2.677459005169302E-031
 -2.980000000000000E-002    2.463639195043138E-031
 -2.970000000000000E-002    1.548525474229769E-031
 -2.960000000000000E-002   -4.043452134613676E-032
 -2.950000000000000E-002   -3.758410589159554E-031
 -2.940000000000000E-002   -8.846164213093277E-031
 -2.930000000000000E-002   -1.587728017695473E-030
 -2.920000000000000E-002   -2.480911004433843E-030
 -2.910000000000000E-002   -3.518141485258592E-030
 -2.900000000000000E-002   -4.592589870943707E-030
 -2.890000000000000E-002   -5.517309477048551E-030
 -2.880000000000000E-002   -6.009401377071684E-030
 -2.870000000000000E-002   -5.683032983586503E-030
 -2.860000000000000E-002   -4.058212606303143E-030
 -2.850000000000000E-002   -5.932983992511338E-031
 -2.840000000000000E-002    5.250677328245278E-030
 -2.830000000000000E-002    1.390719842041282E-029
 -2.820000000000000E-002    2.555981631685048E-029
 -2.810000000000000E-002    3.995902103713215E-029
 -2.800000000000000E-002    5.621230119383107E-029
 -2.790000000000000E-002    7.257084031438281E-029
 -2.780000000000000E-002    8.624965279386200E-029
 -2.770000000000000E-002    9.333168306202308E-029
 -2.760000000000000E-002    8.881794156769750E-029
 -2.750000000000000E-002    6.689203496372999E-029
 -2.740000000000000E-002    2.146469728772134E-029
 -2.730000000000000E-002   -5.295175121597744E-029
 -2.720000000000000E-002   -1.600211773990449E-028
 -2.710000000000000E-002   -3.000462342195498E-028
 -2.700000000000000E-002   -4.682173061461529E-028
 -2.690000000000000E-002   -6.528319385068385E-028
 -2.680000000000000E-002   -8.337597543493377E-028
 -2.670000000000000E-002   -9.815117693000140E-028
 -2.660000000000000E-002   -1.057336468078445E-027
 -2.650000000000000E-002   -1.014786839368512E-027
 -2.640000000000000E-002   -8.031613204025659E-028
 -2.630000000000000E-002   -3.731017764007089E-028
 -2.620000000000000E-002    3.155823525255805E-028
 -2.610000000000000E-002    1.284104114904279E-027
 -2.600000000000000E-002    2.523534291372046E-027
 -2.590000000000000E-002    3.983359415193640E-027
 -2.580000000000000E-002    5.561286766657556E-027
 -2.570000000000000E-002    7.096211179834376E-027
 -2.560000000000000E-002    8.366497182025954E-027
 -2.550000000000000E-002    9.095760034449844E-027
 -2.540000000000000E-002    8.968042602771180E-027
 -2.530000000000000E-002    7.653650723216355E-027
 -2.520000000000000E-002    4.845911434076905E-027
 -2.510000000000000E-002    3.077690634883944E-028
 -2.500000000000000E-002   -6.074471300241627E-027
 -2.490000000000000E-002   -1.423462504956039E-026
 -2.480000000000000E-002   -2.387331733213661E-026
 -2.470000000000000E-002   -3.441512310477410E-026
 -2.460000000000000E-002   -4.498410334805867E-026
 -2.450000000000000E-002   -5.440556190227709E-026
 -2.440000000000000E-002   -6.124085823421154E-026
 -2.430000000000000E-002   -6.386008942299657E-026
 -2.420000000000000E-002   -6.055455027691001E-026
 -2.410000000000000E-002   -4.968732180824744E-026
 -2.400000000000000E-002   -2.987633955417241E-026
 -2.390000000000000E-002   -2.004090902574690E-028
 -2.380000000000000E-002    3.958486568090302E-026
 -2.370000000000000E-002    8.883704549110704E-026
 -2.360000000000000E-002    1.458401301648139E-025
 -2.350000000000000E-002    2.076592767322651E-025
 -2.340000000000000E-002    2.700549959810573E-025
 -2.330000000000000E-002    3.274740936408445E-025
 -2.320000000000000E-002    3.731340939341419E-025
 -2.310000000000000E-002    3.992174261414953E-025
 -2.300000000000000E-002    3.971920863009789E-025
 -2.290000000000000E-002    3.582755587663796E-025
 -2.280000000000000E-002    2.740589830063338E-025
 -2.270000000000000E-002    1.373060789344947E-025
 -2.260000000000000E-002   -5.706586495160284E-026
 -2.250000000000000E-002   -3.108284222837680E-025
 -2.240000000000000E-002   -6.211370203601794E-025
 -2.230000000000000E-002   -9.791403617435591E-025
 -2.220000000000000E-002   -1.368611376339598E-024
 -2.210000000000000E-002   -1.764759744745657E-024
 -2.200000000000000E-002   -2.133442656466376E-024
 -2.190000000000000E-002   -2.431042279995006E-024
 -2.180000000000000E-002   -2.605315682735344E-024
 -2.170000000000000E-002   -2.597526133892724E-024
 -2.160000000000000E-002   -2.346129282670736E-024
 -2.150000000000000E-002   -1.792192207884478E-024
 -2.140000000000000E-002   -8.865620370240951E-025
 -2.130000000000000E-002    4.014235253326637E-025
 -2.120000000000000E-002    2.074176090378654E-024
 -2.110000000000000E-002    4.095857118466651E-024
 -2.100000000000000E-002    6.383270242135178E-024
 -2.090000000000000E-002    8.799056229888881E-024
 -2.080000000000000E-002    1.114877943511470E-023
 -2.070000000000000E-002    1.318352153570282E-023
 -2.060000000000000E-002    1.460941595403304E-023
 -2.050000000000000E-002    1.510514018534833E-023
 -2.040000000000000E-002    1.434768898644045E-023
 -2.030000000000000E-002    1.204584272066477E-023
 -2.020000000000000E-002    7.979632371818455E-024
 -2.010000000000000E-002    2.042902750497108E-024
 -2.000000000000000E-002   -5.715062482647510E-024
 -1.990000000000000E-002   -1.505384278280248E-023
 -1.980000000000000E-002   -2.551765577765360E-023
 -1.970000000000000E-002   -3.642816921321982E-023
 -1.960000000000000E-002   -4.689924503111728E-023
 -1.950000000000000E-002   -5.587704811283386E-023
 -1.940000000000000E-002   -6.220682835425261E-023
 -1.930000000000000E-002   -6.472479589069081E-023
 -1.920000000000000E-002   -6.237028159020164E-023
 -1.910000000000000E-002   -5.430995541604542E-023
 -1.900000000000000E-002   -4.006281471260199E-023
 -1.890000000000000E-002   -1.961227809732631E-023
 -1.880000000000000E-002    6.509408340658176E-024
 -1.870000000000000E-002    3.717882793860060E-023
 -1.860000000000000E-002    7.069310183962989E-023
 -1.850000000000000E-002    1.048434661457612E-022
 -1.840000000000000E-002    1.370523214763568E-022
 -1.830000000000000E-002    1.645679138287989E-022
 -1.820000000000000E-002    1.847027263568792E-022
 -1.810000000000000E-002    1.950936343531673E-022
 -1.800000000000000E-002    1.939553622695688E-022
 -1.790000000000000E-002    1.802949125125541E-022
 -1.780000000000000E-002    1.540542101862559E-022
 -1.770000000000000E-002    1.161523960242855E-022
 -1.760000000000000E-002    6.840824770920484E-023
 -1.750000000000000E-002    1.333695846824761E-023
 -1.740000000000000E-002   -4.616696031267214E-023
 -1.730000000000000E-002   -1.072292577312936E-022
 -1.720000000000000E-002   -1.674270747048607E-022
 -1.710000000000000E-002   -2.251846100536875E-022
 -1.700000000000000E-002   -2.800562608022040E-022
 -1.690000000000000E-002   -3.328199118429341E-022
 -1.680000000000000E-002   -3.853143428229725E-022
 -1.670000000000000E-002   -4.399799355040344E-022
 -1.660000000000000E-002   -4.990993685625554E-022
 -1.650000000000000E-002   -5.637840322518520E-022
 -1.640000000000000E-002   -6.328062609778666E-022
 -1.630000000000000E-002   -7.014328870891064E-022
 -1.620000000000000E-002   -7.604612764248029E-022
 -1.610000000000000E-002   -7.956867594415355E-022
 -1.600000000000000E-002   -7.880319241235667E-022
 -1.590000000000000E-002   -7.145355284701729E-022
 -1.580000000000000E-002   -5.503249118845022E-022
 -1.570000000000000E-002   -2.715886388136648E-022
 -1.560000000000000E-002    1.405791651401240E-022
 -1.550000000000000E-002    6.957513437442592E-022
 -1.540000000000000E-002    1.389608817947922E-021
 -1.530000000000000E-002    2.199844692406149E-021
 -1.520000000000000E-002    3.083213680975311E-021
 -1.510000000000000E-002    3.974432683150554E-021
 -1.500000000000000E-002    4.787559202774715E-021
 -1.490000000000000E-002    5.420294068580066E-021
 -1.480000000000000E-002    5.761368293562302E-021
 -1.470000000000000E-002    5.700800999276032E-021
 -1.460000000000000E-002    5.142382161147135E-021
 -1.450000000000000E-002    4.017306823529595E-021
 -1.440000000000000E-002    2.297500868886295E-021
 -1.430000000000000E-002    6.924909343798960E-024
 -1.420000000000000E-002   -2.770932425577796E-021
 -1.410000000000000E-002   -5.891002466205003E-021
 -1.400000000000000E-002   -9.151239415199341E-021
 -1.390000000000000E-002   -1.230443969661817E-020
 -1.380000000000000E-002   -1.507696070531741E-020
 -1.370000000000000E-002   -1.719305994952164E-020
 -1.360000000000000E-002   -1.840259742365028E-020
 -1.350000000000000E-002   -1.850903358275419E-020
 -1.340000000000000E-002   -1.739413162222416E-020
 -1.330000000000000E-002   -1.503569748337435E-020
 -1.320000000000000E-002   -1.151513239617077E-020
 -1.310000000000000E-002   -7.012564409854242E-021
 -1.300000000000000E-002   -1.788844993991642E-021
 -1.290000000000000E-002    3.844442328826471E-021
 -1.280000000000000E-002    9.563792680614908E-021
 -1.270000000000000E-002    1.507636312598675E-020
 -1.260000000000000E-002    2.015986763880945E-020
 -1.250000000000000E-002    2.469267002947359E-020
 -1.240000000000000E-002    2.866734855916803E-020
 -1.230000000000000E-002    3.218251648064801E-020
 -1.220000000000000E-002    3.541034260692255E-020
 -1.210000000000000E-002    3.854083310220220E-020
 -1.200000000000000E-002    4.170806672383262E-020
 -1.190000000000000E-002    4.490770174664411E-020
 -1.180000000000000E-002    4.791863050657485E-020
 -1.170000000000000E-002    5.024377967602079E-020
 -1.160000000000000E-002    5.108535255560332E-020
 -1.150000000000000E-002    4.936771432933372E-020
 -1.140000000000000E-002    4.381658435336242E-020
 -1.130000000000000E-002    3.309640024571248E-020
 -1.120000000000000E-002    1.599927311271084E-020
 -1.110000000000000E-002   -8.330165268895859E-021
 -1.100000000000000E-002   -4.015830226666908E-020
 -1.090000000000000E-002   -7.894548057603478E-020
 -1.080000000000000E-002   -1.231826709982060E-019
 -1.070000000000000E-002   -1.703155079198467E-019
 -1.060000000000000E-002   -2.167832930916828E-019
 -1.050000000000000E-002   -2.581902846722739E-019
 -1.040000000000000E-002   -2.896114159798992E-019
 -1.030000000000000E-002   -3.060174094687647E-019
 -1.020000000000000E-002   -3.027860821853758E-019
 -1.010000000000000E-002   -2.762505522842784E-019
 -1.000000000000000E-002   -2.242232832650134E-019
 -9.899999999999999E-003   -1.464300796321483E-019
 -9.800000000000000E-003   -4.479151228502832E-020
 -9.699999999999999E-003    7.649840949975916E-020
 -9.599999999999999E-003    2.111258200063609E-019
 -9.500000000000000E-003    3.510451680854003E-019
 -9.399999999999999E-003    4.870742538750671E-019
 -9.299999999999999E-003    6.096387929744526E-019
 -9.200000000000000E-003    7.095850386801003E-019
 -9.099999999999999E-003    7.789640579895623E-019
 -8.999999999999999E-003    8.116891036222281E-019
 -8.900000000000000E-003    8.039802389931928E-019
 -8.799999999999999E-003    7.545353203333197E-019
 -8.699999999999999E-003    6.644059014412153E-019
 -8.600000000000000E-003    5.366007063064822E-019
 -8.499999999999999E-003    3.754850778492717E-019
 -8.399999999999999E-003    1.860833019471160E-019
 -8.300000000000000E-003   -2.658258115489811E-020
 -8.199999999999999E-003   -2.579792761194055E-019
 -8.100000000000000E-003   -5.042522487572559E-019
 -8.000000000000000E-003   -7.620377023073051E-019
 -7.899999999999999E-003   -1.027875571839716E-018
 -7.800000000000000E-003   -1.297277087983934E-018
 -7.699999999999999E-003   -1.563574225202376E-018
 -7.599999999999999E-003   -1.816749024229397E-018
 -7.499999999999999E-003   -2.042483698005536E-018
 -7.399999999999999E-003   -2.221689282860406E-018
 -7.299999999999999E-003   -2.330744497152096E-018
 -7.199999999999999E-003   -2.342611355726701E-018
 -7.100000000000000E-003   -2.228889994325006E-018
 -6.999999999999999E-003   -1.962747629315515E-018
 -6.899999999999999E-003   -1.522512796611412E-018
 -6.800000000000000E-003   -8.955927318595268E-019
 -6.699999999999999E-003   -8.226828075876953E-020
 -6.599999999999999E-003    9.011397851308835E-019
 -6.499999999999999E-003    2.020233971929458E-018
 -6.399999999999999E-003    3.222062895656025E-018
 -6.299999999999999E-003    4.436497226553708E-018
 -6.199999999999999E-003    5.579559834499411E-018
 -6.100000000000000E-003    6.558594181333604E-018
 -5.999999999999999E-003    7.278920120186395E-018
 -5.899999999999999E-003    7.651435895355587E-018
 -5.800000000000000E-003    7.600479221661087E-018
 -5.699999999999999E-003    7.071187888223877E-018
 -5.599999999999999E-003    6.035651199705415E-018
 -5.499999999999999E-003    4.497239144688497E-018
 -5.399999999999999E-003    2.492711211028681E-018
 -5.299999999999999E-003    9.195837301286960E-020
 -5.199999999999999E-003   -2.604522431052567E-018
 -5.099999999999999E-003   -5.470067669993251E-018
 -4.999999999999999E-003   -8.357705030234746E-018
 -4.899999999999999E-003   -1.110684033930437E-017
 -4.799999999999999E-003   -1.355025153929170E-017
 -4.699999999999999E-003   -1.552099360301872E-017
 -4.599999999999999E-003   -1.685906604982857E-017
 -4.499999999999999E-003   -1.741791747167992E-017
 -4.399999999999999E-003   -1.707111255392962E-017
 -4.299999999999999E-003   -1.571962503918642E-017
 -4.199999999999999E-003   -1.330017111652372E-017
 -4.099999999999999E-003   -9.794861854407500E-018
 -3.999999999999999E-003   -5.242035352118290E-018
 -3.899999999999999E-003    2.523834248128799E-019
 -3.799999999999999E-003    6.504269625942893E-018
 -3.699999999999999E-003    1.324329920859724E-017
 -3.599999999999999E-003    2.010989787333099E-017
 -3.499999999999999E-003    2.665967631616339E-017
 -3.399999999999999E-003    3.237769835121270E-017
 -3.299999999999999E-003    3.670429279680635E-017
 -3.199999999999999E-003    3.907304462863215E-017
 -3.099999999999999E-003    3.896009052803884E-017
 -2.999999999999999E-003    3.594203649617083E-017
 -2.899999999999999E-003    2.975800447425852E-017
 -2.799999999999999E-003    2.036960143476237E-017
 -2.699999999999999E-003    8.011393079510767E-018
 -2.599999999999999E-003   -6.775999189494174E-018
 -2.499999999999999E-003   -2.313769680154469E-017
 -2.399999999999999E-003   -3.992722146054519E-017
 -2.299999999999999E-003   -5.576347272731253E-017
 -2.199999999999999E-003   -6.912219616096750E-017
 -2.099999999999999E-003   -7.845788161492881E-017
 -1.999999999999999E-003   -8.234810667548886E-017
 -1.899999999999999E-003   -7.964836596318575E-017
 -1.799999999999999E-003   -6.964254879545248E-017
 -1.699999999999999E-003   -5.217251416318507E-017
 -1.599999999999999E-003   -2.773032604119718E-017
 -1.499999999999999E-003    2.501121172524049E-018
 -1.399999999999999E-003    3.666960275620269E-017
 -1.299999999999999E-003    7.234207490475510E-017
 -1.199999999999999E-003    1.066582748469713E-016
 -1.099999999999999E-003    1.365405350320875E-016
 -9.999999999999989E-004    1.589440331077530E-016
 -8.999999999999990E-004    1.711261521373764E-016
 -7.999999999999990E-004    1.709102663125627E-016
 -6.999999999999989E-004    1.569178343167394E-016
 -5.999999999999990E-004    1.287451570805733E-016
 -4.999999999999989E-004    8.706508297902069E-017
 -3.999999999999989E-004    3.364148443837630E-017
 -2.999999999999989E-004   -2.874730663533245E-017
 -1.999999999999989E-004   -9.647053137561520E-017
 -9.999999999999892E-005   -1.652782267260530E-016
  1.084202172485504E-018   -2.305839432722048E-016
  1.000000000000011E-004   -2.877710861867581E-016
  2.000000000000011E-004   -3.324949762698021E-016
  3.000000000000011E-004   -3.609553278839631E-016
  4.000000000000011E-004   -3.701187674188129E-016
  5.000000000000011E-004   -3.578787072544237E-016
  6.000000000000011E-004   -3.231490054711714E-016
  7.000000000000011E-004   -2.658969977912799E-016
  8.000000000000011E-004   -1.871287301661021E-016
  9.000000000000012E-004   -8.884443715315580E-017
  1.000000000000001E-003    2.601686808735782E-017
  1.100000000000001E-003    1.536274331148254E-016
  1.200000000000001E-003    2.893064148232454E-016
  1.300000000000001E-003    4.275416477114328E-016
  1.400000000000001E-003    5.620094359209810E-016
  1.500000000000001E-003    6.856150840191632E-016
  1.600000000000001E-003    7.905852091193544E-016
  1.700000000000001E-003    8.686461161794466E-016
  1.800000000000001E-003    9.113213640849724E-016
  1.900000000000001E-003    9.103704902649413E-016
  2.000000000000001E-003    8.583763234131862E-016
  2.100000000000001E-003    7.494653396686396E-016
  2.200000000000001E-003    5.801221043751530E-016
  2.300000000000001E-003    3.500308564094217E-016
  2.400000000000001E-003    6.285748791683279E-017
  2.500000000000001E-003   -2.731312461222257E-016
  2.600000000000001E-003   -6.447196509626489E-016
  2.700000000000001E-003   -1.033765734780186E-015
  2.800000000000001E-003   -1.417674469075171E-015
  2.900000000000001E-003   -1.770365203355019E-015
  3.000000000000001E-003   -2.063731856782599E-015
  3.100000000000001E-003   -2.269540471906099E-015
  3.200000000000001E-003   -2.361656134311052E-015
  3.300000000000001E-003   -2.318437770360478E-015
  3.400000000000001E-003   -2.125099387782847E-015
  3.500000000000001E-003   -1.775814072316560E-015
  3.600000000000001E-003   -1.275330313478910E-015
  3.700000000000001E-003   -6.398921423944361E-016
  3.800000000000001E-003    1.027025699122229E-016
  3.900000000000001E-003    9.140085237277410E-016
  4.000000000000001E-003    1.746822081574538E-015
  4.100000000000001E-003    2.547986445607066E-015
  4.200000000000001E-003    3.261946262982094E-015
  4.300000000000001E-003    3.834811373303698E-015
  4.400000000000001E-003    4.218614219313444E-015
  4.500000000000001E-003    4.375407428986031E-015
  4.600000000000002E-003    4.280838609229210E-015
  4.700000000000001E-003    3.926856954733938E-015
  4.800000000000001E-003    3.323265068455055E-015
  4.900000000000002E-003    2.497911895427864E-015
  5.000000000000001E-003    1.495432226138943E-015
  5.100000000000001E-003    3.745580892902817E-016
  5.200000000000001E-003   -7.958432580831049E-016
  5.300000000000002E-003   -1.941737323591652E-015
  5.400000000000001E-003   -2.989525618081690E-015
  5.500000000000001E-003   -3.871837680854496E-015
  5.600000000000002E-003   -4.533036702224113E-015
  5.700000000000001E-003   -4.933958466024401E-015
  5.800000000000001E-003   -5.055441291618748E-015
  5.900000000000002E-003   -4.900292758130163E-015
  6.000000000000001E-003   -4.493445612299719E-015
  6.100000000000001E-003   -3.880185850732969E-015
  6.200000000000002E-003   -3.122503216091434E-015
  6.300000000000002E-003   -2.293755262635172E-015
  6.400000000000001E-003   -1.471993511116829E-015
  6.500000000000001E-003   -7.324371350911714E-016
  6.600000000000002E-003   -1.396818610400116E-016
  6.700000000000001E-003    2.597083355743565E-016
  6.800000000000001E-003    4.435255251225251E-016
  6.900000000000002E-003    4.185153145940062E-016
  7.000000000000001E-003    2.226438897926262E-016
  7.100000000000001E-003   -7.542232093235140E-017
  7.200000000000002E-003   -3.799221387032059E-016
  7.300000000000002E-003   -5.747697119976255E-016
  7.400000000000001E-003   -5.333169816221250E-016
  7.500000000000001E-003   -1.306748291594456E-016
  7.600000000000002E-003    7.421084353633101E-016
  7.700000000000001E-003    2.162983710416301E-015
  7.800000000000001E-003    4.164121831688079E-015
  7.900000000000001E-003    6.718776862827804E-015
  8.000000000000002E-003    9.731187192099734E-015
  8.100000000000001E-003    1.303093409837433E-014
  8.200000000000001E-003    1.637299960181793E-014
  8.300000000000002E-003    1.944452644662913E-014
  8.400000000000001E-003    2.187886098770905E-014
  8.500000000000002E-003    2.327701613665778E-014
  8.600000000000002E-003    2.323602929022847E-014
  8.700000000000001E-003    2.138309925107794E-014
  8.800000000000002E-003    1.741368116849120E-014
  8.900000000000002E-003    1.113111660008239E-014
  9.000000000000001E-003    2.484856431368422E-015
  9.100000000000002E-003   -8.396067574912990E-015
  9.200000000000002E-003   -2.117784434376378E-014
  9.300000000000001E-003   -3.530830406315068E-014
  9.400000000000002E-003   -5.001810138168008E-014
  9.500000000000001E-003   -6.433890808890739E-014
  9.600000000000001E-003   -7.714025635598432E-014
  9.700000000000002E-003   -8.718508913347376E-014
  9.800000000000001E-003   -9.320298331428939E-014
  9.900000000000001E-003   -9.397847512493124E-014
  1.000000000000000E-002   -8.845020902417468E-014
  1.010000000000000E-002   -7.581533567279114E-014
  1.020000000000000E-002   -5.563254359363801E-014
  1.030000000000000E-002   -2.791585702294531E-014
  1.040000000000000E-002    6.788854148858957E-015
  1.050000000000000E-002    4.735280661119182E-014
  1.060000000000000E-002    9.204615668213482E-014
  1.070000000000000E-002    1.385589628204690E-013
  1.080000000000000E-002    1.840657619965263E-013
  1.090000000000000E-002    2.253359051874803E-013
  1.100000000000000E-002    2.588887275526111E-013
  1.110000000000000E-002    2.811897529962324E-013
  1.120000000000000E-002    2.888807575706112E-013
  1.130000000000000E-002    2.790329893023250E-013
  1.140000000000000E-002    2.494102452300000E-013
  1.150000000000000E-002    1.987253692094132E-013
  1.160000000000000E-002    1.268726747130469E-013
  1.170000000000000E-002    3.511687772739896E-014
  1.180000000000000E-002   -7.377994111227472E-014
  1.190000000000000E-002   -1.955105386277888E-013
  1.200000000000000E-002   -3.242687179204725E-013
  1.210000000000000E-002   -4.529002517535277E-013
  1.220000000000000E-002   -5.731629736011150E-013
  1.230000000000000E-002   -6.760959974280262E-013
  1.240000000000000E-002   -7.524886350188580E-013
  1.250000000000000E-002   -7.934340178353379E-013
  1.260000000000000E-002   -7.909428319012879E-013
  1.270000000000000E-002   -7.385867277650452E-013
  1.280000000000000E-002   -6.321341381816504E-013
  1.290000000000000E-002   -4.701364493660893E-013
  1.300000000000000E-002   -2.544203860812052E-013
  1.310000000000000E-002    9.558230127071219E-015
  1.320000000000000E-002    3.125409671442863E-013
  1.330000000000000E-002    6.415092231984993E-013
  1.340000000000000E-002    9.799691337295878E-013
  1.350000000000000E-002    1.308494698003539E-012
  1.360000000000000E-002    1.605527457574656E-012
  1.370000000000000E-002    1.848419382518401E-012
  1.380000000000000E-002    2.014681578162028E-012
  1.390000000000000E-002    2.083391079855795E-012
  1.400000000000000E-002    2.036685348670629E-012
  1.410000000000000E-002    1.861262803050739E-012
  1.420000000000000E-002    1.549797995667388E-012
  1.430000000000000E-002    1.102171551248532E-012
  1.440000000000000E-002    5.264156196819757E-013
  1.450000000000000E-002   -1.607181884617330E-013
  1.460000000000000E-002   -9.336491601633041E-013
  1.470000000000000E-002   -1.758378721120915E-012
  1.480000000000000E-002   -2.593458100630009E-012
  1.490000000000000E-002   -3.391519384855131E-012
  1.500000000000000E-002   -4.101344547638401E-012
  1.510000000000000E-002   -4.670404838969926E-012
  1.520000000000000E-002   -5.047777704091048E-012
  1.530000000000000E-002   -5.187300982723608E-012
  1.540000000000000E-002   -5.050810978661778E-012
  1.550000000000000E-002   -4.611276716517013E-012
  1.560000000000000E-002   -3.855635797742639E-012
  1.570000000000000E-002   -2.787135625706595E-012
  1.580000000000000E-002   -1.426990297439641E-012
  1.590000000000000E-002    1.848115224988402E-013
  1.600000000000000E-002    1.989680408887024E-012
  1.610000000000000E-002    3.911668634357262E-012
  1.620000000000000E-002    5.859818516792734E-012
  1.630000000000000E-002    7.731580715605625E-012
  1.640000000000000E-002    9.417220615730540E-012
  1.650000000000000E-002    1.080504906897799E-011
  1.660000000000000E-002    1.178727662373752E-011
  1.670000000000000E-002    1.226618782911883E-011
  1.680000000000000E-002    1.216037153615920E-011
  1.690000000000000E-002    1.141062910832838E-011
  1.700000000000000E-002    9.985233984719086E-012
  1.710000000000000E-002    7.884191464419092E-012
  1.720000000000000E-002    5.142202706843095E-012
  1.730000000000000E-002    1.830049628349700E-012
  1.740000000000000E-002   -1.945775760350041E-012
  1.750000000000000E-002   -6.045321021797323E-012
  1.760000000000000E-002   -1.029932842004373E-011
  1.770000000000000E-002   -1.451520358123863E-011
  1.780000000000000E-002   -1.848462345147106E-011
  1.790000000000000E-002   -2.199250743585315E-011
  1.800000000000000E-002   -2.482697311276025E-011
  1.810000000000000E-002   -2.678982134135851E-011
  1.820000000000000E-002   -2.770708408345924E-011
  1.830000000000000E-002   -2.743907853564970E-011
  1.840000000000000E-002   -2.588942668707133E-011
  1.850000000000000E-002   -2.301256990343696E-011
  1.860000000000000E-002   -1.881929412448275E-011
  1.870000000000000E-002   -1.337990457920771E-011