 -4.000000000000000E-002    0.000000000000000E+000
 -3.990000000000000E-002    0.000000000000000E+000
 -3.980000000000000E-002    0.000000000000000E+000
 -3.970000000000000E-002    0.000000000000000E+000
 -3.960000000000000E-002    2.771168759705701E-019
 -3.950000000000000E-002    2.528096849926599E-018
 -3.940000000000000E-002    1.270390587416721E-017
 -3.930000000000000E-002    4.624498343034457E-017
 -3.920000000000000E-002    1.355585932282421E-016
 -3.910000000000000E-002    3.376555334443586E-016
 -3.900000000000000E-002    7.369205806205310E-016
 -3.890000000000000E-002    1.434649593976212E-015
 -3.880000000000000E-002    2.514520795809262E-015
 -3.870000000000000E-002    3.973363794657490E-015
 -3.860000000000000E-002    5.611270846254226E-015
 -3.850000000000000E-002    6.885517834655021E-015
 -3.840000000000000E-002    6.748809974683543E-015
 -3.830000000000000E-002    3.512041665999130E-015
 -3.820000000000000E-002   -5.209087656213138E-015
 -3.810000000000000E-002   -2.239159679410551E-014
 -3.800000000000000E-002   -5.127529291583979E-014
 -3.790000000000000E-002   -9.475339375174573E-014
 -3.780000000000000E-002   -1.544734504886543E-013
 -3.770000000000000E-002   -2.297015079647213E-013
 -3.760000000000000E-002   -3.160795333648862E-013
 -3.750000000000000E-002   -4.044859471314954E-013
 -3.740000000000000E-002   -4.802722938849263E-013
 -3.730000000000000E-002   -5.231796164603072E-013
 -3.720000000000000E-002   -5.082153877035197E-013
 -3.710000000000000E-002   -4.076867091336379E-013
 -3.700000000000000E-002   -1.944367003624128E-013
 -3.690000000000000E-002    1.538721156004849E-013
 -3.680000000000000E-002    6.498125828822892E-013
 -3.670000000000000E-002    1.291191018726694E-012
 -3.660000000000000E-002    2.056762445628913E-012
 -3.650000000000000E-002    2.903502754859673E-012
 -3.640000000000000E-002    3.766222978986556E-012
 -3.630000000000000E-002    4.560093879954006E-012
 -3.620000000000000E-002    5.186305991158955E-012
 -3.610000000000000E-002    5.540624193810405E-012
 -3.600000000000000E-002    5.524100638908853E-012
 -3.590000000000000E-002    5.054737639840461E-012
 -3.580000000000000E-002    4.078544435914934E-012
 -3.570000000000000E-002    2.578301150417300E-012
 -3.560000000000000E-002    5.784602820931290E-013
 -3.550000000000000E-002   -1.854968140659787E-012
 -3.540000000000000E-002   -4.620025254914464E-012
 -3.530000000000000E-002   -7.589530619865809E-012
 -3.520000000000000E-002   -1.062562413922852E-011
 -3.510000000000000E-002   -1.359598441364867E-011
 -3.500000000000000E-002   -1.638899970670080E-011
 -3.490000000000000E-002   -1.892494503456118E-011
 -3.480000000000000E-002   -2.116052045919310E-011
 -3.470000000000000E-002   -2.308485582625191E-011
 -3.460000000000000E-002   -2.470633914084815E-011
 -3.450000000000000E-002   -2.603116947546842E-011
 -3.440000000000000E-002   -2.703614502172384E-011
 -3.430000000000000E-002   -2.763971892979464E-011
 -3.420000000000000E-002   -2.767636257231403E-011
 -3.410000000000000E-002   -2.687971807791754E-011
 -3.400000000000000E-002   -2.487955136446816E-011
 -3.390000000000000E-002   -2.121631713442088E-011
 -3.380000000000000E-002   -1.537506176909894E-011
 -3.370000000000000E-002   -6.837819369884576E-012
 -3.360000000000000E-002    4.849103514512532E-012
 -3.350000000000000E-002    1.999924014111018E-011
 -3.340000000000000E-002    3.870969051803815E-011
 -3.330000000000000E-002    6.079381626106944E-011
 -3.320000000000000E-002    8.573219182554280E-011
 -3.310000000000000E-002    1.126494884565526E-010
 -3.300000000000000E-002    1.403226371251247E-010
 -3.290000000000000E-002    1.672219965210201E-010
 -3.280000000000000E-002    1.915833703033744E-010
 -3.270000000000000E-002    2.115050108140437E-010
 -3.260000000000000E-002    2.250605361832857E-010
 -3.250000000000000E-002    2.304168644496499E-010
 -3.240000000000000E-002    2.259458078974021E-010
 -3.230000000000000E-002    2.103193938263671E-010
 -3.220000000000000E-002    1.825814862434213E-010
 -3.210000000000000E-002    1.421924690708769E-010
 -3.200000000000000E-002    8.904827221251234E-011
 -3.190000000000000E-002    2.347931683535943E-011
 -3.180000000000000E-002   -5.376188575346745E-011
 -3.170000000000000E-002   -1.415137263440991E-010
 -3.160000000000000E-002   -2.382085791534277E-010
 -3.150000000000000E-002   -3.418579002815304E-010
 -3.140000000000000E-002   -4.500162292249558E-010
 -3.130000000000000E-002   -5.597265331120196E-010
 -3.120000000000000E-002   -6.674565058802328E-010
 -3.110000000000000E-002   -7.690414561859732E-010
 -3.100000000000000E-002   -8.596549162226590E-010
 -3.090000000000000E-002   -9.338299079806905E-010
 -3.080000000000000E-002   -9.855537579390458E-010
 -3.070000000000000E-002   -1.008454811894878E-009
 -3.060000000000000E-002   -9.960912179907180E-010
 -3.050000000000000E-002   -9.423411852085695E-010
 -3.040000000000000E-002   -8.418823096116783E-010
 -3.030000000000000E-002   -6.907319178219490E-010
 -3.020000000000000E-002   -4.868093942566877E-010
 -3.010000000000000E-002   -2.304719556231039E-010
 -3.000000000000000E-002    7.503226526111889E-011
 -2.990000000000000E-002    4.232497112681319E-010
 -2.980000000000000E-002    8.043964449780265E-010
 -2.970000000000000E-002    1.205463041628495E-009
 -2.960000000000000E-002    1.610574600427623E-009
 -2.950000000000000E-002    2.001609231874794E-009
 -2.940000000000000E-002    2.359058030556929E-009
 -2.930000000000000E-002    2.663084738453985E-009
 -2.920000000000000E-002    2.894723344167557E-009
 -2.910000000000000E-002    3.037132464999691E-009
 -2.900000000000000E-002    3.076814566924483E-009
 -2.890000000000000E-002    3.004701619858412E-009
 -2.880000000000000E-002    2.817012550524344E-009
 -2.870000000000000E-002    2.515794867187724E-009
 -2.860000000000000E-002    2.109089064835243E-009
 -2.850000000000000E-002    1.610670489942829E-009
 -2.840000000000000E-002    1.039362917834933E-009
 -2.830000000000000E-002    4.179496191004812E-010
 -2.820000000000000E-002   -2.282616318187784E-010
 -2.810000000000000E-002   -8.731202835615915E-010
 -2.800000000000000E-002   -1.491441335953836E-009
 -2.790000000000000E-002   -2.060797550669841E-009
 -2.780000000000000E-002   -2.563141298088052E-009
 -2.770000000000000E-002   -2.986106191722249E-009
 -2.760000000000000E-002   -3.323853081271359E-009
 -2.750000000000000E-002   -3.577353410713267E-009
 -2.740000000000000E-002   -3.754048196513869E-009
 -2.730000000000000E-002   -3.866869342107303E-009
 -2.720000000000000E-002   -3.932667376385474E-009
 -2.710000000000000E-002   -3.970154921784480E-009
 -2.700000000000000E-002   -3.997522966190130E-009
 -2.690000000000000E-002   -4.029938855337762E-009
 -2.680000000000000E-002   -4.077164689501498E-009
 -2.670000000000000E-002   -4.141537301340471E-009
 -2.660000000000000E-002   -4.216549624514302E-009
 -2.650000000000000E-002   -4.286225582913098E-009
 -2.640000000000000E-002   -4.325426600302663E-009
 -2.630000000000000E-002   -4.301140836789970E-009
 -2.620000000000000E-002   -4.174719552242553E-009
 -2.610000000000000E-002   -3.904926166936506E-009
 -2.600000000000000E-002   -3.451570455194144E-009
 -2.590000000000000E-002   -2.779423903391863E-009
 -2.580000000000000E-002   -1.862064121594025E-009
 -2.570000000000000E-002   -6.852703862537258E-010
 -2.560000000000000E-002    7.503819995176119E-010
 -2.550000000000000E-002    2.428030529408422E-009
 -2.540000000000000E-002    4.314349990503591E-009
 -2.530000000000000E-002    6.360780995258073E-009
 -2.520000000000000E-002    8.506121167280552E-009
 -2.510000000000000E-002    1.068029715205571E-008
 -2.500000000000000E-002    1.280899952701858E-008
 -2.490000000000000E-002    1.481877057764103E-008
 -2.480000000000000E-002    1.664205168571454E-008
 -2.470000000000000E-002    1.822168451463179E-008
 -2.460000000000000E-002    1.951439069380137E-008
 -2.450000000000000E-002    2.049282640605607E-008
 -2.440000000000000E-002    2.114594225923470E-008
 -2.430000000000000E-002    2.147752300791471E-008
 -2.420000000000000E-002    2.150299198552667E-008
 -2.410000000000000E-002    2.124470455364342E-008
 -2.400000000000000E-002    2.072617909342716E-008
 -2.390000000000000E-002    1.996579492356532E-008
 -2.380000000000000E-002    1.897064400714744E-008
 -2.370000000000000E-002    1.773118666696958E-008
 -2.360000000000000E-002    1.621743673526687E-008
 -2.350000000000000E-002    1.437722860728116E-008
 -2.340000000000000E-002    1.213704250132185E-008
 -2.330000000000000E-002    9.405683628129552E-009
 -2.320000000000000E-002    6.080884236756284E-009
 -2.310000000000000E-002    2.058698571691178E-009
 -2.300000000000000E-002   -2.754681094988265E-009
 -2.290000000000000E-002   -8.429189360846334E-009
 -2.280000000000000E-002   -1.499596994422634E-008
 -2.270000000000000E-002   -2.243210473854366E-008
 -2.260000000000000E-002   -3.064582061812748E-008
 -2.250000000000000E-002   -3.946311546356371E-008
 -2.240000000000000E-002   -4.861657615785904E-008
 -2.230000000000000E-002   -5.773718441408551E-008
 -2.220000000000000E-002   -6.634962701180161E-008
 -2.210000000000000E-002   -7.387152418367287E-008
 -2.200000000000000E-002   -7.961678737792772E-008
 -2.190000000000000E-002   -8.280292678354719E-008
 -2.180000000000000E-002   -8.256220279187333E-008
 -2.170000000000000E-002   -7.795596580850097E-008
 -2.160000000000000E-002   -6.799146731236879E-008
 -2.150000000000000E-002   -5.164035732290036E-008
 -2.140000000000000E-002   -2.785788655142030E-008
 -2.130000000000000E-002    4.398440377347018E-009
 -2.120000000000000E-002    4.615151688953063E-008
 -2.110000000000000E-002    9.838971476979149E-008
 -2.100000000000000E-002    1.620551078950097E-007
 -2.090000000000000E-002    2.380355170193594E-007
 -2.080000000000000E-002    3.271605014438875E-007
 -2.070000000000000E-002    4.302014951023485E-007
 -2.060000000000000E-002    5.478756227419793E-007
 -2.050000000000000E-002    6.808523407812855E-007
 -2.040000000000000E-002    8.297624213389377E-007
 -2.030000000000000E-002    9.952079237058417E-007
 -2.020000000000000E-002    1.177771347898908E-006
 -2.010000000000000E-002    1.378023652857175E-006
 -2.000000000000000E-002    1.596529510105111E-006
 -1.990000000000000E-002    1.833848304888217E-006
 -1.980000000000000E-002    2.090531646689896E-006
 -1.970000000000000E-002    2.367115872282907E-006
 -1.960000000000000E-002    2.664111196530783E-006
 -1.950000000000000E-002    2.981986576134970E-006
 -1.940000000000000E-002    3.321155311607424E-006
 -1.930000000000000E-002    3.681958129951918E-006
 -1.920000000000000E-002    4.064650461294892E-006
 -1.910000000000000E-002    4.469393314158908E-006
 -1.900000000000000E-002    4.896251271425316E-006
 -1.890000000000000E-002    5.345198933898083E-006
 -1.880000000000000E-002    5.816137355350322E-006
 -1.870000000000000E-002    6.308920124025019E-006
 -1.860000000000000E-002    6.823391681222408E-006
 -1.850000000000000E-002    7.359434475681745E-006
 -1.840000000000000E-002    7.917023621082286E-006
 -1.830000000000000E-002    8.496287603251335E-006
 -1.820000000000000E-002    9.097569144948309E-006
 -1.810000000000000E-002    9.721487326765807E-006
 -1.800000000000000E-002    1.036899156906466E-005
 -1.790000000000000E-002    1.104140461613861E-005
 -1.780000000000000E-002    1.174045763772974E-005
 -1.770000000000000E-002    1.246830195163149E-005
 -1.760000000000000E-002    1.322751096698042E-005
 -1.750000000000000E-002    1.402105653754222E-005
 -1.740000000000000E-002    1.485227076331572E-005
 -1.730000000000000E-002    1.572479347071471E-005
 -1.720000000000000E-002    1.664250455525398E-005
 -1.710000000000000E-002    1.760945019892460E-005
 -1.700000000000000E-002    1.862976586809114E-005
 -1.690000000000000E-002    1.970760362046571E-005
 -1.680000000000000E-002    2.084706415222783E-005
 -1.670000000000000E-002    2.205214890866832E-005
 -1.660000000000000E-002    2.332673200940024E-005
 -1.650000000000000E-002    2.467455032964865E-005
 -1.640000000000000E-002    2.609921918137919E-005
 -1.630000000000000E-002    2.760427104710694E-005
 -1.620000000000000E-002    2.919322226421005E-005
 -1.610000000000000E-002    3.086965020512651E-005
 -1.600000000000000E-002    3.263728601162313E-005
 -1.590000000000000E-002    3.450011607270325E-005
 -1.580000000000000E-002    3.646246931541759E-005
 -1.570000000000000E-002    3.852911705518783E-005
 -1.560000000000000E-002    4.070532449235155E-005
 -1.550000000000000E-002    4.299691080182348E-005
 -1.540000000000000E-002    4.541025314155466E-005
 -1.530000000000000E-002    4.795228340889349E-005
 -1.520000000000000E-002    5.063044220827862E-005
 -1.510000000000000E-002    5.345261148319883E-005
 -1.500000000000000E-002    5.642702502727690E-005
 -1.490000000000000E-002    5.956215883918451E-005
 -1.480000000000000E-002    6.286663784941753E-005
 -1.470000000000000E-002    6.634912900641112E-005
 -1.460000000000000E-002    7.001825710678461E-005
 -1.450000000000000E-002    7.388254600783088E-005
 -1.440000000000000E-002    7.795040427802777E-005
 -1.430000000000000E-002    8.223012800229468E-005
 -1.420000000000000E-002    8.672995726155880E-005
 -1.410000000000000E-002    9.145816212556733E-005
 -1.400000000000000E-002    9.642317339390486E-005
 -1.390000000000000E-002    1.016337191291514E-004
 -1.380000000000000E-002    1.070989919871221E-004
 -1.370000000000000E-002    1.128288244711383E-004
 -1.360000000000000E-002    1.188338165414192E-004
 -1.350000000000000E-002    1.251255039215100E-004
 -1.340000000000000E-002    1.317164260777897E-004
 -1.330000000000000E-002    1.386201914188919E-004
 -1.320000000000000E-002    1.458515062962909E-004
 -1.310000000000000E-002    1.534261193070429E-004
 -1.300000000000000E-002    1.613607748365928E-004
 -1.290000000000000E-002    1.696730540204460E-004
 -1.280000000000000E-002    1.783812620629492E-004
 -1.270000000000000E-002    1.875042606059293E-004
 -1.260000000000000E-002    1.970612909040879E-004
 -1.250000000000000E-002    2.070718345516938E-004
 -1.240000000000000E-002    2.175554983788522E-004
 -1.230000000000000E-002    2.285318855064074E-004
 -1.220000000000000E-002    2.400206023637588E-004
 -1.210000000000000E-002    2.520411859404157E-004
 -1.200000000000000E-002    2.646132306577631E-004
 -1.190000000000000E-002    2.777564574502765E-004
 -1.180000000000000E-002    2.914908095418015E-004
 -1.170000000000000E-002    3.058367131412919E-004
 -1.160000000000000E-002    3.208152057190172E-004
 -1.150000000000000E-002    3.364481842005062E-004
 -1.140000000000000E-002    3.527585048274321E-004
 -1.130000000000000E-002    3.697702910503417E-004
 -1.120000000000000E-002    3.875089231044945E-004
 -1.110000000000000E-002    4.060012962663764E-004
 -1.100000000000000E-002    4.252757038427951E-004
 -1.090000000000000E-002    4.453619810798903E-004
 -1.080000000000000E-002    4.662913635139547E-004
 -1.070000000000000E-002    4.880964832964747E-004
 -1.060000000000000E-002    5.108111429931396E-004
 -1.050000000000000E-002    5.344702430749233E-004
 -1.040000000000000E-002    5.591095429522770E-004
 -1.030000000000000E-002    5.847656171202512E-004
 -1.020000000000000E-002    6.114755237954221E-004
 -1.010000000000000E-002    6.392767644051530E-004
 -1.000000000000000E-002    6.682072335228209E-004
 -9.899999999999999E-003    6.983050259758620E-004
 -9.800000000000000E-003    7.296084047541386E-004
 -9.699999999999999E-003    7.621558233521467E-004
 -9.599999999999999E-003    7.959861289250794E-004
 -9.500000000000000E-003    8.311383693155753E-004
 -9.399999999999999E-003    8.676520707693415E-004
 -9.299999999999999E-003    9.055672607026828E-004
 -9.200000000000000E-003    9.449246675091775E-004
 -9.099999999999999E-003    9.857658285002734E-004
 -8.999999999999999E-003    1.028133139786961E-003
 -8.900000000000000E-003    1.072069935737435E-003
 -8.799999999999999E-003    1.117620515782332E-003
 -8.699999999999999E-003    1.164830336812211E-003
 -8.600000000000000E-003    1.213745752791122E-003
 -8.499999999999999E-003    1.264414093064543E-003
 -8.399999999999999E-003    1.316883469257795E-003
 -8.300000000000000E-003    1.371202714105997E-003
 -8.199999999999999E-003    1.427421296088594E-003
 -8.100000000000000E-003    1.485588889916643E-003
 -8.000000000000000E-003    1.545755693995407E-003
 -7.899999999999999E-003    1.607971767597006E-003
 -7.800000000000000E-003    1.672287176135636E-003
 -7.699999999999999E-003    1.738751703440180E-003
 -7.599999999999999E-003    1.807414874390715E-003
 -7.499999999999999E-003    1.878325689663056E-003
 -7.399999999999999E-003    1.951532743996708E-003
 -7.299999999999999E-003    2.027084248305133E-003
 -7.199999999999999E-003    2.105027484022453E-003
 -7.100000000000000E-003    2.185409448251728E-003
 -6.999999999999999E-003    2.268276496215321E-003
 -6.899999999999999E-003    2.353674379630889E-003
 -6.800000000000000E-003    2.441647896022760E-003
 -6.699999999999999E-003    2.532241697685242E-003
 -6.599999999999999E-003    2.625499603357284E-003
 -6.499999999999999E-003    2.721464344121145E-003
 -6.399999999999999E-003    2.820177711251592E-003
 -6.299999999999999E-003    2.921680598681478E-003
 -6.199999999999999E-003    3.026012738934594E-003
 -6.100000000000000E-003    3.133212210363602E-003
 -5.999999999999999E-003    3.243315217861372E-003
 -5.899999999999999E-003    3.356356650019377E-003
 -5.800000000000000E-003    3.472368823101963E-003
 -5.699999999999999E-003    3.591381605117451E-003
 -5.599999999999999E-003    3.713422152725823E-003
 -5.499999999999999E-003    3.838515225203254E-003
 -5.399999999999999E-003    3.966681415010245E-003
 -5.299999999999999E-003    4.097938821122011E-003
 -5.199999999999999E-003    4.232301679145018E-003
 -5.099999999999999E-003    4.369779974285637E-003
 -4.999999999999999E-003    4.510380226063810E-003
 -4.899999999999999E-003    4.654104819592163E-003
 -4.799999999999999E-003    4.800951316136611E-003
 -4.699999999999999E-003    4.950912569376823E-003
 -4.599999999999999E-003    5.103977018639530E-003
 -4.499999999999999E-003    5.260127799586890E-003
 -4.399999999999999E-003    5.419342990894997E-003
 -4.299999999999999E-003    5.581594866720855E-003
 -4.199999999999999E-003    5.746849804909418E-003
 -4.099999999999999E-003    5.915067678709058E-003
 -3.999999999999999E-003    6.086202271566122E-003
 -3.899999999999999E-003    6.260199378106355E-003
 -3.799999999999999E-003    6.436997727016731E-003
 -3.699999999999999E-003    6.616528249172629E-003
 -3.599999999999999E-003    6.798713622936641E-003
 -3.499999999999999E-003    6.983467500782213E-003
 -3.399999999999999E-003    7.170694634942186E-003
 -3.299999999999999E-003    7.360290557892801E-003
 -3.199999999999999E-003    7.552140429566117E-003
 -3.099999999999999E-003    7.746120352358029E-003
 -2.999999999999999E-003    7.942095408291315E-003
 -2.899999999999999E-003    8.139920353795882E-003
 -2.799999999999999E-003    8.339438635141801E-003
 -2.699999999999999E-003    8.540482334869351E-003
 -2.599999999999999E-003    8.742872622327674E-003
 -2.499999999999999E-003    8.946419273696648E-003
 -2.399999999999999E-003    9.150918857009412E-003
 -2.299999999999999E-003    9.356154959284709E-003
 -2.199999999999999E-003    9.561898652664822E-003
 -2.099999999999999E-003    9.767906466041653E-003
 -1.999999999999999E-003    9.973920527416412E-003
 -1.899999999999999E-003    1.017966799156822E-002
 -1.799999999999999E-003    1.038486039294017E-002
 -1.699999999999999E-003    1.058919259746219E-002
 -1.599999999999999E-003    1.079234283260266E-002
 -1.499999999999999E-003    1.099397071767690E-002
 -1.399999999999999E-003    1.119371909341890E-002
 -1.299999999999999E-003    1.139121170427366E-002
 -1.199999999999999E-003    1.158605316301610E-002
 -1.099999999999999E-003    1.177782929900042E-002
 -9.999999999999989E-004    1.196610594773823E-002
 -8.999999999999990E-004    1.215042911808259E-002
 -7.999999999999990E-004    1.233032435225976E-002
 -6.999999999999989E-004    1.250529843632252E-002
 -5.999999999999990E-004    1.267483688293762E-002
 -4.999999999999989E-004    1.283840506047483E-002
 -3.999999999999989E-004    1.299544665882344E-002
 -2.999999999999989E-004    1.314538407875100E-002
 -1.999999999999989E-004    1.328761933113619E-002
 -9.999999999999892E-005    1.342153191927776E-002
  1.084202172485504E-018    1.354647936256258E-002
  1.000000000000011E-004    1.366179564292090E-002
  2.000000000000011E-004    1.376679200008560E-002
  3.000000000000011E-004    1.386075545270850E-002
  4.000000000000011E-004    1.394294949878467E-002
  5.000000000000011E-004    1.401260957460725E-002
  6.000000000000011E-004    1.406895072711315E-002
  7.000000000000011E-004    1.411115732231639E-002
  8.000000000000011E-004    1.413839055101984E-002
  9.000000000000012E-004    1.414978535503998E-002
  1.000000000000001E-003    1.414444686431519E-002
  1.100000000000001E-003    1.412145673570961E-002
  1.200000000000001E-003    1.407986620936652E-002
  1.300000000000001E-003    1.401870191741983E-002
  1.400000000000001E-003    1.393696215728650E-002
  1.500000000000001E-003    1.383361937960336E-002
  1.600000000000001E-003    1.370761803452626E-002
  1.700000000000001E-003    1.355787774016747E-002
  1.800000000000001E-003    1.338329075470583E-002
  1.900000000000001E-003    1.318272322111313E-002
  2.000000000000001E-003    1.295501666636243E-002
  2.100000000000001E-003    1.269898523688153E-002
  2.200000000000001E-003    1.241341846188286E-002
  2.300000000000001E-003    1.209708055953091E-002
  2.400000000000001E-003    1.174871304845860E-002
  2.500000000000001E-003    1.136703057861721E-002
  2.600000000000001E-003    1.095072648783790E-002
  2.700000000000001E-003    1.049846569827902E-002
  2.800000000000001E-003    1.000889330960414E-002
  2.900000000000001E-003    9.480628598440800E-003
  3.000000000000001E-003    8.912268703791153E-003
  3.100000000000001E-003    8.302388305538831E-003
  3.200000000000001E-003    7.649537731148535E-003
  3.300000000000001E-003    6.952248090312614E-003
  3.400000000000001E-003    6.209026789185921E-003
  3.500000000000001E-003    5.418362244510185E-003
  3.600000000000001E-003    4.578724364572719E-003
  3.700000000000001E-003    3.688562142744335E-003
  3.800000000000001E-003    2.746309164093064E-003
  3.900000000000001E-003    1.750382528821156E-003
  4.000000000000001E-003    6.991829392142908E-004
  4.100000000000001E-003   -4.089005661507161E-004
  4.200000000000001E-003   -1.575492332269925E-003
  4.300000000000001E-003   -2.802227687589720E-003
  4.400000000000001E-003   -4.090751396131746E-003
  4.500000000000001E-003   -5.442717963482665E-003
  4.600000000000002E-003   -6.859786455006805E-003
  4.700000000000001E-003   -8.343622948300053E-003
  4.800000000000001E-003   -9.895897999275920E-003
  4.900000000000002E-003   -1.151828258305148E-002
  5.000000000000001E-003   -1.321245200605343E-002
  5.100000000000001E-003   -1.498007790524837E-002
  5.200000000000001E-003   -1.682283326266059E-002
  5.300000000000002E-003   -1.874238495526360E-002
  5.400000000000001E-003   -2.074039343680047E-002
  5.500000000000001E-003   -2.281851318645859E-002
  5.600000000000002E-003   -2.497838937724423E-002
  5.700000000000001E-003   -2.722165476119818E-002
  5.800000000000001E-003   -2.954992857922687E-002
  5.900000000000002E-003   -3.196481360605574E-002
  6.000000000000001E-003   -3.446789466747133E-002
  6.100000000000001E-003   -3.706073479719303E-002
  6.200000000000002E-003   -3.974487564907819E-002
  6.300000000000002E-003   -4.252183127211766E-002
  6.400000000000001E-003   -4.539309096259019E-002
  6.500000000000001E-003   -4.836010973298051E-002
  6.600000000000002E-003   -5.142431378937677E-002
  6.700000000000001E-003   -5.458708904958098E-002
  6.800000000000001E-003   -5.784979036587701E-002
  6.900000000000002E-003   -6.121373174095743E-002
  7.000000000000001E-003   -6.468018047251627E-002
  7.100000000000001E-003   -6.825036246549861E-002
  7.200000000000002E-003   -7.192545685546285E-002
  7.300000000000002E-003   -7.570659083068104E-002
  7.400000000000001E-003   -7.959483454765233E-002
  7.500000000000001E-003   -8.359120995930600E-002
  7.600000000000002E-003   -8.769668170475910E-002
  7.700000000000001E-003   -9.191213756307970E-002
  7.800000000000001E-003   -9.623841661734221E-002
  7.900000000000001E-003   -0.100676285051125     
  8.000000000000002E-003   -0.105226434633301     
  8.100000000000001E-003   -0.109889488381451     
  8.200000000000001E-003   -0.114665991863171     
  8.300000000000002E-003   -0.119556404505370     
  8.400000000000001E-003   -0.124561114028190     
  8.500000000000002E-003   -0.129680413820735     
  8.600000000000002E-003   -0.134914514648526     
  8.700000000000001E-003   -0.140263536105737     
  8.800000000000002E-003   -0.145727502612663     
  8.900000000000002E-003   -0.151306347746556     
  9.000000000000001E-003   -0.156999905490921     
  9.100000000000002E-003   -0.162807905860509     
  9.200000000000002E-003   -0.168729976247188     
  9.300000000000001E-003   -0.174765642064482     
  9.400000000000002E-003   -0.180914321507456     
  9.500000000000001E-003   -0.187175306340853     
  9.600000000000001E-003   -0.193547805294654     
  9.700000000000002E-003   -0.200030898216140     
  9.800000000000001E-003   -0.206623540342134     
  9.900000000000001E-003   -0.213324571674424     
  1.000000000000000E-002   -0.220132703887218     
  1.010000000000000E-002   -0.227046535839765     
  1.020000000000000E-002   -0.234064516326593     
  1.030000000000000E-002   -0.241184993317764     
  1.040000000000000E-002   -0.248406166310430     
  1.050000000000000E-002   -0.255726113843616     
  1.060000000000000E-002   -0.263142754546862     
  1.070000000000000E-002   -0.270653898186050     
  1.080000000000000E-002   -0.278257224469557     
  1.090000000000000E-002   -0.285950217424777     
  1.100000000000000E-002   -0.293730316240779     
  1.110000000000000E-002   -0.301594742177756     
  1.120000000000000E-002   -0.309540597206894     
  1.130000000000000E-002   -0.317564874945415     
  1.140000000000000E-002   -0.325664355225785     
  1.150000000000000E-002   -0.333835777095054     
  1.160000000000000E-002   -0.342075633269800     
  1.170000000000000E-002   -0.350380333134233     
  1.180000000000000E-002   -0.358746144268878     
  1.190000000000000E-002   -0.367169153209731     
  1.200000000000000E-002   -0.375645351334188     
  1.210000000000000E-002   -0.384170540308218     
  1.220000000000000E-002   -0.392740430874810     
  1.230000000000000E-002   -0.401350538528517     
  1.240000000000000E-002   -0.409996289155090     
  1.250000000000000E-002   -0.418672894988998     
  1.260000000000000E-002   -0.427375499427019     
  1.270000000000000E-002   -0.436099108463472     
  1.280000000000000E-002   -0.444838549581338     
  1.290000000000000E-002   -0.453588526888828     
  1.300000000000000E-002   -0.462343655315180     
  1.310000000000000E-002   -0.471098368796430     
  1.320000000000000E-002   -0.479847006274248     
  1.330000000000000E-002   -0.488583782395066     
  1.340000000000000E-002   -0.497302788021641     
  1.350000000000000E-002   -0.505998017752867     
  1.360000000000000E-002   -0.514663275973131     
  1.370000000000000E-002   -0.523292312567738     
  1.380000000000000E-002   -0.531878771579342     
  1.390000000000000E-002   -0.540416188203256     
  1.400000000000000E-002   -0.548897946275260     
  1.410000000000000E-002   -0.557317439342085     
  1.420000000000000E-002   -0.565667842344484     
  1.430000000000000E-002   -0.573942309559771     
  1.440000000000000E-002   -0.582133871405397     
  1.450000000000000E-002   -0.590235556217602     
  1.460000000000000E-002   -0.598240208875196     
  1.470000000000000E-002   -0.606140719681302     
  1.480000000000000E-002   -0.613929813066337     
  1.490000000000000E-002   -0.621600233902681     
  1.500000000000000E-002   -0.629144637246907     
  1.510000000000000E-002   -0.636555569342732     
  1.520000000000000E-002   -0.643825634809516     
  1.530000000000000E-002   -0.650947372794330     
  1.540000000000000E-002   -0.657913273620384     
  1.550000000000000E-002   -0.664715826847272     
  1.560000000000000E-002   -0.671347455735437     
  1.570000000000000E-002   -0.677800652214699     
  1.580000000000000E-002   -0.684067820870308     
  1.590000000000000E-002   -0.690141424090238     
  1.600000000000000E-002   -0.696013907077456     
  1.610000000000000E-002   -0.701677729071799     
  1.620000000000000E-002   -0.707125389184342     
  1.630000000000000E-002   -0.712349400720712     
  1.640000000000000E-002   -0.717342309740347     
  1.650000000000000E-002   -0.722096747245018     
  1.660000000000000E-002   -0.726605355407159     
  1.670000000000000E-002   -0.730860846199347     
  1.680000000000000E-002   -0.734855960288369     
  1.690000000000000E-002   -0.738583542417936     
  1.700000000000000E-002   -0.742036598224801     
  1.710000000000000E-002   -0.745208084972464     
  1.720000000000000E-002   -0.748091150060943     
  1.730000000000000E-002   -0.750679052443373     
  1.740000000000000E-002   -0.752965094710758     
  1.750000000000000E-002   -0.754942717763903     
  1.760000000000000E-002   -0.756605499385060     
  1.770000000000000E-002   -0.757947177060545     
  1.780000000000000E-002   -0.758961553187523     
  1.790000000000000E-002   -0.759642663029802     
  1.800000000000000E-002   -0.759984695047312     
  1.810000000000000E-002   -0.759981957549393     
  1.820000000000000E-002   -0.759628968149978     
  1.830000000000000E-002   -0.758920428596449     
  1.840000000000000E-002   -0.757851211148561     
  1.850000000000000E-002   -0.756416342905532     
  1.860000000000000E-002   -0.754611117536183     
  1.870000000000000E-002   -0.752431017147415     