 -4.000000000000000E-002    0.000000000000000E+000
 -3.990000000000000E-002    0.000000000000000E+000
 -3.980000000000000E-002    0.000000000000000E+000
 -3.970000000000000E-002    0.000000000000000E+000
 -3.960000000000000E-002    0.000000000000000E+000
 -3.950000000000000E-002    0.000000000000000E+000
 -3.940000000000000E-002    0.000000000000000E+000
 -3.930000000000000E-002    0.000000000000000E+000
 -3.920000000000000E-002    0.000000000000000E+000
 -3.910000000000000E-002    0.000000000000000E+000
 -3.900000000000000E-002    0.000000000000000E+000
 -3.890000000000000E-002    0.000000000000000E+000
 -3.880000000000000E-002    0.000000000000000E+000
 -3.870000000000000E-002    0.000000000000000E+000
 -3.860000000000000E-002    0.000000000000000E+000
 -3.850000000000000E-002    0.000000000000000E+000
 -3.840000000000000E-002    0.000000000000000E+000
 -3.830000000000000E-002    0.000000000000000E+000
 -3.820000000000000E-002    0.000000000000000E+000
 -3.810000000000000E-002    0.000000000000000E+000
 -3.800000000000000E-002    0.000000000000000E+000
 -3.790000000000000E-002    0.000000000000000E+000
 -3.780000000000000E-002    0.000000000000000E+000
 -3.770000000000000E-002    0.000000000000000E+000
 -3.760000000000000E-002    0.000000000000000E+000
 -3.750000000000000E-002    0.000000000000000E+000
 -3.740000000000000E-002    0.000000000000000E+000
 -3.730000000000000E-002    0.000000000000000E+000
 -3.720000000000000E-002    0.000000000000000E+000
 -3.710000000000000E-002    0.000000000000000E+000
 -3.700000000000000E-002    0.000000000000000E+000
 -3.690000000000000E-002    0.000000000000000E+000
 -3.680000000000000E-002    0.000000000000000E+000
 -3.670000000000000E-002    0.000000000000000E+000
 -3.660000000000000E-002    0.000000000000000E+000
 -3.650000000000000E-002    0.000000000000000E+000
 -3.640000000000000E-002    0.000000000000000E+000
 -3.630000000000000E-002    0.000000000000000E+000
 -3.620000000000000E-002    0.000000000000000E+000
 -3.610000000000000E-002    0.000000000000000E+000
 -3.600000000000000E-002    0.000000000000000E+000
 -3.590000000000000E-002    0.000000000000000E+000
 -3.580000000000000E-002    0.000000000000000E+000
 -3.570000000000000E-002    0.000000000000000E+000
 -3.560000000000000E-002    0.000000000000000E+000
 -3.550000000000000E-002    0.000000000000000E+000
 -3.540000000000000E-002    0.000000000000000E+000
 -3.530000000000000E-002    0.000000000000000E+000
 -3.520000000000000E-002    0.000000000000000E+000
 -3.510000000000000E-002    0.000000000000000E+000
 -3.500000000000000E-002    0.000000000000000E+000
 -3.490000000000000E-002    0.000000000000000E+000
 -3.480000000000000E-002    0.000000000000000E+000
 -3.470000000000000E-002    0.000000000000000E+000
 -3.460000000000000E-002    0.000000000000000E+000
 -3.450000000000000E-002    0.000000000000000E+000
 -3.440000000000000E-002    0.000000000000000E+000
 -3.430000000000000E-002    0.000000000000000E+000
 -3.420000000000000E-002    0.000000000000000E+000
 -3.410000000000000E-002    0.000000000000000E+000
 -3.400000000000000E-002    0.000000000000000E+000
 -3.390000000000000E-002    0.000000000000000E+000
 -3.380000000000000E-002    0.000000000000000E+000
 -3.370000000000000E-002    0.000000000000000E+000
 -3.360000000000000E-002    0.000000000000000E+000
 -3.350000000000000E-002    0.000000000000000E+000
 -3.340000000000000E-002    0.000000000000000E+000
 -3.330000000000000E-002    0.000000000000000E+000
 -3.320000000000000E-002    0.000000000000000E+000
 -3.310000000000000E-002    0.000000000000000E+000
 -3.300000000000000E-002    0.000000000000000E+000
 -3.290000000000000E-002    0.000000000000000E+000
 -3.280000000000000E-002    0.000000000000000E+000
 -3.270000000000000E-002    0.000000000000000E+000
 -3.260000000000000E-002    0.000000000000000E+000
 -3.250000000000000E-002    0.000000000000000E+000
 -3.240000000000000E-002    0.000000000000000E+000
 -3.230000000000000E-002    0.000000000000000E+000
 -3.220000000000000E-002    0.000000000000000E+000
 -3.210000000000000E-002    0.000000000000000E+000
 -3.200000000000000E-002    0.000000000000000E+000
 -3.190000000000000E-002    0.000000000000000E+000
 -3.180000000000000E-002    0.000000000000000E+000
 -3.170000000000000E-002    0.000000000000000E+000
 -3.160000000000000E-002    0.000000000000000E+000
 -3.150000000000000E-002    0.000000000000000E+000
 -3.140000000000000E-002    0.000000000000000E+000
 -3.130000000000000E-002    0.000000000000000E+000
 -3.120000000000000E-002    0.000000000000000E+000
 -3.110000000000000E-002    0.000000000000000E+000
 -3.100000000000000E-002    0.000000000000000E+000
 -3.090000000000000E-002    0.000000000000000E+000
 -3.080000000000000E-002    0.000000000000000E+000
 -3.070000000000000E-002    0.000000000000000E+000
 -3.060000000000000E-002    0.000000000000000E+000
 -3.050000000000000E-002    0.000000000000000E+000
 -3.040000000000000E-002    0.000000000000000E+000
 -3.030000000000000E-002    0.000000000000000E+000
 -3.020000000000000E-002    0.000000000000000E+000
 -3.010000000000000E-002    0.000000000000000E+000
 -3.000000000000000E-002    0.000000000000000E+000
 -2.990000000000000E-002    0.000000000000000E+000
 -2.980000000000000E-002    0.000000000000000E+000
 -2.970000000000000E-002    0.000000000000000E+000
 -2.960000000000000E-002    0.000000000000000E+000
 -2.950000000000000E-002    0.000000000000000E+000
 -2.940000000000000E-002    0.000000000000000E+000
 -2.930000000000000E-002    0.000000000000000E+000
 -2.920000000000000E-002    0.000000000000000E+000
 -2.910000000000000E-002    0.000000000000000E+000
 -2.900000000000000E-002    0.000000000000000E+000
 -2.890000000000000E-002    0.000000000000000E+000
 -2.880000000000000E-002    0.000000000000000E+000
 -2.870000000000000E-002    0.000000000000000E+000
 -2.860000000000000E-002    0.000000000000000E+000
 -2.850000000000000E-002    0.000000000000000E+000
 -2.840000000000000E-002    0.000000000000000E+000
 -2.830000000000000E-002    0.000000000000000E+000
 -2.820000000000000E-002    0.000000000000000E+000
 -2.810000000000000E-002    0.000000000000000E+000
 -2.800000000000000E-002    0.000000000000000E+000
 -2.790000000000000E-002    0.000000000000000E+000
 -2.780000000000000E-002    0.000000000000000E+000
 -2.770000000000000E-002    0.000000000000000E+000
 -2.760000000000000E-002    0.000000000000000E+000
 -2.750000000000000E-002    0.000000000000000E+000
 -2.740000000000000E-002    0.000000000000000E+000
 -2.730000000000000E-002    0.000000000000000E+000
 -2.720000000000000E-002    0.000000000000000E+000
 -2.710000000000000E-002    0.000000000000000E+000
 -2.700000000000000E-002    0.000000000000000E+000
 -2.690000000000000E-002    0.000000000000000E+000
 -2.680000000000000E-002    0.000000000000000E+000
 -2.670000000000000E-002    0.000000000000000E+000
 -2.660000000000000E-002    0.000000000000000E+000
 -2.650000000000000E-002    0.000000000000000E+000
 -2.640000000000000E-002    0.000000000000000E+000
 -2.630000000000000E-002    0.000000000000000E+000
 -2.620000000000000E-002    0.000000000000000E+000
 -2.610000000000000E-002    0.000000000000000E+000
 -2.600000000000000E-002    0.000000000000000E+000
 -2.590000000000000E-002    0.000000000000000E+000
 -2.580000000000000E-002    0.000000000000000E+000
 -2.570000000000000E-002    0.000000000000000E+000
 -2.560000000000000E-002    0.000000000000000E+000
 -2.550000000000000E-002    0.000000000000000E+000
 -2.540000000000000E-002    0.000000000000000E+000
 -2.530000000000000E-002    0.000000000000000E+000
 -2.520000000000000E-002    0.000000000000000E+000
 -2.510000000000000E-002    0.000000000000000E+000
 -2.500000000000000E-002    0.000000000000000E+000
 -2.490000000000000E-002    0.000000000000000E+000
 -2.480000000000000E-002    0.000000000000000E+000
 -2.470000000000000E-002    0.000000000000000E+000
 -2.460000000000000E-002    0.000000000000000E+000
 -2.450000000000000E-002    0.000000000000000E+000
 -2.440000000000000E-002    0.000000000000000E+000
 -2.430000000000000E-002    0.000000000000000E+000
 -2.420000000000000E-002    0.000000000000000E+000
 -2.410000000000000E-002    0.000000000000000E+000
 -2.400000000000000E-002    0.000000000000000E+000
 -2.390000000000000E-002    0.000000000000000E+000
 -2.380000000000000E-002    0.000000000000000E+000
 -2.370000000000000E-002    0.000000000000000E+000
 -2.360000000000000E-002    0.000000000000000E+000
 -2.350000000000000E-002    0.000000000000000E+000
 -2.340000000000000E-002    0.000000000000000E+000
 -2.330000000000000E-002    0.000000000000000E+000
 -2.320000000000000E-002    0.000000000000000E+000
 -2.310000000000000E-002    0.000000000000000E+000
 -2.300000000000000E-002    0.000000000000000E+000
 -2.290000000000000E-002    0.000000000000000E+000
 -2.280000000000000E-002    0.000000000000000E+000
 -2.270000000000000E-002    0.000000000000000E+000
 -2.260000000000000E-002    0.000000000000000E+000
 -2.250000000000000E-002    0.000000000000000E+000
 -2.240000000000000E-002    0.000000000000000E+000
 -2.230000000000000E-002    0.000000000000000E+000
 -2.220000000000000E-002    0.000000000000000E+000
 -2.210000000000000E-002    0.000000000000000E+000
 -2.200000000000000E-002    0.000000000000000E+000
 -2.190000000000000E-002    0.000000000000000E+000
 -2.180000000000000E-002    0.000000000000000E+000
 -2.170000000000000E-002    0.000000000000000E+000
 -2.160000000000000E-002    0.000000000000000E+000
 -2.150000000000000E-002    0.000000000000000E+000
 -2.140000000000000E-002    0.000000000000000E+000
 -2.130000000000000E-002    0.000000000000000E+000
 -2.120000000000000E-002    0.000000000000000E+000
 -2.110000000000000E-002    0.000000000000000E+000
 -2.100000000000000E-002    0.000000000000000E+000
 -2.090000000000000E-002    0.000000000000000E+000
 -2.080000000000000E-002    0.000000000000000E+000
 -2.070000000000000E-002    0.000000000000000E+000
 -2.060000000000000E-002    0.000000000000000E+000
 -2.050000000000000E-002    0.000000000000000E+000
 -2.040000000000000E-002    0.000000000000000E+000
 -2.030000000000000E-002    0.000000000000000E+000
 -2.020000000000000E-002    0.000000000000000E+000
 -2.010000000000000E-002    0.000000000000000E+000
 -2.000000000000000E-002    0.000000000000000E+000
 -1.990000000000000E-002    0.000000000000000E+000
 -1.980000000000000E-002    0.000000000000000E+000
 -1.970000000000000E-002    0.000000000000000E+000
 -1.960000000000000E-002    0.000000000000000E+000
 -1.950000000000000E-002    0.000000000000000E+000
 -1.940000000000000E-002    0.000000000000000E+000
 -1.930000000000000E-002    0.000000000000000E+000
 -1.920000000000000E-002    0.000000000000000E+000
 -1.910000000000000E-002    0.000000000000000E+000
 -1.900000000000000E-002    0.000000000000000E+000
 -1.890000000000000E-002    0.000000000000000E+000
 -1.880000000000000E-002    0.000000000000000E+000
 -1.870000000000000E-002    2.995564161511391E-048
 -1.860000000000000E-002    8.986692484534174E-048
 -1.850000000000000E-002    1.797338496906835E-047
 -1.840000000000000E-002    2.995564161511391E-047
 -1.830000000000000E-002    4.193789826115948E-047
 -1.820000000000000E-002    5.061593242538208E-047
 -1.810000000000000E-002    2.398791221319785E-048
 -1.800000000000000E-002   -3.187709540927027E-048
 -1.790000000000000E-002   -2.908758250785957E-048
 -1.780000000000000E-002   -7.591644396702325E-047
 -1.770000000000000E-002   -2.406900826558624E-046
 -1.760000000000000E-002   -4.941233327814481E-046
 -1.750000000000000E-002   -8.175371604158343E-046
 -1.740000000000000E-002   -1.217962122349951E-045
 -1.730000000000000E-002   -1.519377720943428E-045
 -1.720000000000000E-002   -1.601253223146418E-045
 -1.710000000000000E-002   -1.305711511831810E-045
 -1.700000000000000E-002   -4.349067751468864E-046
 -1.690000000000000E-002    1.517294500507993E-045
 -1.680000000000000E-002    4.049087038202178E-045
 -1.670000000000000E-002    7.942332610527277E-045
 -1.660000000000000E-002    1.301977290871387E-044
 -1.650000000000000E-002    1.869748359281920E-044
 -1.640000000000000E-002    2.273962005746477E-044
 -1.630000000000000E-002    2.329735289193536E-044
 -1.620000000000000E-002    1.949926443007881E-044
 -1.610000000000000E-002    8.491991190815741E-045
 -1.600000000000000E-002   -1.248545520242742E-044
 -1.590000000000000E-002   -4.447625903755214E-044
 -1.580000000000000E-002   -8.569586630963033E-044
 -1.570000000000000E-002   -1.334794017964274E-043
 -1.560000000000000E-002   -1.794074245916761E-043
 -1.550000000000000E-002   -2.092304781254478E-043
 -1.540000000000000E-002   -2.079763603413733E-043
 -1.530000000000000E-002   -1.549203703520534E-043
 -1.520000000000000E-002   -3.062350554407231E-044
 -1.510000000000000E-002    1.781462594786610E-043
 -1.500000000000000E-002    4.727450376229963E-043
 -1.490000000000000E-002    8.340301913920107E-043
 -1.480000000000000E-002    1.217299508514068E-042
 -1.470000000000000E-002    1.544794041901524E-042
 -1.460000000000000E-002    1.705831631519874E-042
 -1.450000000000000E-002    1.568213506530717E-042
 -1.440000000000000E-002    9.900826476310300E-043
 -1.430000000000000E-002   -1.466321399581846E-043
 -1.420000000000000E-002   -1.897572458743982E-042
 -1.410000000000000E-002   -4.209093189906276E-042
 -1.400000000000000E-002   -6.869235312790364E-042
 -1.390000000000000E-002   -9.469625995930774E-042
 -1.380000000000000E-002   -1.139726906810061E-041
 -1.370000000000000E-002   -1.185987385711685E-041
 -1.360000000000000E-002   -9.970174697238387E-042
 -1.350000000000000E-002   -4.894777685805795E-042
 -1.340000000000000E-002    3.933493636817747E-042
 -1.330000000000000E-002    1.655354414061922E-041
 -1.320000000000000E-002    3.220064517532660E-041
 -1.310000000000000E-002    4.906450108206906E-041
 -1.300000000000000E-002    6.416376679888838E-041
 -1.290000000000000E-002    7.340665596529693E-041
 -1.280000000000000E-002    7.192493078450922E-041
 -1.270000000000000E-002    5.473779248795175E-041
 -1.260000000000000E-002    1.774594667858162E-041
 -1.250000000000000E-002   -4.097420158967510E-041
 -1.240000000000000E-002   -1.197472500528017E-040
 -1.230000000000000E-002   -2.119622209682984E-040
 -1.220000000000000E-002   -3.051547151620573E-040
 -1.210000000000000E-002   -3.808973299738505E-040
 -1.200000000000000E-002   -4.158617405013043E-040
 -1.190000000000000E-002   -3.843816529869882E-040
 -1.180000000000000E-002   -2.626130167432689E-040
 -1.170000000000000E-002   -3.415158010679767E-041
 -1.160000000000000E-002    3.034228297659213E-040
 -1.150000000000000E-002    7.320155605125300E-040
 -1.140000000000000E-002    1.207837180847669E-039
 -1.130000000000000E-002    1.659168172691773E-039
 -1.120000000000000E-002    1.988749051564016E-039
 -1.110000000000000E-002    2.082201416574847E-039
 -1.100000000000000E-002    1.823244037468253E-039
 -1.090000000000000E-002    1.115408467561008E-039
 -1.080000000000000E-002   -9.146158982388401E-041
 -1.070000000000000E-002   -1.773253556931282E-039
 -1.060000000000000E-002   -3.807084876298835E-039
 -1.050000000000000E-002   -5.956329974042924E-039
 -1.040000000000000E-002   -7.871694241214996E-039
 -1.030000000000000E-002   -9.114110635220122E-039
 -1.020000000000000E-002   -9.203111884977173E-039
 -1.010000000000000E-002   -7.690687912743101E-039
 -1.000000000000000E-002   -4.255739185200680E-039
 -9.899999999999999E-003    1.191542220157062E-039
 -9.800000000000000E-003    8.411600768194141E-039
 -9.699999999999999E-003    1.676444144587596E-038
 -9.599999999999999E-003    2.518812132539910E-038
 -9.500000000000000E-003    3.224746914833955E-038
 -9.399999999999999E-003    3.626718170295260E-038
 -9.299999999999999E-003    3.555204615960832E-038
 -9.200000000000000E-003    2.868131286453430E-038
 -9.099999999999999E-003    1.484607106614858E-038
 -8.999999999999999E-003   -5.819470944422290E-039
 -8.900000000000000E-003   -3.197590348013222E-038
 -8.799999999999999E-003   -6.095500839887700E-038
 -8.699999999999999E-003   -8.883842374817636E-038
 -8.600000000000000E-003   -1.107827308796478E-037
 -8.499999999999999E-003   -1.216012379696699E-037
 -8.399999999999999E-003   -1.165663949646667E-037
 -8.300000000000000E-003   -9.234443309169137E-038
 -8.199999999999999E-003   -4.792332329796821E-038
 -8.100000000000000E-003    1.464198158861774E-038
 -8.000000000000000E-003    8.985556326663033E-038
 -7.899999999999999E-003    1.689446158920859E-037
 -7.800000000000000E-003    2.406664103003363E-037
 -7.699999999999999E-003    2.927619103263089E-037
 -7.599999999999999E-003    3.139289861139425E-037
 -7.499999999999999E-003    2.960474418758865E-037
 -7.399999999999999E-003    2.362624214857006E-037
 -7.299999999999999E-003    1.384553471391770E-037
 -7.199999999999999E-003    1.363346032849039E-038
 -7.100000000000000E-003   -1.211268308825003E-037
 -6.999999999999999E-003   -2.453314021278597E-037
 -6.899999999999999E-003   -3.391460691549055E-037
 -6.800000000000000E-003   -3.883544565179038E-037
 -6.699999999999999E-003   -3.892725771576386E-037
 -6.599999999999999E-003   -3.524061320614732E-037
 -6.499999999999999E-003   -3.035223980119688E-037
 -6.399999999999999E-003   -2.809605536120755E-037
 -6.299999999999999E-003   -3.284708485624085E-037
 -6.199999999999999E-003   -4.836697812176934E-037
 -6.100000000000000E-003   -7.632523848194060E-037
 -5.999999999999999E-003   -1.147286162185920E-036
 -5.899999999999999E-003   -1.566002561502534E-036
 -5.800000000000000E-003   -1.893247024197631E-036
 -5.699999999999999E-003   -1.950859113445739E-036
 -5.599999999999999E-003   -1.527493829987260E-036
 -5.499999999999999E-003   -4.136227750500399E-037
 -5.399999999999999E-003    1.548330629679526E-036
 -5.299999999999999E-003    4.403316606629329E-036
 -5.199999999999999E-003    8.020948349857504E-036
 -5.099999999999999E-003    1.204281452949383E-035
 -4.999999999999999E-003    1.585434457689862E-035
 -4.899999999999999E-003    1.859621486873906E-035
 -4.799999999999999E-003    1.922809935177670E-035
 -4.699999999999999E-003    1.665218339727961E-035
 -4.599999999999999E-003    9.895364201363052E-036
 -4.499999999999999E-003   -1.662042363820167E-036
 -4.399999999999999E-003   -1.803576455794912E-035
 -4.299999999999999E-003   -3.840195032625006E-035
 -4.199999999999999E-003   -6.092266987011761E-035
 -4.099999999999999E-003   -8.268310500474412E-035
 -3.999999999999999E-003   -9.978829218467212E-035
 -3.899999999999999E-003   -1.076555207004036E-034
 -3.799999999999999E-003   -1.015177820830449E-034
 -3.699999999999999E-003   -7.712411374677056E-035
 -3.599999999999999E-003   -3.158751426583208E-035
 -3.499999999999999E-003    3.570638772529770E-035
 -3.399999999999999E-003    1.222508590787683E-034
 -3.299999999999999E-003    2.217757950059281E-034
 -3.199999999999999E-003    3.239676445913802E-034
 -3.099999999999999E-003    4.146977263984933E-034
 -2.999999999999999E-003    4.768712152014535E-034
 -2.899999999999999E-003    4.919529442378425E-034
 -2.799999999999999E-003    4.421467978797865E-034
 -2.699999999999999E-003    3.131115986707597E-034
 -2.599999999999999E-003    9.699501331230514E-035
 -2.499999999999999E-003   -2.045300380342613E-034
 -2.399999999999999E-003   -5.776226250519444E-034
 -2.299999999999999E-003   -9.944730354163149E-034
 -2.199999999999999E-003   -1.412801533941048E-033
 -2.099999999999999E-003   -1.777075392749997E-033
 -1.999999999999999E-003   -2.021765827282097E-033
 -1.899999999999999E-003   -2.076810518832362E-033
 -1.799999999999999E-003   -1.875233799998668E-033
 -1.699999999999999E-003   -1.362613627356379E-033
 -1.599999999999999E-003   -5.077846903812950E-034
 -1.499999999999999E-003    6.861523504042861E-034
 -1.399999999999999E-003    2.171752537701697E-033
 -1.299999999999999E-003    3.849577540641764E-033
 -1.199999999999999E-003    5.564659154465890E-033
 -1.099999999999999E-003    7.108785920379460E-033
 -9.999999999999989E-004    8.230175348378425E-033
 -8.999999999999990E-004    8.651691798151223E-033
 -7.999999999999990E-004    8.098091852609301E-033
 -6.999999999999989E-004    6.331772359693551E-033
 -5.999999999999990E-004    3.195232011785275E-033
 -4.999999999999989E-004   -1.343050514385970E-033
 -3.999999999999989E-004   -7.144210056606549E-033
 -2.999999999999989E-004   -1.386242950874404E-032
 -1.999999999999989E-004   -2.092370646525725E-032
 -9.999999999999892E-005   -2.752790094977339E-032
  1.084202172485504E-018   -3.268149090353944E-032
  1.000000000000011E-004   -3.526668987389042E-032
  2.000000000000011E-004   -3.414936669846626E-032
  3.000000000000011E-004   -2.832359997347810E-032
  4.000000000000011E-004   -1.708477319913947E-032
  5.000000000000011E-004   -2.164806673588530E-034
  6.000000000000011E-004    2.183008519165720E-032
  7.000000000000011E-004    4.779136519050599E-032
  8.000000000000011E-004    7.551182237972780E-032
  9.000000000000012E-004    1.019603149802163E-031
  1.000000000000001E-003    1.233689369007996E-031
  1.100000000000001E-003    1.355116930851504E-031
  1.200000000000001E-003    1.341258658528865E-031
  1.300000000000001E-003    1.154597408270579E-031
  1.400000000000001E-003    7.690847608046303E-032
  1.500000000000001E-003    1.767684021677200E-032
  1.600000000000001E-003   -6.061273006844320E-032
  1.700000000000001E-003   -1.534630000403879E-031
  1.800000000000001E-003   -2.532967384136240E-031
  1.900000000000001E-003   -3.495969350780373E-031
  2.000000000000001E-003   -4.294633987998099E-031
  2.100000000000001E-003   -4.786189847620457E-031
  2.200000000000001E-003   -4.828475060355850E-031
  2.300000000000001E-003   -4.297847409774370E-031
  2.400000000000001E-003   -3.109185552914985E-031
  2.500000000000001E-003   -1.235950796461383E-031
  2.600000000000001E-003    1.272202955915771E-031
  2.700000000000001E-003    4.277023149826602E-031
  2.800000000000001E-003    7.547157666799016E-031
  2.900000000000001E-003    1.076386165191502E-030
  3.000000000000001E-003    1.353842185127248E-030
  3.100000000000001E-003    1.544172075495383E-030
  3.200000000000001E-003    1.604495802408909E-030
  3.300000000000001E-003    1.496906721224330E-030
  3.400000000000001E-003    1.193885418033933E-030
  3.500000000000001E-003    6.836633090621868E-031
  3.600000000000001E-003   -2.507826348027799E-032
  3.700000000000001E-003   -8.998181451404319E-031
  3.800000000000001E-003   -1.882728148137811E-030
  3.900000000000001E-003   -2.891635811213042E-030
  4.000000000000001E-003   -3.823751422814010E-030
  4.100000000000001E-003   -4.562261748682307E-030
  4.200000000000001E-003   -4.985616362710656E-030
  4.300000000000001E-003   -4.979043061168634E-030
  4.400000000000001E-003   -4.447544860367967E-030
  4.500000000000001E-003   -3.329385442261570E-030
  4.600000000000002E-003   -1.608878360160692E-030
  4.700000000000001E-003    6.728100073230499E-031
  4.800000000000001E-003    3.410151555393452E-030
  4.900000000000002E-003    6.430266541250628E-030
  5.000000000000001E-003    9.495503227408590E-030
  5.100000000000001E-003    1.231235560065573E-029
  5.200000000000001E-003    1.454713540469324E-029
  5.300000000000002E-003    1.584838254013331E-029
  5.400000000000001E-003    1.587549536337973E-029
  5.500000000000001E-003    1.433248736609807E-029
  5.600000000000002E-003    1.100519946035956E-029
  5.700000000000001E-003    5.799621168098260E-030
  5.800000000000001E-003   -1.221622224361602E-030
  5.900000000000002E-003   -9.808203486472760E-030
  6.000000000000001E-003   -1.950047896858733E-029
  6.100000000000001E-003   -2.962169111908644E-029
  6.200000000000002E-003   -3.928832037675762E-029
  6.300000000000002E-003   -4.744250713028222E-029
  6.400000000000001E-003   -5.290952526728437E-029
  6.500000000000001E-003   -5.448170391118504E-029
  6.600000000000002E-003   -5.102793680962547E-029
  6.700000000000001E-003   -4.162507390934677E-029
  6.800000000000001E-003   -2.570406119140304E-029
  6.900000000000002E-003   -3.199977211043507E-030
  7.000000000000001E-003    2.530843301238588E-029
  7.100000000000001E-003    5.848738752101654E-029
  7.200000000000002E-003    9.418437626110654E-029
  7.300000000000002E-003    1.294323049727809E-028
  7.400000000000001E-003    1.605397796665904E-028
  7.500000000000001E-003    1.832815921130225E-028
  7.600000000000002E-003    1.931963295668084E-028
  7.700000000000001E-003    1.859881190354148E-028
  7.800000000000001E-003    1.580173022069321E-028
  7.900000000000001E-003    1.068509194608147E-028
  8.000000000000002E-003    3.182954729198305E-029
  8.100000000000001E-003   -6.540604602030907E-029
  8.200000000000001E-003   -1.804955909215248E-028
  8.300000000000002E-003   -3.061200437536612E-028
  8.400000000000001E-003   -4.320138459596968E-028
  8.500000000000002E-003   -5.452917876925880E-028
  8.600000000000002E-003   -6.311348294592902E-028
  8.700000000000001E-003   -6.738519734408823E-028
  8.800000000000002E-003   -6.582997733224701E-028
  8.900000000000002E-003   -5.715970702379161E-028
  9.000000000000001E-003   -4.050275351402245E-028
  9.100000000000002E-003   -1.559745219307415E-028
  9.200000000000002E-003    1.703064726561500E-028
  9.300000000000001E-003    5.593042088361003E-028
  9.400000000000002E-003    9.864956763031554E-028
  9.500000000000001E-003    1.417448662069383E-027
  9.600000000000001E-003    1.808978958255252E-027
  9.700000000000002E-003    2.111494449501578E-027
  9.800000000000001E-003    2.272567135832352E-027
  9.900000000000001E-003    2.241654697830785E-027
  1.000000000000000E-002    1.975755371633861E-027
  1.010000000000000E-002    1.445631759543296E-027
  1.020000000000000E-002    6.420947343315176E-028
  1.030000000000000E-002   -4.182901123097642E-028
  1.040000000000000E-002   -1.688798173802518E-027
  1.050000000000000E-002   -3.090207777679430E-027
  1.060000000000000E-002   -4.511253434000114E-027
  1.070000000000000E-002   -5.812481402986066E-027
  1.080000000000000E-002   -6.833903389023181E-027
  1.090000000000000E-002   -7.406548384551673E-027
  1.100000000000000E-002   -7.367628991552104E-027
  1.110000000000000E-002   -6.578595798185390E-027
  1.120000000000000E-002   -4.944893861268495E-027
  1.130000000000000E-002   -2.435767808186737E-027
  1.140000000000000E-002    8.979065577284943E-028
  1.150000000000000E-002    4.910056915144709E-027
  1.160000000000000E-002    9.352495817628754E-027
  1.170000000000000E-002    1.387687055216683E-026
  1.180000000000000E-002    1.804730385806905E-026
  1.190000000000000E-002    2.136483923453003E-026
  1.200000000000000E-002    2.330384622082641E-026
  1.210000000000000E-002    2.335931837490654E-026
  1.220000000000000E-002    2.110264296408670E-026
  1.230000000000000E-002    1.624201021706454E-026
  1.240000000000000E-002    8.682270311247788E-027
  1.250000000000000E-002   -1.421994151408928E-027
  1.260000000000000E-002   -1.362711516517127E-026
  1.270000000000000E-002   -2.718172431871079E-026
  1.280000000000000E-002   -4.103526413061960E-026
  1.290000000000000E-002   -5.387862188192764E-026
  1.300000000000000E-002   -6.421963814497814E-026
  1.310000000000000E-002   -7.049324592147598E-026
  1.320000000000000E-002   -7.120240291631913E-026
  1.330000000000000E-002   -6.508204965952264E-026
  1.340000000000000E-002   -5.127435081344018E-026
  1.350000000000000E-002   -2.949983564018539E-026
  1.360000000000000E-002   -2.064050660422136E-028
  1.370000000000000E-002    3.532333889237815E-026
  1.380000000000000E-002    7.492573939893243E-026
  1.390000000000000E-002    1.155877727022440E-025
  1.400000000000000E-002    1.535693763920057E-025
  1.410000000000000E-002    1.846225051469087E-025
  1.420000000000000E-002    2.043044743338705E-025
  1.430000000000000E-002    2.083734023059717E-025
  1.440000000000000E-002    1.932428098176203E-025
  1.450000000000000E-002    1.564623445870756E-025
  1.460000000000000E-002    9.718254744700560E-026
  1.470000000000000E-002    1.655479148417475E-026
  1.480000000000000E-002   -8.198491740895153E-026
  1.490000000000000E-002   -1.925984610654579E-025
  1.500000000000000E-002   -3.071376441278546E-025
  1.510000000000000E-002   -4.154768609310752E-025
  1.520000000000000E-002   -5.060998894262497E-025
  1.530000000000000E-002   -5.669320975232626E-025
  1.540000000000000E-002   -5.863843306209374E-025
  1.550000000000000E-002   -5.545481506391931E-025
  1.560000000000000E-002   -4.644562212463533E-025
  1.570000000000000E-002   -3.132995747992587E-025
  1.580000000000000E-002   -1.034785475413103E-025
  1.590000000000000E-002    1.566433519341397E-025
  1.600000000000000E-002    4.524081010661361E-025
  1.610000000000000E-002    7.630631788042594E-025
  1.620000000000000E-002    1.062570252880730E-024
  1.630000000000000E-002    1.321057072508625E-024
  1.640000000000000E-002    1.506892161733006E-024
  1.650000000000000E-002    1.589301191494852E-024
  1.660000000000000E-002    1.541376326857903E-024
  1.670000000000000E-002    1.343270340879599E-024
  1.680000000000000E-002    9.853101737852852E-025
  1.690000000000000E-002    4.707269207695786E-025
  1.700000000000000E-002   -1.823160845252411E-025
  1.710000000000000E-002   -9.397103913475015E-025
  1.720000000000000E-002   -1.751673226920943E-024
  1.730000000000000E-002   -2.554501808844781E-024
  1.740000000000000E-002   -3.273907805052665E-024
  1.750000000000000E-002   -3.829899225482469E-024
  1.760000000000000E-002   -4.143029465360915E-024
  1.770000000000000E-002   -4.141679109365594E-024
  1.780000000000000E-002   -3.769883981294266E-024
  1.790000000000000E-002   -2.995089297720708E-024
  1.800000000000000E-002   -1.815120868966002E-024
  1.810000000000000E-002   -2.636056075584184E-025
  1.820000000000000E-002    1.586901045803545E-024
  1.830000000000000E-002    3.624745224725363E-024
  1.840000000000000E-002    5.702466297839046E-024
  1.850000000000000E-002    7.643824427529532E-024
  1.860000000000000E-002    9.254549683804524E-024
  1.870000000000000E-002    1.033645911065856E-023