 -4.000000000000000E-002    0.000000000000000E+000
 -3.990000000000000E-002    0.000000000000000E+000
 -3.980000000000000E-002    0.000000000000000E+000
 -3.970000000000000E-002    0.000000000000000E+000
 -3.960000000000000E-002    0.000000000000000E+000
 -3.950000000000000E-002    0.000000000000000E+000
 -3.940000000000000E-002    0.000000000000000E+000
 -3.930000000000000E-002    0.000000000000000E+000
 -3.920000000000000E-002    0.000000000000000E+000
 -3.910000000000000E-002    0.000000000000000E+000
 -3.900000000000000E-002    0.000000000000000E+000
 -3.890000000000000E-002    0.000000000000000E+000
 -3.880000000000000E-002    0.000000000000000E+000
 -3.870000000000000E-002    0.000000000000000E+000
 -3.860000000000000E-002    0.000000000000000E+000
 -3.850000000000000E-002    0.000000000000000E+000
 -3.840000000000000E-002    0.000000000000000E+000
 -3.830000000000000E-002    0.000000000000000E+000
 -3.820000000000000E-002    0.000000000000000E+000
 -3.810000000000000E-002    0.000000000000000E+000
 -3.800000000000000E-002    0.000000000000000E+000
 -3.790000000000000E-002    0.000000000000000E+000
 -3.780000000000000E-002    0.000000000000000E+000
 -3.770000000000000E-002    0.000000000000000E+000
 -3.760000000000000E-002    0.000000000000000E+000
 -3.750000000000000E-002    0.000000000000000E+000
 -3.740000000000000E-002    0.000000000000000E+000
 -3.730000000000000E-002    0.000000000000000E+000
 -3.720000000000000E-002    0.000000000000000E+000
 -3.710000000000000E-002    0.000000000000000E+000
 -3.700000000000000E-002    0.000000000000000E+000
 -3.690000000000000E-002    0.000000000000000E+000
 -3.680000000000000E-002    0.000000000000000E+000
 -3.670000000000000E-002    0.000000000000000E+000
 -3.660000000000000E-002    0.000000000000000E+000
 -3.650000000000000E-002    0.000000000000000E+000
 -3.640000000000000E-002    0.000000000000000E+000
 -3.630000000000000E-002    0.000000000000000E+000
 -3.620000000000000E-002    0.000000000000000E+000
 -3.610000000000000E-002    0.000000000000000E+000
 -3.600000000000000E-002    0.000000000000000E+000
 -3.590000000000000E-002    0.000000000000000E+000
 -3.580000000000000E-002    0.000000000000000E+000
 -3.570000000000000E-002    0.000000000000000E+000
 -3.560000000000000E-002    0.000000000000000E+000
 -3.550000000000000E-002    0.000000000000000E+000
 -3.540000000000000E-002    0.000000000000000E+000
 -3.530000000000000E-002    0.000000000000000E+000
 -3.520000000000000E-002    0.000000000000000E+000
 -3.510000000000000E-002    0.000000000000000E+000
 -3.500000000000000E-002    0.000000000000000E+000
 -3.490000000000000E-002    0.000000000000000E+000
 -3.480000000000000E-002    0.000000000000000E+000
 -3.470000000000000E-002    0.000000000000000E+000
 -3.460000000000000E-002    0.000000000000000E+000
 -3.450000000000000E-002    0.000000000000000E+000
 -3.440000000000000E-002    0.000000000000000E+000
 -3.430000000000000E-002    0.000000000000000E+000
 -3.420000000000000E-002    0.000000000000000E+000
 -3.410000000000000E-002    0.000000000000000E+000
 -3.400000000000000E-002    0.000000000000000E+000
 -3.390000000000000E-002    0.000000000000000E+000
 -3.380000000000000E-002    0.000000000000000E+000
 -3.370000000000000E-002    0.000000000000000E+000
 -3.360000000000000E-002    0.000000000000000E+000
 -3.350000000000000E-002    0.000000000000000E+000
 -3.340000000000000E-002    0.000000000000000E+000
 -3.330000000000000E-002    0.000000000000000E+000
 -3.320000000000000E-002    0.000000000000000E+000
 -3.310000000000000E-002    0.000000000000000E+000
 -3.300000000000000E-002    0.000000000000000E+000
 -3.290000000000000E-002    0.000000000000000E+000
 -3.280000000000000E-002    0.000000000000000E+000
 -3.270000000000000E-002   -1.415420991280343E-048
 -3.260000000000000E-002   -2.830841982560687E-048
 -3.250000000000000E-002   -8.544007417309475E-048
 -3.240000000000000E-002   -1.010527120885950E-047
 -3.230000000000000E-002   -3.199847613397880E-047
 -3.220000000000000E-002   -2.285386824929738E-047
 -3.210000000000000E-002   -3.003388688384496E-048
 -3.200000000000000E-002    3.391503712711054E-047
 -3.190000000000000E-002    1.092388597990452E-046
 -3.180000000000000E-002    2.466887362493762E-046
 -3.170000000000000E-002    4.340511351860767E-046
 -3.160000000000000E-002    7.833165114011826E-046
 -3.150000000000000E-002    1.099758053122084E-045
 -3.140000000000000E-002    1.285647071017580E-045
 -3.130000000000000E-002    2.082840772621218E-045
 -3.120000000000000E-002    1.898997905660660E-045
 -3.110000000000000E-002    2.997445000693238E-046
 -3.100000000000000E-002   -2.138940164013667E-045
 -3.090000000000000E-002   -6.793403932418867E-045
 -3.080000000000000E-002   -1.410920180872302E-044
 -3.070000000000000E-002   -2.524416868381320E-044
 -3.060000000000000E-002   -4.011615216071576E-044
 -3.050000000000000E-002   -5.651359205122863E-044
 -3.040000000000000E-002   -7.200076874083513E-044
 -3.030000000000000E-002   -7.808808593470772E-044
 -3.020000000000000E-002   -6.068451431401462E-044
 -3.010000000000000E-002    2.350022344987548E-045
 -3.000000000000000E-002    1.435480151412549E-043
 -2.990000000000000E-002    4.011201254520151E-043
 -2.980000000000000E-002    8.157965574669914E-043
 -2.970000000000000E-002    1.411738934485023E-042
 -2.960000000000000E-002    2.171769884698067E-042
 -2.950000000000000E-002    2.988215944509172E-042
 -2.940000000000000E-002    3.603431573681221E-042
 -2.930000000000000E-002    3.525662422451165E-042
 -2.920000000000000E-002    1.955744412688072E-042
 -2.910000000000000E-002   -2.269394267203966E-042
 -2.900000000000000E-002   -1.064807671294029E-041
 -2.890000000000000E-002   -2.482720695162818E-041
 -2.880000000000000E-002   -4.616743255296288E-041
 -2.870000000000000E-002   -7.493016560313206E-041
 -2.860000000000000E-002   -1.090034408204422E-040
 -2.850000000000000E-002   -1.421252931034705E-040
 -2.840000000000000E-002   -1.617021571697994E-040
 -2.830000000000000E-002   -1.465803850428325E-040
 -2.820000000000000E-002   -6.543773005605823E-041
 -2.810000000000000E-002    1.230470454381537E-040
 -2.800000000000000E-002    4.666341777183325E-040
 -2.790000000000000E-002    1.010509275767519E-039
 -2.780000000000000E-002    1.780624291241531E-039
 -2.770000000000000E-002    2.757599067773277E-039
 -2.760000000000000E-002    3.840665860703914E-039
 -2.750000000000000E-002    4.803750354437813E-039
 -2.740000000000000E-002    5.249821118870420E-039
 -2.730000000000000E-002    4.575394000116079E-039
 -2.720000000000000E-002    1.963971313065611E-039
 -2.710000000000000E-002   -3.565697322204704E-039
 -2.700000000000000E-002   -1.302517065976585E-038
 -2.690000000000000E-002   -2.720336349110240E-038
 -2.680000000000000E-002   -4.626995335898067E-038
 -2.670000000000000E-002   -6.922944122776000E-038
 -2.660000000000000E-002   -9.325578870005375E-038
 -2.650000000000000E-002   -1.129914203818307E-037
 -2.640000000000000E-002   -1.199654968807996E-037
 -2.630000000000000E-002   -1.023683943393044E-037
 -2.620000000000000E-002   -4.549838050901239E-038
 -2.610000000000000E-002    6.674921765558090E-038
 -2.600000000000000E-002    2.489811709466096E-037
 -2.590000000000000E-002    5.097186091538987E-037
 -2.580000000000000E-002    8.450700601862811E-037
 -2.570000000000000E-002    1.230996325604480E-036
 -2.560000000000000E-002    1.615048645780123E-036
 -2.550000000000000E-002    1.909156792054367E-036
 -2.540000000000000E-002    1.985801555682605E-036
 -2.530000000000000E-002    1.680595292060900E-036
 -2.520000000000000E-002    8.047047872011968E-037
 -2.510000000000000E-002   -8.295755447158369E-037
 -2.500000000000000E-002   -3.367730819181604E-036
 -2.490000000000000E-002   -6.856074306993158E-036
 -2.480000000000000E-002   -1.117185525499130E-035
 -2.470000000000000E-002   -1.594780789085005E-035
 -2.460000000000000E-002   -2.050386679861606E-035
 -2.450000000000000E-002   -2.380430907520017E-035
 -2.440000000000000E-002   -2.446317845421560E-035
 -2.430000000000000E-002   -2.082307258272215E-035
 -2.420000000000000E-002   -1.113046096404911E-035
 -2.410000000000000E-002    6.177009752571007E-036
 -2.400000000000000E-002    3.207058061876437E-035
 -2.390000000000000E-002    6.643945364796406E-035
 -2.380000000000000E-002    1.075592844474979E-034
 -2.370000000000000E-002    1.516028426062878E-034
 -2.360000000000000E-002    1.923064780179261E-034
 -2.350000000000000E-002    2.209284710645185E-034
 -2.340000000000000E-002    2.266409131485095E-034
 -2.330000000000000E-002    1.974764701663792E-034
 -2.320000000000000E-002    1.218984685077344E-034
 -2.310000000000000E-002   -9.026734232263946E-036
 -2.300000000000000E-002   -1.989993433594754E-034
 -2.290000000000000E-002   -4.436876661772885E-034
 -2.280000000000000E-002   -7.282005233800248E-034
 -2.270000000000000E-002   -1.025390476263107E-033
 -2.260000000000000E-002   -1.295606959674467E-033
 -2.250000000000000E-002   -1.488477759172479E-033
 -2.240000000000000E-002   -1.547123275416658E-033
 -2.230000000000000E-002   -1.414889084470980E-033
 -2.220000000000000E-002   -1.044226909769664E-033
 -2.210000000000000E-002   -4.068006576804884E-034
 -2.200000000000000E-002    4.966637817742082E-034
 -2.190000000000000E-002    1.628722806225343E-033
 -2.180000000000000E-002    2.911896883957362E-033
 -2.170000000000000E-002    4.231640813487200E-033
 -2.160000000000000E-002    5.446859596233532E-033
 -2.150000000000000E-002    6.407966519160314E-033
 -2.140000000000000E-002    6.980727243772419E-033
 -2.130000000000000E-002    7.072091426732202E-033
 -2.120000000000000E-002    6.652219737706083E-033
 -2.110000000000000E-002    5.765480970270657E-033
 -2.100000000000000E-002    4.522914209242681E-033
 -2.090000000000000E-002    3.070076953431618E-033
 -2.080000000000000E-002    1.527781456461314E-033
 -2.070000000000000E-002   -9.085345396696338E-035
 -2.060000000000000E-002   -1.975762910133267E-033
 -2.050000000000000E-002   -4.607433895501047E-033
 -2.040000000000000E-002   -8.807812896264948E-033
 -2.030000000000000E-002   -1.572000279748870E-032
 -2.020000000000000E-002   -2.668140791001022E-032
 -2.010000000000000E-002   -4.296192076661235E-032
 -2.000000000000000E-002   -6.535535150194612E-032
 -1.990000000000000E-002   -9.363936128598752E-032
 -1.980000000000000E-002   -1.259558989771240E-031
 -1.970000000000000E-002   -1.582066618573196E-031
 -1.960000000000000E-002   -1.836009740624015E-031
 -1.950000000000000E-002   -1.925276199421163E-031
 -1.940000000000000E-002   -1.729373506056500E-031
 -1.930000000000000E-002   -1.114074034880557E-031
 -1.920000000000000E-002    4.995211590655462E-033
 -1.910000000000000E-002    1.860360463719474E-031
 -1.900000000000000E-002    4.349514801365601E-031
 -1.890000000000000E-002    7.447159771967772E-031
 -1.880000000000000E-002    1.094450428204048E-030
 -1.870000000000000E-002    1.446670856523693E-030
 -1.860000000000000E-002    1.746210802483437E-030
 -1.850000000000000E-002    1.921691283010747E-030
 -1.840000000000000E-002    1.890312976941057E-030
 -1.830000000000000E-002    1.566475592446650E-030
 -1.820000000000000E-002    8.742741112350144E-031
 -1.810000000000000E-002   -2.367107215809559E-031
 -1.800000000000000E-002   -1.773669041471898E-030
 -1.790000000000000E-002   -3.683006924868515E-030
 -1.780000000000000E-002   -5.835851724827722E-030
 -1.770000000000000E-002   -8.019983408084108E-030
 -1.760000000000000E-002   -9.941680047890250E-030
 -1.750000000000000E-002   -1.124055965115229E-029
 -1.740000000000000E-002   -1.151944706964867E-029
 -1.730000000000000E-002   -1.038960964682016E-029
 -1.720000000000000E-002   -7.529391374710161E-030
 -1.710000000000000E-002   -2.751589057061700E-030
 -1.700000000000000E-002    3.927901395692588E-030
 -1.690000000000000E-002    1.223008798300763E-029
 -1.680000000000000E-002    2.157311757742522E-029
 -1.670000000000000E-002    3.106464040636725E-029
 -1.660000000000000E-002    3.953673969196377E-029
 -1.650000000000000E-002    4.563036973988078E-029
 -1.640000000000000E-002    4.793066090951160E-029
 -1.630000000000000E-002    4.514707201915667E-029
 -1.620000000000000E-002    3.632386707752988E-029
 -1.610000000000000E-002    2.105783345668895E-029
 -1.600000000000000E-002   -3.072158044938502E-031
 -1.590000000000000E-002   -2.654418072939225E-029
 -1.580000000000000E-002   -5.550009556899275E-029
 -1.570000000000000E-002   -8.417759957444980E-029
 -1.560000000000000E-002   -1.089597547441335E-028
 -1.550000000000000E-002   -1.259804982634312E-028
 -1.540000000000000E-002   -1.316210794856240E-028
 -1.530000000000000E-002   -1.230884758824511E-028
 -1.520000000000000E-002   -9.900774643260789E-029
 -1.510000000000000E-002   -5.994075682999526E-029
 -1.500000000000000E-002   -8.732994434178422E-030
 -1.490000000000000E-002    4.940843536544844E-029
 -1.480000000000000E-002    1.071849163225829E-028
 -1.470000000000000E-002    1.558702691166034E-028
 -1.460000000000000E-002    1.863645716386495E-028
 -1.450000000000000E-002    1.905723392357314E-028
 -1.440000000000000E-002    1.629730732726234E-028
 -1.430000000000000E-002    1.021889858798953E-028
 -1.420000000000000E-002    1.230582568183997E-029
 -1.410000000000000E-002   -9.632107938901929E-029
 -1.400000000000000E-002   -2.070326811612239E-028
 -1.390000000000000E-002   -2.978097769778167E-028
 -1.380000000000000E-002   -3.433054649233179E-028
 -1.370000000000000E-002   -3.179456640786257E-028
 -1.360000000000000E-002   -1.999162415692266E-028
 -1.350000000000000E-002    2.431457756256269E-029
 -1.340000000000000E-002    3.554484281018444E-028
 -1.330000000000000E-002    7.774157754625237E-028
 -1.320000000000000E-002    1.254735524853664E-027
 -1.310000000000000E-002    1.731849760420663E-027
 -1.300000000000000E-002    2.134996963572788E-027
 -1.290000000000000E-002    2.376982530952907E-027
 -1.280000000000000E-002    2.364915591455585E-027
 -1.270000000000000E-002    2.010632648946565E-027
 -1.260000000000000E-002    1.243155545172664E-027
 -1.250000000000000E-002    2.216768150635670E-029
 -1.240000000000000E-002   -1.648807266591098E-027
 -1.230000000000000E-002   -3.711050891046780E-027
 -1.220000000000000E-002   -6.042723508774463E-027
 -1.210000000000000E-002   -8.455911182375792E-027
 -1.200000000000000E-002   -1.069997524162664E-026
 -1.190000000000000E-002   -1.247219001051822E-026
 -1.180000000000000E-002   -1.343618486582131E-026
 -1.170000000000000E-002   -1.324814373543625E-026
 -1.160000000000000E-002   -1.159008001730008E-026
 -1.150000000000000E-002   -8.208808947071846E-027
 -1.140000000000000E-002   -2.958507777938275E-027
 -1.130000000000000E-002    4.156042543905000E-027
 -1.120000000000000E-002    1.293923244404254E-026
 -1.110000000000000E-002    2.297192430160083E-026
 -1.100000000000000E-002    3.359150405690810E-026
 -1.090000000000000E-002    4.389040985751396E-026
 -1.080000000000000E-002    5.273903925176285E-026
 -1.070000000000000E-002    5.883841607666860E-026
 -1.060000000000000E-002    6.080667525305277E-026
 -1.050000000000000E-002    5.730100411139473E-026
 -1.040000000000000E-002    4.717293767795853E-026
 -1.030000000000000E-002    2.964997536719909E-026
 -1.020000000000000E-002    4.530494976245284E-027
 -1.010000000000000E-002   -2.762752880038166E-026
 -1.000000000000000E-002   -6.534967611306554E-026
 -9.899999999999999E-003   -1.061504521311275E-025
 -9.800000000000000E-003   -1.465331218925861E-025
 -9.699999999999999E-003   -1.821141175685060E-025
 -9.599999999999999E-003   -2.078945522923510E-025
 -9.500000000000000E-003   -2.186881167098798E-025
 -9.399999999999999E-003   -2.096953354269652E-025
 -9.299999999999999E-003   -1.771903161324321E-025
 -9.200000000000000E-003   -1.192597019950764E-025
 -9.099999999999999E-003   -3.650814939233883E-026
 -8.999999999999999E-003    6.737580497231164E-026
 -8.900000000000000E-003    1.853099446644438E-025
 -8.799999999999999E-003    3.068771780791665E-025
 -8.699999999999999E-003    4.188437876516811E-025
 -8.600000000000000E-003    5.061862898517537E-025
 -8.499999999999999E-003    5.536162034504346E-025
 -8.399999999999999E-003    5.475175184805554E-025
 -8.300000000000000E-003    4.781302335240191E-025
 -8.199999999999999E-003    3.417355876480705E-025
 -8.100000000000000E-003    1.425372530588132E-025
 -8.000000000000000E-003   -1.060989200384044E-025
 -7.899999999999999E-003   -3.813745743676017E-025
 -7.800000000000000E-003   -6.520252017953542E-025
 -7.699999999999999E-003   -8.806780074715062E-025
 -7.599999999999999E-003   -1.027594444325100E-024
 -7.499999999999999E-003   -1.055593381835504E-024
 -7.399999999999999E-003   -9.357388697967948E-025
 -7.299999999999999E-003   -6.531777894745207E-025
 -7.199999999999999E-003   -2.123581024437210E-025
 -7.100000000000000E-003    3.592202219012440E-025
 -6.999999999999999E-003    1.009545482254020E-024
 -6.899999999999999E-003    1.663606747581472E-024
 -6.800000000000000E-003    2.228294276229846E-024
 -6.699999999999999E-003    2.600730869524333E-024
 -6.599999999999999E-003    2.679629440908206E-024
 -6.499999999999999E-003    2.378798060627779E-024
 -6.399999999999999E-003    1.641472731141237E-024
 -6.299999999999999E-003    4.538175191565893E-025
 -6.199999999999999E-003   -1.144247483229183E-024
 -6.100000000000000E-003   -3.052699219678228E-024
 -5.999999999999999E-003   -5.111090602952599E-024
 -5.899999999999999E-003   -7.105296683156743E-024
 -5.800000000000000E-003   -8.781675382463283E-024
 -5.699999999999999E-003   -9.868160204026397E-024
 -5.599999999999999E-003   -1.010093043015650E-023
 -5.499999999999999E-003   -9.254505190741652E-024
 -5.399999999999999E-003   -7.172476370839257E-024
 -5.299999999999999E-003   -3.795734269795024E-024
 -5.199999999999999E-003    8.149929641878640E-025
 -5.099999999999999E-003    6.465149735724125E-024
 -4.999999999999999E-003    1.282312748149853E-023
 -4.899999999999999E-003    1.942912507159759E-023
 -4.799999999999999E-003    2.571636231685030E-023
 -4.699999999999999E-003    3.104386643767905E-023
 -4.599999999999999E-003    3.473908522957900E-023
 -4.499999999999999E-003    3.614786806892612E-023
 -4.399999999999999E-003    3.468889038904686E-023
 -4.299999999999999E-003    2.990944068687654E-023
 -4.199999999999999E-003    2.153956335962400E-023
 -4.099999999999999E-003    9.541717968802311E-024
 -3.999999999999999E-003   -5.846698057323680E-024
 -3.899999999999999E-003   -2.408061648270199E-023
 -3.799999999999999E-003   -4.428727290285931E-023
 -3.699999999999999E-003   -6.526229716336355E-023
 -3.599999999999999E-003   -8.548607679631255E-023
 -3.499999999999999E-003   -1.031652500314840E-022
 -3.399999999999999E-003   -1.163044868711450E-022
 -3.299999999999999E-003   -1.228133978216015E-022
 -3.199999999999999E-003   -1.206518459642842E-022
 -3.099999999999999E-003   -1.080139597500133E-022
 -2.999999999999999E-003   -8.354647740488669E-023
 -2.899999999999999E-003   -4.659091480121152E-023
 -2.799999999999999E-003    2.568275620333929E-024
 -2.699999999999999E-003    6.247496775726406E-023
 -2.599999999999999E-003    1.303243582099010E-022
 -2.499999999999999E-003    2.018745934584367E-022
 -2.399999999999999E-003    2.714851048035001E-022
 -2.299999999999999E-003    3.323157722254333E-022
 -2.199999999999999E-003    3.767114374146880E-022
 -2.099999999999999E-003    3.967801066715564E-022
 -1.999999999999999E-003    3.851513887471992E-022
 -1.899999999999999E-003    3.358757050796072E-022
 -1.799999999999999E-003    2.453965366763759E-022
 -1.699999999999999E-003    1.135011679083375E-022
 -1.599999999999999E-003   -5.586601020257907E-023
 -1.499999999999999E-003   -2.540558076530509E-022
 -1.399999999999999E-003   -4.675593023099616E-022
 -1.299999999999999E-003   -6.783557288573002E-022
 -1.199999999999999E-003   -8.648388403837867E-022
 -1.099999999999999E-003   -1.003345882774632E-021
 -9.999999999999989E-004   -1.070247890264618E-021
 -8.999999999999990E-004   -1.044485995259363E-021
 -7.999999999999990E-004   -9.103620616479349E-022
 -6.999999999999989E-004   -6.603241918151427E-022
 -5.999999999999990E-004   -2.974352503857911E-022
 -4.999999999999989E-004    1.628122235512108E-022
 -3.999999999999989E-004    6.916633571377637E-022
 -2.999999999999989E-004    1.247531682163670E-021
 -1.999999999999989E-004    1.777887571192302E-021
 -9.999999999999892E-005    2.222674135772572E-021
  1.084202172485504E-018    2.519167260541227E-021
  1.000000000000011E-004    2.608027570149136E-021
  2.000000000000011E-004    2.440120685482151E-021
  3.000000000000011E-004    1.983530882452976E-021
  4.000000000000011E-004    1.230076128119952E-021
  5.000000000000011E-004    2.005709088699929E-022
  6.000000000000011E-004   -1.051912015332424E-021
  7.000000000000011E-004   -2.441448182006725E-021
  8.000000000000011E-004   -3.851842625749406E-021
  9.000000000000012E-004   -5.142662894747775E-021
  1.000000000000001E-003   -6.158704615610615E-021
  1.100000000000001E-003   -6.742546800672711E-021
  1.200000000000001E-003   -6.749502276971920E-021
  1.300000000000001E-003   -6.063950153434213E-021
  1.400000000000001E-003   -4.615749690479676E-021
  1.500000000000001E-003   -2.395237284502930E-021
  1.600000000000001E-003    5.347947214122579E-022
  1.700000000000001E-003    4.031710863276088E-021
  1.800000000000001E-003    7.871655156027735E-021
  1.900000000000001E-003    1.175529856049919E-020
  2.000000000000001E-003    1.532138893416061E-020
  2.100000000000001E-003    1.816823448509473E-020
  2.200000000000001E-003    1.988259782847431E-020
  2.300000000000001E-003    2.007478354549131E-020
  2.400000000000001E-003    1.841797346151062E-020
  2.500000000000001E-003    1.468919437967785E-020
  2.600000000000001E-003    8.808715359632719E-021
  2.700000000000001E-003    8.742345118021229E-022
  2.800000000000001E-003   -8.813987065765555E-021
  2.900000000000001E-003   -1.974084530854519E-020
  3.000000000000001E-003   -3.118038109500864E-020
  3.100000000000001E-003   -4.221872931331177E-020
  3.200000000000001E-003   -5.179763345810384E-020
  3.300000000000001E-003   -5.877869501632820E-020
  3.400000000000001E-003   -6.202680035510037E-020
  3.500000000000001E-003   -6.050921956686035E-020
  3.600000000000001E-003   -5.340486371983270E-020
  3.700000000000001E-003   -4.021623180158343E-020
  3.800000000000001E-003   -2.087490680578417E-020
  3.900000000000001E-003    4.169762914547946E-021
  4.000000000000001E-003    3.388968782515549E-020
  4.100000000000001E-003    6.665533981775532E-020
  4.200000000000001E-003    1.002605998580065E-019
  4.300000000000001E-003    1.320020295129806E-019
  4.400000000000001E-003    1.588159548286648E-019
  4.500000000000001E-003    1.774724403399308E-019
  4.600000000000002E-003    1.848199545569468E-019
  4.700000000000001E-003    1.780690587375611E-019
  4.800000000000001E-003    1.550979592790952E-019
  4.900000000000002E-003    1.147575471023237E-019
  5.000000000000001E-003    5.714976253577858E-020
  5.100000000000001E-003   -1.614943538039616E-020
  5.200000000000001E-003   -1.019515518221493E-019
  5.300000000000002E-003   -1.954284223362593E-019
  5.400000000000001E-003   -2.902187707991370E-019
  5.500000000000001E-003   -3.786831815171785E-019
  5.600000000000002E-003   -4.523122947205269E-019
  5.700000000000001E-003   -5.022809353288811E-019
  5.800000000000001E-003   -5.201274409644830E-019
  5.900000000000002E-003   -4.985231725163086E-019
  6.000000000000001E-003   -4.320839046801145E-019
  6.100000000000001E-003   -3.181629410921596E-019
  6.200000000000002E-003   -1.575567851801749E-019
  6.300000000000002E-003    4.494997322852790E-020
  6.400000000000001E-003    2.802736796668935E-019
  6.500000000000001E-003    5.350203833461678E-019
  6.600000000000002E-003    7.918274281383279E-019
  6.700000000000001E-003    1.030090306347792E-018
  6.800000000000001E-003    1.227082059085563E-018
  6.900000000000002E-003    1.359440821031394E-018
  7.000000000000001E-003    1.404967276588407E-018
  7.100000000000001E-003    1.344638554829425E-018
  7.200000000000002E-003    1.164711040634702E-018
  7.300000000000002E-003    8.587558020673791E-019
  7.400000000000001E-003    4.294494934735612E-019
  7.500000000000001E-003   -1.100679474454693E-019
  7.600000000000002E-003   -7.354522151123045E-019
  7.700000000000001E-003   -1.411196906360779E-018
  7.800000000000001E-003   -2.091587990870498E-018
  7.900000000000001E-003   -2.722648466686569E-018
  8.000000000000002E-003   -3.245082600472572E-018
  8.100000000000001E-003   -3.598149708756896E-018
  8.200000000000001E-003   -3.724309632316183E-018
  8.300000000000002E-003   -3.574393471085681E-018
  8.400000000000001E-003   -3.112968343378008E-018
  8.500000000000002E-003   -2.323495055806812E-018
  8.600000000000002E-003   -1.212828165908447E-018
  8.700000000000001E-003    1.854133575299498E-019
  8.800000000000002E-003    1.809061900415049E-018
  8.900000000000002E-003    3.567605833647782E-018
  9.000000000000001E-003    5.344691272401428E-018
  9.100000000000002E-003    7.003091909091338E-018
  9.200000000000002E-003    8.392148857697931E-018
  9.300000000000001E-003    9.357481975277658E-018
  9.400000000000002E-003    9.752562971886333E-018
  9.500000000000001E-003    9.451526024799022E-018
  9.600000000000001E-003    8.362397966694671E-018
  9.700000000000002E-003    6.439764930594083E-018
  9.800000000000001E-003    3.695793088459360E-018
  9.900000000000001E-003    2.084770603750757E-019
  1.000000000000000E-002   -3.873956053626097E-018
  1.010000000000000E-002   -8.333426102107885E-018
  1.020000000000000E-002   -1.288786143001471E-017
  1.030000000000000E-002   -1.720292281252893E-017
  1.040000000000000E-002   -2.090957006940847E-017
  1.050000000000000E-002   -2.362699186113786E-017
  1.060000000000000E-002   -2.498993548556170E-017
  1.070000000000000E-002   -2.467899786229905E-017
  1.080000000000000E-002   -2.245199251319822E-017
  1.090000000000000E-002   -1.817416342292002E-017
  1.100000000000000E-002   -1.184477228569257E-017
  1.110000000000000E-002   -3.617514649241214E-018
  1.120000000000000E-002    6.187681375098194E-018
  1.130000000000000E-002    1.708361486465742E-017
  1.140000000000000E-002    2.842716635341964E-017
  1.150000000000000E-002    3.944398560628277E-017
  1.160000000000000E-002    4.926658794614793E-017
  1.170000000000000E-002    5.698494091277819E-017
  1.180000000000000E-002    6.170758683931512E-017
  1.190000000000000E-002    6.263025977783163E-017
  1.200000000000000E-002    5.910800855449039E-017
  1.210000000000000E-002    5.072602545960075E-017
  1.220000000000000E-002    3.736377360261004E-017
  1.230000000000000E-002    1.924679467647956E-017
  1.240000000000000E-002   -3.019347932577660E-018
  1.250000000000000E-002   -2.843796321118386E-017
  1.260000000000000E-002   -5.563699692420980E-017
  1.270000000000000E-002   -8.291428448991703E-017
  1.280000000000000E-002   -1.083131686222851E-016
  1.290000000000000E-002   -1.297272658922098E-016
  1.300000000000000E-002   -1.450309104164483E-016
  1.310000000000000E-002   -1.522294488936668E-016
  1.320000000000000E-002   -1.496213917702311E-016
  1.330000000000000E-002   -1.359624107308961E-016
  1.340000000000000E-002   -1.106196851840880E-016
  1.350000000000000E-002   -7.370420430832677E-017
  1.360000000000000E-002   -2.616847784219868E-017
  1.370000000000000E-002    3.014211162711882E-017
  1.380000000000000E-002    9.249445551289339E-017
  1.390000000000000E-002    1.573368264157776E-016
  1.400000000000000E-002    2.204359165705338E-016
  1.410000000000000E-002    2.770814978323295E-016
  1.420000000000000E-002    3.223534800789780E-016
  1.430000000000000E-002    3.514411015545429E-016
  1.440000000000000E-002    3.599988101664884E-016
  1.450000000000000E-002    3.445186489426067E-016
  1.460000000000000E-002    3.026950123072899E-016
  1.470000000000000E-002    2.337550518228884E-016
  1.480000000000000E-002    1.387264526766264E-016
  1.490000000000000E-002    2.061514746841742E-017
  1.500000000000000E-002   -1.155319952023809E-016
  1.510000000000000E-002   -2.626997788158208E-016
  1.520000000000000E-002   -4.121259439820553E-016
  1.530000000000000E-002   -5.536759692685794E-016
  1.540000000000000E-002   -6.763659552158028E-016
  1.550000000000000E-002   -7.690170461392915E-016
  1.560000000000000E-002   -8.210132594079400E-016
  1.570000000000000E-002   -8.231235529482035E-016
  1.580000000000000E-002   -7.683389295663179E-016
  1.590000000000000E-002   -6.526677699744223E-016
  1.600000000000000E-002   -4.758277159620659E-016
  1.610000000000000E-002   -2.417712252247992E-016
  1.620000000000000E-002    4.101474287706952E-017
  1.630000000000000E-002    3.594868496386590E-016
  1.640000000000000E-002    6.963405111904969E-016
  1.650000000000000E-002    1.030644324474525E-015
  1.660000000000000E-002    1.338815278427943E-015
  1.670000000000000E-002    1.595911810137474E-015
  1.680000000000000E-002    1.777197080416868E-015
  1.690000000000000E-002    1.859898432135076E-015
  1.700000000000000E-002    1.825065219649940E-015
  1.710000000000000E-002    1.659407800352587E-015
  1.720000000000000E-002    1.356984242219786E-015
  1.730000000000000E-002    9.205964207611215E-016
  1.740000000000000E-002    3.627567449220259E-016
  1.750000000000000E-002   -2.938994765893551E-016
  1.760000000000000E-002   -1.016859459756854E-015
  1.770000000000000E-002   -1.764706478687302E-015
  1.780000000000000E-002   -2.488848682570820E-015
  1.790000000000000E-002   -3.135981298903310E-015
  1.800000000000000E-002   -3.651204188509825E-015
  1.810000000000000E-002   -3.981660104249712E-015
  1.820000000000000E-002   -4.080504284488793E-015
  1.830000000000000E-002   -3.910966573298850E-015
  1.840000000000000E-002   -3.450230448387461E-015
  1.850000000000000E-002   -2.692829703303478E-015
  1.860000000000000E-002   -1.653259374353467E-015
  1.870000000000000E-002   -3.675144894700947E-016