 -4.000000000000000E-002    0.000000000000000E+000
 -3.990000000000000E-002    0.000000000000000E+000
 -3.980000000000000E-002    0.000000000000000E+000
 -3.970000000000000E-002    0.000000000000000E+000
 -3.960000000000000E-002    0.000000000000000E+000
 -3.950000000000000E-002    0.000000000000000E+000
 -3.940000000000000E-002    0.000000000000000E+000
 -3.930000000000000E-002    0.000000000000000E+000
 -3.920000000000000E-002    0.000000000000000E+000
 -3.910000000000000E-002    0.000000000000000E+000
 -3.900000000000000E-002    0.000000000000000E+000
 -3.890000000000000E-002    0.000000000000000E+000
 -3.880000000000000E-002    0.000000000000000E+000
 -3.870000000000000E-002    0.000000000000000E+000
 -3.860000000000000E-002    0.000000000000000E+000
 -3.850000000000000E-002    0.000000000000000E+000
 -3.840000000000000E-002    0.000000000000000E+000
 -3.830000000000000E-002    0.000000000000000E+000
 -3.820000000000000E-002    0.000000000000000E+000
 -3.810000000000000E-002    0.000000000000000E+000
 -3.800000000000000E-002    0.000000000000000E+000
 -3.790000000000000E-002    0.000000000000000E+000
 -3.780000000000000E-002    0.000000000000000E+000
 -3.770000000000000E-002    0.000000000000000E+000
 -3.760000000000000E-002    0.000000000000000E+000
 -3.750000000000000E-002    0.000000000000000E+000
 -3.740000000000000E-002    0.000000000000000E+000
 -3.730000000000000E-002    0.000000000000000E+000
 -3.720000000000000E-002    0.000000000000000E+000
 -3.710000000000000E-002    0.000000000000000E+000
 -3.700000000000000E-002    0.000000000000000E+000
 -3.690000000000000E-002    0.000000000000000E+000
 -3.680000000000000E-002    0.000000000000000E+000
 -3.670000000000000E-002    0.000000000000000E+000
 -3.660000000000000E-002    0.000000000000000E+000
 -3.650000000000000E-002    0.000000000000000E+000
 -3.640000000000000E-002    0.000000000000000E+000
 -3.630000000000000E-002    0.000000000000000E+000
 -3.620000000000000E-002    0.000000000000000E+000
 -3.610000000000000E-002    0.000000000000000E+000
 -3.600000000000000E-002    0.000000000000000E+000
 -3.590000000000000E-002    0.000000000000000E+000
 -3.580000000000000E-002    0.000000000000000E+000
 -3.570000000000000E-002    0.000000000000000E+000
 -3.560000000000000E-002    0.000000000000000E+000
 -3.550000000000000E-002    0.000000000000000E+000
 -3.540000000000000E-002    0.000000000000000E+000
 -3.530000000000000E-002    0.000000000000000E+000
 -3.520000000000000E-002    0.000000000000000E+000
 -3.510000000000000E-002    0.000000000000000E+000
 -3.500000000000000E-002    0.000000000000000E+000
 -3.490000000000000E-002    0.000000000000000E+000
 -3.480000000000000E-002    0.000000000000000E+000
 -3.470000000000000E-002    0.000000000000000E+000
 -3.460000000000000E-002    0.000000000000000E+000
 -3.450000000000000E-002    0.000000000000000E+000
 -3.440000000000000E-002    0.000000000000000E+000
 -3.430000000000000E-002    0.000000000000000E+000
 -3.420000000000000E-002    0.000000000000000E+000
 -3.410000000000000E-002    0.000000000000000E+000
 -3.400000000000000E-002    0.000000000000000E+000
 -3.390000000000000E-002    0.000000000000000E+000
 -3.380000000000000E-002    0.000000000000000E+000
 -3.370000000000000E-002    0.000000000000000E+000
 -3.360000000000000E-002    0.000000000000000E+000
 -3.350000000000000E-002    0.000000000000000E+000
 -3.340000000000000E-002    0.000000000000000E+000
 -3.330000000000000E-002    0.000000000000000E+000
 -3.320000000000000E-002    0.000000000000000E+000
 -3.310000000000000E-002    0.000000000000000E+000
 -3.300000000000000E-002    0.000000000000000E+000
 -3.290000000000000E-002    0.000000000000000E+000
 -3.280000000000000E-002    0.000000000000000E+000
 -3.270000000000000E-002    0.000000000000000E+000
 -3.260000000000000E-002    0.000000000000000E+000
 -3.250000000000000E-002    0.000000000000000E+000
 -3.240000000000000E-002    0.000000000000000E+000
 -3.230000000000000E-002    0.000000000000000E+000
 -3.220000000000000E-002    0.000000000000000E+000
 -3.210000000000000E-002    0.000000000000000E+000
 -3.200000000000000E-002    0.000000000000000E+000
 -3.190000000000000E-002    0.000000000000000E+000
 -3.180000000000000E-002    0.000000000000000E+000
 -3.170000000000000E-002    0.000000000000000E+000
 -3.160000000000000E-002    0.000000000000000E+000
 -3.150000000000000E-002    0.000000000000000E+000
 -3.140000000000000E-002    0.000000000000000E+000
 -3.130000000000000E-002    0.000000000000000E+000
 -3.120000000000000E-002    0.000000000000000E+000
 -3.110000000000000E-002    0.000000000000000E+000
 -3.100000000000000E-002    0.000000000000000E+000
 -3.090000000000000E-002    0.000000000000000E+000
 -3.080000000000000E-002    0.000000000000000E+000
 -3.070000000000000E-002    0.000000000000000E+000
 -3.060000000000000E-002    0.000000000000000E+000
 -3.050000000000000E-002    0.000000000000000E+000
 -3.040000000000000E-002    0.000000000000000E+000
 -3.030000000000000E-002    0.000000000000000E+000
 -3.020000000000000E-002    0.000000000000000E+000
 -3.010000000000000E-002    0.000000000000000E+000
 -3.000000000000000E-002    0.000000000000000E+000
 -2.990000000000000E-002    0.000000000000000E+000
 -2.980000000000000E-002    0.000000000000000E+000
 -2.970000000000000E-002    0.000000000000000E+000
 -2.960000000000000E-002    0.000000000000000E+000
 -2.950000000000000E-002    0.000000000000000E+000
 -2.940000000000000E-002    0.000000000000000E+000
 -2.930000000000000E-002    0.000000000000000E+000
 -2.920000000000000E-002    0.000000000000000E+000
 -2.910000000000000E-002    0.000000000000000E+000
 -2.900000000000000E-002    0.000000000000000E+000
 -2.890000000000000E-002    0.000000000000000E+000
 -2.880000000000000E-002    0.000000000000000E+000
 -2.870000000000000E-002    0.000000000000000E+000
 -2.860000000000000E-002    0.000000000000000E+000
 -2.850000000000000E-002    0.000000000000000E+000
 -2.840000000000000E-002    0.000000000000000E+000
 -2.830000000000000E-002    0.000000000000000E+000
 -2.820000000000000E-002    0.000000000000000E+000
 -2.810000000000000E-002    0.000000000000000E+000
 -2.800000000000000E-002    0.000000000000000E+000
 -2.790000000000000E-002    0.000000000000000E+000
 -2.780000000000000E-002    0.000000000000000E+000
 -2.770000000000000E-002    0.000000000000000E+000
 -2.760000000000000E-002    0.000000000000000E+000
 -2.750000000000000E-002    0.000000000000000E+000
 -2.740000000000000E-002    0.000000000000000E+000
 -2.730000000000000E-002    0.000000000000000E+000
 -2.720000000000000E-002    0.000000000000000E+000
 -2.710000000000000E-002    0.000000000000000E+000
 -2.700000000000000E-002    0.000000000000000E+000
 -2.690000000000000E-002    0.000000000000000E+000
 -2.680000000000000E-002    0.000000000000000E+000
 -2.670000000000000E-002    0.000000000000000E+000
 -2.660000000000000E-002    0.000000000000000E+000
 -2.650000000000000E-002    0.000000000000000E+000
 -2.640000000000000E-002    0.000000000000000E+000
 -2.630000000000000E-002    0.000000000000000E+000
 -2.620000000000000E-002    0.000000000000000E+000
 -2.610000000000000E-002    0.000000000000000E+000
 -2.600000000000000E-002    0.000000000000000E+000
 -2.590000000000000E-002    0.000000000000000E+000
 -2.580000000000000E-002    0.000000000000000E+000
 -2.570000000000000E-002    0.000000000000000E+000
 -2.560000000000000E-002    0.000000000000000E+000
 -2.550000000000000E-002    0.000000000000000E+000
 -2.540000000000000E-002    0.000000000000000E+000
 -2.530000000000000E-002    0.000000000000000E+000
 -2.520000000000000E-002    0.000000000000000E+000
 -2.510000000000000E-002    0.000000000000000E+000
 -2.500000000000000E-002    0.000000000000000E+000
 -2.490000000000000E-002    0.000000000000000E+000
 -2.480000000000000E-002    0.000000000000000E+000
 -2.470000000000000E-002    0.000000000000000E+000
 -2.460000000000000E-002    0.000000000000000E+000
 -2.450000000000000E-002    0.000000000000000E+000
 -2.440000000000000E-002    0.000000000000000E+000
 -2.430000000000000E-002    0.000000000000000E+000
 -2.420000000000000E-002    0.000000000000000E+000
 -2.410000000000000E-002    0.000000000000000E+000
 -2.400000000000000E-002    0.000000000000000E+000
 -2.390000000000000E-002    0.000000000000000E+000
 -2.380000000000000E-002    0.000000000000000E+000
 -2.370000000000000E-002    0.000000000000000E+000
 -2.360000000000000E-002    0.000000000000000E+000
 -2.350000000000000E-002    0.000000000000000E+000
 -2.340000000000000E-002    0.000000000000000E+000
 -2.330000000000000E-002    0.000000000000000E+000
 -2.320000000000000E-002    0.000000000000000E+000
 -2.310000000000000E-002    0.000000000000000E+000
 -2.300000000000000E-002    0.000000000000000E+000
 -2.290000000000000E-002    0.000000000000000E+000
 -2.280000000000000E-002    0.000000000000000E+000
 -2.270000000000000E-002    0.000000000000000E+000
 -2.260000000000000E-002    0.000000000000000E+000
 -2.250000000000000E-002    0.000000000000000E+000
 -2.240000000000000E-002    0.000000000000000E+000
 -2.230000000000000E-002    0.000000000000000E+000
 -2.220000000000000E-002    0.000000000000000E+000
 -2.210000000000000E-002    0.000000000000000E+000
 -2.200000000000000E-002    0.000000000000000E+000
 -2.190000000000000E-002    0.000000000000000E+000
 -2.180000000000000E-002    0.000000000000000E+000
 -2.170000000000000E-002    0.000000000000000E+000
 -2.160000000000000E-002    0.000000000000000E+000
 -2.150000000000000E-002    0.000000000000000E+000
 -2.140000000000000E-002    0.000000000000000E+000
 -2.130000000000000E-002    0.000000000000000E+000
 -2.120000000000000E-002    0.000000000000000E+000
 -2.110000000000000E-002    0.000000000000000E+000
 -2.100000000000000E-002    0.000000000000000E+000
 -2.090000000000000E-002    0.000000000000000E+000
 -2.080000000000000E-002    0.000000000000000E+000
 -2.070000000000000E-002    0.000000000000000E+000
 -2.060000000000000E-002    0.000000000000000E+000
 -2.050000000000000E-002    0.000000000000000E+000
 -2.040000000000000E-002    0.000000000000000E+000
 -2.030000000000000E-002    0.000000000000000E+000
 -2.020000000000000E-002    0.000000000000000E+000
 -2.010000000000000E-002    0.000000000000000E+000
 -2.000000000000000E-002    0.000000000000000E+000
 -1.990000000000000E-002    0.000000000000000E+000
 -1.980000000000000E-002    0.000000000000000E+000
 -1.970000000000000E-002    0.000000000000000E+000
 -1.960000000000000E-002    0.000000000000000E+000
 -1.950000000000000E-002    0.000000000000000E+000
 -1.940000000000000E-002    0.000000000000000E+000
 -1.930000000000000E-002    0.000000000000000E+000
 -1.920000000000000E-002    0.000000000000000E+000
 -1.910000000000000E-002    0.000000000000000E+000
 -1.900000000000000E-002    0.000000000000000E+000
 -1.890000000000000E-002    0.000000000000000E+000
 -1.880000000000000E-002    0.000000000000000E+000
 -1.870000000000000E-002    0.000000000000000E+000
 -1.860000000000000E-002    0.000000000000000E+000
 -1.850000000000000E-002    0.000000000000000E+000
 -1.840000000000000E-002    0.000000000000000E+000
 -1.830000000000000E-002    0.000000000000000E+000
 -1.820000000000000E-002    0.000000000000000E+000
 -1.810000000000000E-002    0.000000000000000E+000
 -1.800000000000000E-002    0.000000000000000E+000
 -1.790000000000000E-002    0.000000000000000E+000
 -1.780000000000000E-002    0.000000000000000E+000
 -1.770000000000000E-002    0.000000000000000E+000
 -1.760000000000000E-002    0.000000000000000E+000
 -1.750000000000000E-002    0.000000000000000E+000
 -1.740000000000000E-002    0.000000000000000E+000
 -1.730000000000000E-002    0.000000000000000E+000
 -1.720000000000000E-002    0.000000000000000E+000
 -1.710000000000000E-002    0.000000000000000E+000
 -1.700000000000000E-002    0.000000000000000E+000
 -1.690000000000000E-002    0.000000000000000E+000
 -1.680000000000000E-002    0.000000000000000E+000
 -1.670000000000000E-002    0.000000000000000E+000
 -1.660000000000000E-002    0.000000000000000E+000
 -1.650000000000000E-002    0.000000000000000E+000
 -1.640000000000000E-002    0.000000000000000E+000
 -1.630000000000000E-002    0.000000000000000E+000
 -1.620000000000000E-002    0.000000000000000E+000
 -1.610000000000000E-002    0.000000000000000E+000
 -1.600000000000000E-002    0.000000000000000E+000
 -1.590000000000000E-002    0.000000000000000E+000
 -1.580000000000000E-002    0.000000000000000E+000
 -1.570000000000000E-002    0.000000000000000E+000
 -1.560000000000000E-002    0.000000000000000E+000
 -1.550000000000000E-002    0.000000000000000E+000
 -1.540000000000000E-002    0.000000000000000E+000
 -1.530000000000000E-002    0.000000000000000E+000
 -1.520000000000000E-002    0.000000000000000E+000
 -1.510000000000000E-002    0.000000000000000E+000
 -1.500000000000000E-002    0.000000000000000E+000
 -1.490000000000000E-002    0.000000000000000E+000
 -1.480000000000000E-002    0.000000000000000E+000
 -1.470000000000000E-002    0.000000000000000E+000
 -1.460000000000000E-002    0.000000000000000E+000
 -1.450000000000000E-002    0.000000000000000E+000
 -1.440000000000000E-002    0.000000000000000E+000
 -1.430000000000000E-002    0.000000000000000E+000
 -1.420000000000000E-002    0.000000000000000E+000
 -1.410000000000000E-002    0.000000000000000E+000
 -1.400000000000000E-002    0.000000000000000E+000
 -1.390000000000000E-002    0.000000000000000E+000
 -1.380000000000000E-002    0.000000000000000E+000
 -1.370000000000000E-002    0.000000000000000E+000
 -1.360000000000000E-002    0.000000000000000E+000
 -1.350000000000000E-002    0.000000000000000E+000
 -1.340000000000000E-002    0.000000000000000E+000
 -1.330000000000000E-002    0.000000000000000E+000
 -1.320000000000000E-002    0.000000000000000E+000
 -1.310000000000000E-002    0.000000000000000E+000
 -1.300000000000000E-002    0.000000000000000E+000
 -1.290000000000000E-002    0.000000000000000E+000
 -1.280000000000000E-002    0.000000000000000E+000
 -1.270000000000000E-002    0.000000000000000E+000
 -1.260000000000000E-002    0.000000000000000E+000
 -1.250000000000000E-002    0.000000000000000E+000
 -1.240000000000000E-002    0.000000000000000E+000
 -1.230000000000000E-002    0.000000000000000E+000
 -1.220000000000000E-002    0.000000000000000E+000
 -1.210000000000000E-002    0.000000000000000E+000
 -1.200000000000000E-002    0.000000000000000E+000
 -1.190000000000000E-002    0.000000000000000E+000
 -1.180000000000000E-002   -1.385494585880785E-048
 -1.170000000000000E-002   -2.770989171761569E-048
 -1.160000000000000E-002   -4.156483757642354E-048
 -1.150000000000000E-002   -5.541978343523138E-048
 -1.140000000000000E-002   -6.927472929403923E-048
 -1.130000000000000E-002   -5.399219114001918E-048
 -1.120000000000000E-002    1.404742338904692E-047
 -1.110000000000000E-002    6.706505597236069E-048
 -1.100000000000000E-002   -3.625169278059837E-048
 -1.090000000000000E-002    1.429389409998725E-047
 -1.080000000000000E-002    2.085883988814647E-047
 -1.070000000000000E-002    2.835539727537493E-047
 -1.060000000000000E-002    5.158284865190121E-047
 -1.050000000000000E-002    7.517335189971632E-047
 -1.040000000000000E-002    4.698593721460675E-047
 -1.030000000000000E-002    1.396234836213535E-047
 -1.020000000000000E-002   -3.621221310498352E-047
 -1.010000000000000E-002   -8.076906649515673E-047
 -1.000000000000000E-002   -2.830756931070282E-046
 -9.899999999999999E-003   -4.764098533313505E-046
 -9.800000000000000E-003   -7.236783790375462E-046
 -9.699999999999999E-003   -9.652175598575778E-046
 -9.599999999999999E-003   -1.061469050613981E-045
 -9.500000000000000E-003   -9.606382186153463E-046
 -9.399999999999999E-003   -5.668952153201077E-046
 -9.299999999999999E-003    1.131459755751948E-046
 -9.200000000000000E-003    1.447796516449032E-045
 -9.099999999999999E-003    2.594622390666423E-045
 -8.999999999999999E-003    4.220681298677595E-045
 -8.900000000000000E-003    5.533610939474437E-045
 -8.799999999999999E-003    7.238062183636728E-045
 -8.699999999999999E-003    7.730211754393176E-045
 -8.600000000000000E-003    7.628136003844901E-045
 -8.499999999999999E-003    6.875683600067695E-045
 -8.399999999999999E-003    4.536118580811052E-045
 -8.300000000000000E-003    5.974867998070725E-047
 -8.199999999999999E-003   -5.634922012029451E-045
 -8.100000000000000E-003   -1.309112177970969E-044
 -8.000000000000000E-003   -2.140709910917438E-044
 -7.899999999999999E-003   -2.976950218500410E-044
 -7.800000000000000E-003   -3.717864132489006E-044
 -7.699999999999999E-003   -4.212679131449430E-044
 -7.599999999999999E-003   -4.146662165873752E-044
 -7.499999999999999E-003   -3.459914771488913E-044
 -7.399999999999999E-003   -1.976354743374905E-044
 -7.299999999999999E-003    3.186913437561497E-045
 -7.199999999999999E-003    3.530469465565753E-044
 -7.100000000000000E-003    7.340862606111460E-044
 -6.999999999999999E-003    1.156675963604336E-043
 -6.899999999999999E-003    1.558924485830034E-043
 -6.800000000000000E-003    1.886546386000136E-043
 -6.699999999999999E-003    2.052851821148098E-043
 -6.599999999999999E-003    1.993135097687167E-043
 -6.499999999999999E-003    1.626231992676152E-043
 -6.399999999999999E-003    8.847860594996451E-044
 -6.299999999999999E-003   -2.525345333932073E-044
 -6.199999999999999E-003   -1.781445174516100E-043
 -6.100000000000000E-003   -3.638922345763840E-043
 -5.999999999999999E-003   -5.699782873315501E-043
 -5.899999999999999E-003   -7.788986877164431E-043
 -5.800000000000000E-003   -9.630640997586632E-043
 -5.699999999999999E-003   -1.089784228759732E-042
 -5.599999999999999E-003   -1.120308106186966E-042
 -5.499999999999999E-003   -1.011813721913451E-042
 -5.399999999999999E-003   -7.210572673679476E-043
 -5.299999999999999E-003   -2.109334347343343E-043
 -5.199999999999999E-003    5.440442723957493E-043
 -5.099999999999999E-003    1.545873616689059E-042
 -4.999999999999999E-003    2.763401164350283E-042
 -4.899999999999999E-003    4.118084711601890E-042
 -4.799999999999999E-003    5.474378511282691E-042
 -4.699999999999999E-003    6.629976295635185E-042
 -4.599999999999999E-003    7.316619265118915E-042
 -4.499999999999999E-003    7.208947214906097E-042
 -4.399999999999999E-003    5.951569974529618E-042
 -4.299999999999999E-003    3.207387274800292E-042
 -4.199999999999999E-003   -1.279644989098928E-042
 -4.099999999999999E-003   -7.597117370331019E-042
 -3.999999999999999E-003   -1.556758086023954E-041
 -3.899999999999999E-003   -2.465314727459431E-041
 -3.799999999999999E-003   -3.387607362356652E-041
 -3.699999999999999E-003   -4.178872912285282E-041
 -3.599999999999999E-003   -4.650464276577989E-041
 -3.499999999999999E-003   -4.583043539948209E-041
 -3.399999999999999E-003   -3.751202806153974E-041
 -3.299999999999999E-003   -1.959297618701719E-041
 -3.199999999999999E-003    9.112884052688250E-042
 -3.099999999999999E-003    4.849275903034881E-041
 -2.999999999999999E-003    9.660106189215074E-041
 -2.899999999999999E-003    1.492304302734808E-040
 -2.799999999999999E-003    1.996960625476367E-040
 -2.699999999999999E-003    2.389611523805954E-040
 -2.599999999999999E-003    2.562104089221751E-040
 -2.499999999999999E-003    2.399590651907782E-040
 -2.399999999999999E-003    1.796904118800412E-040
 -2.299999999999999E-003    6.795799445733138E-041
 -2.199999999999999E-003   -9.724374765634453E-041
 -2.099999999999999E-003   -3.101343905679417E-040
 -1.999999999999999E-003   -5.552425793022120E-040
 -1.899999999999999E-003   -8.063945479559748E-040
 -1.799999999999999E-003   -1.027086915446390E-039
 -1.699999999999999E-003   -1.172637190801923E-039
 -1.599999999999999E-003   -1.194373177756430E-039
 -1.499999999999999E-003   -1.045834903155811E-039
 -1.399999999999999E-003   -6.906654376428024E-040
 -1.299999999999999E-003   -1.114630405843685E-040
 -1.199999999999999E-003    6.814851702825640E-040
 -1.099999999999999E-003    1.642982735990431E-039
 -9.999999999999989E-004    2.688767271411496E-039
 -8.999999999999990E-004    3.695947970858969E-039
 -7.999999999999990E-004    4.509260434483653E-039
 -6.999999999999989E-004    4.953829266126047E-039
 -5.999999999999990E-004    4.854315889428100E-039
 -4.999999999999989E-004    4.059358778461759E-039
 -3.999999999999989E-004    2.469154638630126E-039
 -2.999999999999989E-004    6.307590793635706E-041
 -1.999999999999989E-004   -3.076502288334677E-039
 -9.999999999999892E-005   -6.748300742155172E-039
  1.084202172485504E-018   -1.062805840555153E-038
  1.000000000000011E-004   -1.427934904136652E-038
  2.000000000000011E-004   -1.718096805313302E-038
  3.000000000000011E-004   -1.877066807102232E-038
  4.000000000000011E-004   -1.850294950005736E-038
  5.000000000000011E-004   -1.591651310206910E-038
  6.000000000000011E-004   -1.070525979080963E-038
  7.000000000000011E-004   -2.785634636733621E-039
  8.000000000000011E-004    7.647191015569590E-039
  9.000000000000012E-004    2.008115906857581E-038
  1.000000000000001E-003    3.367265778373131E-038
  1.100000000000001E-003    4.725889243881203E-038
  1.200000000000001E-003    5.939883389327587E-038
  1.300000000000001E-003    6.844249250715137E-038
  1.400000000000001E-003    7.262729527898995E-038
  1.500000000000001E-003    7.020014732135613E-038
  1.600000000000001E-003    5.956448813429435E-038
  1.700000000000001E-003    3.945225614491873E-038
  1.800000000000001E-003    9.121374703650701E-039
  1.900000000000001E-003   -3.142213136183707E-038
  2.000000000000001E-003   -8.118256975174688E-038
  2.100000000000001E-003   -1.379264241718305E-037
  2.200000000000001E-003   -1.979518477990917E-037
  2.300000000000001E-003   -2.559157490435219E-037
  2.400000000000001E-003   -3.047738635418558E-037
  2.500000000000001E-003   -3.359036235757759E-037
  2.600000000000001E-003   -3.394872115435410E-037
  2.700000000000001E-003   -3.052281757645553E-037
  2.800000000000001E-003   -2.234551287602177E-037
  2.900000000000001E-003   -8.662467121436621E-038
  3.000000000000001E-003    1.088249543859966E-037
  3.100000000000001E-003    3.603993184478652E-037
  3.200000000000001E-003    6.574745903111889E-037
  3.300000000000001E-003    9.795416845502182E-037
  3.400000000000001E-003    1.295160223051639E-036
  3.500000000000001E-003    1.562059327654680E-036
  3.600000000000001E-003    1.728812098378779E-036
  3.700000000000001E-003    1.738426538622148E-036
  3.800000000000001E-003    1.534035299285159E-036
  3.900000000000001E-003    1.066616300429212E-036
  4.000000000000001E-003    3.043566439162403E-037
  4.100000000000001E-003   -7.570958373176688E-037
  4.200000000000001E-003   -2.084622655456128E-036
  4.300000000000001E-003   -3.599330280870258E-036
  4.400000000000001E-003   -5.171638480109911E-036
  4.500000000000001E-003   -6.621504241519972E-036
  4.600000000000002E-003   -7.725370252263375E-036
  4.700000000000001E-003   -8.230999423083902E-036
  4.800000000000001E-003   -7.880668697633566E-036
  4.900000000000002E-003   -6.442239242310385E-036
  5.000000000000001E-003   -3.746491705561952E-036
  5.100000000000001E-003    2.721591385666720E-037
  5.200000000000001E-003    5.535665168163840E-036
  5.300000000000002E-003    1.178822768965801E-035
  5.400000000000001E-003    1.857392707962834E-035
  5.500000000000001E-003    2.523218555807896E-035
  5.600000000000002E-003    3.091669354722881E-035
  5.700000000000001E-003    3.464219911534567E-035
  5.800000000000001E-003    3.536154824223124E-035
  5.900000000000002E-003    3.207249645127170E-035
  6.000000000000001E-003    2.395024607800886E-035
  6.100000000000001E-003    1.049763143994110E-035
  6.200000000000002E-003   -8.299448804500311E-036
  6.300000000000002E-003   -3.182776835078465E-035
  6.400000000000001E-003   -5.873367344103241E-035
  6.500000000000001E-003   -8.686308534828430E-035
  6.600000000000002E-003   -1.132771354149503E-034
  6.700000000000001E-003   -1.343636969038863E-034
  6.800000000000001E-003   -1.460601927562541E-034
  6.900000000000002E-003   -1.441947271197331E-034
  7.000000000000001E-003   -1.249409284091972E-034
  7.100000000000001E-003   -8.536739500745460E-035
  7.200000000000002E-003   -2.404558242108023E-035
  7.300000000000002E-003    5.833777378130638E-035
  7.400000000000001E-003    1.584346631699530E-034
  7.500000000000001E-003    2.698404237576768E-034
  7.600000000000002E-003    3.829412609139835E-034
  7.700000000000001E-003    4.850950434518544E-034
  7.800000000000001E-003    5.612227122136396E-034
  7.900000000000001E-003    5.948618988009872E-034
  8.000000000000002E-003    5.696925771663165E-034
  8.100000000000001E-003    4.714909966732412E-034
  8.200000000000001E-003    2.904032637100935E-034
  8.300000000000002E-003    2.335893757514693E-035
  8.400000000000001E-003   -3.236221938467075E-034
  8.500000000000002E-003   -7.335363759920371E-034
  8.600000000000002E-003   -1.177255208848571E-033
  8.700000000000001E-003   -1.613486130200087E-033
  8.800000000000002E-003   -1.990142049169529E-033
  8.900000000000002E-003   -2.247348949765701E-033
  9.000000000000001E-003   -2.322183438001683E-033
  9.100000000000002E-003   -2.155057707392683E-033
  9.200000000000002E-003   -1.697453145430776E-033
  9.300000000000001E-003   -9.204672158901925E-034
  9.400000000000002E-003    1.765881734408245E-034
  9.500000000000001E-003    1.558504303071941E-033
  9.600000000000001E-003    3.148510241830999E-033
  9.700000000000002E-003    4.825785901149554E-033
  9.800000000000001E-003    6.427238387293711E-033
  9.900000000000001E-003    7.754426515887407E-033
  1.000000000000000E-002    8.586183030823913E-033
  1.010000000000000E-002    8.696984236061612E-033
  1.020000000000000E-002    7.880529590902404E-033
  1.030000000000000E-002    5.977291171667251E-033
  1.040000000000000E-002    2.904088085974222E-033
  1.050000000000000E-002   -1.316951906904546E-033
  1.060000000000000E-002   -6.533274124278714E-033
  1.070000000000000E-002   -1.244423502600907E-032
  1.080000000000000E-002   -1.859464004350190E-032
  1.090000000000000E-002   -2.438301906130262E-032
  1.100000000000000E-002   -2.908756917572595E-032
  1.110000000000000E-002   -3.191159207385153E-032
  1.120000000000000E-002   -3.204879850727946E-032
  1.130000000000000E-002   -2.876681628847472E-032
  1.140000000000000E-002   -2.150500569037570E-032
  1.150000000000000E-002   -9.980073838419679E-033
  1.160000000000000E-002    5.709512747386721E-033
  1.170000000000000E-002    2.499178928866781E-032
  1.180000000000000E-002    4.675537121712891E-032
  1.190000000000000E-002    6.932356129366878E-032
  1.200000000000000E-002    9.048236673244413E-032
  1.210000000000000E-002    1.075741777058229E-031
  1.220000000000000E-002    1.176653854412022E-031
  1.230000000000000E-002    1.177900042912509E-031
  1.240000000000000E-002    1.052637873910140E-031
  1.250000000000000E-002    7.805367029672101E-032
  1.260000000000000E-002    3.517686417178549E-032
  1.270000000000000E-002   -2.290670767864045E-032
  1.280000000000000E-002   -9.395471831209501E-032
  1.290000000000000E-002   -1.737082956353142E-031
  1.300000000000000E-002   -2.558190046500254E-031
  1.310000000000000E-002   -3.319897535832067E-031
  1.320000000000000E-002   -3.923718776999304E-031
  1.330000000000000E-002   -4.262428919133598E-031
  1.340000000000000E-002   -4.229636164678535E-031
  1.350000000000000E-002   -3.731801979840817E-031
  1.360000000000000E-002   -2.701989417112063E-031
  1.370000000000000E-002   -1.114234123941155E-031
  1.380000000000000E-002    1.002943767740647E-031
  1.390000000000000E-002    3.555649921060988E-031
  1.400000000000000E-002    6.378256954332475E-031
  1.410000000000000E-002    9.233455924784819E-031
  1.420000000000000E-002    1.182034011622382E-030
  1.430000000000000E-002    1.379161403952051E-030
  1.440000000000000E-002    1.478025678083978E-030
  1.450000000000000E-002    1.443496257912909E-030
  1.460000000000000E-002    1.246253247142057E-030
  1.470000000000000E-002    8.674142553348912E-031
  1.480000000000000E-002    3.031270249695218E-031
  1.490000000000000E-002   -4.313899167232721E-031
  1.500000000000000E-002   -1.298937428828714E-030
  1.510000000000000E-002   -2.239139833245597E-030
  1.520000000000000E-002   -3.169491117232411E-030
  1.530000000000000E-002   -3.989044306837860E-030
  1.540000000000000E-002   -4.584942795601196E-030
  1.550000000000000E-002   -4.841727352005558E-030
  1.560000000000000E-002   -4.653035422612477E-030
  1.570000000000000E-002   -3.934967241045058E-030
  1.580000000000000E-002   -2.640057181054501E-030
  1.590000000000000E-002   -7.704881184121977E-031
  1.600000000000000E-002    1.611008833105061E-030
  1.610000000000000E-002    4.374235853870358E-030
  1.620000000000000E-002    7.320158212515492E-030
  1.630000000000000E-002    1.018643360007166E-029
  1.640000000000000E-002    1.266071166722781E-029
  1.650000000000000E-002    1.440198062596051E-029
  1.660000000000000E-002    1.506943067033243E-029
  1.670000000000000E-002    1.435744418900290E-029
  1.680000000000000E-002    1.203439272328643E-029
  1.690000000000000E-002    7.982047410442641E-030
  1.700000000000000E-002    2.231727999844809E-030
  1.710000000000000E-002   -5.007161122984298E-030
  1.720000000000000E-002   -1.333067082538635E-029
  1.730000000000000E-002   -2.214002608792689E-029
  1.740000000000000E-002   -3.066086614364476E-029
  1.750000000000000E-002   -3.798402746314508E-029
  1.760000000000000E-002   -4.312812682857865E-029
  1.770000000000000E-002   -4.512210815711167E-029
  1.780000000000000E-002   -4.310353824315103E-029
  1.790000000000000E-002   -3.642604955725233E-029
  1.800000000000000E-002   -2.476714265223771E-029
  1.810000000000000E-002   -8.225782283257613E-030
  1.820000000000000E-002    1.260182596397701E-029
  1.830000000000000E-002    3.657996872803267E-029
  1.840000000000000E-002    6.203539021667094E-029
  1.850000000000000E-002    8.681190357005147E-029
  1.860000000000000E-002    1.083825219960067E-028
  1.870000000000000E-002    1.240194263925929E-028