 -4.000000000000000E-002    0.000000000000000E+000
 -3.990000000000000E-002    0.000000000000000E+000
 -3.980000000000000E-002    0.000000000000000E+000
 -3.970000000000000E-002   -5.204815625234674E-017
 -3.960000000000000E-002   -2.645716981665030E-016
 -3.950000000000000E-002   -5.844401670833786E-016
 -3.940000000000000E-002   -1.656453475058501E-016
 -3.930000000000000E-002    3.806743225362394E-015
 -3.920000000000000E-002    1.783024448195728E-014
 -3.910000000000000E-002    5.412817020076171E-014
 -3.900000000000000E-002    1.325811029094087E-013
 -3.890000000000000E-002    2.818859651731883E-013
 -3.880000000000000E-002    5.391244823527731E-013
 -3.870000000000000E-002    9.468805009872271E-013
 -3.860000000000000E-002    1.547163698925983E-012
 -3.850000000000000E-002    2.371698698353010E-012
 -3.840000000000000E-002    3.428639569954263E-012
 -3.830000000000000E-002    4.686444144489217E-012
 -3.820000000000000E-002    6.056448168994479E-012
 -3.810000000000000E-002    7.376505131107151E-012
 -3.800000000000000E-002    8.398824376268437E-012
 -3.790000000000000E-002    8.785660875705861E-012
 -3.780000000000000E-002    8.116654689084445E-012
 -3.770000000000000E-002    5.911232600617634E-012
 -3.760000000000000E-002    1.668442234662426E-012
 -3.750000000000000E-002   -5.075155886851309E-012
 -3.740000000000000E-002   -1.467128011249168E-011
 -3.730000000000000E-002   -2.727407403726943E-011
 -3.720000000000000E-002   -4.275033083315378E-011
 -3.710000000000000E-002   -6.059645919855315E-011
 -3.700000000000000E-002   -7.987504588166814E-011
 -3.690000000000000E-002   -9.918488052784631E-011
 -3.680000000000000E-002   -1.166776002079925E-010
 -3.670000000000000E-002   -1.301313756373976E-010
 -3.660000000000000E-002   -1.370871528484491E-010
 -3.650000000000000E-002   -1.350461271224077E-010
 -3.640000000000000E-002   -1.217185325331092E-010
 -3.630000000000000E-002   -9.530529260564115E-011
 -3.620000000000000E-002   -5.478524601275049E-011
 -3.610000000000000E-002   -1.743687930495773E-013
 -3.600000000000000E-002    6.727977562387359E-011
 -3.590000000000000E-002    1.450041734006755E-010
 -3.580000000000000E-002    2.291367080673463E-010
 -3.570000000000000E-002    3.147108146086691E-010
 -3.560000000000000E-002    3.959904972878181E-010
 -3.550000000000000E-002    4.669389500231825E-010
 -3.540000000000000E-002    5.217833440651710E-010
 -3.530000000000000E-002    5.556200194435650E-010
 -3.520000000000000E-002    5.649899087505682E-010
 -3.510000000000000E-002    5.483472737083356E-010
 -3.500000000000000E-002    5.063470059447460E-010
 -3.490000000000000E-002    4.418883873201109E-010
 -3.480000000000000E-002    3.598765799295189E-010
 -3.470000000000000E-002    2.666946894531158E-010
 -3.460000000000000E-002    1.694168609700864E-010
 -3.450000000000000E-002    7.483194185697169E-011
 -3.440000000000000E-002   -1.161768966760034E-011
 -3.430000000000000E-002   -8.685147258229458E-011
 -3.420000000000000E-002   -1.509762187694631E-010
 -3.410000000000000E-002   -2.077817299032000E-010
 -3.400000000000000E-002   -2.647908799934721E-010
 -3.390000000000000E-002   -3.327882307619423E-010
 -3.380000000000000E-002   -4.248071017541411E-010
 -3.370000000000000E-002   -5.546213184174131E-010
 -3.360000000000000E-002   -7.348544394444121E-010
 -3.350000000000000E-002   -9.748813606629188E-010
 -3.340000000000000E-002   -1.278743758291745E-009
 -3.330000000000000E-002   -1.643326567495640E-009
 -3.320000000000000E-002   -2.057041002930062E-009
 -3.310000000000000E-002   -2.499228878128883E-009
 -3.300000000000000E-002   -2.940444638137068E-009
 -3.290000000000000E-002   -3.343689175904545E-009
 -3.280000000000000E-002   -3.666572213117495E-009
 -3.270000000000000E-002   -3.864277587012443E-009
 -3.260000000000000E-002   -3.893109524878272E-009
 -3.250000000000000E-002   -3.714323197941407E-009
 -3.240000000000000E-002   -3.297886219164337E-009
 -3.230000000000000E-002   -2.625811416976054E-009
 -3.220000000000000E-002   -1.694720241354365E-009
 -3.210000000000000E-002   -5.173582577836661E-010
 -3.200000000000000E-002    8.771210456948249E-010
 -3.190000000000000E-002    2.444173889360447E-009
 -3.180000000000000E-002    4.126125760921131E-009
 -3.170000000000000E-002    5.855491931955487E-009
 -3.160000000000000E-002    7.559072813715181E-009
 -3.150000000000000E-002    9.162455573207495E-009
 -3.140000000000000E-002    1.059451761658555E-008
 -3.130000000000000E-002    1.179152533926742E-008
 -3.120000000000000E-002    1.270046871438430E-008
 -3.110000000000000E-002    1.328134616232792E-008
 -3.100000000000000E-002    1.350823615828554E-008
 -3.090000000000000E-002    1.336910325050364E-008
 -3.080000000000000E-002    1.286443387627167E-008
 -3.070000000000000E-002    1.200490388087277E-008
 -3.060000000000000E-002    1.080840185486188E-008
 -3.050000000000000E-002    9.296769989500246E-009
 -3.040000000000000E-002    7.492696294697185E-009
 -3.030000000000000E-002    5.417143622614608E-009
 -3.020000000000000E-002    3.087682388029013E-009
 -3.010000000000000E-002    5.179973023731410E-010
 -3.000000000000000E-002   -2.281278792113546E-009
 -2.990000000000000E-002   -5.300379048232525E-009
 -2.980000000000000E-002   -8.526974824126024E-009
 -2.970000000000000E-002   -1.194177493383794E-008
 -2.960000000000000E-002   -1.551353556277776E-008
 -2.950000000000000E-002   -1.919397726992493E-008
 -2.940000000000000E-002   -2.291318241534697E-008
 -2.930000000000000E-002   -2.657607951919457E-008
 -2.920000000000000E-002   -3.006060180996740E-008
 -2.910000000000000E-002   -3.321806083492096E-008
 -2.900000000000000E-002   -3.587614664689425E-008
 -2.890000000000000E-002   -3.784479994492988E-008
 -2.880000000000000E-002   -3.892499217872039E-008
 -2.870000000000000E-002   -3.892019184018437E-008
 -2.860000000000000E-002   -3.765005828950329E-008
 -2.850000000000000E-002   -3.496557598897515E-008
 -2.840000000000000E-002   -3.076466364663594E-008
 -2.830000000000000E-002   -2.500705695620170E-008
 -2.820000000000000E-002   -1.772717912441390E-008
 -2.810000000000000E-002   -9.043656299048879E-009
 -2.800000000000000E-002    8.357203978330269E-010
 -2.790000000000000E-002    1.161461074805418E-008
 -2.780000000000000E-002    2.291493940371265E-008
 -2.770000000000000E-002    3.429015370902550E-008
 -2.760000000000000E-002    4.524460204020222E-008
 -2.750000000000000E-002    5.525819184472049E-008
 -2.740000000000000E-002    6.381492314273019E-008
 -2.730000000000000E-002    7.043352488276176E-008
 -2.720000000000000E-002    7.469796531550998E-008
 -2.710000000000000E-002    7.628558724716103E-008
 -2.700000000000000E-002    7.499060865070406E-008
 -2.690000000000000E-002    7.074102368001720E-008
 -2.680000000000000E-002    6.360736865701911E-008
 -2.670000000000000E-002    5.380259410820273E-008
 -2.660000000000000E-002    4.167294799571995E-008
 -2.650000000000000E-002    2.768069918180455E-008
 -2.640000000000000E-002    1.238024895859455E-008
 -2.630000000000000E-002   -3.610020686752014E-009
 -2.620000000000000E-002   -1.963746037993766E-008
 -2.610000000000000E-002   -3.504332648790224E-008
 -2.600000000000000E-002   -4.918653313059391E-008
 -2.590000000000000E-002   -6.146041118733217E-008
 -2.580000000000000E-002   -7.130047648593141E-008
 -2.570000000000000E-002   -7.818224292685996E-008
 -2.560000000000000E-002   -8.160908188503512E-008
 -2.550000000000000E-002   -8.109132713468424E-008
 -2.540000000000000E-002   -7.611853157906760E-008
 -2.530000000000000E-002   -6.612822566546521E-008
 -2.520000000000000E-002   -5.047460725228885E-008
 -2.510000000000000E-002   -2.840117702655689E-008
 -2.500000000000000E-002    9.789895149939615E-010
 -2.490000000000000E-002    3.869181841318370E-008
 -2.480000000000000E-002    8.589735951195881E-008
 -2.470000000000000E-002    1.438700345705803E-007
 -2.460000000000000E-002    2.139639165979369E-007
 -2.450000000000000E-002    2.975645824365070E-007
 -2.440000000000000E-002    3.960301533829779E-007
 -2.430000000000000E-002    5.106250503865464E-007
 -2.420000000000000E-002    6.424520483083603E-007
 -2.410000000000000E-002    7.923870656594696E-007
 -2.400000000000000E-002    9.610226337589511E-007
 -2.390000000000000E-002    1.148624913283168E-006
 -2.380000000000000E-002    1.355108214088441E-006
 -2.370000000000000E-002    1.580030746007424E-006
 -2.360000000000000E-002    1.822613171602977E-006
 -2.350000000000000E-002    2.081779425472106E-006
 -2.340000000000000E-002    2.356219451140089E-006
 -2.330000000000000E-002    2.644469221041301E-006
 -2.320000000000000E-002    2.945004753606609E-006
 -2.310000000000000E-002    3.256343607882082E-006
 -2.300000000000000E-002    3.577146323266736E-006
 -2.290000000000000E-002    3.906314020940945E-006
 -2.280000000000000E-002    4.243071719238408E-006
 -2.270000000000000E-002    4.587033371704365E-006
 -2.260000000000000E-002    4.938242520929007E-006
 -2.250000000000000E-002    5.297187997523506E-006
 -2.240000000000000E-002    5.664787505287346E-006
 -2.230000000000000E-002    6.042346082578994E-006
 -2.220000000000000E-002    6.431486271447238E-006
 -2.210000000000000E-002    6.834058834058006E-006
 -2.200000000000000E-002    7.252038302971529E-006
 -2.190000000000000E-002    7.687411690752330E-006
 -2.180000000000000E-002    8.142068138277163E-006
 -2.170000000000000E-002    8.617700200941259E-006
 -2.160000000000000E-002    9.115725035890973E-006
 -2.150000000000000E-002    9.637230059640952E-006
 -2.140000000000000E-002    1.018295197351916E-005
 -2.130000000000000E-002    1.075328853778249E-005
 -2.120000000000000E-002    1.134834795561835E-005
 -2.110000000000000E-002    1.196802958596210E-005
 -2.100000000000000E-002    1.261212928840239E-005
 -2.090000000000000E-002    1.328046690785225E-005
 -2.080000000000000E-002    1.397301922616745E-005
 -2.070000000000000E-002    1.469005210992754E-005
 -2.060000000000000E-002    1.543223761716769E-005
 -2.050000000000000E-002    1.620074322368746E-005
 -2.040000000000000E-002    1.699729055015926E-005
 -2.030000000000000E-002    1.782417213858171E-005
 -2.020000000000000E-002    1.868422648876274E-005
 -2.010000000000000E-002    1.958076064168881E-005
 -2.000000000000000E-002    2.051744697683926E-005
 -1.990000000000000E-002    2.149817922038153E-005
 -1.980000000000000E-002    2.252691830880610E-005
 -1.970000000000000E-002    2.360752015497309E-005
 -1.960000000000000E-002    2.474357989976616E-005
 -1.950000000000000E-002    2.593829367377139E-005
 -1.940000000000000E-002    2.719435622424286E-005
 -1.930000000000000E-002    2.851389624863155E-005
 -1.920000000000000E-002    2.989846949612672E-005
 -1.910000000000000E-002    3.134910302868844E-005
 -1.900000000000000E-002    3.286637662450536E-005
 -1.890000000000000E-002    3.445056434375415E-005
 -1.880000000000000E-002    3.610179747298223E-005
 -1.870000000000000E-002    3.782025676433811E-005
 -1.860000000000000E-002    3.960635920474243E-005
 -1.850000000000000E-002    4.146094560933912E-005
 -1.840000000000000E-002    4.338544801566780E-005
 -1.830000000000000E-002    4.538200884906436E-005
 -1.820000000000000E-002    4.745356819963370E-005
 -1.810000000000000E-002    4.960389762037970E-005
 -1.800000000000000E-002    5.183757231771273E-005
 -1.790000000000000E-002    5.415991604542800E-005
 -1.780000000000000E-002    5.657688440615727E-005
 -1.770000000000000E-002    5.909491309752192E-005
 -1.760000000000000E-002    6.172075104389399E-005
 -1.750000000000000E-002    6.446127826924935E-005
 -1.740000000000000E-002    6.732331550220694E-005
 -1.730000000000000E-002    7.031345712113900E-005
 -1.720000000000000E-002    7.343791589344607E-005
 -1.710000000000000E-002    7.670241084679296E-005
 -1.700000000000000E-002    8.011206932863587E-005
 -1.690000000000000E-002    8.367138899570550E-005
 -1.680000000000000E-002    8.738423288189607E-005
 -1.670000000000000E-002    9.125384278894345E-005
 -1.660000000000000E-002    9.528292773932429E-005
 -1.650000000000000E-002    9.947373660902775E-005
 -1.640000000000000E-002    1.038281868593661E-004
 -1.630000000000000E-002    1.083479898704264E-004
 -1.620000000000000E-002    1.130347985401304E-004
 -1.610000000000000E-002    1.178903180841175E-004
 -1.600000000000000E-002    1.229164729950677E-004
 -1.590000000000000E-002    1.281154845553065E-004
 -1.580000000000000E-002    1.334899823153718E-004
 -1.570000000000000E-002    1.390430588952764E-004
 -1.560000000000000E-002    1.447782600790939E-004
 -1.550000000000000E-002    1.506996449532549E-004
 -1.540000000000000E-002    1.568116669361550E-004
 -1.530000000000000E-002    1.631191146062627E-004
 -1.520000000000000E-002    1.696270134435535E-004
 -1.510000000000000E-002    1.763404250895034E-004
 -1.500000000000000E-002    1.832643334555157E-004
 -1.490000000000000E-002    1.904033888934102E-004
 -1.480000000000000E-002    1.977617828344743E-004
 -1.470000000000000E-002    2.053430300056893E-004
 -1.460000000000000E-002    2.131498019966861E-004
 -1.450000000000000E-002    2.211838148139592E-004
 -1.440000000000000E-002    2.294457172367438E-004
 -1.430000000000000E-002    2.379350100407606E-004
 -1.420000000000000E-002    2.466500748013522E-004
 -1.410000000000000E-002    2.555881606904801E-004
 -1.400000000000000E-002    2.647454840965948E-004
 -1.390000000000000E-002    2.741173062872848E-004
 -1.380000000000000E-002    2.836979753128582E-004
 -1.370000000000000E-002    2.934811708857520E-004
 -1.360000000000000E-002    3.034599554095730E-004
 -1.350000000000000E-002    3.136267731602299E-004
 -1.340000000000000E-002    3.239736187484081E-004
 -1.330000000000000E-002    3.344919770303871E-004
 -1.320000000000000E-002    3.451727937983709E-004
 -1.310000000000000E-002    3.560064035256533E-004
 -1.300000000000000E-002    3.669822784322935E-004
 -1.290000000000000E-002    3.780889949951161E-004
 -1.280000000000000E-002    3.893139059550818E-004
 -1.270000000000000E-002    4.006428885157584E-004
 -1.260000000000000E-002    4.120601727719788E-004
 -1.250000000000000E-002    4.235480458190937E-004
 -1.240000000000000E-002    4.350866421102642E-004
 -1.230000000000000E-002    4.466537863643347E-004
 -1.220000000000000E-002    4.582248646358718E-004
 -1.210000000000000E-002    4.697726441057548E-004
 -1.200000000000000E-002    4.812673559737259E-004
 -1.190000000000000E-002    4.926764621898287E-004
 -1.180000000000000E-002    5.039647796904423E-004
 -1.170000000000000E-002    5.150944056078777E-004
 -1.160000000000000E-002    5.260247473381593E-004
 -1.150000000000000E-002    5.367124763831750E-004
 -1.140000000000000E-002    5.471114701457939E-004
 -1.130000000000000E-002    5.571726146148665E-004
 -1.120000000000000E-002    5.668436797630187E-004
 -1.110000000000000E-002    5.760691714531712E-004
 -1.100000000000000E-002    5.847901278006387E-004
 -1.090000000000000E-002    5.929436044096953E-004
 -1.080000000000000E-002    6.004625424596865E-004
 -1.070000000000000E-002    6.072754890170060E-004
 -1.060000000000000E-002    6.133061482830369E-004
 -1.050000000000000E-002    6.184731144600931E-004
 -1.040000000000000E-002    6.226897336789316E-004
 -1.030000000000000E-002    6.258637658861548E-004
 -1.020000000000000E-002    6.278972348033982E-004
 -1.010000000000000E-002    6.286863571071877E-004
 -1.000000000000000E-002    6.281215950575841E-004
 -9.899999999999999E-003    6.260870701178718E-004
 -9.800000000000000E-003    6.224610801928371E-004
 -9.699999999999999E-003    6.171155199200040E-004
 -9.599999999999999E-003    6.099162340522127E-004
 -9.500000000000000E-003    6.007223949610385E-004
 -9.399999999999999E-003    5.893865525355157E-004
 -9.299999999999999E-003    5.757544735408029E-004
 -9.200000000000000E-003    5.596643666826774E-004
 -9.099999999999999E-003    5.409467619956321E-004
 -8.999999999999999E-003    5.194240454306915E-004
 -8.900000000000000E-003    4.949095014647341E-004
 -8.799999999999999E-003    4.672075465419032E-004
 -8.699999999999999E-003    4.361126263399114E-004
 -8.600000000000000E-003    4.014088860738492E-004
 -8.499999999999999E-003    3.628697097162375E-004
 -8.399999999999999E-003    3.202570653672555E-004
 -8.300000000000000E-003    2.733218052708302E-004
 -8.199999999999999E-003    2.218027911791078E-004
 -8.100000000000000E-003    1.654271666436393E-004
 -8.000000000000000E-003    1.039096028771818E-004
 -7.899999999999999E-003    3.695282869095309E-005
 -7.800000000000000E-003   -3.575292830305152E-005
 -7.699999999999999E-003   -1.145292213153753E-004
 -7.599999999999999E-003   -1.997105759698043E-004
 -7.499999999999999E-003   -2.916439460771799E-004
 -7.399999999999999E-003   -3.906888966937839E-004
 -7.299999999999999E-003   -4.972177927244531E-004
 -7.199999999999999E-003   -6.116164120874056E-004
 -7.100000000000000E-003   -7.342842727396693E-004
 -6.999999999999999E-003   -8.656351085232174E-004
 -6.899999999999999E-003   -1.006097082167218E-003
 -6.800000000000000E-003   -1.156113755378360E-003
 -6.699999999999999E-003   -1.316144026819813E-003
 -6.599999999999999E-003   -1.486664149296073E-003
 -6.499999999999999E-003   -1.668166792200771E-003
 -6.399999999999999E-003   -1.861162150690529E-003
 -6.299999999999999E-003   -2.066178812404821E-003
 -6.199999999999999E-003   -2.283763823909252E-003
 -6.100000000000000E-003   -2.514483247184442E-003
 -5.999999999999999E-003   -2.758922281271468E-003
 -5.899999999999999E-003   -3.017686031931994E-003
 -5.800000000000000E-003   -3.291398555095323E-003
 -5.699999999999999E-003   -3.580704781715087E-003
 -5.599999999999999E-003   -3.886268841267037E-003
 -5.499999999999999E-003   -4.208775015659415E-003
 -5.399999999999999E-003   -4.548927693226388E-003
 -5.299999999999999E-003   -4.907451760337338E-003
 -5.199999999999999E-003   -5.285092009210434E-003
 -5.099999999999999E-003   -5.682613381168151E-003
 -4.999999999999999E-003   -6.100801573699027E-003
 -4.899999999999999E-003   -6.540461205069599E-003
 -4.799999999999999E-003   -7.002418547810993E-003
 -4.699999999999999E-003   -7.487519725974953E-003
 -4.599999999999999E-003   -7.996632396184269E-003
 -4.499999999999999E-003   -8.530644548884211E-003
 -4.399999999999999E-003   -9.090464979694249E-003
 -4.299999999999999E-003   -9.677025074048752E-003
 -4.199999999999999E-003   -1.029127682594039E-002
 -4.099999999999999E-003   -1.093419427179851E-002
 -3.999999999999999E-003   -1.160677391442835E-002
 -3.899999999999999E-003   -1.231003324781580E-002
 -3.799999999999999E-003   -1.304501234547241E-002
 -3.699999999999999E-003   -1.381277449470246E-002
 -3.599999999999999E-003   -1.461440391477718E-002
 -3.499999999999999E-003   -1.545100554815089E-002
 -3.399999999999999E-003   -1.632370795237315E-002
 -3.299999999999999E-003   -1.723365903539729E-002
 -3.199999999999999E-003   -1.818202878657350E-002
 -3.099999999999999E-003   -1.917000537147423E-002
 -2.999999999999999E-003   -2.019879664149410E-002
 -2.899999999999999E-003   -2.126963116823317E-002
 -2.799999999999999E-003   -2.238375457231258E-002
 -2.699999999999999E-003   -2.354243012132978E-002
 -2.599999999999999E-003   -2.474693861317531E-002
 -2.499999999999999E-003   -2.599857621341786E-002
 -2.399999999999999E-003   -2.729865524023186E-002
 -2.299999999999999E-003   -2.864850650307989E-002
 -2.199999999999999E-003   -3.004947035228002E-002
 -2.099999999999999E-003   -3.150290589620215E-002
 -1.999999999999999E-003   -3.301018469376243E-002
 -1.899999999999999E-003   -3.457268836702266E-002
 -1.799999999999999E-003   -3.619181572201648E-002
 -1.699999999999999E-003   -3.786897098298914E-002
 -1.599999999999999E-003   -3.960557037753586E-002
 -1.499999999999999E-003   -4.140303987652721E-002
 -1.399999999999999E-003   -4.326281087923475E-002
 -1.299999999999999E-003   -4.518632153897345E-002
 -1.199999999999999E-003   -4.717501995149632E-002
 -1.099999999999999E-003   -4.923034805338358E-002
 -9.999999999999989E-004   -5.135375660889480E-002
 -8.999999999999990E-004   -5.354668978197725E-002
 -7.999999999999990E-004   -5.581059843588091E-002
 -6.999999999999989E-004   -5.814692549720523E-002
 -5.999999999999990E-004   -6.055711500179642E-002
 -4.999999999999989E-004   -6.304259481957375E-002
 -3.999999999999989E-004   -6.560479258822968E-002
 -2.999999999999989E-004   -6.824512132678771E-002
 -1.999999999999989E-004   -7.096498919270212E-002
 -9.999999999999892E-005   -7.376579631746648E-002
  1.084202172485504E-018   -7.664890839473468E-002
  1.000000000000011E-004   -7.961570130362469E-002
  2.000000000000011E-004   -8.266751494376087E-002
  3.000000000000011E-004   -8.580566898334571E-002
  4.000000000000011E-004   -8.903146710709835E-002
  5.000000000000011E-004   -9.234618656945646E-002
  6.000000000000011E-004   -9.575107455206625E-002
  7.000000000000011E-004   -9.924734967364486E-002
  8.000000000000011E-004   -0.102836196587748     
  9.000000000000012E-004   -0.106518760093290     
  1.000000000000001E-003   -0.110296156384973     
  1.100000000000001E-003   -0.114169446886836     
  1.200000000000001E-003   -0.118139662061447     
  1.300000000000001E-003   -0.122207782297195     
  1.400000000000001E-003   -0.126374737341919     
  1.500000000000001E-003   -0.130641410730124     
  1.600000000000001E-003   -0.135008626529713     
  1.700000000000001E-003   -0.139477157134333     
  1.800000000000001E-003   -0.144047705671234     
  1.900000000000001E-003   -0.148720924511067     
  2.000000000000001E-003   -0.153497403663433     
  2.100000000000001E-003   -0.158377649126333     
  2.200000000000001E-003   -0.163362128023411     
  2.300000000000001E-003   -0.168451204046620     
  2.400000000000001E-003   -0.173645180970911     
  2.500000000000001E-003   -0.178944263919354     
  2.600000000000001E-003   -0.184348604768409     
  2.700000000000001E-003   -0.189858260849923     
  2.800000000000001E-003   -0.195473190942571     
  2.900000000000001E-003   -0.201193263374933     
  3.000000000000001E-003   -0.207018278440840     
  3.100000000000001E-003   -0.212947912262993     
  3.200000000000001E-003   -0.218981737879389     
  3.300000000000001E-003   -0.225119252360962     
  3.400000000000001E-003   -0.231359817641880     
  3.500000000000001E-003   -0.237702707227019     
  3.600000000000001E-003   -0.244147076957640     
  3.700000000000001E-003   -0.250691973737567     
  3.800000000000001E-003   -0.257336317421858     
  3.900000000000001E-003   -0.264078914105292     
  4.000000000000001E-003   -0.270918458088317     
  4.100000000000001E-003   -0.277853501887721     
  4.200000000000001E-003   -0.284882511094258     
  4.300000000000001E-003   -0.292003775840553     
  4.400000000000001E-003   -0.299215480375313     
  4.500000000000001E-003   -0.306515688316544     
  4.600000000000002E-003   -0.313902317966988     
  4.700000000000001E-003   -0.321373117969837     
  4.800000000000001E-003   -0.328925757113601     
  4.900000000000002E-003   -0.336557693831497     
  5.000000000000001E-003   -0.344266312907124     
  5.100000000000001E-003   -0.352048839636525     
  5.200000000000001E-003   -0.359902304241692     
  5.300000000000002E-003   -0.367823634465293     
  5.400000000000001E-003   -0.375809609897067     
  5.500000000000001E-003   -0.383856872053782     
  5.600000000000002E-003   -0.391961880021199     
  5.700000000000001E-003   -0.400120977587108     
  5.800000000000001E-003   -0.408330331913948     
  5.900000000000002E-003   -0.416585971458832     
  6.000000000000001E-003   -0.424883786845179     
  6.100000000000001E-003   -0.433219507976647     
  6.200000000000002E-003   -0.441588716263561     
  6.300000000000002E-003   -0.449986822523176     
  6.400000000000001E-003   -0.458409129263556     
  6.500000000000001E-003   -0.466850757976054     
  6.600000000000002E-003   -0.475306698155533     
  6.700000000000001E-003   -0.483771774197184     
  6.800000000000001E-003   -0.492240681185420     
  6.900000000000002E-003   -0.500707934039079     
  7.000000000000001E-003   -0.509167976032015     
  7.100000000000001E-003   -0.517615059434633     
  7.200000000000002E-003   -0.526043336602006     
  7.300000000000002E-003   -0.534446737714215     
  7.400000000000001E-003   -0.542819130262691     
  7.500000000000001E-003   -0.551154255920964     
  7.600000000000002E-003   -0.559445698983900     
  7.700000000000001E-003   -0.567686950351880     
  7.800000000000001E-003   -0.575871312682258     
  7.900000000000001E-003   -0.583992051420046     
  8.000000000000002E-003   -0.592042305930574     
  8.100000000000001E-003   -0.600015043835194     
  8.200000000000001E-003   -0.607903190129753     
  8.300000000000002E-003   -0.615699549299769     
  8.400000000000001E-003   -0.623396852664112     
  8.500000000000002E-003   -0.630987690951009     
  8.600000000000002E-003   -0.638464598746529     
  8.700000000000001E-003   -0.645819981424431     
  8.800000000000002E-003   -0.653046217578194     
  8.900000000000002E-003   -0.660135647539226     
  9.000000000000001E-003   -0.667080506294646     
  9.100000000000002E-003   -0.673872991001773     
  9.200000000000002E-003   -0.680505219097244     
  9.300000000000001E-003   -0.686969249789067     
  9.400000000000002E-003   -0.693257197368456     
  9.500000000000001E-003   -0.699361024067412     
  9.600000000000001E-003   -0.705272793217355     
  9.700000000000002E-003   -0.710984441038147     
  9.800000000000001E-003   -0.716487962286443     
  9.900000000000001E-003   -0.721775312367049     
  1.000000000000000E-002   -0.726838519169950     
  1.010000000000000E-002   -0.731669509499180     
  1.020000000000000E-002   -0.736260338658867     
  1.030000000000000E-002   -0.740603068231627     
  1.040000000000000E-002   -0.744689747231225     
  1.050000000000000E-002   -0.748512541457188     
  1.060000000000000E-002   -0.752063648531181     
  1.070000000000000E-002   -0.755335319717205     
  1.080000000000000E-002   -0.758319866782120     
  1.090000000000000E-002   -0.761009732136110     
  1.100000000000000E-002   -0.763397368707655     
  1.110000000000000E-002   -0.765475424416306     
  1.120000000000000E-002   -0.767236610510384     
  1.130000000000000E-002   -0.768673775684226     
  1.140000000000000E-002   -0.769779867379362     
  1.150000000000000E-002   -0.770548040002227     
  1.160000000000000E-002   -0.770971571622272     
  1.170000000000000E-002   -0.771043824966178     
  1.180000000000000E-002   -0.770758381974512     
  1.190000000000000E-002   -0.770109039128351     
  1.200000000000000E-002   -0.769089648186122     
  1.210000000000000E-002   -0.767694390299906     
  1.220000000000000E-002   -0.765917601374427     
  1.230000000000000E-002   -0.763753794313531     
  1.240000000000000E-002   -0.761197680730740     
  1.250000000000000E-002   -0.758244309573224     
  1.260000000000000E-002   -0.754888825413717     
  1.270000000000000E-002   -0.751126687712640     
  1.280000000000000E-002   -0.746953652838785     
  1.290000000000000E-002   -0.742365649563361     
  1.300000000000000E-002   -0.737358915111678     
  1.310000000000000E-002   -0.731929981721704     
  1.320000000000000E-002   -0.726075676686826     
  1.330000000000000E-002   -0.719793078148862     
  1.340000000000000E-002   -0.713079576668260     
  1.350000000000000E-002   -0.705932870216867     
  1.360000000000000E-002   -0.698350985686106     
  1.370000000000000E-002   -0.690332206459370     
  1.380000000000000E-002   -0.681875174725873     
  1.390000000000000E-002   -0.672978934591368     
  1.400000000000000E-002   -0.663642747413187     
  1.410000000000000E-002   -0.653866269473706     
  1.420000000000000E-002   -0.643649497976841     
  1.430000000000000E-002   -0.632992779092196     
  1.440000000000000E-002   -0.621896815802355     
  1.450000000000000E-002   -0.610362656193366     
  1.460000000000000E-002   -0.598391741364610     
  1.470000000000000E-002   -0.585985863115066     
  1.480000000000000E-002   -0.573147177270243     
  1.490000000000000E-002   -0.559878230257159     
  1.500000000000000E-002   -0.546181917257343     
  1.510000000000000E-002   -0.532061500582287     
  1.520000000000000E-002   -0.517520649885266     
  1.530000000000000E-002   -0.502563447946574     
  1.540000000000000E-002   -0.487194259634581     
  1.550000000000000E-002   -0.471417928113961     
  1.560000000000000E-002   -0.455239578607448     
  1.570000000000000E-002   -0.438664782873092     
  1.580000000000000E-002   -0.421699454294921     
  1.590000000000000E-002   -0.404349898683865     
  1.600000000000000E-002   -0.386622742790098     
  1.610000000000000E-002   -0.368525070055085     
  1.620000000000000E-002   -0.350064281080756     
  1.630000000000000E-002   -0.331248159142565     
  1.640000000000000E-002   -0.312084802584365     
  1.650000000000000E-002   -0.292582711831371     
  1.660000000000000E-002   -0.272750712901048     
  1.670000000000000E-002   -0.252598027681376     
  1.680000000000000E-002   -0.232134155339811     
  1.690000000000000E-002   -0.211368958389693     
  1.700000000000000E-002   -0.190312638581669     
  1.710000000000000E-002   -0.168975704744564     
  1.720000000000000E-002   -0.147368998353656     
  1.730000000000000E-002   -0.125503667306960     
  1.740000000000000E-002   -0.103391151690464     
  1.750000000000000E-002   -8.104318048180878E-002
  1.760000000000000E-002   -5.847177878063934E-002
  1.770000000000000E-002   -3.568922150142563E-002
  1.780000000000000E-002   -1.270807559411136E-002
  1.790000000000000E-002    1.045886032956763E-002
  1.800000000000000E-002    3.379854342027986E-002
  1.810000000000000E-002    5.729767572706893E-002
  1.820000000000000E-002    8.094275131102407E-002
  1.830000000000000E-002    0.104720056941406     
  1.840000000000000E-002    0.128615682206576     
  1.850000000000000E-002    0.152615503655107     
  1.860000000000000E-002    0.176705229951009     
  1.870000000000000E-002    0.200870425052736     