 -4.000000000000000E-002    0.000000000000000E+000
 -3.990000000000000E-002    0.000000000000000E+000
 -3.980000000000000E-002    0.000000000000000E+000
 -3.970000000000000E-002    0.000000000000000E+000
 -3.960000000000000E-002    0.000000000000000E+000
 -3.950000000000000E-002    0.000000000000000E+000
 -3.940000000000000E-002    0.000000000000000E+000
 -3.930000000000000E-002    0.000000000000000E+000
 -3.920000000000000E-002    0.000000000000000E+000
 -3.910000000000000E-002    0.000000000000000E+000
 -3.900000000000000E-002    0.000000000000000E+000
 -3.890000000000000E-002    0.000000000000000E+000
 -3.880000000000000E-002    0.000000000000000E+000
 -3.870000000000000E-002    0.000000000000000E+000
 -3.860000000000000E-002    0.000000000000000E+000
 -3.850000000000000E-002    0.000000000000000E+000
 -3.840000000000000E-002    0.000000000000000E+000
 -3.830000000000000E-002    0.000000000000000E+000
 -3.820000000000000E-002    0.000000000000000E+000
 -3.810000000000000E-002    0.000000000000000E+000
 -3.800000000000000E-002    0.000000000000000E+000
 -3.790000000000000E-002    0.000000000000000E+000
 -3.780000000000000E-002    0.000000000000000E+000
 -3.770000000000000E-002    0.000000000000000E+000
 -3.760000000000000E-002    0.000000000000000E+000
 -3.750000000000000E-002    0.000000000000000E+000
 -3.740000000000000E-002    0.000000000000000E+000
 -3.730000000000000E-002    0.000000000000000E+000
 -3.720000000000000E-002    0.000000000000000E+000
 -3.710000000000000E-002    0.000000000000000E+000
 -3.700000000000000E-002    0.000000000000000E+000
 -3.690000000000000E-002    0.000000000000000E+000
 -3.680000000000000E-002    0.000000000000000E+000
 -3.670000000000000E-002    0.000000000000000E+000
 -3.660000000000000E-002    0.000000000000000E+000
 -3.650000000000000E-002    0.000000000000000E+000
 -3.640000000000000E-002    0.000000000000000E+000
 -3.630000000000000E-002    0.000000000000000E+000
 -3.620000000000000E-002    0.000000000000000E+000
 -3.610000000000000E-002    0.000000000000000E+000
 -3.600000000000000E-002    0.000000000000000E+000
 -3.590000000000000E-002    0.000000000000000E+000
 -3.580000000000000E-002    0.000000000000000E+000
 -3.570000000000000E-002    0.000000000000000E+000
 -3.560000000000000E-002    0.000000000000000E+000
 -3.550000000000000E-002    0.000000000000000E+000
 -3.540000000000000E-002    0.000000000000000E+000
 -3.530000000000000E-002    0.000000000000000E+000
 -3.520000000000000E-002    0.000000000000000E+000
 -3.510000000000000E-002    0.000000000000000E+000
 -3.500000000000000E-002    0.000000000000000E+000
 -3.490000000000000E-002    0.000000000000000E+000
 -3.480000000000000E-002    0.000000000000000E+000
 -3.470000000000000E-002    0.000000000000000E+000
 -3.460000000000000E-002    0.000000000000000E+000
 -3.450000000000000E-002    0.000000000000000E+000
 -3.440000000000000E-002    0.000000000000000E+000
 -3.430000000000000E-002    0.000000000000000E+000
 -3.420000000000000E-002    0.000000000000000E+000
 -3.410000000000000E-002    0.000000000000000E+000
 -3.400000000000000E-002    0.000000000000000E+000
 -3.390000000000000E-002    0.000000000000000E+000
 -3.380000000000000E-002    0.000000000000000E+000
 -3.370000000000000E-002    0.000000000000000E+000
 -3.360000000000000E-002    0.000000000000000E+000
 -3.350000000000000E-002    0.000000000000000E+000
 -3.340000000000000E-002    0.000000000000000E+000
 -3.330000000000000E-002    0.000000000000000E+000
 -3.320000000000000E-002    0.000000000000000E+000
 -3.310000000000000E-002    0.000000000000000E+000
 -3.300000000000000E-002    0.000000000000000E+000
 -3.290000000000000E-002    0.000000000000000E+000
 -3.280000000000000E-002    0.000000000000000E+000
 -3.270000000000000E-002    0.000000000000000E+000
 -3.260000000000000E-002    0.000000000000000E+000
 -3.250000000000000E-002    0.000000000000000E+000
 -3.240000000000000E-002    0.000000000000000E+000
 -3.230000000000000E-002    0.000000000000000E+000
 -3.220000000000000E-002    0.000000000000000E+000
 -3.210000000000000E-002    0.000000000000000E+000
 -3.200000000000000E-002    0.000000000000000E+000
 -3.190000000000000E-002    0.000000000000000E+000
 -3.180000000000000E-002    0.000000000000000E+000
 -3.170000000000000E-002    0.000000000000000E+000
 -3.160000000000000E-002    0.000000000000000E+000
 -3.150000000000000E-002    0.000000000000000E+000
 -3.140000000000000E-002    0.000000000000000E+000
 -3.130000000000000E-002    0.000000000000000E+000
 -3.120000000000000E-002    0.000000000000000E+000
 -3.110000000000000E-002    0.000000000000000E+000
 -3.100000000000000E-002    0.000000000000000E+000
 -3.090000000000000E-002    0.000000000000000E+000
 -3.080000000000000E-002    0.000000000000000E+000
 -3.070000000000000E-002    0.000000000000000E+000
 -3.060000000000000E-002    0.000000000000000E+000
 -3.050000000000000E-002    0.000000000000000E+000
 -3.040000000000000E-002    0.000000000000000E+000
 -3.030000000000000E-002    0.000000000000000E+000
 -3.020000000000000E-002    0.000000000000000E+000
 -3.010000000000000E-002    0.000000000000000E+000
 -3.000000000000000E-002    0.000000000000000E+000
 -2.990000000000000E-002    0.000000000000000E+000
 -2.980000000000000E-002    0.000000000000000E+000
 -2.970000000000000E-002    0.000000000000000E+000
 -2.960000000000000E-002    0.000000000000000E+000
 -2.950000000000000E-002    0.000000000000000E+000
 -2.940000000000000E-002    0.000000000000000E+000
 -2.930000000000000E-002    0.000000000000000E+000
 -2.920000000000000E-002    0.000000000000000E+000
 -2.910000000000000E-002    0.000000000000000E+000
 -2.900000000000000E-002    0.000000000000000E+000
 -2.890000000000000E-002    0.000000000000000E+000
 -2.880000000000000E-002    0.000000000000000E+000
 -2.870000000000000E-002    0.000000000000000E+000
 -2.860000000000000E-002    0.000000000000000E+000
 -2.850000000000000E-002    0.000000000000000E+000
 -2.840000000000000E-002    0.000000000000000E+000
 -2.830000000000000E-002    0.000000000000000E+000
 -2.820000000000000E-002    0.000000000000000E+000
 -2.810000000000000E-002    0.000000000000000E+000
 -2.800000000000000E-002    0.000000000000000E+000
 -2.790000000000000E-002    0.000000000000000E+000
 -2.780000000000000E-002    0.000000000000000E+000
 -2.770000000000000E-002    0.000000000000000E+000
 -2.760000000000000E-002    0.000000000000000E+000
 -2.750000000000000E-002    0.000000000000000E+000
 -2.740000000000000E-002    0.000000000000000E+000
 -2.730000000000000E-002    0.000000000000000E+000
 -2.720000000000000E-002    0.000000000000000E+000
 -2.710000000000000E-002    0.000000000000000E+000
 -2.700000000000000E-002    0.000000000000000E+000
 -2.690000000000000E-002    0.000000000000000E+000
 -2.680000000000000E-002    0.000000000000000E+000
 -2.670000000000000E-002    0.000000000000000E+000
 -2.660000000000000E-002    0.000000000000000E+000
 -2.650000000000000E-002    0.000000000000000E+000
 -2.640000000000000E-002    0.000000000000000E+000
 -2.630000000000000E-002    0.000000000000000E+000
 -2.620000000000000E-002    0.000000000000000E+000
 -2.610000000000000E-002    0.000000000000000E+000
 -2.600000000000000E-002    0.000000000000000E+000
 -2.590000000000000E-002    0.000000000000000E+000
 -2.580000000000000E-002    0.000000000000000E+000
 -2.570000000000000E-002    0.000000000000000E+000
 -2.560000000000000E-002    0.000000000000000E+000
 -2.550000000000000E-002    0.000000000000000E+000
 -2.540000000000000E-002    0.000000000000000E+000
 -2.530000000000000E-002    0.000000000000000E+000
 -2.520000000000000E-002    0.000000000000000E+000
 -2.510000000000000E-002    0.000000000000000E+000
 -2.500000000000000E-002    0.000000000000000E+000
 -2.490000000000000E-002    0.000000000000000E+000
 -2.480000000000000E-002    0.000000000000000E+000
 -2.470000000000000E-002    0.000000000000000E+000
 -2.460000000000000E-002    0.000000000000000E+000
 -2.450000000000000E-002    0.000000000000000E+000
 -2.440000000000000E-002    0.000000000000000E+000
 -2.430000000000000E-002    0.000000000000000E+000
 -2.420000000000000E-002    0.000000000000000E+000
 -2.410000000000000E-002    0.000000000000000E+000
 -2.400000000000000E-002    0.000000000000000E+000
 -2.390000000000000E-002    0.000000000000000E+000
 -2.380000000000000E-002    0.000000000000000E+000
 -2.370000000000000E-002    0.000000000000000E+000
 -2.360000000000000E-002    0.000000000000000E+000
 -2.350000000000000E-002    0.000000000000000E+000
 -2.340000000000000E-002    0.000000000000000E+000
 -2.330000000000000E-002    0.000000000000000E+000
 -2.320000000000000E-002    0.000000000000000E+000
 -2.310000000000000E-002    0.000000000000000E+000
 -2.300000000000000E-002    0.000000000000000E+000
 -2.290000000000000E-002    0.000000000000000E+000
 -2.280000000000000E-002    0.000000000000000E+000
 -2.270000000000000E-002    0.000000000000000E+000
 -2.260000000000000E-002    0.000000000000000E+000
 -2.250000000000000E-002    0.000000000000000E+000
 -2.240000000000000E-002    0.000000000000000E+000
 -2.230000000000000E-002    0.000000000000000E+000
 -2.220000000000000E-002    0.000000000000000E+000
 -2.210000000000000E-002    0.000000000000000E+000
 -2.200000000000000E-002    0.000000000000000E+000
 -2.190000000000000E-002    0.000000000000000E+000
 -2.180000000000000E-002    0.000000000000000E+000
 -2.170000000000000E-002    0.000000000000000E+000
 -2.160000000000000E-002    0.000000000000000E+000
 -2.150000000000000E-002    0.000000000000000E+000
 -2.140000000000000E-002    0.000000000000000E+000
 -2.130000000000000E-002    0.000000000000000E+000
 -2.120000000000000E-002    0.000000000000000E+000
 -2.110000000000000E-002    0.000000000000000E+000
 -2.100000000000000E-002    0.000000000000000E+000
 -2.090000000000000E-002    0.000000000000000E+000
 -2.080000000000000E-002    0.000000000000000E+000
 -2.070000000000000E-002    0.000000000000000E+000
 -2.060000000000000E-002    0.000000000000000E+000
 -2.050000000000000E-002    0.000000000000000E+000
 -2.040000000000000E-002    0.000000000000000E+000
 -2.030000000000000E-002    0.000000000000000E+000
 -2.020000000000000E-002    0.000000000000000E+000
 -2.010000000000000E-002    0.000000000000000E+000
 -2.000000000000000E-002    0.000000000000000E+000
 -1.990000000000000E-002    0.000000000000000E+000
 -1.980000000000000E-002    0.000000000000000E+000
 -1.970000000000000E-002    0.000000000000000E+000
 -1.960000000000000E-002    0.000000000000000E+000
 -1.950000000000000E-002    0.000000000000000E+000
 -1.940000000000000E-002    0.000000000000000E+000
 -1.930000000000000E-002    0.000000000000000E+000
 -1.920000000000000E-002    0.000000000000000E+000
 -1.910000000000000E-002    0.000000000000000E+000
 -1.900000000000000E-002    0.000000000000000E+000
 -1.890000000000000E-002    0.000000000000000E+000
 -1.880000000000000E-002    0.000000000000000E+000
 -1.870000000000000E-002    0.000000000000000E+000
 -1.860000000000000E-002    0.000000000000000E+000
 -1.850000000000000E-002    0.000000000000000E+000
 -1.840000000000000E-002    0.000000000000000E+000
 -1.830000000000000E-002    0.000000000000000E+000
 -1.820000000000000E-002    0.000000000000000E+000
 -1.810000000000000E-002    0.000000000000000E+000
 -1.800000000000000E-002    0.000000000000000E+000
 -1.790000000000000E-002    0.000000000000000E+000
 -1.780000000000000E-002    0.000000000000000E+000
 -1.770000000000000E-002    0.000000000000000E+000
 -1.760000000000000E-002    0.000000000000000E+000
 -1.750000000000000E-002    0.000000000000000E+000
 -1.740000000000000E-002    0.000000000000000E+000
 -1.730000000000000E-002    0.000000000000000E+000
 -1.720000000000000E-002    0.000000000000000E+000
 -1.710000000000000E-002    0.000000000000000E+000
 -1.700000000000000E-002    0.000000000000000E+000
 -1.690000000000000E-002    0.000000000000000E+000
 -1.680000000000000E-002    0.000000000000000E+000
 -1.670000000000000E-002    0.000000000000000E+000
 -1.660000000000000E-002    0.000000000000000E+000
 -1.650000000000000E-002    0.000000000000000E+000
 -1.640000000000000E-002    0.000000000000000E+000
 -1.630000000000000E-002    0.000000000000000E+000
 -1.620000000000000E-002    0.000000000000000E+000
 -1.610000000000000E-002    0.000000000000000E+000
 -1.600000000000000E-002    0.000000000000000E+000
 -1.590000000000000E-002    0.000000000000000E+000
 -1.580000000000000E-002    0.000000000000000E+000
 -1.570000000000000E-002    0.000000000000000E+000
 -1.560000000000000E-002    0.000000000000000E+000
 -1.550000000000000E-002    0.000000000000000E+000
 -1.540000000000000E-002    0.000000000000000E+000
 -1.530000000000000E-002    0.000000000000000E+000
 -1.520000000000000E-002    0.000000000000000E+000
 -1.510000000000000E-002    0.000000000000000E+000
 -1.500000000000000E-002    0.000000000000000E+000
 -1.490000000000000E-002    0.000000000000000E+000
 -1.480000000000000E-002    0.000000000000000E+000
 -1.470000000000000E-002    0.000000000000000E+000
 -1.460000000000000E-002    0.000000000000000E+000
 -1.450000000000000E-002    0.000000000000000E+000
 -1.440000000000000E-002    0.000000000000000E+000
 -1.430000000000000E-002    0.000000000000000E+000
 -1.420000000000000E-002    0.000000000000000E+000
 -1.410000000000000E-002    0.000000000000000E+000
 -1.400000000000000E-002    0.000000000000000E+000
 -1.390000000000000E-002    0.000000000000000E+000
 -1.380000000000000E-002    0.000000000000000E+000
 -1.370000000000000E-002    0.000000000000000E+000
 -1.360000000000000E-002    0.000000000000000E+000
 -1.350000000000000E-002    0.000000000000000E+000
 -1.340000000000000E-002    0.000000000000000E+000
 -1.330000000000000E-002    0.000000000000000E+000
 -1.320000000000000E-002    0.000000000000000E+000
 -1.310000000000000E-002    0.000000000000000E+000
 -1.300000000000000E-002    0.000000000000000E+000
 -1.290000000000000E-002    0.000000000000000E+000
 -1.280000000000000E-002    0.000000000000000E+000
 -1.270000000000000E-002    0.000000000000000E+000
 -1.260000000000000E-002    0.000000000000000E+000
 -1.250000000000000E-002    0.000000000000000E+000
 -1.240000000000000E-002    0.000000000000000E+000
 -1.230000000000000E-002    0.000000000000000E+000
 -1.220000000000000E-002    0.000000000000000E+000
 -1.210000000000000E-002    0.000000000000000E+000
 -1.200000000000000E-002    0.000000000000000E+000
 -1.190000000000000E-002    0.000000000000000E+000
 -1.180000000000000E-002    0.000000000000000E+000
 -1.170000000000000E-002    0.000000000000000E+000
 -1.160000000000000E-002    0.000000000000000E+000
 -1.150000000000000E-002    0.000000000000000E+000
 -1.140000000000000E-002    0.000000000000000E+000
 -1.130000000000000E-002    0.000000000000000E+000
 -1.120000000000000E-002    0.000000000000000E+000
 -1.110000000000000E-002    0.000000000000000E+000
 -1.100000000000000E-002    0.000000000000000E+000
 -1.090000000000000E-002    0.000000000000000E+000
 -1.080000000000000E-002    0.000000000000000E+000
 -1.070000000000000E-002    0.000000000000000E+000
 -1.060000000000000E-002    0.000000000000000E+000
 -1.050000000000000E-002    0.000000000000000E+000
 -1.040000000000000E-002    0.000000000000000E+000
 -1.030000000000000E-002   -1.223867108479510E-048
 -1.020000000000000E-002   -2.447734216959019E-048
 -1.010000000000000E-002   -3.671601325438529E-048
 -1.000000000000000E-002   -3.671601325438529E-048
 -9.899999999999999E-003   -2.447734216959019E-048
 -9.800000000000000E-003    3.716115627375076E-048
 -9.699999999999999E-003    7.513822335846788E-048
 -9.599999999999999E-003    1.240929076976483E-047
 -9.500000000000000E-003    1.852862631216238E-047
 -9.399999999999999E-003    1.970797911870534E-047
 -9.299999999999999E-003    1.953735943373561E-047
 -9.200000000000000E-003    7.133006039904257E-048
 -9.099999999999999E-003    1.222740985584635E-047
 -8.999999999999999E-003    2.789961916570507E-048
 -8.900000000000000E-003   -1.276682156510289E-047
 -8.799999999999999E-003   -3.431683520614065E-047
 -8.699999999999999E-003   -5.383883599568728E-047
 -8.600000000000000E-003   -7.987817555812824E-047
 -8.499999999999999E-003   -8.375279418869717E-047
 -8.399999999999999E-003   -1.683547762252951E-046
 -8.300000000000000E-003   -2.285704409490861E-046
 -8.199999999999999E-003   -2.900979927469506E-046
 -8.100000000000000E-003   -2.690269475939834E-046
 -8.000000000000000E-003   -2.595673868129186E-046
 -7.899999999999999E-003   -1.526604758427648E-046
 -7.800000000000000E-003    9.647176698101218E-047
 -7.699999999999999E-003    3.997399789952448E-046
 -7.599999999999999E-003    2.284913661341272E-046
 -7.499999999999999E-003    5.309318725707731E-046
 -7.399999999999999E-003    5.733363296084441E-046
 -7.299999999999999E-003    1.450341238202692E-045
 -7.199999999999999E-003    1.227245992132570E-045
 -7.100000000000000E-003    1.815450683936562E-045
 -6.999999999999999E-003    2.026255119638125E-045
 -6.899999999999999E-003    1.676905772836718E-045
 -6.800000000000000E-003    5.450297427709995E-046
 -6.699999999999999E-003   -6.111041692657442E-046
 -6.599999999999999E-003   -3.139321221270874E-045
 -6.499999999999999E-003   -6.149047303316918E-045
 -6.399999999999999E-003   -8.632503464476467E-045
 -6.299999999999999E-003   -1.184808130113952E-044
 -6.199999999999999E-003   -1.390207961356658E-044
 -6.100000000000000E-003   -1.559612330721548E-044
 -5.999999999999999E-003   -1.537005285474668E-044
 -5.899999999999999E-003   -1.357397061918266E-044
 -5.800000000000000E-003   -8.608903132467970E-045
 -5.699999999999999E-003    8.522821198144881E-048
 -5.599999999999999E-003    1.119537350473098E-044
 -5.499999999999999E-003    2.689362930380607E-044
 -5.399999999999999E-003    4.626094695941791E-044
 -5.299999999999999E-003    6.653251710005664E-044
 -5.199999999999999E-003    8.715911708583082E-044
 -5.099999999999999E-003    1.041224397472546E-043
 -4.999999999999999E-003    1.136022777000841E-043
 -4.899999999999999E-003    1.104320770003459E-043
 -4.799999999999999E-003    8.819172863764910E-044
 -4.699999999999999E-003    4.149983685574592E-044
 -4.599999999999999E-003   -3.236487927297252E-044
 -4.499999999999999E-003   -1.359115491351215E-043
 -4.399999999999999E-003   -2.679269928720204E-043
 -4.299999999999999E-003   -4.180928838106411E-043
 -4.199999999999999E-003   -5.710672425764515E-043
 -4.099999999999999E-003   -7.025130826301485E-043
 -3.999999999999999E-003   -7.783388918673865E-043
 -3.899999999999999E-003   -7.601175574394754E-043
 -3.799999999999999E-003   -6.068756714531988E-043
 -3.699999999999999E-003   -2.806142466437444E-043
 -3.599999999999999E-003    2.426854552966299E-043
 -3.499999999999999E-003    9.644424156805887E-043
 -3.399999999999999E-003    1.849360872536771E-042
 -3.299999999999999E-003    2.820223829518638E-042
 -3.199999999999999E-003    3.749184699676948E-042
 -3.099999999999999E-003    4.459012474334666E-042
 -2.999999999999999E-003    4.733952445574902E-042
 -2.899999999999999E-003    4.342389402373031E-042
 -2.799999999999999E-003    3.066797972574897E-042
 -2.699999999999999E-003    7.502840520357541E-043
 -2.599999999999999E-003   -2.649024855867094E-042
 -2.499999999999999E-003   -7.008626400263593E-042
 -2.399999999999999E-003   -1.199462565573597E-041
 -2.299999999999999E-003   -1.703607479277363E-041
 -2.199999999999999E-003   -2.132849843445723E-041
 -2.099999999999999E-003   -2.388516916622291E-041
 -1.999999999999999E-003   -2.362605823382933E-041
 -1.899999999999999E-003   -1.952940965247110E-041
 -1.799999999999999E-003   -1.081972046796315E-041
 -1.699999999999999E-003    2.820322393875498E-042
 -1.599999999999999E-003    2.103158384021162E-041
 -1.499999999999999E-003    4.260364136356132E-041
 -1.399999999999999E-003    6.537965580667613E-041
 -1.299999999999999E-003    8.627407363529541E-041
 -1.199999999999999E-003    1.014577501490911E-040
 -1.099999999999999E-003    1.067126005638995E-040
 -9.999999999999989E-004    9.795489469073604E-041
 -8.999999999999990E-004    7.190723494835024E-041
 -7.999999999999990E-004    2.683886320622359E-041
 -6.999999999999989E-004   -3.671179304774126E-041
 -5.999999999999990E-004   -1.153530628603727E-040
 -4.999999999999989E-004   -2.025184383984210E-040
 -3.999999999999989E-004   -2.885310659345210E-040
 -2.999999999999989E-004   -3.611329728959549E-040
 -1.999999999999989E-004   -4.065292315214140E-040
 -9.999999999999892E-005   -4.108946451682687E-040
  1.084202172485504E-018   -3.622493470175980E-040
  1.000000000000011E-004   -2.525003265682264E-040
  2.000000000000011E-004   -7.940037371990889E-041
  3.000000000000011E-004    1.518582711481049E-040
  4.000000000000011E-004    4.277009488001641E-040
  5.000000000000011E-004    7.261049449777902E-040
  6.000000000000011E-004    1.017542742628762E-039
  7.000000000000011E-004    1.266942156539330E-039
  8.000000000000011E-004    1.436519916134717E-039
  9.000000000000012E-004    1.489221081711641E-039
  1.000000000000001E-003    1.392410269278002E-039
  1.100000000000001E-003    1.121412647915403E-039
  1.200000000000001E-003    6.625832250211483E-040
  1.300000000000001E-003    1.569193392512174E-041
  1.400000000000001E-003   -8.043953769269992E-040
  1.500000000000001E-003   -1.766558507890294E-039
  1.600000000000001E-003   -2.822467308602364E-039
  1.700000000000001E-003   -3.905437750396883E-039
  1.800000000000001E-003   -4.928882913836296E-039
  1.900000000000001E-003   -5.784448346926763E-039
  2.000000000000001E-003   -6.340471451357695E-039
  2.100000000000001E-003   -6.442064796955513E-039
  2.200000000000001E-003   -5.914815763050032E-039
  2.300000000000001E-003   -4.574560229918487E-039
  2.400000000000001E-003   -2.245790071822688E-039
  2.500000000000001E-003    1.209288838893983E-039
  2.600000000000001E-003    5.850380327505209E-039
  2.700000000000001E-003    1.160892261383595E-038
  2.800000000000001E-003    1.823264942215063E-038
  2.900000000000001E-003    2.523282698896155E-038
  3.000000000000001E-003    3.184553870967292E-038
  3.100000000000001E-003    3.702103893309215E-038
  3.200000000000001E-003    3.945627666698590E-038
  3.300000000000001E-003    3.768434380029895E-038
  3.400000000000001E-003    3.023022491118611E-038
  3.500000000000001E-003    1.583434276914395E-038
  3.600000000000001E-003   -6.265647132116511E-039
  3.700000000000001E-003   -3.601813144557245E-038
  3.800000000000001E-003   -7.224346148464553E-038
  3.900000000000001E-003   -1.123738902956277E-037
  4.000000000000001E-003   -1.523082051584585E-037
  4.100000000000001E-003   -1.864450043570699E-037
  4.200000000000001E-003   -2.079522562812198E-037
  4.300000000000001E-003   -2.093137507986336E-037
  4.400000000000001E-003   -1.831642613607514E-037
  4.500000000000001E-003   -1.233857303883405E-037
  4.600000000000002E-003   -2.638979985442691E-038
  4.700000000000001E-003    1.075382087733375E-037
  4.800000000000001E-003    2.730044590841299E-037
  4.900000000000002E-003    4.585874604349299E-037
  5.000000000000001E-003    6.464557326334504E-037
  5.100000000000001E-003    8.127335045070674E-037
  5.200000000000001E-003    9.287835475187285E-037
  5.300000000000002E-003    9.635002499975009E-037
  5.400000000000001E-003    8.866000786001306E-037
  5.500000000000001E-003    6.727634732627200E-037
  5.600000000000002E-003    3.063374470254895E-037
  5.700000000000001E-003   -2.138389443902826E-037
  5.800000000000001E-003   -8.700489961774308E-037
  5.900000000000002E-003   -1.622408425334465E-036
  6.000000000000001E-003   -2.407359399375312E-036
  6.100000000000001E-003   -3.138602758006215E-036
  6.200000000000002E-003   -3.711003320935814E-036
  6.300000000000002E-003   -4.007804196922110E-036
  6.400000000000001E-003   -3.911189523677328E-036
  6.500000000000001E-003   -3.315884958802359E-036
  6.600000000000002E-003   -2.145060503311658E-036
  6.700000000000001E-003   -3.673669147406124E-037
  6.800000000000001E-003    1.986493525664376E-036
  6.900000000000002E-003    4.809634796973106E-036
  7.000000000000001E-003    7.909536655084948E-036
  7.100000000000001E-003    1.100562758028364E-035
  7.200000000000002E-003    1.373613201270822E-035
  7.300000000000002E-003    1.567606869324400E-035
  7.400000000000001E-003    1.636756442883803E-035
  7.500000000000001E-003    1.536266915704996E-035
  7.600000000000002E-003    1.227748322281892E-035
  7.700000000000001E-003    6.854818735460149E-036
  7.800000000000001E-003   -9.692164446992556E-037
  7.900000000000001E-003   -1.100113620394774E-035
  8.000000000000002E-003   -2.273660416276842E-035
  8.100000000000001E-003   -3.532692151065859E-035
  8.200000000000001E-003   -4.757529499952516E-035
  8.300000000000002E-003   -5.797223191536557E-035
  8.400000000000001E-003   -6.477760607477110E-035
  8.500000000000002E-003   -6.615364852742522E-035
  8.600000000000002E-003   -6.034842946413325E-035
  8.700000000000001E-003   -4.592318965349109E-035
  8.800000000000002E-003   -2.200973259010876E-035
  8.900000000000002E-003    1.142344788356324E-035
  9.000000000000001E-003    5.332485361119054E-035
  9.100000000000002E-003    1.013681185404086E-034
  9.200000000000002E-003    1.518521123745723E-034
  9.300000000000001E-003    1.997308680628701E-034
  9.400000000000002E-003    2.388064943048617E-034
  9.500000000000001E-003    2.621082100006177E-034
  9.600000000000001E-003    2.624661844203606E-034
  9.700000000000002E-003    2.332683700105540E-034
  9.800000000000001E-003    1.693651832508682E-034
  9.900000000000001E-003    6.806066210822093E-035
  1.000000000000000E-002   -6.989717658228034E-035
  1.010000000000000E-002   -2.394371823353524E-034
  1.020000000000000E-002   -4.305247757710236E-034
  1.030000000000000E-002   -6.278950790648496E-034
  1.040000000000000E-002   -8.112906116667265E-034
  1.050000000000000E-002   -9.563145494113837E-034
  1.060000000000000E-002   -1.035974559754881E-033
  1.070000000000000E-002   -1.022938594725367E-033
  1.080000000000000E-002   -8.924550277120841E-034
  1.090000000000000E-002   -6.258046646537430E-034
  1.100000000000000E-002   -2.140595357800945E-034
  1.110000000000000E-002    3.381729475512860E-034
  1.120000000000000E-002    1.009430234450319E-033
  1.130000000000000E-002    1.758983660217492E-033
  1.140000000000000E-002    2.525860031119409E-033
  1.150000000000000E-002    3.229820926909107E-033
  1.160000000000000E-002    3.774761051855929E-033
  1.170000000000000E-002    4.054859497151840E-033
  1.180000000000000E-002    3.963610790313706E-033
  1.190000000000000E-002    3.405570110645473E-033
  1.200000000000000E-002    2.310286939043129E-033
  1.210000000000000E-002    6.474974226932087E-034
  1.220000000000000E-002   -1.557811686254441E-033
  1.230000000000000E-002   -4.212235202603610E-033
  1.240000000000000E-002   -7.144797057053770E-033
  1.250000000000000E-002   -1.010408045337069E-032
  1.260000000000000E-002   -1.276386012885575E-032
  1.270000000000000E-002   -1.473910570975588E-032
  1.280000000000000E-002   -1.561352301087269E-032
  1.290000000000000E-002   -1.497876621337292E-032
  1.300000000000000E-002   -1.248404109464617E-032
  1.310000000000000E-002   -7.893198069855804E-033
  1.320000000000000E-002   -1.144594213543843E-033
  1.330000000000000E-002    7.592665637286730E-033
  1.340000000000000E-002    1.787391479461998E-032
  1.350000000000000E-002    2.895419537126108E-032
  1.360000000000000E-002    3.979219826870063E-032
  1.370000000000000E-002    4.909040896515059E-032
  1.380000000000000E-002    5.537651843568358E-032
  1.390000000000000E-002    5.712762025211965E-032
  1.400000000000000E-002    5.293377362373197E-032
  1.410000000000000E-002    4.169191618544496E-032
  1.420000000000000E-002    2.281485185942835E-032
  1.430000000000000E-002   -3.565555845356869E-033
  1.440000000000000E-002   -3.642677593113897E-032
  1.450000000000000E-002   -7.374391034867288E-032
  1.460000000000000E-002   -1.124663969198466E-031
  1.470000000000000E-002   -1.486080815178887E-031
  1.480000000000000E-002   -1.774681178376351E-031
  1.490000000000000E-002   -1.939891679416391E-031
  1.500000000000000E-002   -1.932444977747493E-031
  1.510000000000000E-002   -1.710286506983401E-031
  1.520000000000000E-002   -1.245079799393486E-031
  1.530000000000000E-002   -5.287063664369802E-032
  1.540000000000000E-002    4.209869794051421E-032
  1.550000000000000E-002    1.556022662701285E-031
  1.560000000000000E-002    2.796542184231159E-031
  1.570000000000000E-002    4.032222267622703E-031
  1.580000000000000E-002    5.127406617617351E-031
  1.590000000000000E-002    5.930213749644243E-031
  1.600000000000000E-002    6.285490672726292E-031
  1.610000000000000E-002    6.051018414499751E-031
  1.620000000000000E-002    5.115899438184597E-031
  1.630000000000000E-002    3.419576126657908E-031
  1.640000000000000E-002    9.695484901091271E-032
  1.650000000000000E-002   -2.144419772949336E-031
  1.660000000000000E-002   -5.741878538863000E-031
  1.670000000000000E-002   -9.551189678794107E-031
  1.680000000000000E-002   -1.321864702155181E-030
  1.690000000000000E-002   -1.632825150096745E-030
  1.700000000000000E-002   -1.843225272720997E-030
  1.710000000000000E-002   -1.909143133626035E-030
  1.720000000000000E-002   -1.792287953500811E-030
  1.730000000000000E-002   -1.465178723635280E-030
  1.740000000000000E-002   -9.162619867310288E-031
  1.750000000000000E-002   -1.544237236415130E-031
  1.760000000000000E-002    7.876947535557109E-031
  1.770000000000000E-002    1.852159953244071E-030
  1.780000000000000E-002    2.956500861372165E-030
  1.790000000000000E-002    3.997132146145802E-030
  1.800000000000000E-002    4.855617133335273E-030
  1.810000000000000E-002    5.407691118611097E-030
  1.820000000000000E-002    5.534658080130752E-030
  1.830000000000000E-002    5.136465766548484E-030
  1.840000000000000E-002    4.145455951505105E-030
  1.850000000000000E-002    2.539527299647153E-030
  1.860000000000000E-002    3.532732198875789E-031
  1.870000000000000E-002   -2.314402809789647E-030