 -4.000000000000000E-002    0.000000000000000E+000
 -3.990000000000000E-002    0.000000000000000E+000
 -3.980000000000000E-002    0.000000000000000E+000
 -3.970000000000000E-002    0.000000000000000E+000
 -3.960000000000000E-002    0.000000000000000E+000
 -3.950000000000000E-002   -2.276574994660989E-021
 -3.940000000000000E-002   -2.256477853026439E-020
 -3.930000000000000E-002   -1.192422758922047E-019
 -3.920000000000000E-002   -4.435328822933135E-019
 -3.910000000000000E-002   -1.293145268981031E-018
 -3.900000000000000E-002   -3.115970251576238E-018
 -3.890000000000000E-002   -6.368048081620132E-018
 -3.880000000000000E-002   -1.109984582457977E-017
 -3.870000000000000E-002   -1.615290223347754E-017
 -3.860000000000000E-002   -1.792033283739329E-017
 -3.850000000000000E-002   -8.773140608949192E-018
 -3.840000000000000E-002    2.452903056254118E-017
 -3.830000000000000E-002    1.018772858169175E-016
 -3.820000000000000E-002    2.495279860707378E-016
 -3.810000000000000E-002    4.976299506565946E-016
 -3.800000000000000E-002    8.748219737485599E-016
 -3.790000000000000E-002    1.399542409523277E-015
 -3.780000000000000E-002    2.068344968887134E-015
 -3.770000000000000E-002    2.842370949826827E-015
 -3.760000000000000E-002    3.634042239725800E-015
 -3.750000000000000E-002    4.296810448504322E-015
 -3.740000000000000E-002    4.621202290095572E-015
 -3.730000000000000E-002    4.340241515811470E-015
 -3.720000000000000E-002    3.146467600378963E-015
 -3.710000000000000E-002    7.212721364807771E-016
 -3.700000000000000E-002   -3.224752651527673E-015
 -3.690000000000000E-002   -8.903923882732897E-015
 -3.680000000000000E-002   -1.640141714423773E-014
 -3.670000000000000E-002   -2.562960415609922E-014
 -3.660000000000000E-002   -3.629339809587243E-014
 -3.650000000000000E-002   -4.787194182674978E-014
 -3.640000000000000E-002   -5.961947044121486E-014
 -3.630000000000000E-002   -7.058481306913632E-014
 -3.620000000000000E-002   -7.964529247954679E-014
 -3.610000000000000E-002   -8.554796063785164E-014
 -3.600000000000000E-002   -8.694934790181906E-014
 -3.590000000000000E-002   -8.244590295343546E-014
 -3.580000000000000E-002   -7.059015876457143E-014
 -3.570000000000000E-002   -4.989365303933599E-014
 -3.560000000000000E-002   -1.882454567870976E-014
 -3.550000000000000E-002    2.418443014257887E-014
 -3.540000000000000E-002    8.069557180132028E-014
 -3.530000000000000E-002    1.521682073998770E-013
 -3.520000000000000E-002    2.397788488559574E-013
 -3.510000000000000E-002    3.441421972849744E-013
 -3.500000000000000E-002    4.649275190005518E-013
 -3.490000000000000E-002    6.003818602803675E-013
 -3.480000000000000E-002    7.467914294818447E-013
 -3.470000000000000E-002    8.979319989866593E-013
 -3.460000000000000E-002    1.044575846883822E-012
 -3.450000000000000E-002    1.174136456088863E-012
 -3.440000000000000E-002    1.270533396764791E-012
 -3.430000000000000E-002    1.314356855105688E-012
 -3.420000000000000E-002    1.283397077373564E-012
 -3.410000000000000E-002    1.153582501802022E-012
 -3.400000000000000E-002    9.003411143826501E-013
 -3.390000000000000E-002    5.003744308476541E-013
 -3.380000000000000E-002   -6.620382846916538E-014
 -3.370000000000000E-002   -8.134362278657761E-013
 -3.360000000000000E-002   -1.746901190545572E-012
 -3.350000000000000E-002   -2.861033211610479E-012
 -3.340000000000000E-002   -4.136527451000959E-012
 -3.330000000000000E-002   -5.538022790631614E-012
 -3.320000000000000E-002   -7.012253603918362E-012
 -3.310000000000000E-002   -8.486904690954334E-012
 -3.300000000000000E-002   -9.870420255734938E-012
 -3.290000000000000E-002   -1.105303016850908E-011
 -3.280000000000000E-002   -1.190923986308358E-011
 -3.270000000000000E-002   -1.230199340064448E-011
 -3.260000000000000E-002   -1.208866028431576E-011
 -3.250000000000000E-002   -1.112886219028249E-011
 -3.240000000000000E-002   -9.293995585957220E-012
 -3.230000000000000E-002   -6.478130184304698E-012
 -3.220000000000000E-002   -2.609738752433506E-012
 -3.210000000000000E-002    2.336500002652347E-012
 -3.200000000000000E-002    8.328725624473159E-012
 -3.190000000000000E-002    1.526874856343602E-011
 -3.180000000000000E-002    2.298580406914311E-011
 -3.170000000000000E-002    3.123404380934791E-011
 -3.160000000000000E-002    3.969447430927995E-011
 -3.150000000000000E-002    4.798164044882084E-011
 -3.140000000000000E-002    5.565498231170795E-011
 -3.130000000000000E-002    6.223424440972399E-011
 -3.120000000000000E-002    6.721805935674223E-011
 -3.110000000000000E-002    7.010433222548973E-011
 -3.100000000000000E-002    7.041111407819796E-011
 -3.090000000000000E-002    6.769654120135790E-011
 -3.080000000000000E-002    6.157681167064507E-011
 -3.070000000000000E-002    5.174177591596599E-011
 -3.060000000000000E-002    3.796803738749138E-011
 -3.050000000000000E-002    2.013055383015270E-011
 -3.040000000000000E-002   -1.786002123839477E-012
 -3.030000000000000E-002   -2.767428171730933E-011
 -3.020000000000000E-002   -5.728799923901709E-011
 -3.010000000000000E-002   -9.022091578784734E-011
 -3.000000000000000E-002   -1.258806936936336E-010
 -2.990000000000000E-002   -1.634583492428232E-010
 -2.980000000000000E-002   -2.018958730853403E-010
 -2.970000000000000E-002   -2.398562336583940E-010
 -2.960000000000000E-002   -2.757016229947154E-010
 -2.950000000000000E-002   -3.074870865812909E-010
 -2.940000000000000E-002   -3.329769143197134E-010
 -2.930000000000000E-002   -3.496912095393563E-010
 -2.920000000000000E-002   -3.549880940217858E-010
 -2.910000000000000E-002   -3.461845927950093E-010
 -2.900000000000000E-002   -3.207155892515356E-010
 -2.890000000000000E-002   -2.763262508689302E-010
 -2.880000000000000E-002   -2.112880921931825E-010
 -2.870000000000000E-002   -1.246252684045994E-010
 -2.860000000000000E-002   -1.633386916774557E-011
 -2.850000000000000E-002    1.124262541329752E-010
 -2.840000000000000E-002    2.591865383318732E-010
 -2.830000000000000E-002    4.200911039918095E-010
 -2.820000000000000E-002    5.899002430429415E-010
 -2.810000000000000E-002    7.620861963694416E-010
 -2.800000000000000E-002    9.290249830936900E-010
 -2.790000000000000E-002    1.082280715157969E-009
 -2.780000000000000E-002    1.212970600397420E-009
 -2.770000000000000E-002    1.312191820670237E-009
 -2.760000000000000E-002    1.371486141876999E-009
 -2.750000000000000E-002    1.383313446244605E-009
 -2.740000000000000E-002    1.341504814480961E-009
 -2.730000000000000E-002    1.241665431052881E-009
 -2.720000000000000E-002    1.081503637693225E-009
 -2.710000000000000E-002    8.610645538993898E-010
 -2.700000000000000E-002    5.828565993144444E-010
 -2.690000000000000E-002    2.518650346685774E-010
 -2.680000000000000E-002   -1.245432573615964E-010
 -2.670000000000000E-002   -5.368168820792985E-010
 -2.660000000000000E-002   -9.735015804910336E-010
 -2.650000000000000E-002   -1.421589434741562E-009
 -2.640000000000000E-002   -1.866915075405136E-009
 -2.630000000000000E-002   -2.294578080348161E-009
 -2.620000000000000E-002   -2.689375911201822E-009
 -2.610000000000000E-002   -3.036230837474720E-009
 -2.600000000000000E-002   -3.320601741214389E-009
 -2.590000000000000E-002   -3.528873584232480E-009
 -2.580000000000000E-002   -3.648721449471201E-009
 -2.570000000000000E-002   -3.669451251396403E-009
 -2.560000000000000E-002   -3.582316046623402E-009
 -2.550000000000000E-002   -3.380814944164742E-009
 -2.540000000000000E-002   -3.060973645922701E-009
 -2.530000000000000E-002   -2.621608919512805E-009
 -2.520000000000000E-002   -2.064577028137416E-009
 -2.510000000000000E-002   -1.394999645981844E-009
 -2.500000000000000E-002   -6.214603590257591E-010
 -2.490000000000000E-002    2.438391452531018E-010
 -2.480000000000000E-002    1.184981334827457E-009
 -2.470000000000000E-002    2.182311979864513E-009
 -2.460000000000000E-002    3.212518535738687E-009
 -2.450000000000000E-002    4.248834939514817E-009
 -2.440000000000000E-002    5.261397790244371E-009
 -2.430000000000000E-002    6.217778544871094E-009
 -2.420000000000000E-002    7.083712988153656E-009
 -2.410000000000000E-002    7.824038443240226E-009
 -2.400000000000000E-002    8.403837675250493E-009
 -2.390000000000000E-002    8.789777695217354E-009
 -2.380000000000000E-002    8.951604614838890E-009
 -2.370000000000000E-002    8.863738906799741E-009
 -2.360000000000000E-002    8.506896193430695E-009
 -2.350000000000000E-002    7.869635994104793E-009
 -2.340000000000000E-002    6.949722813023038E-009
 -2.330000000000000E-002    5.755190487632612E-009
 -2.320000000000000E-002    4.304986419723357E-009
 -2.310000000000000E-002    2.629093528909804E-009
 -2.300000000000000E-002    7.680620180190292E-010
 -2.290000000000000E-002   -1.228096615939628E-009
 -2.280000000000000E-002   -3.301636282404061E-009
 -2.270000000000000E-002   -5.389367980723544E-009
 -2.260000000000000E-002   -7.425395753967066E-009
 -2.250000000000000E-002   -9.344136514277733E-009
 -2.240000000000000E-002   -1.108342111656498E-008
 -2.230000000000000E-002   -1.258744634795041E-008
 -2.220000000000000E-002   -1.380935722619252E-008
 -2.210000000000000E-002   -1.471324266496767E-008
 -2.200000000000000E-002   -1.527538515852569E-008
 -2.190000000000000E-002   -1.548465921185536E-008
 -2.180000000000000E-002   -1.534204392412490E-008
 -2.170000000000000E-002   -1.485931582503845E-008
 -2.160000000000000E-002   -1.405705472098119E-008
 -2.150000000000000E-002   -1.296217175534830E-008
 -2.140000000000000E-002   -1.160522972786016E-008
 -2.130000000000000E-002   -1.001784361788119E-008
 -2.120000000000000E-002   -8.230445399180639E-009
 -2.110000000000000E-002   -6.270666922465666E-009
 -2.100000000000000E-002   -4.162516058342954E-009
 -2.090000000000000E-002   -1.926448853507390E-009
 -2.080000000000000E-002    4.196853844494690E-010
 -2.070000000000000E-002    2.858941820691955E-009
 -2.060000000000000E-002    5.373044166007545E-009
 -2.050000000000000E-002    7.939914120408884E-009
 -2.040000000000000E-002    1.053131259215621E-008
 -2.030000000000000E-002    1.311095765388863E-008
 -2.020000000000000E-002    1.563343443977137E-008
 -2.010000000000000E-002    1.804416788296741E-008
 -2.000000000000000E-002    2.028059724649989E-008
 -1.990000000000000E-002    2.227459618294456E-008
 -1.980000000000000E-002    2.395601834278633E-008
 -1.970000000000000E-002    2.525713672098828E-008
 -1.960000000000000E-002    2.611762049509971E-008
 -1.950000000000000E-002    2.648962540497143E-008
 -1.940000000000000E-002    2.634252337562878E-008
 -1.930000000000000E-002    2.566679922897721E-008
 -1.920000000000000E-002    2.447672890085622E-008
 -1.910000000000000E-002    2.281151109386197E-008
 -1.900000000000000E-002    2.073468390978873E-008
 -1.890000000000000E-002    1.833180781502221E-008
 -1.880000000000000E-002    1.570654484313482E-008
 -1.870000000000000E-002    1.297544875485153E-008
 -1.860000000000000E-002    1.026186740681378E-008
 -1.850000000000000E-002    7.689512551222225E-009
 -1.840000000000000E-002    5.376261707251160E-009
 -1.830000000000000E-002    3.428783118073351E-009
 -1.820000000000000E-002    1.938530736286369E-009
 -1.810000000000000E-002    9.795771834744349E-010
 -1.800000000000000E-002    6.086092089437643E-010
 -1.790000000000000E-002    8.672763602367000E-010
 -1.780000000000000E-002    1.786889636022151E-009
 -1.770000000000000E-002    3.395253152707198E-009
 -1.760000000000000E-002    5.725398176253490E-009
 -1.750000000000000E-002    8.825544970467915E-009
 -1.740000000000000E-002    1.276982943567886E-008
 -1.730000000000000E-002    1.766897729763597E-008
 -1.720000000000000E-002    2.368015953553753E-008
 -1.710000000000000E-002    3.101537677353191E-008
 -1.700000000000000E-002    3.994751541966860E-008
 -1.690000000000000E-002    5.081368449501757E-008
 -1.680000000000000E-002    6.401516233862675E-008
 -1.670000000000000E-002    8.001396987116579E-008
 -1.660000000000000E-002    9.932590312420640E-008
 -1.650000000000000E-002    1.225102776905322E-007
 -1.640000000000000E-002    1.501569555611390E-007
 -1.630000000000000E-002    1.828712739875381E-007
 -1.620000000000000E-002    2.212579234823481E-007
 -1.610000000000000E-002    2.659045511618961E-007
 -1.600000000000000E-002    3.173667407876760E-007
 -1.590000000000000E-002    3.761547573600966E-007
 -1.580000000000000E-002    4.427237402573825E-007
 -1.570000000000000E-002    5.174676236349345E-007
 -1.560000000000000E-002    6.007177410501595E-007
 -1.550000000000000E-002    6.927458781155458E-007
 -1.540000000000000E-002    7.937720007123648E-007
 -1.530000000000000E-002    9.039758387051717E-007
 -1.520000000000000E-002    1.023511293829773E-006
 -1.510000000000000E-002    1.152523026510228E-006
 -1.500000000000000E-002    1.291163022325640E-006
 -1.490000000000000E-002    1.439606589814898E-006
 -1.480000000000000E-002    1.598065960553719E-006
 -1.470000000000000E-002    1.766799987487346E-006
 -1.460000000000000E-002    1.946120009618703E-006
 -1.450000000000000E-002    2.136390503372100E-006
 -1.440000000000000E-002    2.338025981511000E-006
 -1.430000000000000E-002    2.551482526658571E-006
 -1.420000000000000E-002    2.777247756943467E-006
 -1.410000000000000E-002    3.015828085418995E-006
 -1.400000000000000E-002    3.267737130348383E-006
 -1.390000000000000E-002    3.533485277875782E-006
 -1.380000000000000E-002    3.813573393234994E-006
 -1.370000000000000E-002    4.108490898177008E-006
 -1.360000000000000E-002    4.418721112915859E-006
 -1.350000000000000E-002    4.744752584488164E-006
 -1.340000000000000E-002    5.087096927392324E-006
 -1.330000000000000E-002    5.446313493491511E-006
 -1.320000000000000E-002    5.823037279801825E-006
 -1.310000000000000E-002    6.218011366124225E-006
 -1.300000000000000E-002    6.632120189238549E-006
 -1.290000000000000E-002    7.066422088005279E-006
 -1.280000000000000E-002    7.522175862651699E-006
 -1.270000000000000E-002    8.000866083271496E-006
 -1.260000000000000E-002    8.504218252002298E-006
 -1.250000000000000E-002    9.034208183361128E-006
 -1.240000000000000E-002    9.593059898755839E-006
 -1.230000000000000E-002    1.018323929603853E-005
 -1.220000000000000E-002    1.080743543416669E-005
 -1.210000000000000E-002    1.146853781861480E-005
 -1.200000000000000E-002    1.216960935709760E-005
 -1.190000000000000E-002    1.291385382410359E-005
 -1.180000000000000E-002    1.370458566930764E-005
 -1.170000000000000E-002    1.454519994009881E-005
 -1.160000000000000E-002    1.543914785665411E-005
 -1.150000000000000E-002    1.638991615095001E-005
 -1.140000000000000E-002    1.740101604110076E-005
 -1.130000000000000E-002    1.847597820273696E-005
 -1.120000000000000E-002    1.961836106939666E-005
 -1.110000000000000E-002    2.083176569527058E-005
 -1.100000000000000E-002    2.211985476639056E-005
 -1.090000000000000E-002    2.348638515471942E-005
 -1.080000000000000E-002    2.493524536841239E-005
 -1.070000000000000E-002    2.647049547813574E-005
 -1.060000000000000E-002    2.809640107270643E-005
 -1.050000000000000E-002    2.981747625983764E-005
 -1.040000000000000E-002    3.163851963236438E-005
 -1.030000000000000E-002    3.356463800924416E-005
 -1.020000000000000E-002    3.560126666431701E-005
 -1.010000000000000E-002    3.775417429078138E-005
 -1.000000000000000E-002    4.002946995449114E-005
 -9.899999999999999E-003    4.243357654520849E-005
 -9.800000000000000E-003    4.497321973290595E-005
 -9.699999999999999E-003    4.765538975807623E-005
 -9.599999999999999E-003    5.048730465744712E-005
 -9.500000000000000E-003    5.347636970286851E-005
 -9.399999999999999E-003    5.663013791210441E-005
 -9.299999999999999E-003    5.995627974028067E-005
 -9.200000000000000E-003    6.346255888163331E-005
 -9.099999999999999E-003    6.715680564023162E-005
 -8.999999999999999E-003    7.104694321576306E-005
 -8.900000000000000E-003    7.514098295697264E-005
 -8.799999999999999E-003    7.944706804202498E-005
 -8.699999999999999E-003    8.397353359905680E-005
 -8.600000000000000E-003    8.872896065631616E-005
 -8.499999999999999E-003    9.372226168186432E-005
 -8.399999999999999E-003    9.896277057389429E-005
 -8.300000000000000E-003    1.044603283154743E-004
 -8.199999999999999E-003    1.102253597304899E-004
 -8.100000000000000E-003    1.162689685400235E-004
 -8.000000000000000E-003    1.226029955089317E-004
 -7.899999999999999E-003    1.292400910794541E-004
 -7.800000000000000E-003    1.361937362119882E-004
 -7.699999999999999E-003    1.434782880027213E-004
 -7.599999999999999E-003    1.511089695808486E-004
 -7.499999999999999E-003    1.591018718669851E-004
 -7.399999999999999E-003    1.674739509971017E-004
 -7.299999999999999E-003    1.762429843462699E-004
 -7.199999999999999E-003    1.854275540811653E-004
 -7.100000000000000E-003    1.950470485902025E-004
 -6.999999999999999E-003    2.051216223305773E-004
 -6.899999999999999E-003    2.156722259819353E-004
 -6.800000000000000E-003    2.267205728882788E-004
 -6.699999999999999E-003    2.382892428102137E-004
 -6.599999999999999E-003    2.504016503291063E-004
 -6.499999999999999E-003    2.630821831465811E-004
 -6.399999999999999E-003    2.763561855771308E-004
 -6.299999999999999E-003    2.902501675631265E-004
 -6.199999999999999E-003    3.047917606580189E-004
 -6.100000000000000E-003    3.200099410731971E-004
 -5.999999999999999E-003    3.359349974124758E-004
 -5.899999999999999E-003    3.525986843265773E-004
 -5.800000000000000E-003    3.700342468531192E-004
 -5.699999999999999E-003    3.882765206575944E-004
 -5.599999999999999E-003    4.073619092959402E-004
 -5.499999999999999E-003    4.273284043496774E-004
 -5.399999999999999E-003    4.482155964347218E-004
 -5.299999999999999E-003    4.700646561383540E-004
 -5.199999999999999E-003    4.929182279931336E-004
 -5.099999999999999E-003    5.168205183965556E-004
 -4.999999999999999E-003    5.418170801403719E-004
 -4.899999999999999E-003    5.679549104694323E-004
 -4.799999999999999E-003    5.952823421447406E-004
 -4.699999999999999E-003    6.238489202785323E-004
 -4.599999999999999E-003    6.537054958513667E-004
 -4.499999999999999E-003    6.849042058252478E-004
 -4.399999999999999E-003    7.174984819755209E-004
 -4.299999999999999E-003    7.515429630034118E-004
 -4.199999999999999E-003    7.870936585033253E-004
 -4.099999999999999E-003    8.242079815873842E-004
 -3.999999999999999E-003    8.629448358040401E-004
 -3.899999999999999E-003    9.033646209067337E-004
 -3.799999999999999E-003    9.455294056513972E-004
 -3.699999999999999E-003    9.895029817023843E-004
 -3.599999999999999E-003    1.035350965844433E-003
 -3.499999999999999E-003    1.083140749975344E-003
 -3.399999999999999E-003    1.132941743835922E-003
 -3.299999999999999E-003    1.184825227681257E-003
 -3.199999999999999E-003    1.238864600432267E-003
 -3.099999999999999E-003    1.295135167051701E-003
 -2.999999999999999E-003    1.353714226327881E-003
 -2.899999999999999E-003    1.414681096294543E-003
 -2.799999999999999E-003    1.478116955243726E-003
 -2.699999999999999E-003    1.544105156381475E-003
 -2.599999999999999E-003    1.612730861465850E-003
 -2.499999999999999E-003    1.684081273882273E-003
 -2.399999999999999E-003    1.758245413767032E-003
 -2.299999999999999E-003    1.835314510828717E-003
 -2.199999999999999E-003    1.915381828211584E-003
 -2.099999999999999E-003    1.998542528079175E-003
 -1.999999999999999E-003    2.084894135479273E-003
 -1.899999999999999E-003    2.174536321301315E-003
 -1.799999999999999E-003    2.267571145056368E-003
 -1.699999999999999E-003    2.364103141140697E-003
 -1.599999999999999E-003    2.464239535301537E-003
 -1.499999999999999E-003    2.568090037123499E-003
 -1.399999999999999E-003    2.675767417897915E-003
 -1.299999999999999E-003    2.787387052087897E-003
 -1.199999999999999E-003    2.903067475903459E-003
 -1.099999999999999E-003    3.022930383321073E-003
 -9.999999999999989E-004    3.147100249669479E-003
 -8.999999999999990E-004    3.275705140544661E-003
 -7.999999999999990E-004    3.408876163594650E-003
 -6.999999999999989E-004    3.546747758159083E-003
 -5.999999999999990E-004    3.689457888867272E-003
 -4.999999999999989E-004    3.837147595150868E-003
 -3.999999999999989E-004    3.989961638138279E-003
 -2.999999999999989E-004    4.148047910051929E-003
 -1.999999999999989E-004    4.311557947090505E-003
 -9.999999999999892E-005    4.480646536090638E-003
  1.084202172485504E-018    4.655472301388775E-003
  1.000000000000011E-004    4.836197686897181E-003
  2.000000000000011E-004    5.022988496992764E-003
  3.000000000000011E-004    5.216013865221937E-003
  4.000000000000011E-004    5.415447427428427E-003
  5.000000000000011E-004    5.621465807640023E-003
  6.000000000000011E-004    5.834249457628285E-003
  7.000000000000011E-004    6.053983469021350E-003
  8.000000000000011E-004    6.280855812923946E-003
  9.000000000000012E-004    6.515058090800632E-003
  1.000000000000001E-003    6.756786781629012E-003
  1.100000000000001E-003    7.006240547121174E-003
  1.200000000000001E-003    7.263622685630688E-003
  1.300000000000001E-003    7.529139629209219E-003
  1.400000000000001E-003    7.803001556595216E-003
  1.500000000000001E-003    8.085421403034759E-003
  1.600000000000001E-003    8.376616354432761E-003
  1.700000000000001E-003    8.676805213281973E-003
  1.800000000000001E-003    8.986211845823260E-003
  1.900000000000001E-003    9.305061873598633E-003
  2.000000000000001E-003    9.633584088037387E-003
  2.100000000000001E-003    9.972011023315529E-003
  2.200000000000001E-003    1.032057785162394E-002
  2.300000000000001E-003    1.067952251454891E-002
  2.400000000000001E-003    1.104908559737467E-002
  2.500000000000001E-003    1.142951317274480E-002
  2.600000000000001E-003    1.182105163124371E-002
  2.700000000000001E-003    1.222395139953306E-002
  2.800000000000001E-003    1.263846647681883E-002
  2.900000000000001E-003    1.306485314563822E-002
  3.000000000000001E-003    1.350337032588311E-002
  3.100000000000001E-003    1.395428064230821E-002
  3.200000000000001E-003    1.441784831576608E-002
  3.300000000000001E-003    1.489433940316403E-002
  3.400000000000001E-003    1.538402376749963E-002
  3.500000000000001E-003    1.588717141936091E-002
  3.600000000000001E-003    1.640405529313436E-002
  3.700000000000001E-003    1.693494929390599E-002
  3.800000000000001E-003    1.748013022148156E-002
  3.900000000000001E-003    1.803987383074552E-002
  4.000000000000001E-003    1.861446024372006E-002
  4.100000000000001E-003    1.920416882233566E-002
  4.200000000000001E-003    1.980928179905592E-002
  4.300000000000001E-003    2.043008250265452E-002
  4.400000000000001E-003    2.106685685579963E-002
  4.500000000000001E-003    2.171988986359308E-002
  4.600000000000002E-003    2.238947152679018E-002
  4.700000000000001E-003    2.307589026197866E-002
  4.800000000000001E-003    2.377943787989588E-002
  4.900000000000002E-003    2.450040788682633E-002
  5.000000000000001E-003    2.523909295628905E-002
  5.100000000000001E-003    2.599579110018090E-002
  5.200000000000001E-003    2.677079762913304E-002
  5.300000000000002E-003    2.756441041993184E-002
  5.400000000000001E-003    2.837692480204836E-002
  5.500000000000001E-003    2.920863886928848E-002
  5.600000000000002E-003    3.005985059632333E-002
  5.700000000000001E-003    3.093085661325087E-002
  5.800000000000001E-003    3.182195399973083E-002
  5.900000000000002E-003    3.273343779292243E-002
  6.000000000000001E-003    3.366560591919663E-002
  6.100000000000001E-003    3.461875075929874E-002
  6.200000000000002E-003    3.559316773774301E-002
  6.300000000000002E-003    3.658914708425773E-002
  6.400000000000001E-003    3.760697910958262E-002
  6.500000000000001E-003    3.864695489341144E-002
  6.600000000000002E-003    3.970936453497813E-002
  6.700000000000001E-003    4.079449486875979E-002
  6.800000000000001E-003    4.190263300449092E-002
  6.900000000000002E-003    4.303406103663553E-002
  7.000000000000001E-003    4.418905902707290E-002
  7.100000000000001E-003    4.536790687348901E-002
  7.200000000000002E-003    4.657088094270190E-002
  7.300000000000002E-003    4.779825328761967E-002
  7.400000000000001E-003    4.905029851326836E-002
  7.500000000000001E-003    5.032727708418649E-002
  7.600000000000002E-003    5.162945404041161E-002
  7.700000000000001E-003    5.295708882015565E-002
  7.800000000000001E-003    5.431043095409676E-002
  7.900000000000001E-003    5.568973074940672E-002
  8.000000000000002E-003    5.709523206791681E-002
  8.100000000000001E-003    5.852717011004704E-002
  8.200000000000001E-003    5.998577823261476E-002
  8.300000000000002E-003    6.147127721595786E-002
  8.400000000000001E-003    6.298388674111445E-002
  8.500000000000002E-003    6.452381834252015E-002
  8.600000000000002E-003    6.609127371341894E-002
  8.700000000000001E-003    6.768645130278991E-002
  8.800000000000002E-003    6.930953630196900E-002
  8.900000000000002E-003    7.096070280476338E-002
  9.000000000000001E-003    7.264011863759956E-002
  9.100000000000002E-003    7.434794947251426E-002
  9.200000000000002E-003    7.608433411462809E-002
  9.300000000000001E-003    7.784941774185758E-002
  9.400000000000002E-003    7.964332904346914E-002
  9.500000000000001E-003    8.146617845714899E-002
  9.600000000000001E-003    8.331807472830821E-002
  9.700000000000002E-003    8.519910845779520E-002
  9.800000000000001E-003    8.710935925833546E-002
  9.900000000000001E-003    8.904889514765998E-002
  1.000000000000000E-002    9.101777357694298E-002
  1.010000000000000E-002    9.301603275295649E-002
  1.020000000000000E-002    9.504369560096113E-002
  1.030000000000000E-002    9.710076767125041E-002
  1.040000000000000E-002    9.918724303880540E-002
  1.050000000000000E-002    0.101303100419119     
  1.060000000000000E-002    0.103448292940949     
  1.070000000000000E-002    0.105622763067888     
  1.080000000000000E-002    0.107826425695032     
  1.090000000000000E-002    0.110059184118531     
  1.100000000000000E-002    0.112320913316564     
  1.110000000000000E-002    0.114611477213296     
  1.120000000000000E-002    0.116930714230587     
  1.130000000000000E-002    0.119278433290277     
  1.140000000000000E-002    0.121654423498020     
  1.150000000000000E-002    0.124058453812140     
  1.160000000000000E-002    0.126490263225663     
  1.170000000000000E-002    0.128949557500731     
  1.180000000000000E-002    0.131436030316372     
  1.190000000000000E-002    0.133949337051064     
  1.200000000000000E-002    0.136489115565694     
  1.210000000000000E-002    0.139054950272916     
  1.220000000000000E-002    0.141646410748789     
  1.230000000000000E-002    0.144263034974693     
  1.240000000000000E-002    0.146904315756525     
  1.250000000000000E-002    0.149569723045743     
  1.260000000000000E-002    0.152258676268977     
  1.270000000000000E-002    0.154970576872964     
  1.280000000000000E-002    0.157704773032898     
  1.290000000000000E-002    0.160460571349140     
  1.300000000000000E-002    0.163237246099209     
  1.310000000000000E-002    0.166034026148442     
  1.320000000000000E-002    0.168850082852562     
  1.330000000000000E-002    0.171684575114428     
  1.340000000000000E-002    0.174536570664539     
  1.350000000000000E-002    0.177405131542810     
  1.360000000000000E-002    0.180289252080262     
  1.370000000000000E-002    0.183187862686182     
  1.380000000000000E-002    0.186099860782817     
  1.390000000000000E-002    0.189024095177440     
  1.400000000000000E-002    0.191959334074456     
  1.410000000000000E-002    0.194904309698663     
  1.420000000000000E-002    0.197857693057200     
  1.430000000000000E-002    0.200818082243383     
  1.440000000000000E-002    0.203784022479383     
  1.450000000000000E-002    0.206753998543828     
  1.460000000000000E-002    0.209726424320497     
  1.470000000000000E-002    0.212699656640462     
  1.480000000000000E-002    0.215671970750202     
  1.490000000000000E-002    0.218641569970316     
  1.500000000000000E-002    0.221606613846400     
  1.510000000000000E-002    0.224565156116307     
  1.520000000000000E-002    0.227515195452904     
  1.530000000000000E-002    0.230454649393718     
  1.540000000000000E-002    0.233381360865575     
  1.550000000000000E-002    0.236293089885545     
  1.560000000000000E-002    0.239187509539464     
  1.570000000000000E-002    0.242062237536058     
  1.580000000000000E-002    0.244914784690903     
  1.590000000000000E-002    0.247742591238177     
  1.600000000000000E-002    0.250543001769403     
  1.610000000000000E-002    0.253313288788042     
  1.620000000000000E-002    0.256050613092431     
  1.630000000000000E-002    0.258752081005989     
  1.640000000000000E-002    0.261414675744675     
  1.650000000000000E-002    0.264035307857351     
  1.660000000000000E-002    0.266610790665560     
  1.670000000000000E-002    0.269137830126703     
  1.680000000000000E-002    0.271613073862783     
  1.690000000000000E-002    0.274033050219386     
  1.700000000000000E-002    0.276394167377323     
  1.710000000000000E-002    0.278692815616604     
  1.720000000000000E-002    0.280925195726261     
  1.730000000000000E-002    0.283087472837811     
  1.740000000000000E-002    0.285175702368314     
  1.750000000000000E-002    0.287185839534971     
  1.760000000000000E-002    0.289113755171307     
  1.770000000000000E-002    0.290955188439130     
  1.780000000000000E-002    0.292705808522021     
  1.790000000000000E-002    0.294361189624641     
  1.800000000000000E-002    0.295916802672369     
  1.810000000000000E-002    0.297368028459479     
  1.820000000000000E-002    0.298710170421032     
  1.830000000000000E-002    0.299938408167414     
  1.840000000000000E-002    0.301047846704455     
  1.850000000000000E-002    0.302033473812253     
  1.860000000000000E-002    0.302890227369411     
  1.870000000000000E-002    0.303612943932735     