 -4.000000000000000E-002    0.000000000000000E+000
 -3.990000000000000E-002    0.000000000000000E+000
 -3.980000000000000E-002    0.000000000000000E+000
 -3.970000000000000E-002    0.000000000000000E+000
 -3.960000000000000E-002    0.000000000000000E+000
 -3.950000000000000E-002    0.000000000000000E+000
 -3.940000000000000E-002    0.000000000000000E+000
 -3.930000000000000E-002    0.000000000000000E+000
 -3.920000000000000E-002    0.000000000000000E+000
 -3.910000000000000E-002    0.000000000000000E+000
 -3.900000000000000E-002    0.000000000000000E+000
 -3.890000000000000E-002    0.000000000000000E+000
 -3.880000000000000E-002    0.000000000000000E+000
 -3.870000000000000E-002    0.000000000000000E+000
 -3.860000000000000E-002    0.000000000000000E+000
 -3.850000000000000E-002    0.000000000000000E+000
 -3.840000000000000E-002    0.000000000000000E+000
 -3.830000000000000E-002    0.000000000000000E+000
 -3.820000000000000E-002    0.000000000000000E+000
 -3.810000000000000E-002    0.000000000000000E+000
 -3.800000000000000E-002    0.000000000000000E+000
 -3.790000000000000E-002    0.000000000000000E+000
 -3.780000000000000E-002    0.000000000000000E+000
 -3.770000000000000E-002    0.000000000000000E+000
 -3.760000000000000E-002    0.000000000000000E+000
 -3.750000000000000E-002    0.000000000000000E+000
 -3.740000000000000E-002    0.000000000000000E+000
 -3.730000000000000E-002    0.000000000000000E+000
 -3.720000000000000E-002    0.000000000000000E+000
 -3.710000000000000E-002    0.000000000000000E+000
 -3.700000000000000E-002    0.000000000000000E+000
 -3.690000000000000E-002    0.000000000000000E+000
 -3.680000000000000E-002    1.321839071126986E-047
 -3.670000000000000E-002    2.292755666258144E-047
 -3.660000000000000E-002    9.653144653313724E-047
 -3.650000000000000E-002    3.352888502548884E-046
 -3.640000000000000E-002    1.169881189473596E-045
 -3.630000000000000E-002    3.908090428405431E-045
 -3.620000000000000E-002    1.017370808741656E-044
 -3.610000000000000E-002    2.577959524588018E-044
 -3.600000000000000E-002    6.294856813459351E-044
 -3.590000000000000E-002    1.502476712382334E-043
 -3.580000000000000E-002    3.459968305195728E-043
 -3.570000000000000E-002    7.688635467067556E-043
 -3.560000000000000E-002    1.640532225135330E-042
 -3.550000000000000E-002    3.354915501684994E-042
 -3.540000000000000E-002    6.566865460907085E-042
 -3.530000000000000E-002    1.227165336789211E-041
 -3.520000000000000E-002    2.180917285302972E-041
 -3.510000000000000E-002    3.660186060914426E-041
 -3.500000000000000E-002    5.730313398598070E-041
 -3.490000000000000E-002    8.171583898931307E-041
 -3.480000000000000E-002    1.004768967634267E-040
 -3.470000000000000E-002    8.900780680050600E-041
 -3.460000000000000E-002   -6.246357934192583E-042
 -3.450000000000000E-002   -2.894403761217301E-040
 -3.440000000000000E-002   -9.463537963420837E-040
 -3.430000000000000E-002   -2.283970687112728E-039
 -3.420000000000000E-002   -4.772319075662762E-039
 -3.410000000000000E-002   -9.071813797451927E-039
 -3.400000000000000E-002   -1.601167598027208E-038
 -3.390000000000000E-002   -2.645807032264864E-038
 -3.380000000000000E-002   -4.097361522307751E-038
 -3.370000000000000E-002   -5.912494685576675E-038
 -3.360000000000000E-002   -7.825020832072231E-038
 -3.350000000000000E-002   -9.147110007284043E-038
 -3.340000000000000E-002   -8.475635644679791E-038
 -3.330000000000000E-002   -3.296537643417835E-038
 -3.320000000000000E-002    1.049053713420752E-037
 -3.310000000000000E-002    3.904929870923546E-037
 -3.300000000000000E-002    9.091522473999162E-037
 -3.290000000000000E-002    1.768270101400456E-036
 -3.280000000000000E-002    3.085863151379795E-036
 -3.270000000000000E-002    4.962255893282951E-036
 -3.260000000000000E-002    7.425314312671634E-036
 -3.250000000000000E-002    1.033800717765429E-035
 -3.240000000000000E-002    1.325715346879927E-035
 -3.230000000000000E-002    1.523590652576279E-035
 -3.220000000000000E-002    1.457229733116459E-035
 -3.210000000000000E-002    8.525112327130104E-036
 -3.200000000000000E-002   -6.950257783331112E-036
 -3.190000000000000E-002   -3.734681198359591E-035
 -3.180000000000000E-002   -8.947012131373190E-035
 -3.170000000000000E-002   -1.707848334779783E-034
 -3.160000000000000E-002   -2.879283610222247E-034
 -3.150000000000000E-002   -4.440148113482104E-034
 -3.140000000000000E-002   -6.343399458288848E-034
 -3.130000000000000E-002   -8.401817165616874E-034
 -3.120000000000000E-002   -1.020635074469834E-033
 -3.110000000000000E-002   -1.102895554137927E-033
 -3.100000000000000E-002   -9.721877546480906E-034
 -3.090000000000000E-002   -4.636724249688295E-034
 -3.080000000000000E-002    6.398425839006142E-034
 -3.070000000000000E-002    2.598811597495038E-033
 -3.060000000000000E-002    5.689135432474109E-033
 -3.050000000000000E-002    1.014693256844268E-032
 -3.040000000000000E-002    1.607696322257951E-032
 -3.030000000000000E-002    2.331755562282871E-032
 -3.020000000000000E-002    3.125981675984189E-032
 -3.010000000000000E-002    3.862818922262053E-032
 -3.000000000000000E-002    4.324408728169903E-032
 -2.990000000000000E-002    4.181479881979372E-032
 -2.980000000000000E-002    2.981561576993153E-032
 -2.970000000000000E-002    1.561798388064460E-033
 -2.960000000000000E-002   -4.940588727025803E-032
 -2.950000000000000E-002   -1.294801424867158E-031
 -2.940000000000000E-002   -2.435497505105152E-031
 -2.930000000000000E-002   -3.928579667139714E-031
 -2.920000000000000E-002   -5.721280821091046E-031
 -2.910000000000000E-002   -7.660657306178471E-031
 -2.900000000000000E-002   -9.455531844993582E-031
 -2.890000000000000E-002   -1.064122920762254E-030
 -2.880000000000000E-002   -1.055619522148820E-030
 -2.870000000000000E-002   -8.342949616520362E-031
 -2.860000000000000E-002   -2.988692816431976E-031
 -2.850000000000000E-002    6.577603469477808E-031
 -2.840000000000000E-002    2.131575810964035E-030
 -2.830000000000000E-002    4.182143104529918E-030
 -2.820000000000000E-002    6.798812637075137E-030
 -2.810000000000000E-002    9.859806843597852E-030
 -2.800000000000000E-002    1.308773312764481E-029
 -2.790000000000000E-002    1.600773446020810E-029
 -2.780000000000000E-002    1.791743568839516E-029
 -2.770000000000000E-002    1.788069924579825E-029
 -2.760000000000000E-002    1.475932237281614E-029
 -2.750000000000000E-002    7.297486618490886E-030
 -2.740000000000000E-002   -5.727896304282874E-030
 -2.730000000000000E-002   -2.528261106049033E-029
 -2.720000000000000E-002   -5.177669297531183E-029
 -2.710000000000000E-002   -8.470527581570469E-029
 -2.700000000000000E-002   -1.222586006295510E-028
 -2.690000000000000E-002   -1.609504097537987E-028
 -2.680000000000000E-002   -1.953340122985841E-028
 -2.670000000000000E-002   -2.178928615162063E-028
 -2.660000000000000E-002   -2.192035575111241E-028
 -2.650000000000000E-002   -1.884692599820645E-028
 -2.640000000000000E-002   -1.145057331712734E-028
 -2.630000000000000E-002    1.277280504371705E-029
 -2.620000000000000E-002    2.003775960651945E-028
 -2.610000000000000E-002    4.498667114402290E-028
 -2.600000000000000E-002    7.547457192928636E-028
 -2.590000000000000E-002    1.097933908288822E-027
 -2.580000000000000E-002    1.449680203676295E-027
 -2.570000000000000E-002    1.766393728133650E-027
 -2.560000000000000E-002    1.990892589309084E-027
 -2.550000000000000E-002    2.054558291676428E-027
 -2.540000000000000E-002    1.881793120070465E-027
 -2.530000000000000E-002    1.397003548577125E-027
 -2.520000000000000E-002    5.340786228393438E-028
 -2.510000000000000E-002   -7.519945750088778E-028
 -2.500000000000000E-002   -2.472112363413148E-027
 -2.490000000000000E-002   -4.589744599600595E-027
 -2.480000000000000E-002   -7.008793400565851E-027
 -2.470000000000000E-002   -9.564333797086408E-027
 -2.460000000000000E-002   -1.201806646823568E-026
 -2.450000000000000E-002   -1.406025037537379E-026
 -2.440000000000000E-002   -1.531962840960250E-026
 -2.430000000000000E-002   -1.538239972288287E-026
 -2.420000000000000E-002   -1.382067581415405E-026
 -2.410000000000000E-002   -1.023012351671304E-026
 -2.400000000000000E-002   -4.275705488835027E-027
 -2.390000000000000E-002    4.256319978159567E-027
 -2.380000000000000E-002    1.540267473022338E-026
 -2.370000000000000E-002    2.896674050174287E-026
 -2.360000000000000E-002    4.446526796697318E-026
 -2.350000000000000E-002    6.108223786788728E-026
 -2.340000000000000E-002    7.763457210152298E-026
 -2.330000000000000E-002    9.255513076644267E-026
 -2.320000000000000E-002    1.038995033855698E-025
 -2.310000000000000E-002    1.093842879104626E-025
 -2.300000000000000E-002    1.064659958346698E-025
 -2.290000000000000E-002    9.247076373807258E-026
 -2.280000000000000E-002    6.478535627399453E-026
 -2.270000000000000E-002    2.111866905834245E-026
 -2.260000000000000E-002   -4.016083839698191E-026
 -2.250000000000000E-002   -1.196133156724508E-025
 -2.240000000000000E-002   -2.162539375820868E-025
 -2.230000000000000E-002   -3.270451425466765E-025
 -2.220000000000000E-002   -4.464010927149858E-025
 -2.210000000000000E-002   -5.657714929338757E-025
 -2.200000000000000E-002   -6.733922284629352E-025
 -2.190000000000000E-002   -7.543063443545937E-025
 -2.180000000000000E-002   -7.907671587885562E-025
 -2.170000000000000E-002   -7.631287129484965E-025
 -2.160000000000000E-002   -6.513056017178511E-025
 -2.150000000000000E-002   -4.368390785979136E-025
 -2.140000000000000E-002   -1.055379519229594E-025
 -2.130000000000000E-002    3.494256216037665E-025
 -2.120000000000000E-002    9.241891247377986E-025
 -2.110000000000000E-002    1.600973954268165E-024
 -2.100000000000000E-002    2.345393257535732E-024
 -2.090000000000000E-002    3.104798493064675E-024
 -2.080000000000000E-002    3.808198440978481E-024
 -2.070000000000000E-002    4.368248903661383E-024
 -2.060000000000000E-002    4.685699639648382E-024
 -2.050000000000000E-002    4.656491778932632E-024
 -2.040000000000000E-002    4.181418504731107E-024
 -2.030000000000000E-002    3.177929528161907E-024
 -2.020000000000000E-002    1.593278967187883E-024
 -2.010000000000000E-002   -5.821496503656176E-025
 -2.000000000000000E-002   -3.302819685176218E-024
 -1.990000000000000E-002   -6.458995905753062E-024
 -1.980000000000000E-002   -9.872384034490995E-024
 -1.970000000000000E-002   -1.329799766109982E-023
 -1.960000000000000E-002   -1.643336959831252E-023
 -1.950000000000000E-002   -1.893561198726580E-023
 -1.940000000000000E-002   -2.044599014307389E-023
 -1.930000000000000E-002   -2.062073048086622E-023
 -1.920000000000000E-002   -1.916582086088641E-023
 -1.910000000000000E-002   -1.587269819883510E-023
 -1.900000000000000E-002   -1.065108514441389E-023
 -1.890000000000000E-002   -3.555003713348648E-024
 -1.880000000000000E-002    5.201810759168029E-024
 -1.870000000000000E-002    1.524411691230410E-023
 -1.860000000000000E-002    2.604875877868676E-023
 -1.850000000000000E-002    3.697373044923000E-023
 -1.840000000000000E-002    4.730081063397886E-023
 -1.830000000000000E-002    5.628788707070360E-023
 -1.820000000000000E-002    6.322532228134777E-023
 -1.810000000000000E-002    6.748950956547627E-023
 -1.800000000000000E-002    6.858636784443905E-023
 -1.790000000000000E-002    6.617818217594545E-023
 -1.780000000000000E-002    6.008904979739660E-023
 -1.770000000000000E-002    5.028701883341276E-023
 -1.760000000000000E-002    3.684487478695319E-023
 -1.750000000000000E-002    1.988575883175519E-023
 -1.740000000000000E-002   -4.759834297961392E-025
 -1.730000000000000E-002   -2.418487537586314E-023
 -1.720000000000000E-002   -5.126949193951518E-023
 -1.710000000000000E-002   -8.182709392554614E-023
 -1.700000000000000E-002   -1.159548767534156E-022
 -1.690000000000000E-002   -1.536207008165501E-022
 -1.680000000000000E-002   -1.944746552122262E-022
 -1.670000000000000E-002   -2.376135331231592E-022
 -1.660000000000000E-002   -2.813222877691073E-022
 -1.650000000000000E-002   -3.228282246179267E-022
 -1.640000000000000E-002   -3.581137104621996E-022
 -1.630000000000000E-002   -3.818390765926395E-022
 -1.620000000000000E-002   -3.874278549519221E-022
 -1.610000000000000E-002   -3.673598267754266E-022
 -1.600000000000000E-002   -3.137021873811194E-022
 -1.590000000000000E-002   -2.188866164599307E-022
 -1.580000000000000E-002   -7.670953802843248E-023
 -1.570000000000000E-002    1.165018186141229E-022
 -1.560000000000000E-002    3.606516004719355E-022
 -1.550000000000000E-002    6.506932300541851E-022
 -1.540000000000000E-002    9.756567147968420E-022
 -1.530000000000000E-002    1.318051543282591E-021
 -1.520000000000000E-002    1.653807362623816E-021
 -1.510000000000000E-002    1.952889583400100E-021
 -1.500000000000000E-002    2.180679971054529E-021
 -1.490000000000000E-002    2.300144454424286E-021
 -1.480000000000000E-002    2.274726995972571E-021
 -1.470000000000000E-002    2.071814259113193E-021
 -1.460000000000000E-002    1.666523163872037E-021
 -1.450000000000000E-002    1.045481936462558E-021
 -1.440000000000000E-002    2.102194303542013E-022
 -1.430000000000000E-002   -8.202453971081033E-022
 -1.420000000000000E-002   -2.007997440274535E-021
 -1.410000000000000E-002   -3.296315717055567E-021
 -1.400000000000000E-002   -4.611453421342315E-021
 -1.390000000000000E-002   -5.866142022565113E-021
 -1.380000000000000E-002   -6.964671671230026E-021
 -1.370000000000000E-002   -7.809206622013664E-021
 -1.360000000000000E-002   -8.306828913859105E-021
 -1.350000000000000E-002   -8.376674562363742E-021
 -1.340000000000000E-002   -7.956470623649542E-021
 -1.330000000000000E-002   -7.007802493439343E-021
 -1.320000000000000E-002   -5.519565605713566E-021
 -1.310000000000000E-002   -3.509254352341854E-021
 -1.300000000000000E-002   -1.022016254723903E-021
 -1.290000000000000E-002    1.872288470898159E-021
 -1.280000000000000E-002    5.083483187435302E-021
 -1.270000000000000E-002    8.506133866446120E-021
 -1.260000000000000E-002    1.202433510100085E-020
 -1.250000000000000E-002    1.551528455651311E-020
 -1.240000000000000E-002    1.885087355982235E-020
 -1.230000000000000E-002    2.189685660759074E-020
 -1.220000000000000E-002    2.450965609958021E-020
 -1.210000000000000E-002    2.653142031426173E-020
 -1.200000000000000E-002    2.778457865743652E-020
 -1.190000000000000E-002    2.806762593301314E-020
 -1.180000000000000E-002    2.715423192835774E-020
 -1.170000000000000E-002    2.479782800459586E-020
 -1.160000000000000E-002    2.074356690345030E-020
 -1.150000000000000E-002    1.474887815522413E-020
 -1.140000000000000E-002    6.612865403618388E-021
 -1.130000000000000E-002   -3.786501214691285E-021
 -1.120000000000000E-002   -1.644988057799656E-020
 -1.110000000000000E-002   -3.121261478724054E-020
 -1.100000000000000E-002   -4.770443530241513E-020
 -1.090000000000000E-002   -6.531861167540684E-020
 -1.080000000000000E-002   -8.319653860104693E-020
 -1.070000000000000E-002   -1.002331444883847E-019
 -1.060000000000000E-002   -1.151071991232605E-019
 -1.050000000000000E-002   -1.263384983103765E-019
 -1.040000000000000E-002   -1.323713905419240E-019
 -1.030000000000000E-002   -1.316811651042143E-019
 -1.020000000000000E-002   -1.228970317856243E-019
 -1.010000000000000E-002   -1.049329718698961E-019
 -1.000000000000000E-002   -7.711600920047350E-020
 -9.899999999999999E-003   -3.930071765688673E-020
 -9.800000000000000E-003    8.040702630709695E-021
 -9.699999999999999E-003    6.376188186241188E-020
 -9.599999999999999E-003    1.260257148856071E-019
 -9.500000000000000E-003    1.923308030457486E-019
 -9.399999999999999E-003    2.595803052507617E-019
 -9.299999999999999E-003    3.241891298933642E-019
 -9.200000000000000E-003    3.822224951818596E-019
 -9.099999999999999E-003    4.295574058694881E-019
 -8.999999999999999E-003    4.620579901214852E-019
 -8.900000000000000E-003    4.757568095860909E-019
 -8.799999999999999E-003    4.670365711868399E-019
 -8.699999999999999E-003    4.328091840038689E-019
 -8.600000000000000E-003    3.706927633299136E-019
 -8.499999999999999E-003    2.791889778727464E-019
 -8.399999999999999E-003    1.578646473989634E-019
 -8.300000000000000E-003    7.540232447838493E-021
 -8.199999999999999E-003   -1.695150825925282E-019
 -8.100000000000000E-003   -3.693876652692434E-019
 -8.000000000000000E-003   -5.863364554859236E-019
 -7.899999999999999E-003   -8.126439471154030E-019
 -7.800000000000000E-003   -1.038531442276539E-018
 -7.699999999999999E-003   -1.252174026937463E-018
 -7.599999999999999E-003   -1.439855583427296E-018
 -7.499999999999999E-003   -1.586302096279571E-018
 -7.399999999999999E-003   -1.675225210758320E-018
 -7.299999999999999E-003   -1.690096259034786E-018
 -7.199999999999999E-003   -1.615152039166361E-018
 -7.100000000000000E-003   -1.436611776780431E-018
 -6.999999999999999E-003   -1.144058453671342E-018
 -6.899999999999999E-003   -7.319108680851259E-019
 -6.800000000000000E-003   -2.008876018196031E-019
 -6.699999999999999E-003    4.406566833018468E-019
 -6.599999999999999E-003    1.175656939250854E-018
 -6.499999999999999E-003    1.977664910733069E-018
 -6.399999999999999E-003    2.810711868603470E-018
 -6.299999999999999E-003    3.629825207046318E-018
 -6.199999999999999E-003    4.382288191806115E-018
 -6.100000000000000E-003    5.009694917807783E-018
 -5.999999999999999E-003    5.450801560595078E-018
 -5.899999999999999E-003    5.645120146484417E-018
 -5.800000000000000E-003    5.537138700232009E-018
 -5.699999999999999E-003    5.080985197066528E-018
 -5.599999999999999E-003    4.245289929822994E-018
 -5.499999999999999E-003    3.017939177987991E-018
 -5.399999999999999E-003    1.410362143317324E-018
 -5.299999999999999E-003   -5.390417697642088E-019
 -5.199999999999999E-003   -2.762750624601648E-018
 -5.099999999999999E-003   -5.163642596397561E-018
 -4.999999999999999E-003   -7.616554653672911E-018
 -4.899999999999999E-003   -9.972159349822713E-018
 -4.799999999999999E-003   -1.206331484202842E-017
 -4.699999999999999E-003   -1.371388958894313E-017
 -4.599999999999999E-003   -1.474984985405594E-017
 -4.499999999999999E-003   -1.501217699306549E-017
 -4.399999999999999E-003   -1.437093498383719E-017
 -4.299999999999999E-003   -1.273956066720327E-017
 -4.199999999999999E-003   -1.008825768644253E-017
 -4.099999999999999E-003   -6.455216634145343E-018
 -3.999999999999999E-003   -1.954328889416574E-018
 -3.899999999999999E-003    3.221875030122891E-018
 -3.799999999999999E-003    8.805148664276231E-018
 -3.699999999999999E-003    1.446105189739498E-017
 -3.599999999999999E-003    1.980535729557480E-017
 -3.499999999999999E-003    2.442702226422445E-017
 -3.399999999999999E-003    2.791676784608448E-017
 -3.299999999999999E-003    2.989961241145069E-017
 -3.199999999999999E-003    3.006909856255720E-017
 -3.099999999999999E-003    2.822044487028570E-017
 -2.999999999999999E-003    2.427953801095094E-017
 -2.899999999999999E-003    1.832464979942091E-017
 -2.799999999999999E-003    1.059801048584433E-017
 -2.699999999999999E-003    1.504933870749175E-018
 -2.599999999999999E-003   -8.400934871238171E-018
 -2.499999999999999E-003   -1.844656221307317E-017
 -2.399999999999999E-003   -2.788169259165546E-017
 -2.299999999999999E-003   -3.593197923718771E-017
 -2.199999999999999E-003   -4.185951355700865E-017
 -2.099999999999999E-003   -4.502623294603239E-017
 -1.999999999999999E-003   -4.495498726933266E-017
 -1.899999999999999E-003   -4.138277428090356E-017
 -1.799999999999999E-003   -3.430100204244035E-017
 -1.699999999999999E-003   -2.397831661495147E-017
 -1.599999999999999E-003   -1.096284835043478E-017
 -1.499999999999999E-003    3.937693490547969E-018
 -1.399999999999999E-003    1.969783529355420E-017
 -1.299999999999999E-003    3.513591882400948E-017
 -1.199999999999999E-003    4.899160316727270E-017
 -1.099999999999999E-003    6.001401734359568E-017
 -9.999999999999989E-004    6.705430960154898E-017
 -8.999999999999990E-004    6.915597170944012E-017
 -7.999999999999990E-004    6.563646621592541E-017
 -6.999999999999989E-004    5.615436805403349E-017
 -5.999999999999990E-004    4.075741468805732E-017
 -4.999999999999989E-004    1.990829960358011E-017
 -3.999999999999989E-004   -5.513430106716269E-018
 -2.999999999999989E-004   -3.423349428277178E-017
 -1.999999999999989E-004   -6.462788061713510E-017
 -9.999999999999892E-005   -9.478865870532470E-017
  1.084202172485504E-018   -1.226079205213047E-016
  1.000000000000011E-004   -1.458769741933905E-016
  2.000000000000011E-004   -1.623978398713234E-016
  3.000000000000011E-004   -1.701041714240266E-016
  4.000000000000011E-004   -1.671887087307180E-016
  5.000000000000011E-004   -1.522339114966203E-016
  6.000000000000011E-004   -1.243418950069859E-016
  7.000000000000011E-004   -8.325836854152667E-017
  8.000000000000011E-004   -2.948399491485381E-017
  9.000000000000012E-004    3.563531704087151E-017
  1.000000000000001E-003    1.098491992652466E-016
  1.100000000000001E-003    1.899857885248381E-016
  1.200000000000001E-003    2.719882732155077E-016
  1.300000000000001E-003    3.510153461294018E-016
  1.400000000000001E-003    4.216132142264929E-016
  1.500000000000001E-003    4.779628449690121E-016
  1.600000000000001E-003    5.141995475578512E-016
  1.700000000000001E-003    5.247956841268869E-016
  1.800000000000001E-003    5.049886837958007E-016
  1.900000000000001E-003    4.512288956038991E-016
  2.000000000000001E-003    3.616150575808856E-016
  2.100000000000001E-003    2.362795802977233E-016
  2.200000000000001E-003    7.768455679875368E-017
  2.300000000000001E-003   -1.092103752061049E-016
  2.400000000000001E-003   -3.169407727461334E-016
  2.500000000000001E-003   -5.357144256403901E-016
  2.600000000000001E-003   -7.537834062041020E-016
  2.700000000000001E-003   -9.580058291563712E-016
  2.800000000000001E-003   -1.134574519434752E-015
  2.900000000000001E-003   -1.269873429942859E-015
  3.000000000000001E-003   -1.351406014441355E-015
  3.100000000000001E-003   -1.368729363251013E-015
  3.200000000000001E-003   -1.314319373207548E-015
  3.300000000000001E-003   -1.184293822452344E-015
  3.400000000000001E-003   -9.789247464775916E-016
  3.500000000000001E-003   -7.028857140850234E-016
  3.600000000000001E-003   -3.651990930512973E-016
  3.700000000000001E-003    2.112821230586074E-017
  3.800000000000001E-003    4.397646514477010E-016
  3.900000000000001E-003    8.719676645456250E-016
  4.000000000000001E-003    1.297683199158477E-015
  4.100000000000001E-003    1.696744576326278E-015
  4.200000000000001E-003    2.050071607644546E-015
  4.300000000000001E-003    2.340766388744546E-015
  4.400000000000001E-003    2.555008853437112E-015
  4.500000000000001E-003    2.682672081844942E-015
  4.600000000000002E-003    2.717599424279051E-015
  4.700000000000001E-003    2.657520969046577E-015
  4.800000000000001E-003    2.503621209842422E-015
  4.900000000000002E-003    2.259808603617318E-015
  5.000000000000001E-003    1.931773303344619E-015
  5.100000000000001E-003    1.525950474097515E-015
  5.200000000000001E-003    1.048526330438520E-015
  5.300000000000002E-003    5.046340808058482E-016
  5.400000000000001E-003   -1.021176824563057E-016
  5.500000000000001E-003   -7.696618894667433E-016
  5.600000000000002E-003   -1.496947729414224E-015
  5.700000000000001E-003   -2.282834432919986E-015
  5.800000000000001E-003   -3.124424744560119E-015
  5.900000000000002E-003   -4.014926459352610E-015
  6.000000000000001E-003   -4.941201276567438E-015
  6.100000000000001E-003   -5.881224978645921E-015
  6.200000000000002E-003   -6.801745029957245E-015
  6.300000000000002E-003   -7.656459728729056E-015
  6.400000000000001E-003   -8.385069653842640E-015
  6.500000000000001E-003   -8.913541372966093E-015
  6.600000000000002E-003   -9.155885108183212E-015
  6.700000000000001E-003   -9.017681963345223E-015
  6.800000000000001E-003   -8.401478938269187E-015
  6.900000000000002E-003   -7.214036417616994E-015
  7.000000000000001E-003   -5.375242502836808E-015
  7.100000000000001E-003   -2.828320788110639E-015
  7.200000000000002E-003    4.492361540728035E-016
  7.300000000000002E-003    4.434764589148639E-015
  7.400000000000001E-003    9.050471556002099E-015
  7.500000000000001E-003    1.415546738560353E-014
  7.600000000000002E-003    1.954087859652468E-014
  7.700000000000001E-003    2.492912639775454E-014
  7.800000000000001E-003    2.997833394978771E-014
  7.900000000000001E-003    3.429262247813882E-014
  8.000000000000002E-003    3.743874542459856E-014
  8.100000000000001E-003    3.896908247454171E-014
  8.200000000000001E-003    3.845054678231552E-014
  8.300000000000002E-003    3.549840574563408E-014
  8.400000000000001E-003    2.981341793510944E-014
  8.500000000000002E-003    2.122017848780205E-014
  8.600000000000002E-003    9.704035747903734E-015
  8.700000000000001E-003   -4.556416875263504E-015
  8.800000000000002E-003   -2.116449067321782E-014
  8.900000000000002E-003   -3.949142155965807E-014
  9.000000000000001E-003   -5.867624882899291E-014
  9.100000000000002E-003   -7.764206979927888E-014
  9.200000000000002E-003   -9.513039132928057E-014
  9.300000000000001E-003   -1.097543091610415E-013
  9.400000000000002E-003   -1.200700350784537E-013
  9.500000000000001E-003   -1.246647717186128E-013
  9.600000000000001E-003   -1.222576349345700E-013
  9.700000000000002E-003   -1.118086694804834E-013
  9.800000000000001E-003   -9.262972171967081E-014
  9.900000000000001E-003   -6.448980031870218E-014
  1.000000000000000E-002   -2.770673367008217E-014
  1.010000000000000E-002    1.678343703668108E-014
  1.020000000000000E-002    6.738761021962318E-014
  1.030000000000000E-002    1.218548443598832E-013
  1.040000000000000E-002    1.773197560742450E-013
  1.050000000000000E-002    2.303940306460842E-013
  1.060000000000000E-002    2.773073591128209E-013
  1.070000000000000E-002    3.140959066159190E-013
  1.080000000000000E-002    3.368330752227531E-013
  1.090000000000000E-002    3.418932903845693E-013
  1.100000000000000E-002    3.262362932907213E-013
  1.110000000000000E-002    2.876960723140961E-013
  1.120000000000000E-002    2.252556259782655E-013
  1.130000000000000E-002    1.392873214903463E-013
  1.140000000000000E-002    3.173748226795373E-014
  1.150000000000000E-002   -9.376522519055448E-014
  1.160000000000000E-002   -2.318960233061643E-013
  1.170000000000000E-002   -3.757299121483166E-013
  1.180000000000000E-002   -5.169567202808080E-013
  1.190000000000000E-002   -6.462185881937584E-013
  1.200000000000000E-002   -7.535651954626924E-013
  1.210000000000000E-002   -8.290135907335512E-013
  1.220000000000000E-002   -8.631908610001216E-013
  1.230000000000000E-002   -8.480287188354535E-013
  1.240000000000000E-002   -7.774718502789307E-013
  1.250000000000000E-002   -6.481547110974219E-013
  1.260000000000000E-002   -4.599983838841032E-013
  1.270000000000000E-002   -2.166763804924827E-013
  1.280000000000000E-002    7.409923658983890E-014
  1.290000000000000E-002    4.005154524200373E-013
  1.300000000000000E-002    7.468541364753195E-013
  1.310000000000000E-002    1.093968922023336E-012
  1.320000000000000E-002    1.420050082004717E-012
  1.330000000000000E-002    1.701665726707531E-012
  1.340000000000000E-002    1.915049212444584E-012
  1.350000000000000E-002    2.037579640474115E-012
  1.360000000000000E-002    2.049386548553892E-012
  1.370000000000000E-002    1.934987581658353E-012
  1.380000000000000E-002    1.684858757683216E-012
  1.390000000000000E-002    1.296824763503312E-012
  1.400000000000000E-002    7.771558097658055E-013
  1.410000000000000E-002    1.412618381109876E-013
  1.420000000000000E-002   -5.861122326401709E-013
  1.430000000000000E-002   -1.371266823339309E-012
  1.440000000000000E-002   -2.172550738628150E-012
  1.450000000000000E-002   -2.942000514754828E-012
  1.460000000000000E-002   -3.627588590018277E-012
  1.470000000000000E-002   -4.176011499922083E-012
  1.480000000000000E-002   -4.535903512977833E-012
  1.490000000000000E-002   -4.661321077755927E-012
  1.500000000000000E-002   -4.515307152128343E-012
  1.510000000000000E-002   -4.073317657834716E-012
  1.520000000000000E-002   -3.326271879657399E-012
  1.530000000000000E-002   -2.282989860619602E-012
  1.540000000000000E-002   -9.717869723365846E-013
  1.550000000000000E-002    5.589725004823540E-013
  1.560000000000000E-002    2.241519515470092E-012
  1.570000000000000E-002    3.990620187379576E-012
  1.580000000000000E-002    5.706836055549478E-012
  1.590000000000000E-002    7.281049118393167E-012
  1.600000000000000E-002    8.600111354591256E-012
  1.610000000000000E-002    9.553387073799481E-012
  1.620000000000000E-002    1.003987898450326E-011
  1.630000000000000E-002    9.975554434467115E-012
  1.640000000000000E-002    9.300439466121031E-012
  1.650000000000000E-002    7.985008708613634E-012
  1.660000000000000E-002    6.035402842362730E-012
  1.670000000000000E-002    3.497014914186548E-012
  1.680000000000000E-002    4.560595707963468E-013
  1.690000000000000E-002   -2.961195644097059E-012
  1.700000000000000E-002   -6.591730396585452E-012
  1.710000000000000E-002   -1.024166842030260E-011
  1.720000000000000E-002   -1.369467640815179E-011
  1.730000000000000E-002   -1.672261627134349E-011
  1.740000000000000E-002   -1.909801718937464E-011
  1.750000000000000E-002   -2.060781521386238E-011
  1.760000000000000E-002   -2.106762702739745E-011
  1.770000000000000E-002   -2.033577164364678E-011
  1.780000000000000E-002   -1.832614934904512E-011
  1.790000000000000E-002   -1.501909488547965E-011
  1.800000000000000E-002   -1.046935416561477E-011
  1.810000000000000E-002   -4.810424616253919E-012
  1.820000000000000E-002    1.745348937603171E-012
  1.830000000000000E-002    8.911337390793775E-012
  1.840000000000000E-002    1.633601859408640E-011
  1.850000000000000E-002    2.361708865979867E-011
  1.860000000000000E-002    3.031990213239097E-011
  1.870000000000000E-002    3.599955082796152E-011