 -4.000000000000000E-002    0.000000000000000E+000
 -3.990000000000000E-002    0.000000000000000E+000
 -3.980000000000000E-002    0.000000000000000E+000
 -3.970000000000000E-002    0.000000000000000E+000
 -3.960000000000000E-002    0.000000000000000E+000
 -3.950000000000000E-002    0.000000000000000E+000
 -3.940000000000000E-002    0.000000000000000E+000
 -3.930000000000000E-002    0.000000000000000E+000
 -3.920000000000000E-002    0.000000000000000E+000
 -3.910000000000000E-002    0.000000000000000E+000
 -3.900000000000000E-002    0.000000000000000E+000
 -3.890000000000000E-002    0.000000000000000E+000
 -3.880000000000000E-002    0.000000000000000E+000
 -3.870000000000000E-002    0.000000000000000E+000
 -3.860000000000000E-002    0.000000000000000E+000
 -3.850000000000000E-002    0.000000000000000E+000
 -3.840000000000000E-002    0.000000000000000E+000
 -3.830000000000000E-002    0.000000000000000E+000
 -3.820000000000000E-002    0.000000000000000E+000
 -3.810000000000000E-002    0.000000000000000E+000
 -3.800000000000000E-002    0.000000000000000E+000
 -3.790000000000000E-002    0.000000000000000E+000
 -3.780000000000000E-002    0.000000000000000E+000
 -3.770000000000000E-002    0.000000000000000E+000
 -3.760000000000000E-002    0.000000000000000E+000
 -3.750000000000000E-002    0.000000000000000E+000
 -3.740000000000000E-002    0.000000000000000E+000
 -3.730000000000000E-002    0.000000000000000E+000
 -3.720000000000000E-002    0.000000000000000E+000
 -3.710000000000000E-002    0.000000000000000E+000
 -3.700000000000000E-002    0.000000000000000E+000
 -3.690000000000000E-002    0.000000000000000E+000
 -3.680000000000000E-002    0.000000000000000E+000
 -3.670000000000000E-002    0.000000000000000E+000
 -3.660000000000000E-002    0.000000000000000E+000
 -3.650000000000000E-002    0.000000000000000E+000
 -3.640000000000000E-002    0.000000000000000E+000
 -3.630000000000000E-002    0.000000000000000E+000
 -3.620000000000000E-002    0.000000000000000E+000
 -3.610000000000000E-002    0.000000000000000E+000
 -3.600000000000000E-002    0.000000000000000E+000
 -3.590000000000000E-002    0.000000000000000E+000
 -3.580000000000000E-002    0.000000000000000E+000
 -3.570000000000000E-002    0.000000000000000E+000
 -3.560000000000000E-002    0.000000000000000E+000
 -3.550000000000000E-002    0.000000000000000E+000
 -3.540000000000000E-002    0.000000000000000E+000
 -3.530000000000000E-002    0.000000000000000E+000
 -3.520000000000000E-002    0.000000000000000E+000
 -3.510000000000000E-002    0.000000000000000E+000
 -3.500000000000000E-002    0.000000000000000E+000
 -3.490000000000000E-002    0.000000000000000E+000
 -3.480000000000000E-002    0.000000000000000E+000
 -3.470000000000000E-002    0.000000000000000E+000
 -3.460000000000000E-002    0.000000000000000E+000
 -3.450000000000000E-002    0.000000000000000E+000
 -3.440000000000000E-002    0.000000000000000E+000
 -3.430000000000000E-002    0.000000000000000E+000
 -3.420000000000000E-002    0.000000000000000E+000
 -3.410000000000000E-002    0.000000000000000E+000
 -3.400000000000000E-002    0.000000000000000E+000
 -3.390000000000000E-002    0.000000000000000E+000
 -3.380000000000000E-002    0.000000000000000E+000
 -3.370000000000000E-002    0.000000000000000E+000
 -3.360000000000000E-002    0.000000000000000E+000
 -3.350000000000000E-002    0.000000000000000E+000
 -3.340000000000000E-002    0.000000000000000E+000
 -3.330000000000000E-002    0.000000000000000E+000
 -3.320000000000000E-002    0.000000000000000E+000
 -3.310000000000000E-002    0.000000000000000E+000
 -3.300000000000000E-002    0.000000000000000E+000
 -3.290000000000000E-002    0.000000000000000E+000
 -3.280000000000000E-002    0.000000000000000E+000
 -3.270000000000000E-002    0.000000000000000E+000
 -3.260000000000000E-002    0.000000000000000E+000
 -3.250000000000000E-002    0.000000000000000E+000
 -3.240000000000000E-002    0.000000000000000E+000
 -3.230000000000000E-002    0.000000000000000E+000
 -3.220000000000000E-002    0.000000000000000E+000
 -3.210000000000000E-002    0.000000000000000E+000
 -3.200000000000000E-002    0.000000000000000E+000
 -3.190000000000000E-002    0.000000000000000E+000
 -3.180000000000000E-002    0.000000000000000E+000
 -3.170000000000000E-002    0.000000000000000E+000
 -3.160000000000000E-002    0.000000000000000E+000
 -3.150000000000000E-002    0.000000000000000E+000
 -3.140000000000000E-002    0.000000000000000E+000
 -3.130000000000000E-002    0.000000000000000E+000
 -3.120000000000000E-002    0.000000000000000E+000
 -3.110000000000000E-002    0.000000000000000E+000
 -3.100000000000000E-002    0.000000000000000E+000
 -3.090000000000000E-002    0.000000000000000E+000
 -3.080000000000000E-002    0.000000000000000E+000
 -3.070000000000000E-002    0.000000000000000E+000
 -3.060000000000000E-002    0.000000000000000E+000
 -3.050000000000000E-002    0.000000000000000E+000
 -3.040000000000000E-002    0.000000000000000E+000
 -3.030000000000000E-002    0.000000000000000E+000
 -3.020000000000000E-002    0.000000000000000E+000
 -3.010000000000000E-002    0.000000000000000E+000
 -3.000000000000000E-002    0.000000000000000E+000
 -2.990000000000000E-002    0.000000000000000E+000
 -2.980000000000000E-002    0.000000000000000E+000
 -2.970000000000000E-002    0.000000000000000E+000
 -2.960000000000000E-002    0.000000000000000E+000
 -2.950000000000000E-002    0.000000000000000E+000
 -2.940000000000000E-002    0.000000000000000E+000
 -2.930000000000000E-002    0.000000000000000E+000
 -2.920000000000000E-002    0.000000000000000E+000
 -2.910000000000000E-002    0.000000000000000E+000
 -2.900000000000000E-002    0.000000000000000E+000
 -2.890000000000000E-002    0.000000000000000E+000
 -2.880000000000000E-002    0.000000000000000E+000
 -2.870000000000000E-002    0.000000000000000E+000
 -2.860000000000000E-002    0.000000000000000E+000
 -2.850000000000000E-002    0.000000000000000E+000
 -2.840000000000000E-002    0.000000000000000E+000
 -2.830000000000000E-002    0.000000000000000E+000
 -2.820000000000000E-002    0.000000000000000E+000
 -2.810000000000000E-002    0.000000000000000E+000
 -2.800000000000000E-002    0.000000000000000E+000
 -2.790000000000000E-002    0.000000000000000E+000
 -2.780000000000000E-002    0.000000000000000E+000
 -2.770000000000000E-002    0.000000000000000E+000
 -2.760000000000000E-002    0.000000000000000E+000
 -2.750000000000000E-002    0.000000000000000E+000
 -2.740000000000000E-002    0.000000000000000E+000
 -2.730000000000000E-002    0.000000000000000E+000
 -2.720000000000000E-002    0.000000000000000E+000
 -2.710000000000000E-002    0.000000000000000E+000
 -2.700000000000000E-002    0.000000000000000E+000
 -2.690000000000000E-002    0.000000000000000E+000
 -2.680000000000000E-002    0.000000000000000E+000
 -2.670000000000000E-002    0.000000000000000E+000
 -2.660000000000000E-002    0.000000000000000E+000
 -2.650000000000000E-002   -1.809537322255054E-048
 -2.640000000000000E-002   -8.927050877718442E-048
 -2.630000000000000E-002   -1.423502711092677E-047
 -2.620000000000000E-002   -1.954300334413511E-047
 -2.610000000000000E-002   -2.304144225508838E-047
 -2.600000000000000E-002    2.099237177933448E-047
 -2.590000000000000E-002    6.864526045826746E-047
 -2.580000000000000E-002    1.289100908662461E-046
 -2.570000000000000E-002    2.034099483851515E-046
 -2.560000000000000E-002    2.993281627772641E-046
 -2.550000000000000E-002    3.689460291568339E-046
 -2.540000000000000E-002    4.126483218440389E-046
 -2.530000000000000E-002    3.809067986308740E-046
 -2.520000000000000E-002    2.467572146794837E-046
 -2.510000000000000E-002   -6.475489174058061E-047
 -2.500000000000000E-002   -7.490941222972439E-046
 -2.490000000000000E-002   -1.564819440347475E-045
 -2.480000000000000E-002   -2.734747469288599E-045
 -2.470000000000000E-002   -4.112428098928731E-045
 -2.460000000000000E-002   -5.460782705830193E-045
 -2.450000000000000E-002   -6.264461486684910E-045
 -2.440000000000000E-002   -5.604037201632785E-045
 -2.430000000000000E-002   -3.448083677435187E-045
 -2.420000000000000E-002    5.598059623992222E-046
 -2.410000000000000E-002    8.230142692726949E-045
 -2.400000000000000E-002    1.848145043858698E-044
 -2.390000000000000E-002    3.238479925933100E-044
 -2.380000000000000E-002    4.770848640491879E-044
 -2.370000000000000E-002    6.287143499848008E-044
 -2.360000000000000E-002    7.416585779704973E-044
 -2.350000000000000E-002    7.750162163988845E-044
 -2.340000000000000E-002    6.765767337430512E-044
 -2.330000000000000E-002    3.797778129888733E-044
 -2.320000000000000E-002   -1.552235106196487E-044
 -2.310000000000000E-002   -9.629528340985658E-044
 -2.300000000000000E-002   -2.037396421638959E-043
 -2.290000000000000E-002   -3.330802922447171E-043
 -2.280000000000000E-002   -4.731821448910014E-043
 -2.270000000000000E-002   -6.057162014183193E-043
 -2.260000000000000E-002   -7.072853821860579E-043
 -2.250000000000000E-002   -7.483728156622490E-043
 -2.240000000000000E-002   -6.961785055937685E-043
 -2.230000000000000E-002   -5.196995892437181E-043
 -2.220000000000000E-002   -1.926015094110188E-043
 -2.210000000000000E-002    3.032959044217663E-043
 -2.200000000000000E-002    9.737515838509028E-043
 -2.190000000000000E-002    1.812294033683300E-042
 -2.180000000000000E-002    2.797652620446837E-042
 -2.170000000000000E-002    3.890776860034179E-042
 -2.160000000000000E-002    5.033787937992370E-042
 -2.150000000000000E-002    6.145388732541241E-042
 -2.140000000000000E-002    7.107130393061739E-042
 -2.130000000000000E-002    7.744315465923499E-042
 -2.120000000000000E-002    7.805227481247716E-042
 -2.110000000000000E-002    6.940169156194466E-042
 -2.100000000000000E-002    4.692589880150849E-042
 -2.090000000000000E-002    5.152551039362197E-043
 -2.080000000000000E-002   -6.169809440736887E-042
 -2.070000000000000E-002   -1.585593324746599E-041
 -2.060000000000000E-002   -2.877311598562256E-041
 -2.050000000000000E-002   -4.465954437382863E-041
 -2.040000000000000E-002   -6.252268451504962E-041
 -2.030000000000000E-002   -8.043893700234063E-041
 -2.020000000000000E-002   -9.549692037745410E-041
 -2.010000000000000E-002   -1.039504919366435E-040
 -2.000000000000000E-002   -1.016804291543961E-040
 -1.990000000000000E-002   -8.496309983597725E-041
 -1.980000000000000E-002   -5.147855431909097E-041
 -1.970000000000000E-002   -1.325165363104179E-042
 -1.960000000000000E-002    6.231463545176511E-041
 -1.950000000000000E-002    1.333354909335808E-040
 -1.940000000000000E-002    2.042170360673010E-040
 -1.930000000000000E-002    2.692090169081451E-040
 -1.920000000000000E-002    3.291808555272905E-040
 -1.910000000000000E-002    3.974388153799959E-040
 -1.900000000000000E-002    5.049363458454222E-040
 -1.890000000000000E-002    7.023152891739232E-040
 -1.880000000000000E-002    1.055360894861709E-039
 -1.870000000000000E-002    1.630171786584425E-039
 -1.860000000000000E-002    2.465030616540162E-039
 -1.850000000000000E-002    3.528131157148100E-039
 -1.840000000000000E-002    4.664264278164712E-039
 -1.830000000000000E-002    5.539270657037562E-039
 -1.820000000000000E-002    5.598013853990799E-039
 -1.810000000000000E-002    4.058546088925599E-039
 -1.800000000000000E-002   -3.001409489353799E-041
 -1.790000000000000E-002   -7.638204830405868E-039
 -1.780000000000000E-002   -1.949546105797943E-038
 -1.770000000000000E-002   -3.571572874838747E-038
 -1.760000000000000E-002   -5.533699879595060E-038
 -1.750000000000000E-002   -7.584274346054108E-038
 -1.740000000000000E-002   -9.277987820155846E-038
 -1.730000000000000E-002   -9.963213100336926E-038
 -1.720000000000000E-002   -8.813640515754776E-038
 -1.710000000000000E-002   -4.922690921952878E-038
 -1.700000000000000E-002    2.525983065999719E-038
 -1.690000000000000E-002    1.400999726557231E-037
 -1.680000000000000E-002    2.935801632969498E-037
 -1.670000000000000E-002    4.741818805567327E-037
 -1.660000000000000E-002    6.577277300042849E-037
 -1.650000000000000E-002    8.059168808606680E-037
 -1.640000000000000E-002    8.673368270825881E-037
 -1.630000000000000E-002    7.820211519517376E-037
 -1.620000000000000E-002    4.903413903243845E-037
 -1.610000000000000E-002   -5.358898348040090E-038
 -1.600000000000000E-002   -8.647788451765893E-037
 -1.590000000000000E-002   -1.908521214497160E-036
 -1.580000000000000E-002   -3.083271026065545E-036
 -1.570000000000000E-002   -4.209930245615739E-036
 -1.560000000000000E-002   -5.033031918961500E-036
 -1.550000000000000E-002   -5.239241813931471E-036
 -1.540000000000000E-002   -4.497252762655156E-036
 -1.530000000000000E-002   -2.520253760646037E-036
 -1.520000000000000E-002    8.523266773637061E-037
 -1.510000000000000E-002    5.562899539781521E-036
 -1.500000000000000E-002    1.124907363280152E-035
 -1.490000000000000E-002    1.718352281027346E-035
 -1.480000000000000E-002    2.226520714938400E-035
 -1.470000000000000E-002    2.508650315841779E-035
 -1.460000000000000E-002    2.409498793349624E-035
 -1.450000000000000E-002    1.785620854927188E-035
 -1.440000000000000E-002    5.404642234899177E-036
 -1.430000000000000E-002   -1.335430030579544E-035
 -1.420000000000000E-002   -3.725501393304883E-035
 -1.410000000000000E-002   -6.358279838443937E-035
 -1.400000000000000E-002   -8.798788408720565E-035
 -1.390000000000000E-002   -1.047039571806046E-034
 -1.380000000000000E-002   -1.071499355419270E-034
 -1.370000000000000E-002   -8.894482502720856E-035
 -1.360000000000000E-002   -4.529128726293136E-035
 -1.350000000000000E-002    2.541090010732745E-035
 -1.340000000000000E-002    1.199620419629393E-034
 -1.330000000000000E-002    2.291020032382355E-034
 -1.320000000000000E-002    3.369804673229798E-034
 -1.310000000000000E-002    4.217446482836668E-034
 -1.300000000000000E-002    4.575492665196949E-034
 -1.290000000000000E-002    4.181190505551751E-034
 -1.280000000000000E-002    2.817294480774750E-034
 -1.270000000000000E-002    3.713809964786736E-035
 -1.260000000000000E-002   -3.103575472719097E-034
 -1.250000000000000E-002   -7.338791312498024E-034
 -1.240000000000000E-002   -1.182285117570515E-033
 -1.230000000000000E-002   -1.581190821344904E-033
 -1.220000000000000E-002   -1.838769126903454E-033
 -1.210000000000000E-002   -1.856843754374109E-033
 -1.200000000000000E-002   -1.546930208219608E-033
 -1.190000000000000E-002   -8.498133848209407E-034
 -1.180000000000000E-002    2.438866934753724E-034
 -1.170000000000000E-002    1.675709295310165E-033
 -1.160000000000000E-002    3.308084775517522E-033
 -1.150000000000000E-002    4.923990475523769E-033
 -1.140000000000000E-002    6.240929740130801E-033
 -1.130000000000000E-002    6.940950323848784E-033
 -1.120000000000000E-002    6.715913133569609E-033
 -1.110000000000000E-002    5.324139995381052E-033
 -1.100000000000000E-002    2.651343891196287E-033
 -1.090000000000000E-002   -1.234030562386057E-033
 -1.080000000000000E-002   -6.042596434452766E-033
 -1.070000000000000E-002   -1.125440786132507E-032
 -1.060000000000000E-002   -1.614712229495184E-032
 -1.050000000000000E-002   -1.986651871194487E-032
 -1.040000000000000E-002   -2.153726192236571E-032
 -1.030000000000000E-002   -2.040384622140386E-032
 -1.020000000000000E-002   -1.598362641190254E-032
 -1.010000000000000E-002   -8.207318302211734E-033
 -1.000000000000000E-002    2.481018504399431E-033
 -9.899999999999999E-003    1.509127796506471E-032
 -9.800000000000000E-003    2.814198044554878E-032
 -9.699999999999999E-003    3.981031725318188E-032
 -9.599999999999999E-003    4.816918046069516E-032
 -9.500000000000000E-003    5.148448584730811E-032
 -9.399999999999999E-003    4.852905261210866E-032
 -9.299999999999999E-003    3.885741175751686E-032
 -9.200000000000000E-003    2.298277586224587E-032
 -9.099999999999999E-003    2.405664103072971E-033
 -8.999999999999999E-003   -2.053578436830455E-032
 -8.900000000000000E-003   -4.299250863403347E-032
 -8.799999999999999E-003   -6.206920073131215E-032
 -8.699999999999999E-003   -7.535050726977743E-032
 -8.600000000000000E-003   -8.138355283590820E-032
 -8.499999999999999E-003   -7.999981644956873E-032
 -8.399999999999999E-003   -7.237196790107072E-032
 -8.300000000000000E-003   -6.074060622437787E-032
 -8.199999999999999E-003   -4.781073560450659E-032
 -8.100000000000000E-003   -3.589918128614258E-032
 -8.000000000000000E-003   -2.599794143210694E-032
 -7.899999999999999E-003   -1.698574641338926E-032
 -7.800000000000000E-003   -5.250432075609305E-033
 -7.699999999999999E-003    1.503925736082194E-032
 -7.599999999999999E-003    5.086213131094211E-032
 -7.499999999999999E-003    1.084742514292764E-031
 -7.399999999999999E-003    1.909380253071349E-031
 -7.299999999999999E-003    2.954609704694274E-031
 -7.199999999999999E-003    4.111370918979711E-031
 -7.100000000000000E-003    5.177878882205468E-031
 -6.999999999999999E-003    5.865779116117586E-031
 -6.899999999999999E-003    5.829007750323647E-031
 -6.800000000000000E-003    4.716880853911614E-031
 -6.699999999999999E-003    2.248133171319136E-031
 -6.599999999999999E-003   -1.702892216223714E-031
 -6.499999999999999E-003   -7.021974845242353E-031
 -6.399999999999999E-003   -1.329056435516184E-030
 -6.299999999999999E-003   -1.976022524081153E-030
 -6.199999999999999E-003   -2.538264317038884E-030
 -6.100000000000000E-003   -2.890540122355724E-030
 -5.999999999999999E-003   -2.903350969172623E-030
 -5.899999999999999E-003   -2.464385293494863E-030
 -5.800000000000000E-003   -1.502624552716643E-030
 -5.699999999999999E-003   -1.133595193912416E-032
 -5.599999999999999E-003    1.934492976822423E-030
 -5.499999999999999E-003    4.170657095075990E-030
 -5.399999999999999E-003    6.449607399258990E-030
 -5.299999999999999E-003    8.461298572611286E-030
 -5.199999999999999E-003    9.868074796311324E-030
 -5.099999999999999E-003    1.034980707190359E-029
 -4.999999999999999E-003    9.652849113255582E-030
 -4.899999999999999E-003    7.634576888766561E-030
 -4.799999999999999E-003    4.294877659983358E-030
 -4.699999999999999E-003   -2.126374957127384E-031
 -4.599999999999999E-003   -5.593615827315376E-030
 -4.499999999999999E-003   -1.144918618899485E-029
 -4.399999999999999E-003   -1.732882198922823E-029
 -4.299999999999999E-003   -2.278795521666523E-029
 -4.199999999999999E-003   -2.743497755669657E-029
 -4.099999999999999E-003   -3.095189835020779E-029
 -3.999999999999999E-003   -3.307675680751275E-029
 -3.899999999999999E-003   -3.354416327892151E-029
 -3.799999999999999E-003   -3.199241838088712E-029
 -3.699999999999999E-003   -2.785980659392214E-029
 -3.599999999999999E-003   -2.030595257985851E-029
 -3.499999999999999E-003   -8.203028592287032E-030
 -3.399999999999999E-003    9.757628915319742E-030
 -3.299999999999999E-003    3.480847193252550E-029
 -3.199999999999999E-003    6.768674561851722E-029
 -3.099999999999999E-003    1.080778177931490E-028
 -2.999999999999999E-003    1.539895170698690E-028
 -2.899999999999999E-003    2.011727253393370E-028
 -2.799999999999999E-003    2.427425581828444E-028
 -2.699999999999999E-003    2.691756918426132E-028
 -2.599999999999999E-003    2.688512834710554E-028
 -2.499999999999999E-003    2.292581581077050E-028
 -2.399999999999999E-003    1.389049129954592E-028
 -2.299999999999999E-003   -1.015405655578685E-029
 -2.199999999999999E-003   -2.194127940499567E-028
 -2.099999999999999E-003   -4.810211412052190E-028
 -1.999999999999999E-003   -7.754327033225041E-028
 -1.899999999999999E-003   -1.070204387183930E-027
 -1.799999999999999E-003   -1.320559135492162E-027
 -1.699999999999999E-003   -1.472215565551002E-027
 -1.599999999999999E-003   -1.466761800485087E-027
 -1.499999999999999E-003   -1.249506006804426E-027
 -1.399999999999999E-003   -7.793040708766086E-028
 -1.299999999999999E-003   -3.938998531096351E-029
 -1.199999999999999E-003    9.522151866452078E-028
 -1.099999999999999E-003    2.134481498961691E-027
 -9.999999999999989E-004    3.399253503930879E-027
 -8.999999999999990E-004    4.593046897875948E-027
 -7.999999999999990E-004    5.526143963577390E-027
 -6.999999999999989E-004    5.989628367728831E-027
 -5.999999999999990E-004    5.779970450745904E-027
 -4.999999999999989E-004    4.729550393453289E-027
 -3.999999999999989E-004    2.740225946711466E-027
 -2.999999999999989E-004   -1.841053922468123E-028
 -1.999999999999989E-004   -3.910830845428185E-027
 -9.999999999999892E-005   -8.163041707508436E-027
  1.084202172485504E-018   -1.251989999183870E-026
  1.000000000000011E-004   -1.643670298356519E-026
  2.000000000000011E-004   -1.928652157680965E-026
  3.000000000000011E-004   -2.042276990417444E-026
  4.000000000000011E-004   -1.925911206149663E-026
  5.000000000000011E-004   -1.536003081135733E-026
  6.000000000000011E-004   -8.532593893741232E-027
  7.000000000000011E-004    1.092167856881799E-027
  8.000000000000011E-004    1.300086164772384E-026
  9.000000000000012E-004    2.627452753865690E-026
  1.000000000000001E-003    3.961081498828224E-026
  1.100000000000001E-003    5.139812306011447E-026
  1.200000000000001E-003    5.984318067411794E-026
  1.300000000000001E-003    6.314739286369127E-026
  1.400000000000001E-003    5.972057993821349E-026
  1.500000000000001E-003    4.841428402695172E-026
  1.600000000000001E-003    2.875119384870635E-026
  1.700000000000001E-003    1.123523487754972E-027
  1.800000000000001E-003   -3.306831490898404E-026
  1.900000000000001E-003   -7.136381950649789E-026
  2.000000000000001E-003   -1.102996934237774E-025
  2.100000000000001E-003   -1.455907775793907E-025
  2.200000000000001E-003   -1.724383742685623E-025
  2.300000000000001E-003   -1.859567159033575E-025
  2.400000000000001E-003   -1.816942142359781E-025
  2.500000000000001E-003   -1.562118408832218E-025
  2.600000000000001E-003   -1.076681946229427E-025
  2.700000000000001E-003   -3.635067407606514E-026
  2.800000000000001E-003    5.491361033322581E-026
  2.900000000000001E-003    1.605338852750025E-025
  3.000000000000001E-003    2.721790853992681E-025
  3.100000000000001E-003    3.790955631584789E-025
  3.200000000000001E-003    4.687452605551603E-025
  3.300000000000001E-003    5.277630208587647E-025
  3.400000000000001E-003    5.431989289997598E-025
  3.500000000000001E-003    5.039749810513241E-025
  3.600000000000001E-003    4.024490225506357E-025
  3.700000000000001E-003    2.359451421705503E-025
  3.800000000000001E-003    8.083607914133634E-027
  3.900000000000001E-003   -2.702711272223306E-025
  4.000000000000001E-003   -5.806245753840648E-025
  4.100000000000001E-003   -8.971881042153642E-025
  4.200000000000001E-003   -1.188054017630059E-024
  4.300000000000001E-003   -1.417263688099704E-024
  4.400000000000001E-003   -1.547738240154770E-024
  4.500000000000001E-003   -1.544943525047273E-024
  4.600000000000002E-003   -1.381053574609363E-024
  4.700000000000001E-003   -1.039273744294636E-024
  4.800000000000001E-003   -5.178958100052003E-025
  4.900000000000002E-003    1.664046551649706E-025
  5.000000000000001E-003    9.765377571180560E-025
  5.100000000000001E-003    1.854712994070370E-024
  5.200000000000001E-003    2.724284255869407E-024
  5.300000000000002E-003    3.493960186196295E-024
  5.400000000000001E-003    4.064404171383435E-024
  5.500000000000001E-003    4.336995032736311E-024
  5.600000000000002E-003    4.224239724921711E-024
  5.700000000000001E-003    3.661049965186091E-024
  5.800000000000001E-003    2.615850710897383E-024
  5.900000000000002E-003    1.100310045112545E-024
  6.000000000000001E-003   -8.236022227454274E-025
  6.100000000000001E-003   -3.040469834698193E-024
  6.200000000000002E-003   -5.383253085824283E-024
  6.300000000000002E-003   -7.640794317194656E-024
  6.400000000000001E-003   -9.571240790964887E-024
  6.500000000000001E-003   -1.092103631215584E-023
  6.600000000000002E-003   -1.144848596711154E-023
  6.700000000000001E-003   -1.095024419992393E-023
  6.800000000000001E-003   -9.288497238993888E-024
  6.900000000000002E-003   -6.416170241193606E-024
  7.000000000000001E-003   -2.397261816202787E-024
  7.100000000000001E-003    2.580556337722275E-024
  7.200000000000002E-003    8.203581600912410E-024
  7.300000000000002E-003    1.404182979783117E-023
  7.400000000000001E-003    1.957180113437642E-023
  7.500000000000001E-003    2.421200549832492E-023
  7.600000000000002E-003    2.736967723242470E-023
  7.700000000000001E-003    2.849578550855256E-023
  7.800000000000001E-003    2.714421195679387E-023
  7.900000000000001E-003    2.303001287838517E-023
  8.000000000000002E-003    1.608107063020904E-023
  8.100000000000001E-003    6.477330726798890E-024
  8.200000000000001E-003   -5.327761826771041E-024
  8.300000000000002E-003   -1.860802951014156E-023
  8.400000000000001E-003   -3.239042813099693E-023
  8.500000000000002E-003   -4.550696257796973E-023
  8.600000000000002E-003   -5.667136023901491E-023
  8.700000000000001E-003   -6.457685161262409E-023
  8.800000000000002E-003   -6.800910299459591E-023
  8.900000000000002E-003   -6.596635421980500E-023
  9.000000000000001E-003   -5.777725950648642E-023
  9.100000000000002E-003   -4.320608622333429E-023
  9.200000000000002E-003   -2.253475496976180E-023
  9.300000000000001E-003    3.388019665170311E-024
  9.400000000000002E-003    3.313867983292934E-023
  9.500000000000001E-003    6.475766890709611E-023
  9.600000000000001E-003    9.583791787828502E-023
  9.700000000000002E-003    1.236620797971406E-022
  9.800000000000001E-003    1.453837684235415E-022
  9.900000000000001E-003    1.582439849719875E-022
  1.000000000000000E-002    1.598101630420014E-022
  1.010000000000000E-002    1.482218934986410E-022
  1.020000000000000E-002    1.224248746622628E-022
  1.030000000000000E-002    8.237302537855353E-023
  1.040000000000000E-002    2.917851492765607E-023
  1.050000000000000E-002   -3.480936169608723E-023
  1.060000000000000E-002   -1.060126290602811E-022
  1.070000000000000E-002   -1.797321422524689E-022
  1.080000000000000E-002   -2.503598136750205E-022
  1.090000000000000E-002   -3.116937271365618E-022
  1.100000000000000E-002   -3.573461774269181E-022
  1.110000000000000E-002   -3.812254983629573E-022
  1.120000000000000E-002   -3.780642527736570E-022
  1.130000000000000E-002   -3.439585571143756E-022
  1.140000000000000E-002   -2.768773830431393E-022
  1.150000000000000E-002   -1.770973305967805E-022
  1.160000000000000E-002   -4.751824331726295E-023
  1.170000000000000E-002    1.061817334394708E-022
  1.180000000000000E-002    2.755857781297300E-022
  1.190000000000000E-002    4.497959275980437E-022
  1.200000000000000E-002    6.159178331739479E-022
  1.210000000000000E-002    7.597654505684192E-022
  1.220000000000000E-002    8.667610472588715E-022
  1.230000000000000E-002    9.229879417829841E-022
  1.240000000000000E-002    9.163373381562106E-022
  1.250000000000000E-002    8.376770944372515E-022
  1.260000000000000E-002    6.819605758443303E-022
  1.270000000000000E-002    4.491887041837244E-022
  1.280000000000000E-002    1.451391638605755E-022
  1.290000000000000E-002   -2.182179453237519E-022
  1.300000000000000E-002   -6.226864838751015E-022
  1.310000000000000E-002   -1.044245422993556E-021
  1.320000000000000E-002   -1.453915916262982E-021
  1.330000000000000E-002   -1.819100956469947E-021
  1.340000000000000E-002   -2.105375977393963E-021
  1.350000000000000E-002   -2.278678882896139E-021
  1.360000000000000E-002   -2.307814899821182E-021
  1.370000000000000E-002   -2.167160359441636E-021
  1.380000000000000E-002   -1.839417428989306E-021
  1.390000000000000E-002   -1.318241213439363E-021
  1.400000000000000E-002   -6.105380756967774E-022
  1.410000000000000E-002    2.617848031976303E-022
  1.420000000000000E-002    1.260843417855743E-021
  1.430000000000000E-002    2.332791346275485E-021
  1.440000000000000E-002    3.409013741497124E-021
  1.450000000000000E-002    4.408642576888794E-021
  1.460000000000000E-002    5.242463038214206E-021
  1.470000000000000E-002    5.818187734620707E-021
  1.480000000000000E-002    6.046959881286176E-021
  1.490000000000000E-002    5.850818563380056E-021
  1.500000000000000E-002    5.170722101200075E-021
  1.510000000000000E-002    3.974597666415029E-021
  1.520000000000000E-002    2.264768449861777E-021
  1.530000000000000E-002    8.403428852047972E-023
  1.540000000000000E-002   -2.480353002122402E-021
  1.550000000000000E-002   -5.295549816672815E-021
  1.560000000000000E-002   -8.185446358636247E-021
  1.570000000000000E-002   -1.093691737158684E-020
  1.580000000000000E-002   -1.331020926943319E-020
  1.590000000000000E-002   -1.505336339176791E-020
  1.600000000000000E-002   -1.592022077689817E-020
  1.610000000000000E-002   -1.569116101003578E-020
  1.620000000000000E-002   -1.419535927110451E-020
  1.630000000000000E-002   -1.133298965931794E-020
  1.640000000000000E-002   -7.095546529855380E-021
  1.650000000000000E-002   -1.582289002568906E-021
  1.660000000000000E-002    4.989205514417980E-021
  1.670000000000000E-002    1.228024751565620E-020
  1.680000000000000E-002    1.983755201194476E-020
  1.690000000000000E-002    2.711010521325063E-020
  1.700000000000000E-002    3.347675616542326E-020
  1.710000000000000E-002    3.828409004913069E-020
  1.720000000000000E-002    4.089323133814822E-020
  1.730000000000000E-002    4.073327813515132E-020
  1.740000000000000E-002    3.735813017639551E-020
  1.750000000000000E-002    3.050269873066085E-020
  1.760000000000000E-002    2.013383831466106E-020
  1.770000000000000E-002    6.491022181379035E-021
  1.780000000000000E-002   -9.888194554176724E-021
  1.790000000000000E-002   -2.816247381477087E-020
  1.800000000000000E-002   -4.720441821741685E-020
  1.810000000000000E-002   -6.564408056263226E-020
  1.820000000000000E-002   -8.193891592730706E-020
  1.830000000000000E-002   -9.446872808942389E-020
  1.840000000000000E-002   -1.016519448361471E-019
  1.850000000000000E-002   -1.020772336422422E-019
  1.860000000000000E-002   -9.464218025046956E-020
  1.870000000000000E-002   -7.868900659718435E-020