 -4.000000000000000E-002    0.000000000000000E+000
 -3.990000000000000E-002    0.000000000000000E+000
 -3.980000000000000E-002    0.000000000000000E+000
 -3.970000000000000E-002    0.000000000000000E+000
 -3.960000000000000E-002    0.000000000000000E+000
 -3.950000000000000E-002    0.000000000000000E+000
 -3.940000000000000E-002    0.000000000000000E+000
 -3.930000000000000E-002    0.000000000000000E+000
 -3.920000000000000E-002    0.000000000000000E+000
 -3.910000000000000E-002    0.000000000000000E+000
 -3.900000000000000E-002    0.000000000000000E+000
 -3.890000000000000E-002    0.000000000000000E+000
 -3.880000000000000E-002    0.000000000000000E+000
 -3.870000000000000E-002    0.000000000000000E+000
 -3.860000000000000E-002    0.000000000000000E+000
 -3.850000000000000E-002    0.000000000000000E+000
 -3.840000000000000E-002    0.000000000000000E+000
 -3.830000000000000E-002    0.000000000000000E+000
 -3.820000000000000E-002    0.000000000000000E+000
 -3.810000000000000E-002    0.000000000000000E+000
 -3.800000000000000E-002    0.000000000000000E+000
 -3.790000000000000E-002    0.000000000000000E+000
 -3.780000000000000E-002    0.000000000000000E+000
 -3.770000000000000E-002    0.000000000000000E+000
 -3.760000000000000E-002    0.000000000000000E+000
 -3.750000000000000E-002    0.000000000000000E+000
 -3.740000000000000E-002    0.000000000000000E+000
 -3.730000000000000E-002    0.000000000000000E+000
 -3.720000000000000E-002    0.000000000000000E+000
 -3.710000000000000E-002    0.000000000000000E+000
 -3.700000000000000E-002    0.000000000000000E+000
 -3.690000000000000E-002    0.000000000000000E+000
 -3.680000000000000E-002    0.000000000000000E+000
 -3.670000000000000E-002    0.000000000000000E+000
 -3.660000000000000E-002    0.000000000000000E+000
 -3.650000000000000E-002    0.000000000000000E+000
 -3.640000000000000E-002    0.000000000000000E+000
 -3.630000000000000E-002    0.000000000000000E+000
 -3.620000000000000E-002    0.000000000000000E+000
 -3.610000000000000E-002    0.000000000000000E+000
 -3.600000000000000E-002    0.000000000000000E+000
 -3.590000000000000E-002    0.000000000000000E+000
 -3.580000000000000E-002    0.000000000000000E+000
 -3.570000000000000E-002    0.000000000000000E+000
 -3.560000000000000E-002   -6.286117624081036E-048
 -3.550000000000000E-002   -2.534339890314900E-047
 -3.540000000000000E-002   -5.377560671321129E-047
 -3.530000000000000E-002   -1.225686694468128E-046
 -3.520000000000000E-002   -2.398072825489647E-046
 -3.510000000000000E-002   -4.403140326421220E-046
 -3.500000000000000E-002   -7.973192892795703E-046
 -3.490000000000000E-002   -1.409244378931590E-045
 -3.480000000000000E-002   -2.295698543090513E-045
 -3.470000000000000E-002   -3.251625089934397E-045
 -3.460000000000000E-002   -3.687932828455633E-045
 -3.450000000000000E-002   -1.972248222279578E-045
 -3.440000000000000E-002    2.462957714492236E-045
 -3.430000000000000E-002    1.612768354882904E-044
 -3.420000000000000E-002    4.831890320221955E-044
 -3.410000000000000E-002    1.171298284369012E-043
 -3.400000000000000E-002    2.497609982779057E-043
 -3.390000000000000E-002    4.903653551880555E-043
 -3.380000000000000E-002    8.993551666482587E-043
 -3.370000000000000E-002    1.554460904923214E-042
 -3.360000000000000E-002    2.534498962087850E-042
 -3.350000000000000E-002    3.884259638637604E-042
 -3.340000000000000E-002    5.539495594952811E-042
 -3.330000000000000E-002    7.182325477999058E-042
 -3.320000000000000E-002    8.001357836578046E-042
 -3.310000000000000E-002    6.315882482319295E-042
 -3.300000000000000E-002   -9.638274968637682E-043
 -3.290000000000000E-002   -1.904271011375079E-041
 -3.280000000000000E-002   -5.604299986538130E-041
 -3.270000000000000E-002   -1.237088112246999E-040
 -3.260000000000000E-002   -2.375971270080165E-040
 -3.250000000000000E-002   -4.160018552918348E-040
 -3.240000000000000E-002   -6.764066061801912E-040
 -3.230000000000000E-002   -1.027651660610880E-039
 -3.220000000000000E-002   -1.455419440288654E-039
 -3.210000000000000E-002   -1.898153727753159E-039
 -3.200000000000000E-002   -2.210595336161359E-039
 -3.190000000000000E-002   -2.113217339938178E-039
 -3.180000000000000E-002   -1.128886123473275E-039
 -3.170000000000000E-002    1.485937454082997E-039
 -3.160000000000000E-002    6.797931814167329E-039
 -3.150000000000000E-002    1.620860059675698E-038
 -3.140000000000000E-002    3.136680340327566E-038
 -3.130000000000000E-002    5.390224470652248E-038
 -3.120000000000000E-002    8.487346927802217E-038
 -3.110000000000000E-002    1.238041363655883E-037
 -3.100000000000000E-002    1.671819226179540E-037
 -3.090000000000000E-002    2.063352722728256E-037
 -3.080000000000000E-002    2.247111789767964E-037
 -3.070000000000000E-002    1.947836852083850E-037
 -3.060000000000000E-002    7.515855872961196E-038
 -3.050000000000000E-002   -1.910757743195829E-037
 -3.040000000000000E-002   -6.750738217951516E-037
 -3.030000000000000E-002   -1.455643656345294E-036
 -3.020000000000000E-002   -2.604278853748202E-036
 -3.010000000000000E-002   -4.158347555783181E-036
 -3.000000000000000E-002   -6.079191628296607E-036
 -2.990000000000000E-002   -8.193201444676465E-036
 -2.980000000000000E-002   -1.011687561806569E-035
 -2.970000000000000E-002   -1.117204382167260E-035
 -2.960000000000000E-002   -1.030518638907856E-035
 -2.950000000000000E-002   -6.035231634721776E-036
 -2.940000000000000E-002    3.533348381006548E-036
 -2.930000000000000E-002    2.058244891650803E-035
 -2.920000000000000E-002    4.727732538515024E-035
 -2.910000000000000E-002    8.522559337657041E-035
 -2.900000000000000E-002    1.346452604366114E-034
 -2.890000000000000E-002    1.932192610904278E-034
 -2.880000000000000E-002    2.546722294906267E-034
 -2.870000000000000E-002    3.071967450791908E-034
 -2.860000000000000E-002    3.319828362197925E-034
 -2.850000000000000E-002    3.022607248198476E-034
 -2.840000000000000E-002    1.834358026753498E-034
 -2.830000000000000E-002   -6.495218293343305E-035
 -2.820000000000000E-002   -4.846231085570194E-034
 -2.810000000000000E-002   -1.110512957250654E-033
 -2.800000000000000E-002   -1.958725946646785E-033
 -2.790000000000000E-002   -3.010405352134407E-033
 -2.780000000000000E-002   -4.192257974181706E-033
 -2.770000000000000E-002   -5.355621801564294E-033
 -2.760000000000000E-002   -6.257431339483188E-033
 -2.750000000000000E-002   -6.548076161064269E-033
 -2.740000000000000E-002   -5.772744495392682E-033
 -2.730000000000000E-002   -3.394026658468230E-033
 -2.720000000000000E-002    1.156117324590522E-033
 -2.710000000000000E-002    8.388019730276394E-033
 -2.700000000000000E-002    1.862560650610740E-032
 -2.690000000000000E-002    3.183878221760154E-032
 -2.680000000000000E-002    4.744633290693208E-032
 -2.670000000000000E-002    6.410918489025134E-032
 -2.660000000000000E-002    7.954585186099161E-032
 -2.650000000000000E-002    9.041420327965380E-032
 -2.640000000000000E-002    9.231392281769771E-032
 -2.630000000000000E-002    7.996979002493517E-032
 -2.620000000000000E-002    4.765373965732211E-032
 -2.610000000000000E-002   -1.010933272245570E-032
 -2.600000000000000E-002   -9.753356440421717E-032
 -2.590000000000000E-002   -2.162844613851062E-031
 -2.580000000000000E-002   -3.639891235068622E-031
 -2.570000000000000E-002   -5.326870651780865E-031
 -2.560000000000000E-002   -7.074332032085775E-031
 -2.550000000000000E-002   -8.653279666608042E-031
 -2.540000000000000E-002   -9.752941000120887E-031
 -2.530000000000000E-002   -9.989339750292934E-031
 -2.520000000000000E-002   -8.927706099919246E-031
 -2.510000000000000E-002   -6.120912456457112E-031
 -2.500000000000000E-002   -1.164704939022403E-031
 -2.490000000000000E-002    6.231480286190539E-031
 -2.480000000000000E-002    1.616172367903993E-030
 -2.470000000000000E-002    2.843507053342930E-030
 -2.460000000000000E-002    4.248996661729118E-030
 -2.450000000000000E-002    5.732251144441438E-030
 -2.440000000000000E-002    7.144075813277954E-030
 -2.430000000000000E-002    8.285753043697463E-030
 -2.420000000000000E-002    8.913352442903684E-030
 -2.410000000000000E-002    8.748040539966264E-030
 -2.400000000000000E-002    7.493079406521604E-030
 -2.390000000000000E-002    4.857855215821330E-030
 -2.380000000000000E-002    5.889107068231041E-031
 -2.370000000000000E-002   -5.492405931418398E-030
 -2.360000000000000E-002   -1.344641364214875E-029
 -2.350000000000000E-002   -2.316681395513429E-029
 -2.340000000000000E-002   -3.432927812159838E-029
 -2.330000000000000E-002   -4.633931283691291E-029
 -2.320000000000000E-002   -5.828303428913345E-029
 -2.310000000000000E-002   -6.888630050442418E-029
 -2.300000000000000E-002   -7.649017862887979E-029
 -2.290000000000000E-002   -7.905387982905984E-029
 -2.280000000000000E-002   -7.419976812644481E-029
 -2.270000000000000E-002   -5.931821837494769E-029
 -2.260000000000000E-002   -3.175204356708430E-029
 -2.250000000000000E-002    1.092046476437125E-029
 -2.240000000000000E-002    7.048947064556403E-029
 -2.230000000000000E-002    1.476003657632703E-028
 -2.220000000000000E-002    2.411361182465017E-028
 -2.210000000000000E-002    3.475319079079620E-028
 -2.200000000000000E-002    4.600891455639771E-028
 -2.190000000000000E-002    5.683901860141530E-028
 -2.180000000000000E-002    6.579490514821377E-028
 -2.170000000000000E-002    7.102609967964389E-028
 -2.160000000000000E-002    7.034273293579640E-028
 -2.150000000000000E-002    6.135223366903035E-028
 -2.140000000000000E-002    4.168294875349460E-028
 -2.130000000000000E-002    9.299594630719574E-029
 -2.120000000000000E-002   -3.709620944638061E-028
 -2.110000000000000E-002   -9.760244188980045E-028
 -2.100000000000000E-002   -1.706303804884230E-027
 -2.090000000000000E-002   -2.524543293324891E-027
 -2.080000000000000E-002   -3.368731227037724E-027
 -2.070000000000000E-002   -4.150707629334060E-027
 -2.060000000000000E-002   -4.757665671451835E-027
 -2.050000000000000E-002   -5.057359062037147E-027
 -2.040000000000000E-002   -4.907582613114077E-027
 -2.030000000000000E-002   -4.170094989207301E-027
 -2.020000000000000E-002   -2.728594319313141E-027
 -2.010000000000000E-002   -5.096863343719532E-028
 -2.000000000000000E-002    2.494940136654293E-027
 -1.990000000000000E-002    6.207614809186296E-027
 -1.980000000000000E-002    1.044808645129464E-026
 -1.970000000000000E-002    1.492453932143481E-026
 -1.960000000000000E-002    1.923543808573697E-026
 -1.950000000000000E-002    2.288485725473673E-026
 -1.940000000000000E-002    2.531287793241847E-026
 -1.930000000000000E-002    2.594109071628922E-026
 -1.920000000000000E-002    2.423126923992600E-026
 -1.910000000000000E-002    1.975317124107364E-026
 -1.900000000000000E-002    1.225527598414202E-026
 -1.890000000000000E-002    1.730558632768476E-027
 -1.880000000000000E-002   -1.153165588782338E-026
 -1.870000000000000E-002   -2.691677477440945E-026
 -1.860000000000000E-002   -4.348677981598363E-026
 -1.850000000000000E-002   -6.001813090850816E-026
 -1.840000000000000E-002   -7.507730184827734E-026
 -1.830000000000000E-002   -8.713075129618164E-026
 -1.820000000000000E-002   -9.468095389230744E-026
 -1.810000000000000E-002   -9.641509496826670E-026
 -1.800000000000000E-002   -9.134908906454660E-026
 -1.790000000000000E-002   -7.894734491067484E-026
 -1.780000000000000E-002   -5.919915457089073E-026
 -1.770000000000000E-002   -3.263604238539239E-026
 -1.760000000000000E-002   -2.809945521187061E-028
 -1.750000000000000E-002    3.646995517273963E-026
 -1.740000000000000E-002    7.602194829424080E-026
 -1.730000000000000E-002    1.167873533413361E-025
 -1.720000000000000E-002    1.573890157208467E-025
 -1.710000000000000E-002    1.968184838472185E-025
 -1.700000000000000E-002    2.345050210582970E-025
 -1.690000000000000E-002    2.702560769594609E-025
 -1.680000000000000E-002    3.040432699787746E-025
 -1.670000000000000E-002    3.356290447062373E-025
 -1.660000000000000E-002    3.640575926488077E-025
 -1.650000000000000E-002    3.870661064673845E-025
 -1.640000000000000E-002    4.005054751634739E-025
 -1.630000000000000E-002    3.978876190406748E-025
 -1.620000000000000E-002    3.701946864823248E-025
 -1.610000000000000E-002    3.060870523810671E-025
 -1.600000000000000E-002    1.926288165416442E-025
 -1.590000000000000E-002    1.660720824111581E-026
 -1.580000000000000E-002   -2.335427200402046E-025
 -1.570000000000000E-002   -5.652826001677410E-025
 -1.560000000000000E-002   -9.791585204442825E-025
 -1.550000000000000E-002   -1.465907702661517E-024
 -1.540000000000000E-002   -2.003852967365608E-024
 -1.530000000000000E-002   -2.557020492442747E-024
 -1.520000000000000E-002   -3.074443512772422E-024
 -1.510000000000000E-002   -3.491088079850961E-024
 -1.500000000000000E-002   -3.730748271692540E-024
 -1.490000000000000E-002   -3.711103834861872E-024
 -1.480000000000000E-002   -3.350918873433510E-024
 -1.470000000000000E-002   -2.579100270649162E-024
 -1.460000000000000E-002   -1.345047541935929E-024
 -1.450000000000000E-002    3.705519717853625E-025
 -1.440000000000000E-002    2.545565312575140E-024
 -1.430000000000000E-002    5.108139477605777E-024
 -1.420000000000000E-002    7.931603212884048E-024
 -1.410000000000000E-002    1.083375263723438E-023
 -1.400000000000000E-002    1.358148741285900E-023
 -1.390000000000000E-002    1.590138115448317E-023
 -1.380000000000000E-002    1.749624970709770E-023
 -1.370000000000000E-002    1.806717515021460E-023
 -1.360000000000000E-002    1.733980485309114E-023
 -1.350000000000000E-002    1.509312492869092E-023
 -1.340000000000000E-002    1.118838944605983E-023
 -1.330000000000000E-002    5.595549229799321E-024
 -1.320000000000000E-002   -1.585611074200472E-024
 -1.310000000000000E-002   -1.011226866825580E-023
 -1.300000000000000E-002   -1.959552983014395E-023
 -1.290000000000000E-002   -2.950911962201023E-023
 -1.280000000000000E-002   -3.921045982516488E-023
 -1.270000000000000E-002   -4.797376810395714E-023
 -1.260000000000000E-002   -5.503370831750981E-023
 -1.250000000000000E-002   -5.963707843549816E-023
 -1.240000000000000E-002   -6.109911651796576E-023
 -1.230000000000000E-002   -5.886031562240626E-023
 -1.220000000000000E-002   -5.253931348144904E-023
 -1.210000000000000E-002   -4.197734069509226E-023
 -1.200000000000000E-002   -2.727013115151537E-023
 -1.190000000000000E-002   -8.783850481607841E-024
 -1.180000000000000E-002    1.284731873309737E-023
 -1.170000000000000E-002    3.674304913945914E-023
 -1.160000000000000E-002    6.181774664508645E-023
 -1.150000000000000E-002    8.683843623091405E-023
 -1.140000000000000E-002    1.104959860368132E-022
 -1.130000000000000E-002    1.314844398059301E-022
 -1.120000000000000E-002    1.485819554855283E-022
 -1.110000000000000E-002    1.607257854171486E-022
 -1.100000000000000E-002    1.670733639965713E-022
 -1.090000000000000E-002    1.670417254463743E-022
 -1.080000000000000E-002    1.603186256233993E-022
 -1.070000000000000E-002    1.468408926665204E-022
 -1.060000000000000E-002    1.267386945549601E-022
 -1.050000000000000E-002    1.002487732594213E-022
 -1.040000000000000E-002    6.760488208441940E-023
 -1.030000000000000E-002    2.891917043594355E-023
 -1.020000000000000E-002   -1.592597428011244E-023
 -1.010000000000000E-002   -6.735182560553420E-023
 -1.000000000000000E-002   -1.260962063245000E-022
 -9.899999999999999E-003   -1.931392494667018E-022
 -9.800000000000000E-003   -2.695199082054957E-022
 -9.699999999999999E-003   -3.560301074758809E-022
 -9.599999999999999E-003   -4.527870124290534E-022
 -9.500000000000000E-003   -5.587022862397190E-022
 -9.399999999999999E-003   -6.708885814838015E-022
 -9.299999999999999E-003   -7.840664837743687E-022
 -9.200000000000000E-003   -8.900564931153645E-022
 -9.099999999999999E-003   -9.774572571971668E-022
 -8.999999999999999E-003   -1.031619590519871E-021
 -8.900000000000000E-003   -1.035022050464371E-021
 -8.799999999999999E-003   -9.681355078142703E-022
 -8.699999999999999E-003   -8.108295068280753E-022
 -8.600000000000000E-003   -5.443228914516903E-022
 -8.499999999999999E-003   -1.536169481450761E-022
 -8.399999999999999E-003    3.697235796827059E-022
 -8.300000000000000E-003    1.024651132837973E-021
 -8.199999999999999E-003    1.797856467182822E-021
 -8.100000000000000E-003    2.661459735523293E-021
 -8.000000000000000E-003    3.571530994208846E-021
 -7.899999999999999E-003    4.467789849047359E-021
 -7.800000000000000E-003    5.274791736468366E-021
 -7.699999999999999E-003    5.904817628721857E-021
 -7.599999999999999E-003    6.262563684815405E-021
 -7.499999999999999E-003    6.251563493438078E-021
 -7.399999999999999E-003    5.782107975990828E-021
 -7.299999999999999E-003    4.780238482791311E-021
 -7.199999999999999E-003    3.197226704577480E-021
 -7.100000000000000E-003    1.018817283004787E-021
 -6.999999999999999E-003   -1.726579562417817E-021
 -6.899999999999999E-003   -4.961584354409649E-021
 -6.800000000000000E-003   -8.556234680621319E-021
 -6.699999999999999E-003   -1.232775197754659E-020
 -6.599999999999999E-003   -1.604420940818841E-020
 -6.499999999999999E-003   -1.943239737220520E-020
 -6.399999999999999E-003   -2.218992729594539E-020
 -6.299999999999999E-003   -2.400133773887778E-020
 -6.199999999999999E-003   -2.455769521311628E-020
 -6.100000000000000E-003   -2.357892026010920E-020
 -5.999999999999999E-003   -2.083784344238991E-020
 -5.899999999999999E-003   -1.618477880071202E-020
 -5.800000000000000E-003   -9.571251124538429E-021
 -5.699999999999999E-003   -1.071348181501317E-021
 -5.599999999999999E-003    9.100933426189020E-021
 -5.499999999999999E-003    2.058008122708326E-020
 -5.399999999999999E-003    3.284497778405781E-020
 -5.299999999999999E-003    4.522408366159414E-020
 -5.199999999999999E-003    5.691155605543509E-020
 -5.099999999999999E-003    6.699568337585518E-020
 -4.999999999999999E-003    7.450059362512402E-020
 -4.899999999999999E-003    7.844144133407096E-020
 -4.799999999999999E-003    7.789235817309533E-020
 -4.699999999999999E-003    7.206512617314799E-020
 -4.599999999999999E-003    6.039508506003496E-020
 -4.499999999999999E-003    4.262907280633986E-020
 -4.399999999999999E-003    1.890853495684179E-020
 -4.299999999999999E-003   -1.016054763718963E-020
 -4.199999999999999E-003   -4.346026211396724E-020
 -4.099999999999999E-003   -7.934565266543243E-020
 -3.999999999999999E-003   -1.156709501986014E-019
 -3.899999999999999E-003   -1.498644809820448E-019
 -3.799999999999999E-003   -1.790564095166810E-019
 -3.699999999999999E-003   -2.002592871218603E-019
 -3.599999999999999E-003   -2.105958056867095E-019
 -3.499999999999999E-003   -2.075621758482710E-019
 -3.399999999999999E-003   -1.893091774367359E-019
 -3.299999999999999E-003   -1.549173235464941E-019
 -3.199999999999999E-003   -1.046380490829719E-019
 -3.099999999999999E-003   -4.007059413749881E-020
 -2.999999999999999E-003    3.575499265060885E-020
 -2.899999999999999E-003    1.184145916810249E-019
 -2.799999999999999E-003    2.022646163025773E-019
 -2.699999999999999E-003    2.807613439965419E-019
 -2.599999999999999E-003    3.469185547033359E-019
 -2.499999999999999E-003    3.938804381218401E-019
 -2.399999999999999E-003    4.155715865329809E-019
 -2.299999999999999E-003    4.073704724905321E-019
 -2.199999999999999E-003    3.667420107709840E-019
 -2.099999999999999E-003    2.937584649271503E-019
 -1.999999999999999E-003    1.914383277805148E-019
 -1.899999999999999E-003    6.584144989355996E-020
 -1.799999999999999E-003   -7.412526279449251E-020
 -1.699999999999999E-003   -2.172131947869088E-019
 -1.599999999999999E-003   -3.506407678275438E-019
 -1.499999999999999E-003   -4.611641296214222E-019
 -1.399999999999999E-003   -5.363354632123014E-019
 -1.299999999999999E-003   -5.658440368129591E-019
 -1.199999999999999E-003   -5.428122579640894E-019
 -1.099999999999999E-003   -4.649066568521178E-019
 -9.999999999999989E-004   -3.351247416834804E-019
 -8.999999999999990E-004   -1.621346856076897E-019
 -7.999999999999990E-004    3.992444056451334E-020
 -6.999999999999989E-004    2.522287191659454E-019
 -5.999999999999990E-004    4.526340116431751E-019
 -4.999999999999989E-004    6.175508075029964E-019
 -3.999999999999989E-004    7.241994955810603E-019
 -2.999999999999989E-004    7.530627426298585E-019
 -1.999999999999989E-004    6.903103972597081E-019
 -9.999999999999892E-005    5.299498753995696E-019
  1.084202172485504E-018    2.754538699502192E-019
  1.000000000000011E-004   -5.935512432503305E-020
  2.000000000000011E-004   -4.503373609425110E-019
  3.000000000000011E-004   -8.640853158001743E-019
  4.000000000000011E-004   -1.260003286840324E-018
  5.000000000000011E-004   -1.593332131573997E-018
  6.000000000000011E-004   -1.818937722619532E-018
  7.000000000000011E-004   -1.895591239680975E-018
  8.000000000000011E-004   -1.790400018639048E-018
  9.000000000000012E-004   -1.483002710944554E-018
  1.000000000000001E-003   -9.691254909902202E-019
  1.100000000000001E-003   -2.631216604222332E-019
  1.200000000000001E-003    6.008345570329488E-019
  1.300000000000001E-003    1.569140113986777E-018
  1.400000000000001E-003    2.570873468073552E-018
  1.500000000000001E-003    3.521627964350121E-018
  1.600000000000001E-003    4.328936825583452E-018
  1.700000000000001E-003    4.899029546312462E-018
  1.800000000000001E-003    5.144533130541263E-018
  1.900000000000001E-003    4.992631354085126E-018
  2.000000000000001E-003    4.393121465107596E-018
  2.100000000000001E-003    3.325752105908698E-018
  2.200000000000001E-003    1.806226152918014E-018
  2.300000000000001E-003   -1.097410559872037E-019
  2.400000000000001E-003   -2.324853313112329E-018
  2.500000000000001E-003   -4.701606948749411E-018
  2.600000000000001E-003   -7.066941169728190E-018
  2.700000000000001E-003   -9.220327729421588E-018
  2.800000000000001E-003   -1.094527054021510E-017
  2.900000000000001E-003   -1.202395884114908E-017
  3.000000000000001E-003   -1.225454815323143E-017
  3.100000000000001E-003   -1.147027693174357E-017
  3.200000000000001E-003   -9.559317671944609E-018
  3.300000000000001E-003   -6.484013051341689E-018
  3.400000000000001E-003   -2.297862979428797E-018
  3.500000000000001E-003    2.841519275337023E-018
  3.600000000000001E-003    8.665344703725768E-018
  3.700000000000001E-003    1.479430074074112E-017
  3.800000000000001E-003    2.074849460106578E-017
  3.900000000000001E-003    2.596784624242090E-017
  4.000000000000001E-003    2.984345101490648E-017
  4.100000000000001E-003    3.175962050869213E-017
  4.200000000000001E-003    3.114528979882570E-017
  4.300000000000001E-003    2.753237504399873E-017
  4.400000000000001E-003    2.061751099846305E-017
  4.500000000000001E-003    1.032250875423848E-017
  4.600000000000002E-003   -3.151986561861628E-018
  4.700000000000001E-003   -1.928580292015363E-017
  4.800000000000001E-003   -3.721771948434184E-017
  4.900000000000002E-003   -5.574904203124289E-017
  5.000000000000001E-003   -7.337702593286146E-017
  5.100000000000001E-003   -8.836138879517952E-017
  5.200000000000001E-003   -9.882474450276419E-017
  5.300000000000002E-003   -1.028850366918927E-016
  5.400000000000001E-003   -9.881488953840766E-017
  5.500000000000001E-003   -8.521941575176804E-017
  5.600000000000002E-003   -6.122095468211888E-017
  5.700000000000001E-003   -2.663625626825387E-017
  5.800000000000001E-003    1.787014770024231E-017
  5.900000000000002E-003    7.067373210003092E-017
  6.000000000000001E-003    1.291359344174446E-016
  6.100000000000001E-003    1.896233844972257E-016
  6.200000000000002E-003    2.476121185536330E-016
  6.300000000000002E-003    2.978835730088710E-016
  6.400000000000001E-003    3.348128290436073E-016
  6.500000000000001E-003    3.527422235812105E-016
  6.600000000000002E-003    3.464253247526602E-016
  6.700000000000001E-003    3.115183730361579E-016
  6.800000000000001E-003    2.450886705815672E-016
  6.900000000000002E-003    1.461028750784516E-016
  7.000000000000001E-003    1.585399709517569E-017
  7.100000000000001E-003   -1.417163410822408E-016
  7.200000000000002E-003   -3.198427322363564E-016
  7.300000000000002E-003   -5.089458558099392E-016
  7.400000000000001E-003   -6.968574531232602E-016
  7.500000000000001E-003   -8.692792928812722E-016
  7.600000000000002E-003   -1.010480175725208E-015
  7.700000000000001E-003   -1.104218469835719E-015
  7.800000000000001E-003   -1.134858581849987E-015
  7.900000000000001E-003   -1.088630961723292E-015
  8.000000000000002E-003   -9.549659498062328E-016
  8.100000000000001E-003   -7.278169295467014E-016
  8.200000000000001E-003   -4.068729348521106E-016
  8.300000000000002E-003    1.443420570209375E-018
  8.400000000000001E-003    4.833013453557516E-016
  8.500000000000002E-003    1.017210247283990E-015
  8.600000000000002E-003    1.574278254356381E-015
  8.700000000000001E-003    2.119044027368197E-015
  8.800000000000002E-003    2.610914065074426E-015
  8.900000000000002E-003    3.006200827909610E-015
  9.000000000000001E-003    3.260711535941390E-015
  9.100000000000002E-003    3.332791746942398E-015
  9.200000000000002E-003    3.186680197729274E-015
  9.300000000000001E-003    2.795986301918534E-015
  9.400000000000002E-003    2.147064820195767E-015
  9.500000000000001E-003    1.242031422518983E-015
  9.600000000000001E-003    1.011526240143380E-016
  9.700000000000002E-003   -1.235658720172236E-015
  9.800000000000001E-003   -2.708485339703283E-015
  9.900000000000001E-003   -4.238388527261941E-015
  1.000000000000000E-002   -5.729869745634319E-015
  1.010000000000000E-002   -7.074870581596531E-015
  1.020000000000000E-002   -8.158265731067367E-015
  1.030000000000000E-002   -8.864698531345428E-015
  1.040000000000000E-002   -9.086486252757121E-015
  1.050000000000000E-002   -8.732210888921838E-015
  1.060000000000000E-002   -7.735505426741617E-015
  1.070000000000000E-002   -6.063450222707212E-015
  1.080000000000000E-002   -3.723950069559844E-015
  1.090000000000000E-002   -7.714215121364779E-016
  1.100000000000000E-002    2.689850743367818E-015
  1.110000000000000E-002    6.505265181010238E-015
  1.120000000000000E-002    1.047282837794903E-014
  1.130000000000000E-002    1.434974952275147E-014
  1.140000000000000E-002    1.786279347741908E-014
  1.150000000000000E-002    2.072223740587638E-014
  1.160000000000000E-002    2.263900542512924E-014
  1.170000000000000E-002    2.334427644624530E-014
  1.180000000000000E-002    2.261058788594147E-014
  1.190000000000000E-002    2.027321843007233E-014
  1.200000000000000E-002    1.625044446667446E-014
  1.210000000000000E-002    1.056112007120680E-014
  1.220000000000000E-002    3.338018689759665E-015
  1.230000000000000E-002   -5.164569321568580E-015
  1.240000000000000E-002   -1.457033487053329E-014
  1.250000000000000E-002   -2.438856101518712E-014
  1.260000000000000E-002   -3.403050667969420E-014
  1.270000000000000E-002   -4.283467693989324E-014
  1.280000000000000E-002   -5.010055388298384E-014
  1.290000000000000E-002   -5.512969473096835E-014
  1.300000000000000E-002   -5.727247355018754E-014
  1.310000000000000E-002   -5.597811432675287E-014
  1.320000000000000E-002   -5.084512819895607E-014
  1.330000000000000E-002   -4.166882805198186E-014
  1.340000000000000E-002   -2.848233555792067E-014
  1.350000000000000E-002   -1.158742590310234E-014
  1.360000000000000E-002    8.428208626081817E-015
  1.370000000000000E-002    3.069034592829664E-014
  1.380000000000000E-002    5.405654631024749E-014
  1.390000000000000E-002    7.715476673052800E-014
  1.400000000000000E-002    9.844245012536847E-014
  1.410000000000000E-002    1.162849235164697E-013
  1.420000000000000E-002    1.290505136974117E-013
  1.430000000000000E-002    1.352182352936453E-013
  1.440000000000000E-002    1.334926624254548E-013
  1.450000000000000E-002    1.229192025708561E-013
  1.460000000000000E-002    1.029922756497080E-013
  1.470000000000000E-002    7.374822110352557E-014
  1.480000000000000E-002    3.583470956525924E-014
  1.490000000000000E-002   -9.450876871203993E-015
  1.500000000000000E-002   -6.016085776822378E-014
  1.510000000000000E-002   -1.137393107427555E-013
  1.520000000000000E-002   -1.671095825975286E-013
  1.530000000000000E-002   -2.168072867201616E-013
  1.540000000000000E-002   -2.591558899284384E-013
  1.550000000000000E-002   -2.904786996842519E-013
  1.560000000000000E-002   -3.073379730921589E-013
  1.570000000000000E-002   -3.067888058792560E-013
  1.580000000000000E-002   -2.866329312938469E-013
  1.590000000000000E-002   -2.456557416692843E-013
  1.600000000000000E-002   -1.838289239543300E-013
  1.610000000000000E-002   -1.024610506991556E-013
  1.620000000000000E-002   -4.279826310386928E-015
  1.630000000000000E-002    1.065677720123353E-013
  1.640000000000000E-002    2.246075547461091E-013
  1.650000000000000E-002    3.432276093711205E-013
  1.660000000000000E-002    4.549646893962001E-013
  1.670000000000000E-002    5.518804526003958E-013
  1.680000000000000E-002    6.260138247853879E-013
  1.690000000000000E-002    6.698892836209961E-013
  1.700000000000000E-002    6.770544305828339E-013
  1.710000000000000E-002    6.426155507948762E-013
  1.720000000000000E-002    5.637361580392925E-013
  1.730000000000000E-002    4.400617897146034E-013
  1.740000000000000E-002    2.740349627267404E-013
  1.750000000000000E-002    7.106740721109044E-014
  1.760000000000000E-002   -1.604582924878411E-013
  1.770000000000000E-002   -4.093772513838622E-013
  1.780000000000000E-002   -6.621303509983467E-013
  1.790000000000000E-002   -9.033497357897633E-013
  1.800000000000000E-002   -1.116626178708799E-012
  1.810000000000000E-002   -1.285429824549499E-012
  1.820000000000000E-002   -1.394141509838687E-012
  1.830000000000000E-002   -1.429141970876834E-012
  1.840000000000000E-002   -1.379894632305222E-012
  1.850000000000000E-002   -1.239952691192434E-012
  1.860000000000000E-002   -1.007817489200895E-012
  1.870000000000000E-002   -6.875774714284032E-013