 -4.000000000000000E-002    0.000000000000000E+000
 -3.990000000000000E-002    0.000000000000000E+000
 -3.980000000000000E-002    0.000000000000000E+000
 -3.970000000000000E-002    0.000000000000000E+000
 -3.960000000000000E-002    0.000000000000000E+000
 -3.950000000000000E-002    0.000000000000000E+000
 -3.940000000000000E-002    0.000000000000000E+000
 -3.930000000000000E-002    0.000000000000000E+000
 -3.920000000000000E-002    0.000000000000000E+000
 -3.910000000000000E-002    0.000000000000000E+000
 -3.900000000000000E-002    0.000000000000000E+000
 -3.890000000000000E-002    0.000000000000000E+000
 -3.880000000000000E-002    0.000000000000000E+000
 -3.870000000000000E-002    0.000000000000000E+000
 -3.860000000000000E-002    0.000000000000000E+000
 -3.850000000000000E-002    0.000000000000000E+000
 -3.840000000000000E-002    0.000000000000000E+000
 -3.830000000000000E-002    0.000000000000000E+000
 -3.820000000000000E-002    0.000000000000000E+000
 -3.810000000000000E-002    0.000000000000000E+000
 -3.800000000000000E-002    0.000000000000000E+000
 -3.790000000000000E-002    0.000000000000000E+000
 -3.780000000000000E-002    0.000000000000000E+000
 -3.770000000000000E-002    0.000000000000000E+000
 -3.760000000000000E-002    0.000000000000000E+000
 -3.750000000000000E-002    2.177789675091340E-047
 -3.740000000000000E-002   -1.253042636202410E-046
 -3.730000000000000E-002   -4.950102058508195E-046
 -3.720000000000000E-002   -1.951508746842915E-045
 -3.710000000000000E-002   -7.554100171861138E-045
 -3.700000000000000E-002   -2.543759552590133E-044
 -3.690000000000000E-002   -8.282841616379878E-044
 -3.680000000000000E-002   -2.532644029724707E-043
 -3.670000000000000E-002   -7.329024162915048E-043
 -3.660000000000000E-002   -2.011148192105495E-042
 -3.650000000000000E-002   -5.233849262308354E-042
 -3.640000000000000E-002   -1.294735371886472E-041
 -3.630000000000000E-002   -3.047820357214093E-041
 -3.620000000000000E-002   -6.830174439590116E-041
 -3.610000000000000E-002   -1.456338781060672E-040
 -3.600000000000000E-002   -2.949389261539801E-040
 -3.590000000000000E-002   -5.653473728730074E-040
 -3.580000000000000E-002   -1.019096776858928E-039
 -3.570000000000000E-002   -1.707206002898308E-039
 -3.560000000000000E-002   -2.596318068970475E-039
 -3.550000000000000E-002   -3.395181133444507E-039
 -3.540000000000000E-002   -3.194880696809089E-039
 -3.530000000000000E-002    2.067303905007738E-040
 -3.520000000000000E-002    1.146903314384898E-038
 -3.510000000000000E-002    3.955065125097506E-038
 -3.500000000000000E-002    1.003586440572118E-037
 -3.490000000000000E-002    2.201071270729960E-037
 -3.480000000000000E-002    4.387578818924054E-037
 -3.470000000000000E-002    8.118978075118622E-037
 -3.460000000000000E-002    1.407689156883220E-036
 -3.450000000000000E-002    2.292923875906115E-036
 -3.440000000000000E-002    3.498683554433402E-036
 -3.430000000000000E-002    4.951954123820773E-036
 -3.420000000000000E-002    6.355703767289617E-036
 -3.410000000000000E-002    6.998343421127319E-036
 -3.400000000000000E-002    5.477513677941643E-036
 -3.390000000000000E-002   -6.620862868787859E-037
 -3.380000000000000E-002   -1.534465074555023E-035
 -3.370000000000000E-002   -4.434224702258607E-035
 -3.360000000000000E-002   -9.543336076045167E-035
 -3.350000000000000E-002   -1.780250984338498E-034
 -3.340000000000000E-002   -3.017539168928343E-034
 -3.330000000000000E-002   -4.733903001078513E-034
 -3.320000000000000E-002   -6.912047519536290E-034
 -3.310000000000000E-002   -9.358794156537175E-034
 -3.300000000000000E-002   -1.157190443362729E-033
 -3.290000000000000E-002   -1.256205338909530E-033
 -3.280000000000000E-002   -1.063849185693089E-033
 -3.270000000000000E-002   -3.186234230693887E-034
 -3.260000000000000E-002    1.350777345632502E-033
 -3.250000000000000E-002    4.428103172714105E-033
 -3.240000000000000E-002    9.482473501387191E-033
 -3.230000000000000E-002    1.709097685747387E-032
 -3.220000000000000E-002    2.768525303757233E-032
 -3.210000000000000E-002    4.129369725720347E-032
 -3.200000000000000E-002    5.715351565482036E-032
 -3.190000000000000E-002    7.317846341919148E-032
 -3.180000000000000E-002    8.529331014375989E-032
 -3.170000000000000E-002    8.668996731515665E-032
 -3.160000000000000E-002    6.712669356711829E-032
 -3.150000000000000E-002    1.248270598645977E-032
 -3.140000000000000E-002   -9.510678909005566E-032
 -3.130000000000000E-002   -2.760869587264214E-031
 -3.120000000000000E-002   -5.507302989281726E-031
 -3.110000000000000E-002   -9.341676136913374E-031
 -3.100000000000000E-002   -1.428609005684191E-030
 -3.090000000000000E-002   -2.012358940731924E-030
 -3.080000000000000E-002   -2.625670781575250E-030
 -3.070000000000000E-002   -3.154250250343620E-030
 -3.060000000000000E-002   -3.412355743732358E-030
 -3.050000000000000E-002   -3.128983128825958E-030
 -3.040000000000000E-002   -1.942476227986656E-030
 -3.030000000000000E-002    5.891008304396569E-031
 -3.020000000000000E-002    4.952722843106010E-030
 -3.010000000000000E-002    1.161017642281900E-029
 -3.000000000000000E-002    2.088322133740822E-029
 -2.990000000000000E-002    3.278740525895013E-029
 -2.980000000000000E-002    4.681406138228417E-029
 -2.970000000000000E-002    6.167048863715749E-029
 -2.960000000000000E-002    7.500353940129335E-029
 -2.950000000000000E-002    8.315154556961571E-029
 -2.940000000000000E-002    8.099258876514879E-029
 -2.930000000000000E-002    6.198060506312563E-029
 -2.920000000000000E-002    1.848065243863392E-029
 -2.910000000000000E-002   -5.747596834052472E-029
 -2.900000000000000E-002   -1.729045216153009E-028
 -2.890000000000000E-002   -3.319709108461203E-028
 -2.880000000000000E-002   -5.334812644518350E-028
 -2.870000000000000E-002   -7.678636490657811E-028
 -2.860000000000000E-002   -1.013904398222488E-027
 -2.850000000000000E-002   -1.235694038261374E-027
 -2.840000000000000E-002   -1.380452102013277E-027
 -2.830000000000000E-002   -1.378104936725799E-027
 -2.820000000000000E-002   -1.143647408762751E-027
 -2.810000000000000E-002   -5.833700120905247E-028
 -2.800000000000000E-002    3.940827061565680E-028
 -2.790000000000000E-002    1.861198739547396E-027
 -2.780000000000000E-002    3.849633020675466E-027
 -2.770000000000000E-002    6.323721561263145E-027
 -2.760000000000000E-002    9.151623181322143E-027
 -2.750000000000000E-002    1.207767100556516E-026
 -2.740000000000000E-002    1.470100252823947E-026
 -2.730000000000000E-002    1.646688380684163E-026
 -2.720000000000000E-002    1.667801950696641E-026
 -2.710000000000000E-002    1.453322259866412E-026
 -2.700000000000000E-002    9.199756655981507E-027
 -2.690000000000000E-002   -7.687931477191062E-029
 -2.680000000000000E-002   -1.382613946450614E-026
 -2.670000000000000E-002   -3.217485266287900E-026
 -2.660000000000000E-002   -5.465239717920797E-026
 -2.650000000000000E-002   -8.000015664231306E-026
 -2.640000000000000E-002   -1.060147190451278E-025
 -2.630000000000000E-002   -1.294607033752479E-025
 -2.620000000000000E-002   -1.460927095814550E-025
 -2.610000000000000E-002   -1.508248880129961E-025
 -2.600000000000000E-002   -1.380798582263344E-025
 -2.590000000000000E-002   -1.023348982064063E-025
 -2.580000000000000E-002   -3.886224515361024E-026
 -2.570000000000000E-002    5.536699990904365E-026
 -2.560000000000000E-002    1.806780673445851E-025
 -2.550000000000000E-002    3.336831711132255E-025
 -2.540000000000000E-002    5.063948289972392E-025
 -2.530000000000000E-002    6.856120498483024E-025
 -2.520000000000000E-002    8.527397343611278E-025
 -2.510000000000000E-002    9.841933132933368E-025
 -2.500000000000000E-002    1.052511208608287E-024
 -2.490000000000000E-002    1.028245394640675E-024
 -2.480000000000000E-002    8.826258606093241E-025
 -2.470000000000000E-002    5.909052800281615E-025
 -2.460000000000000E-002    1.361887553996043E-025
 -2.450000000000000E-002   -4.865413459494181E-025
 -2.440000000000000E-002   -1.266580612274498E-024
 -2.430000000000000E-002   -2.174268023884847E-024
 -2.420000000000000E-002   -3.158811605516993E-024
 -2.410000000000000E-002   -4.147597119581688E-024
 -2.400000000000000E-002   -5.047333200202588E-024
 -2.390000000000000E-002   -5.747273410880337E-024
 -2.380000000000000E-002   -6.124610198923193E-024
 -2.370000000000000E-002   -6.051981015876010E-024
 -2.360000000000000E-002   -5.406871544271221E-024
 -2.350000000000000E-002   -4.082568266091384E-024
 -2.340000000000000E-002   -2.000208733684572E-024
 -2.330000000000000E-002    8.785795457632241E-025
 -2.320000000000000E-002    4.539005916252121E-024
 -2.310000000000000E-002    8.900983281178247E-024
 -2.300000000000000E-002    1.380816405613539E-023
 -2.290000000000000E-002    1.901887894646929E-023
 -2.280000000000000E-002    2.419989458659824E-023
 -2.270000000000000E-002    2.892420183865986E-023
 -2.260000000000000E-002    3.267441214531000E-023
 -2.250000000000000E-002    3.485373931555929E-023
 -2.240000000000000E-002    3.480691849048988E-023
 -2.230000000000000E-002    3.185354872827343E-023
 -2.220000000000000E-002    2.533618911440372E-023
 -2.210000000000000E-002    1.468483036975816E-023
 -2.200000000000000E-002   -5.020120726489332E-025
 -2.190000000000000E-002   -2.036142252368025E-023
 -2.180000000000000E-002   -4.466018198308851E-023
 -2.170000000000000E-002   -7.268698065764003E-023
 -2.160000000000000E-002   -1.031547209446739E-022
 -2.150000000000000E-002   -1.341283508099271E-022
 -2.140000000000000E-002   -1.629965197596097E-022
 -2.130000000000000E-002   -1.865064431359949E-022
 -2.120000000000000E-002   -2.008804732716380E-022
 -2.110000000000000E-002   -2.020287605735105E-022
 -2.100000000000000E-002   -1.858653362714031E-022
 -2.090000000000000E-002   -1.487242573880311E-022
 -2.080000000000000E-002   -8.785905307502859E-023
 -2.070000000000000E-002   -1.993216231376259E-024
 -2.060000000000000E-002    1.081262954311684E-022
 -2.050000000000000E-002    2.392348976569111E-022
 -2.040000000000000E-002    3.851880769943752E-022
 -2.030000000000000E-002    5.368077312204334E-022
 -2.020000000000000E-002    6.820090206167646E-022
 -2.010000000000000E-002    8.062649540752181E-022
 -2.000000000000000E-002    8.934408898848294E-022
 -1.990000000000000E-002    9.269941499791919E-022
 -1.980000000000000E-002    8.914924322674973E-022
 -1.970000000000000E-002    7.743547124412836E-022
 -1.960000000000000E-002    5.676727038782210E-022
 -1.950000000000000E-002    2.699301929144813E-022
 -1.940000000000000E-002   -1.125882190472326E-022
 -1.930000000000000E-002   -5.649146069740014E-022
 -1.920000000000000E-002   -1.063236753486796E-021
 -1.910000000000000E-002   -1.575609624532770E-021
 -1.900000000000000E-002   -2.063614394397115E-021
 -1.890000000000000E-002   -2.484941141454989E-021
 -1.880000000000000E-002   -2.796759460140958E-021
 -1.870000000000000E-002   -2.959619267647685E-021
 -1.860000000000000E-002   -2.941517667078758E-021
 -1.850000000000000E-002   -2.721684415870073E-021
 -1.840000000000000E-002   -2.293599700739139E-021
 -1.830000000000000E-002   -1.666774194469215E-021
 -1.820000000000000E-002   -8.669062824356741E-022
 -1.810000000000000E-002    6.581592589841630E-023
 -1.800000000000000E-002    1.080291178231449E-021
 -1.790000000000000E-002    2.119716576816837E-021
 -1.780000000000000E-002    3.127924967171441E-021
 -1.770000000000000E-002    4.056069035699715E-021
 -1.760000000000000E-002    4.868677713755090E-021
 -1.750000000000000E-002    5.548008716379096E-021
 -1.740000000000000E-002    6.095656452579951E-021
 -1.730000000000000E-002    6.530581082307547E-021
 -1.720000000000000E-002    6.883098452703308E-021
 -1.710000000000000E-002    7.184910899788810E-021
 -1.700000000000000E-002    7.455917789941690E-021
 -1.690000000000000E-002    7.689264713547907E-021
 -1.680000000000000E-002    7.836753571952021E-021
 -1.670000000000000E-002    7.797268789851754E-021
 -1.660000000000000E-002    7.411143642154709E-021
 -1.650000000000000E-002    6.463275274649354E-021
 -1.640000000000000E-002    4.697246149169345E-021
 -1.630000000000000E-002    1.841677043310180E-021
 -1.620000000000000E-002   -2.351435589873454E-021
 -1.610000000000000E-002   -8.058497413857784E-021
 -1.600000000000000E-002   -1.533029647576664E-020
 -1.590000000000000E-002   -2.403820570822665E-020
 -1.580000000000000E-002   -3.382819865898086E-020
 -1.570000000000000E-002   -4.409111910093192E-020
 -1.560000000000000E-002   -5.395762228568137E-020
 -1.550000000000000E-002   -6.232486496965866E-020
 -1.540000000000000E-002   -6.791954777713536E-020
 -1.530000000000000E-002   -6.939806008025985E-020
 -1.520000000000000E-002   -6.547990765355882E-020
 -1.510000000000000E-002   -5.510519249384575E-020
 -1.500000000000000E-002   -3.760193790549939E-020
 -1.490000000000000E-002   -1.284468920387982E-020
 -1.480000000000000E-002    1.861677627721937E-020
 -1.470000000000000E-002    5.548021597920678E-020
 -1.460000000000000E-002    9.568412371311132E-020
 -1.450000000000000E-002    1.364848976862653E-019
 -1.440000000000000E-002    1.746229645623305E-019
 -1.430000000000000E-002    2.065722503091416E-019
 -1.420000000000000E-002    2.288556019848401E-019
 -1.410000000000000E-002    2.383971713164865E-019
 -1.400000000000000E-002    2.328735076991842E-019
 -1.390000000000000E-002    2.110192296570472E-019
 -1.380000000000000E-002    1.728427478115125E-019
 -1.370000000000000E-002    1.197134150528597E-019
 -1.360000000000000E-002    5.429370666805478E-020
 -1.350000000000000E-002   -1.969171027692582E-020
 -1.340000000000000E-002   -9.783571178984942E-020
 -1.330000000000000E-002   -1.755391678906278E-019
 -1.320000000000000E-002   -2.485515249172437E-019
 -1.310000000000000E-002   -3.134845472225108E-019
 -1.300000000000000E-002   -3.682141599329740E-019
 -1.290000000000000E-002   -4.120897398385398E-019
 -1.280000000000000E-002   -4.458875012643042E-019
 -1.270000000000000E-002   -4.714751802104118E-019
 -1.260000000000000E-002   -4.911970596609564E-019
 -1.250000000000000E-002   -5.070362768436505E-019
 -1.240000000000000E-002   -5.196594139802143E-019
 -1.230000000000000E-002   -5.274904406955135E-019
 -1.220000000000000E-002   -5.259867315056267E-019
 -1.210000000000000E-002   -5.072951624033839E-019
 -1.200000000000000E-002   -4.604445731109913E-019
 -1.190000000000000E-002   -3.721801741253583E-019
 -1.180000000000000E-002   -2.284697212244144E-019
 -1.170000000000000E-002   -1.661454354983197E-020
 -1.160000000000000E-002    2.722065512758807E-019
 -1.150000000000000E-002    6.402337062294982E-019
 -1.140000000000000E-002    1.080616292523082E-018
 -1.130000000000000E-002    1.575495571587276E-018
 -1.120000000000000E-002    2.095075850543959E-018
 -1.110000000000000E-002    2.598020229606681E-018
 -1.100000000000000E-002    3.033390644488919E-018
 -1.090000000000000E-002    3.344186214523933E-018
 -1.080000000000000E-002    3.472330035060927E-018
 -1.070000000000000E-002    3.364743511576017E-018
 -1.060000000000000E-002    2.979944949417802E-018
 -1.050000000000000E-002    2.294459841368405E-018
 -1.040000000000000E-002    1.308246969394159E-018
 -1.030000000000000E-002    4.835854232176129E-020
 -1.020000000000000E-002   -1.429827726542754E-018
 -1.010000000000000E-002   -3.044244595844563E-018
 -1.000000000000000E-002   -4.690777431436197E-018
 -9.899999999999999E-003   -6.250686782198509E-018
 -9.800000000000000E-003   -7.600216379851697E-018
 -9.699999999999999E-003   -8.621464978999598E-018
 -9.599999999999999E-003   -9.213356099250651E-018
 -9.500000000000000E-003   -9.301438604061060E-018
 -9.399999999999999E-003   -8.845304118258642E-018
 -9.299999999999999E-003   -7.842633406777971E-018
 -9.200000000000000E-003   -6.329276494331500E-018
 -9.099999999999999E-003   -4.375260946133898E-018
 -8.999999999999999E-003   -2.077185005077590E-018
 -8.900000000000000E-003    4.520127074489379E-019
 -8.799999999999999E-003    3.094484362409636E-018
 -8.699999999999999E-003    5.738433799226083E-018
 -8.600000000000000E-003    8.286904494780240E-018
 -8.499999999999999E-003    1.066295778046219E-017
 -8.399999999999999E-003    1.281027074780292E-017
 -8.300000000000000E-003    1.468892020810946E-017
 -8.199999999999999E-003    1.626691023373290E-017
 -8.100000000000000E-003    1.750883499213518E-017
 -8.000000000000000E-003    1.836376114726055E-017
 -7.899999999999999E-003    1.875486162590829E-017
 -7.800000000000000E-003    1.857342198724979E-017
 -7.699999999999999E-003    1.767951161376493E-017
 -7.599999999999999E-003    1.591088110311414E-017
 -7.499999999999999E-003    1.310053778076632E-017
 -7.399999999999999E-003    9.102131186493638E-018
 -7.299999999999999E-003    3.820850604565335E-018
 -7.199999999999999E-003   -2.753703646180143E-018
 -7.100000000000000E-003   -1.051716226165149E-017
 -6.999999999999999E-003   -1.922741113199438E-017
 -6.899999999999999E-003   -2.849363085815027E-017
 -6.800000000000000E-003   -3.778105181911127E-017
 -6.699999999999999E-003   -4.643355528013070E-017
 -6.599999999999999E-003   -5.371419266765080E-017
 -6.499999999999999E-003   -5.886140384018147E-017
 -6.399999999999999E-003   -6.115646391762918E-017
 -6.299999999999999E-003   -5.999583143392021E-017
 -6.199999999999999E-003   -5.496082826438872E-017
 -6.100000000000000E-003   -4.587676259635711E-017
 -5.999999999999999E-003   -3.285433696919677E-017
 -5.899999999999999E-003   -1.630774613857928E-017
 -5.800000000000000E-003    3.053620604077458E-018
 -5.699999999999999E-003    2.426002080488323E-017
 -5.599999999999999E-003    4.613975927369771E-017
 -5.499999999999999E-003    6.739554901805286E-017
 -5.399999999999999E-003    8.669106677172586E-017
 -5.299999999999999E-003    1.027391505878485E-016
 -5.199999999999999E-003    1.143832646204111E-016
 -5.099999999999999E-003    1.206654961587002E-016
 -4.999999999999999E-003    1.208767351181661E-016
 -4.899999999999999E-003    1.145879902942849E-016
 -4.799999999999999E-003    1.016647858271695E-016
 -4.699999999999999E-003    8.226933589035421E-017
 -4.599999999999999E-003    5.685661557131850E-017
 -4.499999999999999E-003    2.617071995105594E-017
 -4.399999999999999E-003   -8.754151178162302E-018
 -4.299999999999999E-003   -4.658637638013150E-017
 -4.199999999999999E-003   -8.568641666821723E-017
 -4.099999999999999E-003   -1.241005714862008E-016
 -3.999999999999999E-003   -1.595707751244277E-016
 -3.899999999999999E-003   -1.895747328682246E-016
 -3.799999999999999E-003   -2.114111385646230E-016
 -3.699999999999999E-003   -2.223418005507279E-016
 -3.599999999999999E-003   -2.197960409262963E-016
 -3.499999999999999E-003   -2.016346523661921E-016
 -3.399999999999999E-003   -1.664583758591584E-016
 -3.299999999999999E-003   -1.139347755848342E-016
 -3.199999999999999E-003   -4.510611648732444E-017
 -3.099999999999999E-003    3.736696216423310E-017
 -2.999999999999999E-003    1.290743387771143E-016
 -2.899999999999999E-003    2.238832026950009E-016
 -2.799999999999999E-003    3.141580192899471E-016
 -2.699999999999999E-003    3.911915553074744E-016
 -2.599999999999999E-003    4.458428369903715E-016
 -2.499999999999999E-003    4.693501694403792E-016
 -2.399999999999999E-003    4.542614800153248E-016
 -2.299999999999999E-003    3.953987735727004E-016
 -2.199999999999999E-003    2.907562063289054E-016
 -2.099999999999999E-003    1.422221561552315E-016
 -1.999999999999999E-003   -4.397966640020872E-017
 -1.899999999999999E-003   -2.572190918135365E-016
 -1.799999999999999E-003   -4.828167588279140E-016
 -1.699999999999999E-003   -7.028484965500832E-016
 -1.599999999999999E-003   -8.973680163508697E-016
 -1.499999999999999E-003   -1.045970523359557E-015
 -1.399999999999999E-003   -1.129574987533937E-015
 -1.299999999999999E-003   -1.132267087434789E-015
 -1.199999999999999E-003   -1.043026259189885E-015
 -1.099999999999999E-003   -8.571565743362497E-016
 -9.999999999999989E-004   -5.772621731978857E-016
 -8.999999999999990E-004   -2.136440158412921E-016
 -7.999999999999990E-004    2.159504381604391E-016
 -6.999999999999989E-004    6.872293920483861E-016
 -5.999999999999990E-004    1.170848319879483E-015
 -4.999999999999989E-004    1.634366109483336E-015
 -3.999999999999989E-004    2.044492299089058E-015
 -2.999999999999989E-004    2.369422253335048E-015
 -1.999999999999989E-004    2.581050442223268E-015
 -9.999999999999892E-005    2.656872367789551E-015
  1.084202172485504E-018    2.581425033982016E-015
  1.000000000000011E-004    2.347179500269638E-015
  2.000000000000011E-004    1.954861386623393E-015
  3.000000000000011E-004    1.413252092105951E-015
  4.000000000000011E-004    7.385752686568573E-016
  5.000000000000011E-004   -4.638728506924466E-017
  6.000000000000011E-004   -9.132865135060794E-016
  7.000000000000011E-004   -1.829163305022744E-015
  8.000000000000011E-004   -2.757270436272578E-015
  9.000000000000012E-004   -3.657721034808096E-015
  1.000000000000001E-003   -4.488004907130451E-015
  1.100000000000001E-003   -5.203483962985966E-015
  1.200000000000001E-003   -5.758042758560492E-015
  1.300000000000001E-003   -6.105101946985789E-015
  1.400000000000001E-003   -6.199192435143459E-015
  1.500000000000001E-003   -5.998248816778650E-015
  1.600000000000001E-003   -5.466677442946111E-015
  1.700000000000001E-003   -4.579142952968401E-015
  1.800000000000001E-003   -3.324860355399804E-015
  1.900000000000001E-003   -1.712028717410053E-015
  2.000000000000001E-003    2.280815147906544E-016
  2.100000000000001E-003    2.437968928089233E-015
  2.200000000000001E-003    4.832282519499832E-015
  2.300000000000001E-003    7.298304638555369E-015
  2.400000000000001E-003    9.698978377607035E-015
  2.500000000000001E-003    1.187871254995509E-014
  2.600000000000001E-003    1.367192573048698E-014
  2.700000000000001E-003    1.491400768176753E-014
  2.800000000000001E-003    1.545404435784696E-014
  2.900000000000001E-003    1.516836445072970E-014
  3.000000000000001E-003    1.397376808383808E-014
  3.100000000000001E-003    1.183916323912040E-014
  3.200000000000001E-003    8.794320898786261E-015
  3.300000000000001E-003    4.934622339934769E-015
  3.400000000000001E-003    4.208989666694232E-016
  3.500000000000001E-003   -4.526118644683128E-015
  3.600000000000001E-003   -9.636787414521276E-015
  3.700000000000001E-003   -1.460848720705635E-014
  3.800000000000001E-003   -1.912554066996227E-014
  3.900000000000001E-003   -2.288167062763041E-014
  4.000000000000001E-003   -2.560324752245359E-014
  4.100000000000001E-003   -2.707135705282452E-014
  4.200000000000001E-003   -2.714071776992988E-014
  4.300000000000001E-003   -2.575363494941962E-014
  4.400000000000001E-003   -2.294755682137162E-014
  4.500000000000001E-003   -1.885526024538889E-014
  4.600000000000002E-003   -1.369732990709396E-014
  4.700000000000001E-003   -7.767268308683689E-015
  4.800000000000001E-003   -1.410235754613910E-015
  4.900000000000002E-003    5.002979002066809E-015
  5.000000000000001E-003    1.110465567453068E-014
  5.100000000000001E-003    1.655912906122657E-014
  5.200000000000001E-003    2.108952030281023E-014
  5.300000000000002E-003    2.449979898964306E-014
  5.400000000000001E-003    2.669011557922893E-014
  5.500000000000001E-003    2.766372272412177E-014
  5.600000000000002E-003    2.752462926285598E-014
  5.700000000000001E-003    2.646570348277906E-014
  5.800000000000001E-003    2.474791269789993E-014
  5.900000000000002E-003    2.267205568600839E-014
  6.000000000000001E-003    2.054510483955001E-014
  6.100000000000001E-003    1.864385750345077E-014
  6.200000000000002E-003    1.717899864079159E-014
  6.300000000000002E-003    1.626288287555610E-014
  6.400000000000001E-003    1.588427680954046E-014
  6.500000000000001E-003    1.589307086077292E-014
  6.600000000000002E-003    1.599741382185724E-014
  6.700000000000001E-003    1.577497845585393E-014
  6.800000000000001E-003    1.469911056286401E-014
  6.900000000000002E-003    1.217957102794387E-014
  7.000000000000001E-003    7.616305881345570E-015
  7.100000000000001E-003    4.634791028131814E-016
  7.200000000000002E-003   -9.700083161998872E-015
  7.300000000000002E-003   -2.309909982158560E-014
  7.400000000000001E-003   -3.969440369965848E-014
  7.500000000000001E-003   -5.912616789605343E-014
  7.600000000000002E-003   -8.067412212249759E-014
  7.700000000000001E-003   -1.032408378268734E-013
  7.800000000000001E-003   -1.253630911771475E-013
  7.900000000000001E-003   -1.452551507482576E-013
  8.000000000000002E-003   -1.608857040674076E-013
  8.100000000000001E-003   -1.700881371182105E-013
  8.200000000000001E-003   -1.707009289743450E-013
  8.300000000000002E-003   -1.607325122792825E-013
  8.400000000000001E-003   -1.385420134814868E-013
  8.500000000000002E-003   -1.030249168127330E-013
  8.600000000000002E-003   -5.379076747745570E-014
  8.700000000000001E-003    8.681277289898964E-015
  8.800000000000002E-003    8.292369924268077E-014
  8.900000000000002E-003    1.664126069621021E-013
  9.000000000000001E-003    2.555626239104918E-013
  9.100000000000002E-003    3.457942030644816E-013
  9.200000000000002E-003    4.316789153742744E-013
  9.300000000000001E-003    5.071634527813087E-013
  9.400000000000002E-003    5.658683005635795E-013
  9.500000000000001E-003    6.014505107677751E-013
  9.600000000000001E-003    6.080153008403004E-013
  9.700000000000002E-003    5.805558102230358E-013
  9.800000000000001E-003    5.153953866901772E-013
  9.900000000000001E-003    4.106048912075894E-013
  1.000000000000000E-002    2.663647454238139E-013
  1.010000000000000E-002    8.524209968786051E-014
  1.020000000000000E-002   -1.276447060351002E-013
  1.030000000000000E-002   -3.645980998216803E-013
  1.040000000000000E-002   -6.154678009056342E-013
  1.050000000000000E-002   -8.679415556868308E-013
  1.060000000000000E-002   -1.108002890728233E-012
  1.070000000000000E-002   -1.320545483037506E-012
  1.080000000000000E-002   -1.490126758750377E-012
  1.090000000000000E-002   -1.601829452957241E-012
  1.100000000000000E-002   -1.642191734222303E-012
  1.110000000000000E-002   -1.600158981143265E-012
  1.120000000000000E-002   -1.468000117074195E-012
  1.130000000000000E-002   -1.242130783044293E-012
  1.140000000000000E-002   -9.237838744930842E-013
  1.150000000000000E-002   -5.194678302205865E-013
  1.160000000000000E-002   -4.116440456588078E-014
  1.170000000000000E-002    4.937767993834367E-013
  1.180000000000000E-002    1.063071745886169E-012
  1.190000000000000E-002    1.640274398385968E-012
  1.200000000000000E-002    2.195873325986148E-012
  1.210000000000000E-002    2.698684133848319E-012
  1.220000000000000E-002    3.117476442522685E-012
  1.230000000000000E-002    3.422764813975281E-012
  1.240000000000000E-002    3.588658680638607E-012
  1.250000000000000E-002    3.594673072546509E-012
  1.260000000000000E-002    3.427368322416022E-012
  1.270000000000000E-002    3.081702629412458E-012
  1.280000000000000E-002    2.561983709894728E-012
  1.290000000000000E-002    1.882315567744456E-012
  1.300000000000000E-002    1.066464807685845E-012
  1.310000000000000E-002    1.471022308615820E-013
  1.320000000000000E-002   -8.355887410620796E-013
  1.330000000000000E-002   -1.835896802708401E-012
  1.340000000000000E-002   -2.805079548063618E-012
  1.350000000000000E-002   -3.694245445619507E-012
  1.360000000000000E-002   -4.457452523952551E-012
  1.370000000000000E-002   -5.054817931062222E-012
  1.380000000000000E-002   -5.455423389281787E-012
  1.390000000000000E-002   -5.639778296501632E-012
  1.400000000000000E-002   -5.601622549924281E-012
  1.410000000000000E-002   -5.348869209589709E-012
  1.420000000000000E-002   -4.903536087805201E-012
  1.430000000000000E-002   -4.300571058153086E-012
  1.440000000000000E-002   -3.585551851623265E-012
  1.450000000000000E-002   -2.811318314562104E-012
  1.460000000000000E-002   -2.033697454183311E-012
  1.470000000000000E-002   -1.306550421759089E-012
  1.480000000000000E-002   -6.764535897882025E-013
  1.490000000000000E-002   -1.774199910154245E-013
  1.500000000000000E-002    1.739413331833177E-013
  1.510000000000000E-002    3.823547219168677E-013
  1.520000000000000E-002    4.764737882228691E-013
  1.530000000000000E-002    5.097527075583935E-013
  1.540000000000000E-002    5.592597489630855E-013
  1.550000000000000E-002    7.222402637972568E-013
  1.560000000000000E-002    1.110353616359212E-012
  1.570000000000000E-002    1.841669243376086E-012
  1.580000000000000E-002    3.030679390523001E-012
  1.590000000000000E-002    4.776763167431670E-012
  1.600000000000000E-002    7.151716181181794E-012
  1.610000000000000E-002    1.018706930320661E-011
  1.620000000000000E-002    1.386210586635778E-011
  1.630000000000000E-002    1.809349192166489E-011
  1.640000000000000E-002    2.272752370347941E-011
  1.650000000000000E-002    2.753591485108186E-011
  1.660000000000000E-002    3.221598595766200E-011
  1.670000000000000E-002    3.639593895390972E-011
  1.680000000000000E-002    3.964570350921818E-011
  1.690000000000000E-002    4.149353855163888E-011
  1.700000000000000E-002    4.144828792132375E-011
  1.710000000000000E-002    3.902676656180488E-011
  1.720000000000000E-002    3.378549947631239E-011
  1.730000000000000E-002    2.535553554986324E-011
  1.740000000000000E-002    1.347884538027875E-011
  1.750000000000000E-002   -1.955629241512373E-012
  1.760000000000000E-002   -2.087826379052727E-011
  1.770000000000000E-002   -4.300968264331644E-011
  1.780000000000000E-002   -6.783859502288605E-011
  1.790000000000000E-002   -9.460869857828628E-011
  1.800000000000000E-002   -1.223167408504107E-010
  1.810000000000000E-002   -1.497233048519027E-010
  1.820000000000000E-002   -1.753776998563748E-010
  1.830000000000000E-002   -1.976574864674516E-010
  1.840000000000000E-002   -2.148228008395665E-010
  1.850000000000000E-002   -2.250845265476246E-010
  1.860000000000000E-002   -2.266851194778543E-010
  1.870000000000000E-002   -2.179894739806947E-010