 -4.000000000000000E-002    0.000000000000000E+000
 -3.990000000000000E-002    0.000000000000000E+000
 -3.980000000000000E-002    0.000000000000000E+000
 -3.970000000000000E-002    0.000000000000000E+000
 -3.960000000000000E-002    0.000000000000000E+000
 -3.950000000000000E-002    0.000000000000000E+000
 -3.940000000000000E-002    0.000000000000000E+000
 -3.930000000000000E-002    0.000000000000000E+000
 -3.920000000000000E-002    0.000000000000000E+000
 -3.910000000000000E-002    0.000000000000000E+000
 -3.900000000000000E-002    0.000000000000000E+000
 -3.890000000000000E-002    0.000000000000000E+000
 -3.880000000000000E-002    0.000000000000000E+000
 -3.870000000000000E-002    0.000000000000000E+000
 -3.860000000000000E-002    0.000000000000000E+000
 -3.850000000000000E-002    0.000000000000000E+000
 -3.840000000000000E-002    0.000000000000000E+000
 -3.830000000000000E-002    0.000000000000000E+000
 -3.820000000000000E-002    0.000000000000000E+000
 -3.810000000000000E-002    0.000000000000000E+000
 -3.800000000000000E-002    0.000000000000000E+000
 -3.790000000000000E-002    0.000000000000000E+000
 -3.780000000000000E-002    0.000000000000000E+000
 -3.770000000000000E-002    0.000000000000000E+000
 -3.760000000000000E-002    0.000000000000000E+000
 -3.750000000000000E-002    0.000000000000000E+000
 -3.740000000000000E-002    0.000000000000000E+000
 -3.730000000000000E-002    0.000000000000000E+000
 -3.720000000000000E-002    0.000000000000000E+000
 -3.710000000000000E-002    0.000000000000000E+000
 -3.700000000000000E-002    0.000000000000000E+000
 -3.690000000000000E-002    0.000000000000000E+000
 -3.680000000000000E-002    0.000000000000000E+000
 -3.670000000000000E-002    0.000000000000000E+000
 -3.660000000000000E-002    0.000000000000000E+000
 -3.650000000000000E-002    0.000000000000000E+000
 -3.640000000000000E-002    0.000000000000000E+000
 -3.630000000000000E-002    0.000000000000000E+000
 -3.620000000000000E-002    0.000000000000000E+000
 -3.610000000000000E-002    0.000000000000000E+000
 -3.600000000000000E-002    0.000000000000000E+000
 -3.590000000000000E-002    0.000000000000000E+000
 -3.580000000000000E-002    0.000000000000000E+000
 -3.570000000000000E-002    0.000000000000000E+000
 -3.560000000000000E-002    0.000000000000000E+000
 -3.550000000000000E-002    0.000000000000000E+000
 -3.540000000000000E-002    0.000000000000000E+000
 -3.530000000000000E-002    0.000000000000000E+000
 -3.520000000000000E-002    0.000000000000000E+000
 -3.510000000000000E-002    0.000000000000000E+000
 -3.500000000000000E-002    0.000000000000000E+000
 -3.490000000000000E-002    0.000000000000000E+000
 -3.480000000000000E-002    0.000000000000000E+000
 -3.470000000000000E-002    0.000000000000000E+000
 -3.460000000000000E-002    0.000000000000000E+000
 -3.450000000000000E-002    0.000000000000000E+000
 -3.440000000000000E-002    0.000000000000000E+000
 -3.430000000000000E-002    0.000000000000000E+000
 -3.420000000000000E-002    0.000000000000000E+000
 -3.410000000000000E-002    0.000000000000000E+000
 -3.400000000000000E-002    0.000000000000000E+000
 -3.390000000000000E-002    0.000000000000000E+000
 -3.380000000000000E-002    0.000000000000000E+000
 -3.370000000000000E-002    0.000000000000000E+000
 -3.360000000000000E-002    0.000000000000000E+000
 -3.350000000000000E-002    0.000000000000000E+000
 -3.340000000000000E-002    0.000000000000000E+000
 -3.330000000000000E-002    0.000000000000000E+000
 -3.320000000000000E-002    0.000000000000000E+000
 -3.310000000000000E-002    0.000000000000000E+000
 -3.300000000000000E-002    0.000000000000000E+000
 -3.290000000000000E-002    0.000000000000000E+000
 -3.280000000000000E-002    0.000000000000000E+000
 -3.270000000000000E-002    0.000000000000000E+000
 -3.260000000000000E-002    0.000000000000000E+000
 -3.250000000000000E-002    0.000000000000000E+000
 -3.240000000000000E-002    0.000000000000000E+000
 -3.230000000000000E-002    0.000000000000000E+000
 -3.220000000000000E-002    0.000000000000000E+000
 -3.210000000000000E-002    0.000000000000000E+000
 -3.200000000000000E-002    0.000000000000000E+000
 -3.190000000000000E-002    0.000000000000000E+000
 -3.180000000000000E-002    0.000000000000000E+000
 -3.170000000000000E-002    0.000000000000000E+000
 -3.160000000000000E-002    0.000000000000000E+000
 -3.150000000000000E-002    0.000000000000000E+000
 -3.140000000000000E-002    0.000000000000000E+000
 -3.130000000000000E-002    0.000000000000000E+000
 -3.120000000000000E-002    0.000000000000000E+000
 -3.110000000000000E-002    0.000000000000000E+000
 -3.100000000000000E-002    0.000000000000000E+000
 -3.090000000000000E-002    0.000000000000000E+000
 -3.080000000000000E-002    0.000000000000000E+000
 -3.070000000000000E-002    0.000000000000000E+000
 -3.060000000000000E-002    0.000000000000000E+000
 -3.050000000000000E-002    0.000000000000000E+000
 -3.040000000000000E-002    0.000000000000000E+000
 -3.030000000000000E-002    0.000000000000000E+000
 -3.020000000000000E-002    0.000000000000000E+000
 -3.010000000000000E-002    0.000000000000000E+000
 -3.000000000000000E-002    0.000000000000000E+000
 -2.990000000000000E-002    0.000000000000000E+000
 -2.980000000000000E-002    0.000000000000000E+000
 -2.970000000000000E-002    0.000000000000000E+000
 -2.960000000000000E-002    0.000000000000000E+000
 -2.950000000000000E-002    0.000000000000000E+000
 -2.940000000000000E-002    0.000000000000000E+000
 -2.930000000000000E-002    0.000000000000000E+000
 -2.920000000000000E-002    0.000000000000000E+000
 -2.910000000000000E-002    0.000000000000000E+000
 -2.900000000000000E-002    0.000000000000000E+000
 -2.890000000000000E-002    0.000000000000000E+000
 -2.880000000000000E-002    0.000000000000000E+000
 -2.870000000000000E-002    0.000000000000000E+000
 -2.860000000000000E-002    0.000000000000000E+000
 -2.850000000000000E-002    0.000000000000000E+000
 -2.840000000000000E-002    0.000000000000000E+000
 -2.830000000000000E-002    0.000000000000000E+000
 -2.820000000000000E-002    0.000000000000000E+000
 -2.810000000000000E-002    0.000000000000000E+000
 -2.800000000000000E-002    0.000000000000000E+000
 -2.790000000000000E-002    0.000000000000000E+000
 -2.780000000000000E-002    0.000000000000000E+000
 -2.770000000000000E-002    0.000000000000000E+000
 -2.760000000000000E-002    0.000000000000000E+000
 -2.750000000000000E-002    0.000000000000000E+000
 -2.740000000000000E-002    0.000000000000000E+000
 -2.730000000000000E-002    0.000000000000000E+000
 -2.720000000000000E-002    0.000000000000000E+000
 -2.710000000000000E-002    0.000000000000000E+000
 -2.700000000000000E-002    0.000000000000000E+000
 -2.690000000000000E-002    0.000000000000000E+000
 -2.680000000000000E-002    0.000000000000000E+000
 -2.670000000000000E-002    0.000000000000000E+000
 -2.660000000000000E-002    0.000000000000000E+000
 -2.650000000000000E-002    0.000000000000000E+000
 -2.640000000000000E-002    0.000000000000000E+000
 -2.630000000000000E-002    0.000000000000000E+000
 -2.620000000000000E-002    0.000000000000000E+000
 -2.610000000000000E-002    0.000000000000000E+000
 -2.600000000000000E-002    0.000000000000000E+000
 -2.590000000000000E-002    0.000000000000000E+000
 -2.580000000000000E-002    0.000000000000000E+000
 -2.570000000000000E-002    0.000000000000000E+000
 -2.560000000000000E-002    0.000000000000000E+000
 -2.550000000000000E-002    0.000000000000000E+000
 -2.540000000000000E-002    0.000000000000000E+000
 -2.530000000000000E-002    0.000000000000000E+000
 -2.520000000000000E-002    0.000000000000000E+000
 -2.510000000000000E-002    0.000000000000000E+000
 -2.500000000000000E-002    0.000000000000000E+000
 -2.490000000000000E-002    0.000000000000000E+000
 -2.480000000000000E-002    0.000000000000000E+000
 -2.470000000000000E-002    0.000000000000000E+000
 -2.460000000000000E-002    0.000000000000000E+000
 -2.450000000000000E-002    0.000000000000000E+000
 -2.440000000000000E-002    0.000000000000000E+000
 -2.430000000000000E-002    0.000000000000000E+000
 -2.420000000000000E-002    0.000000000000000E+000
 -2.410000000000000E-002    0.000000000000000E+000
 -2.400000000000000E-002    0.000000000000000E+000
 -2.390000000000000E-002    0.000000000000000E+000
 -2.380000000000000E-002    0.000000000000000E+000
 -2.370000000000000E-002    0.000000000000000E+000
 -2.360000000000000E-002    0.000000000000000E+000
 -2.350000000000000E-002    0.000000000000000E+000
 -2.340000000000000E-002    0.000000000000000E+000
 -2.330000000000000E-002    0.000000000000000E+000
 -2.320000000000000E-002    0.000000000000000E+000
 -2.310000000000000E-002    0.000000000000000E+000
 -2.300000000000000E-002    0.000000000000000E+000
 -2.290000000000000E-002    0.000000000000000E+000
 -2.280000000000000E-002    0.000000000000000E+000
 -2.270000000000000E-002    0.000000000000000E+000
 -2.260000000000000E-002    0.000000000000000E+000
 -2.250000000000000E-002    0.000000000000000E+000
 -2.240000000000000E-002    0.000000000000000E+000
 -2.230000000000000E-002    0.000000000000000E+000
 -2.220000000000000E-002    0.000000000000000E+000
 -2.210000000000000E-002    0.000000000000000E+000
 -2.200000000000000E-002    0.000000000000000E+000
 -2.190000000000000E-002   -1.879937540190326E-048
 -2.180000000000000E-002   -3.759875080380653E-048
 -2.170000000000000E-002   -5.639812620570979E-048
 -2.160000000000000E-002   -7.519750160761306E-048
 -2.150000000000000E-002   -1.303423370333390E-047
 -2.140000000000000E-002   -9.080652752486081E-048
 -2.130000000000000E-002    4.022946259974847E-048
 -2.120000000000000E-002   -1.941442656472190E-047
 -2.110000000000000E-002    1.015216738033161E-048
 -2.100000000000000E-002    1.586101118908860E-047
 -2.090000000000000E-002    1.893527780399444E-047
 -2.080000000000000E-002    4.713314891332019E-047
 -2.070000000000000E-002    1.024029388497250E-046
 -2.060000000000000E-002    1.182708424349293E-046
 -2.050000000000000E-002    1.708525855038334E-046
 -2.040000000000000E-002    1.990882227628795E-046
 -2.030000000000000E-002    1.971584139887013E-046
 -2.020000000000000E-002    2.322368918143259E-046
 -2.010000000000000E-002    1.816720296972789E-046
 -2.000000000000000E-002    1.220726206505267E-046
 -1.990000000000000E-002   -3.273972196872901E-047
 -1.980000000000000E-002   -2.119839710583657E-046
 -1.970000000000000E-002   -4.372521477263614E-046
 -1.960000000000000E-002   -1.098872939937527E-045
 -1.950000000000000E-002   -2.137927319097344E-045
 -1.940000000000000E-002   -3.846810988265750E-045
 -1.930000000000000E-002   -5.769708384371640E-045
 -1.920000000000000E-002   -7.899873378033256E-045
 -1.910000000000000E-002   -9.651944267624521E-045
 -1.900000000000000E-002   -1.060627553067601E-044
 -1.890000000000000E-002   -8.590542858448201E-045
 -1.880000000000000E-002   -2.856862854929237E-045
 -1.870000000000000E-002    9.440456493219263E-045
 -1.860000000000000E-002    2.897740530474357E-044
 -1.850000000000000E-002    5.729925257742696E-044
 -1.840000000000000E-002    9.152928563416597E-044
 -1.830000000000000E-002    1.256413145070618E-043
 -1.820000000000000E-002    1.504688255019264E-043
 -1.810000000000000E-002    1.506036721788362E-043
 -1.800000000000000E-002    1.069801022747720E-043
 -1.790000000000000E-002    1.645929721058929E-045
 -1.780000000000000E-002   -1.808536439224056E-043
 -1.770000000000000E-002   -4.429340412627292E-043
 -1.760000000000000E-002   -7.668629226884490E-043
 -1.750000000000000E-002   -1.103035462054699E-042
 -1.740000000000000E-002   -1.364079653138413E-042
 -1.730000000000000E-002   -1.424769991206859E-042
 -1.720000000000000E-002   -1.129592729170947E-042
 -1.710000000000000E-002   -3.185297453645315E-043
 -1.700000000000000E-002    1.134018777930219E-042
 -1.690000000000000E-002    3.257349042896306E-042
 -1.680000000000000E-002    5.919829754308960E-042
 -1.670000000000000E-002    8.755387460691759E-042
 -1.660000000000000E-002    1.111508608509386E-041
 -1.650000000000000E-002    1.205970712687768E-041
 -1.640000000000000E-002    1.042499683233677E-041
 -1.630000000000000E-002    4.988322678855525E-042
 -1.620000000000000E-002   -5.249514058508088E-042
 -1.610000000000000E-002   -2.067101529022996E-041
 -1.600000000000000E-002   -4.057030417945631E-041
 -1.590000000000000E-002   -6.268057936358940E-041
 -1.580000000000000E-002   -8.281622415243688E-041
 -1.570000000000000E-002   -9.478999377399648E-041
 -1.560000000000000E-002   -9.077613772425781E-041
 -1.550000000000000E-002   -6.228372110443311E-041
 -1.540000000000000E-002   -1.838243046521566E-042
 -1.530000000000000E-002    9.464244199879187E-041
 -1.520000000000000E-002    2.249806548426612E-040
 -1.510000000000000E-002    3.777987803077555E-040
 -1.500000000000000E-002    5.301633558830877E-040
 -1.490000000000000E-002    6.466908152445475E-040
 -1.480000000000000E-002    6.810775396608611E-040
 -1.470000000000000E-002    5.809620160381668E-040
 -1.460000000000000E-002    2.967042891044866E-040
 -1.450000000000000E-002   -2.059556006830435E-040
 -1.440000000000000E-002   -9.302975267579470E-040
 -1.430000000000000E-002   -1.832160620314364E-039
 -1.420000000000000E-002   -2.805926946817960E-039
 -1.410000000000000E-002   -3.677271286486193E-039
 -1.400000000000000E-002   -4.207594138212113E-039
 -1.390000000000000E-002   -4.114712679874882E-039
 -1.380000000000000E-002   -3.112965617921623E-039
 -1.370000000000000E-002   -9.730147988798126E-040
 -1.360000000000000E-002    2.402564035414017E-039
 -1.350000000000000E-002    6.897071841235084E-039
 -1.340000000000000E-002    1.210560358285033E-038
 -1.330000000000000E-002    1.728868018100775E-038
 -1.320000000000000E-002    2.137586805071244E-038
 -1.310000000000000E-002    2.304065744524232E-038
 -1.300000000000000E-002    2.086186719680148E-038
 -1.290000000000000E-002    1.357494954459756E-038
 -1.280000000000000E-002    3.989090784647293E-040
 -1.270000000000000E-002   -1.859741416209925E-038
 -1.260000000000000E-002   -4.214939166840743E-038
 -1.250000000000000E-002   -6.755105734968565E-038
 -1.240000000000000E-002   -9.060174771580744E-038
 -1.230000000000000E-002   -1.058340381493485E-037
 -1.220000000000000E-002   -1.070893961375627E-037
 -1.210000000000000E-002   -8.846258225378557E-038
 -1.200000000000000E-002   -4.556849947697453E-038
 -1.190000000000000E-002    2.299910219716484E-038
 -1.180000000000000E-002    1.142366290461498E-037
 -1.170000000000000E-002    2.196249088229727E-037
 -1.160000000000000E-002    3.246919811665299E-037
 -1.150000000000000E-002    4.095806685776000E-037
 -1.140000000000000E-002    4.508781513850507E-037
 -1.130000000000000E-002    4.248050378562282E-037
 -1.120000000000000E-002    3.116251403773366E-037
 -1.110000000000000E-002    1.008431143408076E-037
 -1.100000000000000E-002   -2.035508288178355E-037
 -1.090000000000000E-002   -5.787969112016274E-037
 -1.080000000000000E-002   -9.812065825363972E-037
 -1.070000000000000E-002   -1.347265821102096E-036
 -1.060000000000000E-002   -1.598878583947115E-036
 -1.050000000000000E-002   -1.653099922224242E-036
 -1.040000000000000E-002   -1.435943525132241E-036
 -1.030000000000000E-002   -8.989089222590218E-037
 -1.020000000000000E-002   -3.591217776006444E-038
 -1.010000000000000E-002    1.102513687384321E-036
 -1.000000000000000E-002    2.401313871715783E-036
 -9.899999999999999E-003    3.682739319212228E-036
 -9.800000000000000E-003    4.720467110282292E-036
 -9.699999999999999E-003    5.266931403136611E-036
 -9.599999999999999E-003    5.092446432285166E-036
 -9.500000000000000E-003    4.031949143203626E-036
 -9.399999999999999E-003    2.032473834762784E-036
 -9.299999999999999E-003   -8.076754841196266E-037
 -9.200000000000000E-003   -4.218000513615791E-036
 -9.099999999999999E-003   -7.762239897530920E-036
 -8.999999999999999E-003   -1.087829836135130E-035
 -8.900000000000000E-003   -1.295269870101355E-035
 -8.799999999999999E-003   -1.342381656951174E-035
 -8.699999999999999E-003   -1.190056104419169E-035
 -8.600000000000000E-003   -8.276220578791934E-036
 -8.499999999999999E-003   -2.812495537365652E-036
 -8.399999999999999E-003    3.832016935287416E-036
 -8.300000000000000E-003    1.065001365330144E-035
 -8.199999999999999E-003    1.642104356444475E-035
 -8.100000000000000E-003    1.992911261974645E-035
 -8.000000000000000E-003    2.023740899710842E-035
 -7.899999999999999E-003    1.697495597797445E-035
 -7.800000000000000E-003    1.057350745906087E-035
 -7.699999999999999E-003    2.384735121781900E-036
 -7.599999999999999E-003   -5.387507415420216E-036
 -7.499999999999999E-003   -9.984661055222428E-036
 -7.399999999999999E-003   -8.628525568148086E-036
 -7.299999999999999E-003    7.488983457620288E-037
 -7.199999999999999E-003    1.868145442586726E-035
 -7.100000000000000E-003    4.340667870793616E-035
 -6.999999999999999E-003    7.036104963295746E-035
 -6.899999999999999E-003    9.213931319183031E-035
 -6.800000000000000E-003    9.909583824219003E-035
 -6.699999999999999E-003    8.068991911836420E-035
 -6.599999999999999E-003    2.755538043655762E-035
 -6.499999999999999E-003   -6.588265921802832E-035
 -6.399999999999999E-003   -1.985932224284258E-034
 -6.299999999999999E-003   -3.604344560832450E-034
 -6.199999999999999E-003   -5.305726012678317E-034
 -6.100000000000000E-003   -6.774603072470624E-034
 -5.999999999999999E-003   -7.609146577772459E-034
 -5.899999999999999E-003   -7.366082214924228E-034
 -5.800000000000000E-003   -5.629322879226653E-034
 -5.699999999999999E-003   -2.097408523064280E-034
 -5.599999999999999E-003    3.320091010007666E-034
 -5.499999999999999E-003    1.041158656102595E-033
 -5.399999999999999E-003    1.859556246633320E-033
 -5.299999999999999E-003    2.689446003888776E-033
 -5.199999999999999E-003    3.396721726416123E-033
 -5.099999999999999E-003    3.821213343677959E-033
 -4.999999999999999E-003    3.794326649889130E-033
 -4.899999999999999E-003    3.163252978499705E-033
 -4.799999999999999E-003    1.819729152851287E-033
 -4.699999999999999E-003   -2.698828005643829E-034
 -4.599999999999999E-003   -3.037393739307620E-033
 -4.499999999999999E-003   -6.293211406657275E-033
 -4.399999999999999E-003   -9.719091874564609E-033
 -4.299999999999999E-003   -1.287720269638660E-032
 -4.199999999999999E-003   -1.523806090375596E-032
 -4.099999999999999E-003   -1.622791834829334E-032
 -3.999999999999999E-003   -1.529376979737037E-032
 -3.899999999999999E-003   -1.198160563643995E-032
 -3.799999999999999E-003   -6.021210458720777E-033
 -3.699999999999999E-003    2.591167070603549E-033
 -3.599999999999999E-003    1.352214374747564E-032
 -3.499999999999999E-003    2.605287844004209E-032
 -3.399999999999999E-003    3.906296938084046E-032
 -3.299999999999999E-003    5.105528673842004E-032
 -3.199999999999999E-003    6.022844889889636E-032
 -3.099999999999999E-003    6.460107339128858E-032
 -2.999999999999999E-003    6.218869909976685E-032
 -2.899999999999999E-003    5.123025680067826E-032
 -2.799999999999999E-003    3.045592730672403E-032
 -2.699999999999999E-003   -6.179621871887670E-034
 -2.599999999999999E-003   -4.138894180233443E-032
 -2.499999999999999E-003   -8.989426073608635E-032
 -2.399999999999999E-003   -1.426028806765673E-031
 -2.299999999999999E-003   -1.943229214601647E-031
 -2.199999999999999E-003   -2.382799835546474E-031
 -2.099999999999999E-003   -2.664223838101829E-031
 -1.999999999999999E-003   -2.700016631903924E-031
 -1.899999999999999E-003   -2.404572080583170E-031
 -1.799999999999999E-003   -1.706006947567960E-031
 -1.699999999999999E-003   -5.604893591906194E-032
 -1.599999999999999E-003    1.032057058419579E-031
 -1.499999999999999E-003    3.012633530886041E-031
 -1.399999999999999E-003    5.250627368353447E-031
 -1.299999999999999E-003    7.536930403543599E-031
 -1.199999999999999E-003    9.585796410327047E-031
 -1.099999999999999E-003    1.104828462407622E-030
 -9.999999999999989E-004    1.153936203785074E-030
 -8.999999999999990E-004    1.067935590765905E-030
 -7.999999999999990E-004    8.148469432566863E-031
 -6.999999999999989E-004    3.750653696809898E-031
 -5.999999999999990E-004   -2.519513085639003E-031
 -4.999999999999989E-004   -1.041577265780368E-030
 -3.999999999999989E-004   -1.939568951172514E-030
 -2.999999999999989E-004   -2.860423022113369E-030
 -1.999999999999989E-004   -3.689626432059536E-030
 -9.999999999999892E-005   -4.290625318126321E-030
  1.084202172485504E-018   -4.516891052009454E-030
  1.000000000000011E-004   -4.228825464640033E-030
  2.000000000000011E-004   -3.314492509173524E-030
  3.000000000000011E-004   -1.712334129996727E-030
  4.000000000000011E-004    5.667198718106583E-031
  5.000000000000011E-004    3.420931251635717E-030
  6.000000000000011E-004    6.646670595503218E-030
  7.000000000000011E-004    9.937888564267336E-030
  8.000000000000011E-004    1.289881030164586E-029
  9.000000000000012E-004    1.507140235399179E-029
  1.000000000000001E-003    1.597755229804003E-029
  1.100000000000001E-003    1.517396852636550E-029
  1.200000000000001E-003    1.231574813480192E-029
  1.300000000000001E-003    7.222581639139630E-030
  1.400000000000001E-003   -6.000026806558833E-032
  1.500000000000001E-003   -9.212882306616055E-030
  1.600000000000001E-003   -1.961771936288009E-029
  1.700000000000001E-003   -3.036099691818392E-029
  1.800000000000001E-003   -4.027339301595589E-029
  1.900000000000001E-003   -4.800698781949925E-029
  2.000000000000001E-003   -5.214904035266597E-029
  2.100000000000001E-003   -5.136687472488914E-029
  2.200000000000001E-003   -4.457395565736031E-029
  2.300000000000001E-003   -3.110343545372134E-029
  2.400000000000001E-003   -1.087224580878379E-029
  2.500000000000001E-003    1.548302096297919E-029
  2.600000000000001E-003    4.651767214560391E-029
  2.700000000000001E-003    7.995572816951548E-029
  2.800000000000001E-003    1.127468547458747E-028
  2.900000000000001E-003    1.412133500653919E-028
  3.000000000000001E-003    1.612910257487258E-028
  3.100000000000001E-003    1.688598682574615E-028
  3.200000000000001E-003    1.601519541844859E-028
  3.300000000000001E-003    1.322145608298208E-028
  3.400000000000001E-003    8.339715337801469E-029
  3.500000000000001E-003    1.382159921407303E-029
  3.600000000000001E-003   -7.421288894177181E-029
  3.700000000000001E-003   -1.759442021589690E-028
  3.800000000000001E-003   -2.840383760045908E-028
  3.900000000000001E-003   -3.887118633510491E-028
  4.000000000000001E-003   -4.781324441261086E-028
  4.100000000000001E-003   -5.391308402703274E-028
  4.200000000000001E-003   -5.582324558186692E-028
  4.300000000000001E-003   -5.229875465025160E-028
  4.400000000000001E-003   -4.235407693928083E-028
  4.500000000000001E-003   -2.543365777271452E-028
  4.600000000000002E-003   -1.581411376650239E-029
  4.700000000000001E-003    2.840966763091394E-028
  4.800000000000001E-003    6.288961147305864E-028
  4.900000000000002E-003    9.930862204723140E-028
  5.000000000000001E-003    1.342615386693967E-027
  5.100000000000001E-003    1.636380426355691E-027
  5.200000000000001E-003    1.828897812723021E-027
  5.300000000000002E-003    1.874151017659898E-027
  5.400000000000001E-003    1.730486461853212E-027
  5.500000000000001E-003    1.366274140928474E-027
  5.600000000000002E-003    7.658903639118646E-028
  5.700000000000001E-003   -6.457390105039529E-029
  5.800000000000001E-003   -1.092590567313170E-027
  5.900000000000002E-003   -2.256235282701574E-027
  6.000000000000001E-003   -3.463755679925061E-027
  6.100000000000001E-003   -4.596328552534635E-027
  6.200000000000002E-003   -5.514464503782049E-027
  6.300000000000002E-003   -6.068214223395003E-027
  6.400000000000001E-003   -6.110942706429136E-027
  6.500000000000001E-003   -5.515980391232038E-027
  6.600000000000002E-003   -4.194991187218487E-027
  6.700000000000001E-003   -2.116443208389865E-027
  6.800000000000001E-003    6.778057044280421E-028
  6.900000000000002E-003    4.060024779137924E-027
  7.000000000000001E-003    7.810497870209696E-027
  7.100000000000001E-003    1.161984803947269E-026
  7.200000000000002E-003    1.510141886869983E-026
  7.300000000000002E-003    1.781461255252144E-026
  7.400000000000001E-003    1.929910940334866E-026
  7.500000000000001E-003    1.911874367476926E-026
  7.600000000000002E-003    1.691252836637393E-026
  7.700000000000001E-003    1.244906056328611E-026
  7.800000000000001E-003    5.679366861735989E-027
  7.900000000000001E-003   -3.217615526160412E-027
  8.000000000000002E-003   -1.380320407675989E-026
  8.100000000000001E-003   -2.536699295818949E-026
  8.200000000000001E-003   -3.694023265038576E-026
  8.300000000000002E-003   -4.733862247743807E-026
  8.400000000000001E-003   -5.523646398111011E-026
  8.500000000000002E-003   -5.927133597985373E-026
  8.600000000000002E-003   -5.817517659498374E-026
  8.700000000000001E-003   -5.092411784355731E-026
  8.800000000000002E-003   -3.689586801991688E-026
  8.900000000000002E-003   -1.602028489853078E-026
  9.000000000000001E-003    1.109354592230688E-026
  9.100000000000002E-003    4.307176278614947E-026
  9.200000000000002E-003    7.774914519981840E-026
  9.300000000000001E-003    1.122170151023363E-025
  9.400000000000002E-003    1.429566730217903E-025
  9.500000000000001E-003    1.660632744654367E-025
  9.600000000000001E-003    1.775568489822770E-025
  9.700000000000002E-003    1.737676584882037E-025
  9.800000000000001E-003    1.517728054448427E-025
  9.900000000000001E-003    1.098507445839465E-025
  1.000000000000000E-002    4.791156969734516E-026
  1.010000000000000E-002   -3.214586766584913E-026
  1.020000000000000E-002   -1.262015682247975E-025
  1.030000000000000E-002   -2.278569568637280E-025
  1.040000000000000E-002   -3.285951723007682E-025
  1.050000000000000E-002   -4.181887815050671E-025
  1.060000000000000E-002   -4.853656911840730E-025
  1.070000000000000E-002   -5.187199586117970E-025
  1.080000000000000E-002   -5.078262960767262E-025
  1.090000000000000E-002   -4.444881493069778E-025
  1.100000000000000E-002   -3.240204160677122E-025
  1.110000000000000E-002   -1.464442940266253E-025
  1.120000000000000E-002    8.254414898170901E-026
  1.130000000000000E-002    3.509762199132877E-025
  1.140000000000000E-002    6.405191562836643E-025
  1.150000000000000E-002    9.270028284609700E-025
  1.160000000000000E-002    1.181636208689507E-024
  1.170000000000000E-002    1.372930135531722E-024
  1.180000000000000E-002    1.469273643529278E-024
  1.190000000000000E-002    1.442035975968815E-024
  1.200000000000000E-002    1.268988059651750E-024
  1.210000000000000E-002    9.377643453851740E-025
  1.220000000000000E-002    4.490281221456540E-025
  1.230000000000000E-002   -1.810317004402708E-025
  1.240000000000000E-002   -9.192493316363639E-025
  1.250000000000000E-002   -1.715420290539094E-024
  1.260000000000000E-002   -2.503900997700406E-024
  1.270000000000000E-002   -3.207027598402516E-024
  1.280000000000000E-002   -3.740360582429541E-024
  1.290000000000000E-002   -4.019586448947739E-024
  1.300000000000000E-002   -3.968708522432583E-024
  1.310000000000000E-002   -3.528970361830936E-024
  1.320000000000000E-002   -2.667778258526663E-024
  1.330000000000000E-002   -1.386757184303784E-024
  1.340000000000000E-002    2.719964189593594E-025
  1.350000000000000E-002    2.222399668394091E-024
  1.360000000000000E-002    4.334440014359649E-024
  1.370000000000000E-002    6.438446587285645E-024
  1.380000000000000E-002    8.333923746170726E-024
  1.390000000000000E-002    9.802928511022279E-024
  1.400000000000000E-002    1.062753105728277E-023
  1.410000000000000E-002    1.061042324124782E-023
  1.420000000000000E-002    9.597290326998581E-024
  1.430000000000000E-002    7.499139316159969E-024
  1.440000000000000E-002    4.312470508711215E-024
  1.450000000000000E-002    1.350160558278882E-025
  1.460000000000000E-002   -4.825220420090694E-024
  1.470000000000000E-002   -1.024964411874161E-023
  1.480000000000000E-002   -1.571902932676844E-023
  1.490000000000000E-002   -2.073463187811303E-023
  1.500000000000000E-002   -2.475043700875775E-023
  1.510000000000000E-002   -2.721546300514216E-023
  1.520000000000000E-002   -2.762395814302163E-023
  1.530000000000000E-002   -2.557018343046072E-023
  1.540000000000000E-002   -2.080349135125356E-023
  1.550000000000000E-002   -1.327865040437324E-023
  1.560000000000000E-002   -3.195928339812897E-024
  1.570000000000000E-002    8.974545545635188E-024
  1.580000000000000E-002    2.248908808176690E-023
  1.590000000000000E-002    3.635131689647404E-023
  1.600000000000000E-002    4.935983363684333E-023
  1.610000000000000E-002    6.018290760131957E-023
  1.620000000000000E-002    6.745784953599186E-023
  1.630000000000000E-002    6.991013464694139E-023
  1.640000000000000E-002    6.648460736819642E-023
  1.650000000000000E-002    5.647877134554879E-023
  1.660000000000000E-002    3.966628930611709E-023
  1.670000000000000E-002    1.639771173185881E-023
  1.680000000000000E-002   -1.233453133030941E-023
  1.690000000000000E-002   -4.487870921744887E-023
  1.700000000000000E-002   -7.896334693353322E-023
  1.710000000000000E-002   -1.117994547692615E-022
  1.720000000000000E-002   -1.402462623735511E-022
  1.730000000000000E-002   -1.610356841847807E-022
  1.740000000000000E-002   -1.710446603670035E-022
  1.750000000000000E-002   -1.675982339604546E-022
  1.760000000000000E-002   -1.487810083085703E-022
  1.770000000000000E-002   -1.137302290628896E-022
  1.780000000000000E-002   -6.288125227378894E-023
  1.790000000000000E-002    1.863945685058140E-024
  1.800000000000000E-002    7.707233862457750E-023
  1.810000000000000E-002    1.578411287580668E-022
  1.820000000000000E-002    2.379986869910191E-022
  1.830000000000000E-002    3.104485001012062E-022
  1.840000000000000E-002    3.676474150368699E-022
  1.850000000000000E-002    4.021962977097710E-022
  1.860000000000000E-002    4.075079788657329E-022
  1.870000000000000E-002    3.785055508133057E-022