 -4.000000000000000E-002    0.000000000000000E+000
 -3.990000000000000E-002    0.000000000000000E+000
 -3.980000000000000E-002    0.000000000000000E+000
 -3.970000000000000E-002    0.000000000000000E+000
 -3.960000000000000E-002    0.000000000000000E+000
 -3.950000000000000E-002    0.000000000000000E+000
 -3.940000000000000E-002    0.000000000000000E+000
 -3.930000000000000E-002    0.000000000000000E+000
 -3.920000000000000E-002    0.000000000000000E+000
 -3.910000000000000E-002    0.000000000000000E+000
 -3.900000000000000E-002    0.000000000000000E+000
 -3.890000000000000E-002    0.000000000000000E+000
 -3.880000000000000E-002    0.000000000000000E+000
 -3.870000000000000E-002    0.000000000000000E+000
 -3.860000000000000E-002    0.000000000000000E+000
 -3.850000000000000E-002    0.000000000000000E+000
 -3.840000000000000E-002    0.000000000000000E+000
 -3.830000000000000E-002    0.000000000000000E+000
 -3.820000000000000E-002    0.000000000000000E+000
 -3.810000000000000E-002    0.000000000000000E+000
 -3.800000000000000E-002    0.000000000000000E+000
 -3.790000000000000E-002    0.000000000000000E+000
 -3.780000000000000E-002    0.000000000000000E+000
 -3.770000000000000E-002    0.000000000000000E+000
 -3.760000000000000E-002    0.000000000000000E+000
 -3.750000000000000E-002    0.000000000000000E+000
 -3.740000000000000E-002    0.000000000000000E+000
 -3.730000000000000E-002    0.000000000000000E+000
 -3.720000000000000E-002    0.000000000000000E+000
 -3.710000000000000E-002    0.000000000000000E+000
 -3.700000000000000E-002    0.000000000000000E+000
 -3.690000000000000E-002    0.000000000000000E+000
 -3.680000000000000E-002    0.000000000000000E+000
 -3.670000000000000E-002    0.000000000000000E+000
 -3.660000000000000E-002    0.000000000000000E+000
 -3.650000000000000E-002    0.000000000000000E+000
 -3.640000000000000E-002    0.000000000000000E+000
 -3.630000000000000E-002    0.000000000000000E+000
 -3.620000000000000E-002    0.000000000000000E+000
 -3.610000000000000E-002    0.000000000000000E+000
 -3.600000000000000E-002    0.000000000000000E+000
 -3.590000000000000E-002    0.000000000000000E+000
 -3.580000000000000E-002    0.000000000000000E+000
 -3.570000000000000E-002    0.000000000000000E+000
 -3.560000000000000E-002    0.000000000000000E+000
 -3.550000000000000E-002    0.000000000000000E+000
 -3.540000000000000E-002    0.000000000000000E+000
 -3.530000000000000E-002    0.000000000000000E+000
 -3.520000000000000E-002    0.000000000000000E+000
 -3.510000000000000E-002    0.000000000000000E+000
 -3.500000000000000E-002    0.000000000000000E+000
 -3.490000000000000E-002    0.000000000000000E+000
 -3.480000000000000E-002    0.000000000000000E+000
 -3.470000000000000E-002    0.000000000000000E+000
 -3.460000000000000E-002    0.000000000000000E+000
 -3.450000000000000E-002    0.000000000000000E+000
 -3.440000000000000E-002    0.000000000000000E+000
 -3.430000000000000E-002    0.000000000000000E+000
 -3.420000000000000E-002    0.000000000000000E+000
 -3.410000000000000E-002    0.000000000000000E+000
 -3.400000000000000E-002    0.000000000000000E+000
 -3.390000000000000E-002    0.000000000000000E+000
 -3.380000000000000E-002    0.000000000000000E+000
 -3.370000000000000E-002    0.000000000000000E+000
 -3.360000000000000E-002    0.000000000000000E+000
 -3.350000000000000E-002    0.000000000000000E+000
 -3.340000000000000E-002    0.000000000000000E+000
 -3.330000000000000E-002    0.000000000000000E+000
 -3.320000000000000E-002    0.000000000000000E+000
 -3.310000000000000E-002    0.000000000000000E+000
 -3.300000000000000E-002    0.000000000000000E+000
 -3.290000000000000E-002    0.000000000000000E+000
 -3.280000000000000E-002    0.000000000000000E+000
 -3.270000000000000E-002    0.000000000000000E+000
 -3.260000000000000E-002    0.000000000000000E+000
 -3.250000000000000E-002    0.000000000000000E+000
 -3.240000000000000E-002    0.000000000000000E+000
 -3.230000000000000E-002    0.000000000000000E+000
 -3.220000000000000E-002    0.000000000000000E+000
 -3.210000000000000E-002    0.000000000000000E+000
 -3.200000000000000E-002    0.000000000000000E+000
 -3.190000000000000E-002    0.000000000000000E+000
 -3.180000000000000E-002    0.000000000000000E+000
 -3.170000000000000E-002    0.000000000000000E+000
 -3.160000000000000E-002    0.000000000000000E+000
 -3.150000000000000E-002    0.000000000000000E+000
 -3.140000000000000E-002    0.000000000000000E+000
 -3.130000000000000E-002    0.000000000000000E+000
 -3.120000000000000E-002    0.000000000000000E+000
 -3.110000000000000E-002    0.000000000000000E+000
 -3.100000000000000E-002    0.000000000000000E+000
 -3.090000000000000E-002    0.000000000000000E+000
 -3.080000000000000E-002    0.000000000000000E+000
 -3.070000000000000E-002    0.000000000000000E+000
 -3.060000000000000E-002    0.000000000000000E+000
 -3.050000000000000E-002    0.000000000000000E+000
 -3.040000000000000E-002    0.000000000000000E+000
 -3.030000000000000E-002    0.000000000000000E+000
 -3.020000000000000E-002    0.000000000000000E+000
 -3.010000000000000E-002    0.000000000000000E+000
 -3.000000000000000E-002    0.000000000000000E+000
 -2.990000000000000E-002    0.000000000000000E+000
 -2.980000000000000E-002    0.000000000000000E+000
 -2.970000000000000E-002    0.000000000000000E+000
 -2.960000000000000E-002    0.000000000000000E+000
 -2.950000000000000E-002    0.000000000000000E+000
 -2.940000000000000E-002    0.000000000000000E+000
 -2.930000000000000E-002    0.000000000000000E+000
 -2.920000000000000E-002    0.000000000000000E+000
 -2.910000000000000E-002    0.000000000000000E+000
 -2.900000000000000E-002    0.000000000000000E+000
 -2.890000000000000E-002    0.000000000000000E+000
 -2.880000000000000E-002    0.000000000000000E+000
 -2.870000000000000E-002    0.000000000000000E+000
 -2.860000000000000E-002    0.000000000000000E+000
 -2.850000000000000E-002    0.000000000000000E+000
 -2.840000000000000E-002    0.000000000000000E+000
 -2.830000000000000E-002    0.000000000000000E+000
 -2.820000000000000E-002    0.000000000000000E+000
 -2.810000000000000E-002    0.000000000000000E+000
 -2.800000000000000E-002    0.000000000000000E+000
 -2.790000000000000E-002    0.000000000000000E+000
 -2.780000000000000E-002    0.000000000000000E+000
 -2.770000000000000E-002    0.000000000000000E+000
 -2.760000000000000E-002    0.000000000000000E+000
 -2.750000000000000E-002    0.000000000000000E+000
 -2.740000000000000E-002    0.000000000000000E+000
 -2.730000000000000E-002    0.000000000000000E+000
 -2.720000000000000E-002    0.000000000000000E+000
 -2.710000000000000E-002    0.000000000000000E+000
 -2.700000000000000E-002    0.000000000000000E+000
 -2.690000000000000E-002    0.000000000000000E+000
 -2.680000000000000E-002    0.000000000000000E+000
 -2.670000000000000E-002    0.000000000000000E+000
 -2.660000000000000E-002    0.000000000000000E+000
 -2.650000000000000E-002    0.000000000000000E+000
 -2.640000000000000E-002    0.000000000000000E+000
 -2.630000000000000E-002    0.000000000000000E+000
 -2.620000000000000E-002    0.000000000000000E+000
 -2.610000000000000E-002    0.000000000000000E+000
 -2.600000000000000E-002    0.000000000000000E+000
 -2.590000000000000E-002    0.000000000000000E+000
 -2.580000000000000E-002    0.000000000000000E+000
 -2.570000000000000E-002    0.000000000000000E+000
 -2.560000000000000E-002    0.000000000000000E+000
 -2.550000000000000E-002    0.000000000000000E+000
 -2.540000000000000E-002    0.000000000000000E+000
 -2.530000000000000E-002    0.000000000000000E+000
 -2.520000000000000E-002    0.000000000000000E+000
 -2.510000000000000E-002    0.000000000000000E+000
 -2.500000000000000E-002    0.000000000000000E+000
 -2.490000000000000E-002    0.000000000000000E+000
 -2.480000000000000E-002    0.000000000000000E+000
 -2.470000000000000E-002    0.000000000000000E+000
 -2.460000000000000E-002    0.000000000000000E+000
 -2.450000000000000E-002    0.000000000000000E+000
 -2.440000000000000E-002    0.000000000000000E+000
 -2.430000000000000E-002    0.000000000000000E+000
 -2.420000000000000E-002    0.000000000000000E+000
 -2.410000000000000E-002    0.000000000000000E+000
 -2.400000000000000E-002    0.000000000000000E+000
 -2.390000000000000E-002    0.000000000000000E+000
 -2.380000000000000E-002    0.000000000000000E+000
 -2.370000000000000E-002    0.000000000000000E+000
 -2.360000000000000E-002    0.000000000000000E+000
 -2.350000000000000E-002    0.000000000000000E+000
 -2.340000000000000E-002    0.000000000000000E+000
 -2.330000000000000E-002    0.000000000000000E+000
 -2.320000000000000E-002    0.000000000000000E+000
 -2.310000000000000E-002    0.000000000000000E+000
 -2.300000000000000E-002    0.000000000000000E+000
 -2.290000000000000E-002    0.000000000000000E+000
 -2.280000000000000E-002    0.000000000000000E+000
 -2.270000000000000E-002    0.000000000000000E+000
 -2.260000000000000E-002    0.000000000000000E+000
 -2.250000000000000E-002    0.000000000000000E+000
 -2.240000000000000E-002    0.000000000000000E+000
 -2.230000000000000E-002    0.000000000000000E+000
 -2.220000000000000E-002    0.000000000000000E+000
 -2.210000000000000E-002    0.000000000000000E+000
 -2.200000000000000E-002    0.000000000000000E+000
 -2.190000000000000E-002    0.000000000000000E+000
 -2.180000000000000E-002    0.000000000000000E+000
 -2.170000000000000E-002    0.000000000000000E+000
 -2.160000000000000E-002    0.000000000000000E+000
 -2.150000000000000E-002    0.000000000000000E+000
 -2.140000000000000E-002    0.000000000000000E+000
 -2.130000000000000E-002    0.000000000000000E+000
 -2.120000000000000E-002    0.000000000000000E+000
 -2.110000000000000E-002    0.000000000000000E+000
 -2.100000000000000E-002    0.000000000000000E+000
 -2.090000000000000E-002    0.000000000000000E+000
 -2.080000000000000E-002    0.000000000000000E+000
 -2.070000000000000E-002    0.000000000000000E+000
 -2.060000000000000E-002    0.000000000000000E+000
 -2.050000000000000E-002    0.000000000000000E+000
 -2.040000000000000E-002    0.000000000000000E+000
 -2.030000000000000E-002    0.000000000000000E+000
 -2.020000000000000E-002    0.000000000000000E+000
 -2.010000000000000E-002    0.000000000000000E+000
 -2.000000000000000E-002    0.000000000000000E+000
 -1.990000000000000E-002    0.000000000000000E+000
 -1.980000000000000E-002    0.000000000000000E+000
 -1.970000000000000E-002    0.000000000000000E+000
 -1.960000000000000E-002    0.000000000000000E+000
 -1.950000000000000E-002    0.000000000000000E+000
 -1.940000000000000E-002    0.000000000000000E+000
 -1.930000000000000E-002    0.000000000000000E+000
 -1.920000000000000E-002    0.000000000000000E+000
 -1.910000000000000E-002    0.000000000000000E+000
 -1.900000000000000E-002    0.000000000000000E+000
 -1.890000000000000E-002    0.000000000000000E+000
 -1.880000000000000E-002    0.000000000000000E+000
 -1.870000000000000E-002    0.000000000000000E+000
 -1.860000000000000E-002    0.000000000000000E+000
 -1.850000000000000E-002    0.000000000000000E+000
 -1.840000000000000E-002    0.000000000000000E+000
 -1.830000000000000E-002    0.000000000000000E+000
 -1.820000000000000E-002    0.000000000000000E+000
 -1.810000000000000E-002    0.000000000000000E+000
 -1.800000000000000E-002    0.000000000000000E+000
 -1.790000000000000E-002    0.000000000000000E+000
 -1.780000000000000E-002    0.000000000000000E+000
 -1.770000000000000E-002    0.000000000000000E+000
 -1.760000000000000E-002    0.000000000000000E+000
 -1.750000000000000E-002    0.000000000000000E+000
 -1.740000000000000E-002    0.000000000000000E+000
 -1.730000000000000E-002    0.000000000000000E+000
 -1.720000000000000E-002    0.000000000000000E+000
 -1.710000000000000E-002    0.000000000000000E+000
 -1.700000000000000E-002    0.000000000000000E+000
 -1.690000000000000E-002    0.000000000000000E+000
 -1.680000000000000E-002    0.000000000000000E+000
 -1.670000000000000E-002    0.000000000000000E+000
 -1.660000000000000E-002    0.000000000000000E+000
 -1.650000000000000E-002    0.000000000000000E+000
 -1.640000000000000E-002    0.000000000000000E+000
 -1.630000000000000E-002    0.000000000000000E+000
 -1.620000000000000E-002    0.000000000000000E+000
 -1.610000000000000E-002    0.000000000000000E+000
 -1.600000000000000E-002    0.000000000000000E+000
 -1.590000000000000E-002    0.000000000000000E+000
 -1.580000000000000E-002    0.000000000000000E+000
 -1.570000000000000E-002    0.000000000000000E+000
 -1.560000000000000E-002    0.000000000000000E+000
 -1.550000000000000E-002    0.000000000000000E+000
 -1.540000000000000E-002    0.000000000000000E+000
 -1.530000000000000E-002    0.000000000000000E+000
 -1.520000000000000E-002    0.000000000000000E+000
 -1.510000000000000E-002    0.000000000000000E+000
 -1.500000000000000E-002    0.000000000000000E+000
 -1.490000000000000E-002    0.000000000000000E+000
 -1.480000000000000E-002    0.000000000000000E+000
 -1.470000000000000E-002    0.000000000000000E+000
 -1.460000000000000E-002    0.000000000000000E+000
 -1.450000000000000E-002    0.000000000000000E+000
 -1.440000000000000E-002    0.000000000000000E+000
 -1.430000000000000E-002    0.000000000000000E+000
 -1.420000000000000E-002    0.000000000000000E+000
 -1.410000000000000E-002    0.000000000000000E+000
 -1.400000000000000E-002    0.000000000000000E+000
 -1.390000000000000E-002    0.000000000000000E+000
 -1.380000000000000E-002    0.000000000000000E+000
 -1.370000000000000E-002    0.000000000000000E+000
 -1.360000000000000E-002    0.000000000000000E+000
 -1.350000000000000E-002    0.000000000000000E+000
 -1.340000000000000E-002    0.000000000000000E+000
 -1.330000000000000E-002    0.000000000000000E+000
 -1.320000000000000E-002    0.000000000000000E+000
 -1.310000000000000E-002    0.000000000000000E+000
 -1.300000000000000E-002    0.000000000000000E+000
 -1.290000000000000E-002    0.000000000000000E+000
 -1.280000000000000E-002    0.000000000000000E+000
 -1.270000000000000E-002    0.000000000000000E+000
 -1.260000000000000E-002    0.000000000000000E+000
 -1.250000000000000E-002    0.000000000000000E+000
 -1.240000000000000E-002    0.000000000000000E+000
 -1.230000000000000E-002    0.000000000000000E+000
 -1.220000000000000E-002    0.000000000000000E+000
 -1.210000000000000E-002    0.000000000000000E+000
 -1.200000000000000E-002    0.000000000000000E+000
 -1.190000000000000E-002    0.000000000000000E+000
 -1.180000000000000E-002    0.000000000000000E+000
 -1.170000000000000E-002    0.000000000000000E+000
 -1.160000000000000E-002    0.000000000000000E+000
 -1.150000000000000E-002    0.000000000000000E+000
 -1.140000000000000E-002    0.000000000000000E+000
 -1.130000000000000E-002    0.000000000000000E+000
 -1.120000000000000E-002    0.000000000000000E+000
 -1.110000000000000E-002    0.000000000000000E+000
 -1.100000000000000E-002    0.000000000000000E+000
 -1.090000000000000E-002    0.000000000000000E+000
 -1.080000000000000E-002    0.000000000000000E+000
 -1.070000000000000E-002    0.000000000000000E+000
 -1.060000000000000E-002    0.000000000000000E+000
 -1.050000000000000E-002    0.000000000000000E+000
 -1.040000000000000E-002    0.000000000000000E+000
 -1.030000000000000E-002    0.000000000000000E+000
 -1.020000000000000E-002    0.000000000000000E+000
 -1.010000000000000E-002    0.000000000000000E+000
 -1.000000000000000E-002    0.000000000000000E+000
 -9.899999999999999E-003    0.000000000000000E+000
 -9.800000000000000E-003    0.000000000000000E+000
 -9.699999999999999E-003    0.000000000000000E+000
 -9.599999999999999E-003    0.000000000000000E+000
 -9.500000000000000E-003    0.000000000000000E+000
 -9.399999999999999E-003    0.000000000000000E+000
 -9.299999999999999E-003    0.000000000000000E+000
 -9.200000000000000E-003    0.000000000000000E+000
 -9.099999999999999E-003    0.000000000000000E+000
 -8.999999999999999E-003    0.000000000000000E+000
 -8.900000000000000E-003    0.000000000000000E+000
 -8.799999999999999E-003    0.000000000000000E+000
 -8.699999999999999E-003    0.000000000000000E+000
 -8.600000000000000E-003    0.000000000000000E+000
 -8.499999999999999E-003    0.000000000000000E+000
 -8.399999999999999E-003    0.000000000000000E+000
 -8.300000000000000E-003    0.000000000000000E+000
 -8.199999999999999E-003    0.000000000000000E+000
 -8.100000000000000E-003    0.000000000000000E+000
 -8.000000000000000E-003    0.000000000000000E+000
 -7.899999999999999E-003    0.000000000000000E+000
 -7.800000000000000E-003    0.000000000000000E+000
 -7.699999999999999E-003    0.000000000000000E+000
 -7.599999999999999E-003    0.000000000000000E+000
 -7.499999999999999E-003    0.000000000000000E+000
 -7.399999999999999E-003    0.000000000000000E+000
 -7.299999999999999E-003    0.000000000000000E+000
 -7.199999999999999E-003    0.000000000000000E+000
 -7.100000000000000E-003    0.000000000000000E+000
 -6.999999999999999E-003    0.000000000000000E+000
 -6.899999999999999E-003    0.000000000000000E+000
 -6.800000000000000E-003    0.000000000000000E+000
 -6.699999999999999E-003    0.000000000000000E+000
 -6.599999999999999E-003    0.000000000000000E+000
 -6.499999999999999E-003    0.000000000000000E+000
 -6.399999999999999E-003    0.000000000000000E+000
 -6.299999999999999E-003    0.000000000000000E+000
 -6.199999999999999E-003    0.000000000000000E+000
 -6.100000000000000E-003    0.000000000000000E+000
 -5.999999999999999E-003    0.000000000000000E+000
 -5.899999999999999E-003    0.000000000000000E+000
 -5.800000000000000E-003    0.000000000000000E+000
 -5.699999999999999E-003    0.000000000000000E+000
 -5.599999999999999E-003    0.000000000000000E+000
 -5.499999999999999E-003    0.000000000000000E+000
 -5.399999999999999E-003    0.000000000000000E+000
 -5.299999999999999E-003    0.000000000000000E+000
 -5.199999999999999E-003    0.000000000000000E+000
 -5.099999999999999E-003    0.000000000000000E+000
 -4.999999999999999E-003    0.000000000000000E+000
 -4.899999999999999E-003    0.000000000000000E+000
 -4.799999999999999E-003    0.000000000000000E+000
 -4.699999999999999E-003    0.000000000000000E+000
 -4.599999999999999E-003    0.000000000000000E+000
 -4.499999999999999E-003    5.774840414026545E-049
 -4.399999999999999E-003    1.154968082805309E-048
 -4.299999999999999E-003    1.732452124207963E-048
 -4.199999999999999E-003    1.732452124207963E-048
 -4.099999999999999E-003    1.154968082805309E-048
 -3.999999999999999E-003    0.000000000000000E+000
 -3.899999999999999E-003   -1.732452124207963E-048
 -3.799999999999999E-003   -4.042388289818581E-048
 -3.699999999999999E-003   -6.929808496831854E-048
 -3.599999999999999E-003   -9.817228703845126E-048
 -3.499999999999999E-003   -1.149017776131318E-047
 -3.399999999999999E-003   -1.744537025085479E-047
 -3.299999999999999E-003   -1.933717029187101E-047
 -3.199999999999999E-003   -1.613152131487945E-047
 -3.099999999999999E-003    3.436730536625934E-048
 -2.999999999999999E-003    2.349086559390023E-047
 -2.899999999999999E-003    5.321495610899729E-047
 -2.799999999999999E-003    8.487125095298676E-047
 -2.699999999999999E-003    1.308260215902206E-046
 -2.599999999999999E-003    1.697963533576381E-046
 -2.499999999999999E-003    1.889428295523024E-046
 -2.399999999999999E-003    1.951999444626544E-046
 -2.299999999999999E-003    1.563637637559305E-046
 -2.199999999999999E-003    5.240600137589879E-047
 -2.099999999999999E-003   -1.367112858605506E-046
 -1.999999999999999E-003   -3.813102522654094E-046
 -1.899999999999999E-003   -3.445211740692676E-047
 -1.799999999999999E-003    6.543409597466345E-047
 -1.699999999999999E-003   -5.548639980649141E-046
 -1.599999999999999E-003   -9.588938684036505E-046
 -1.499999999999999E-003   -6.660880117187795E-046
 -1.399999999999999E-003   -5.888877525545175E-046
 -1.299999999999999E-003   -9.561418083043728E-046
 -1.199999999999999E-003   -1.107112276175818E-045
 -1.099999999999999E-003   -7.706024381028796E-046
 -9.999999999999989E-004    2.856271091150303E-046
 -8.999999999999990E-004    2.156270050216158E-045
 -7.999999999999990E-004    3.914651493043787E-045
 -6.999999999999989E-004    5.363290819481807E-045
 -5.999999999999990E-004    6.788461661214387E-045
 -4.999999999999989E-004    6.870642490024263E-045
 -3.999999999999989E-004    6.707075823022898E-045
 -2.999999999999989E-004    4.479854258116705E-045
 -1.999999999999989E-004    9.726082528944743E-046
 -9.999999999999892E-005   -3.534561598996634E-045
  1.084202172485504E-018   -8.675682470784089E-045
  1.000000000000011E-004   -1.457733596308640E-044
  2.000000000000011E-004   -1.860324292286204E-044
  3.000000000000011E-004   -1.969649711901781E-044
  4.000000000000011E-004   -1.708041074914932E-044
  5.000000000000011E-004   -1.128439870545912E-044
  6.000000000000011E-004   -2.901936801911585E-045
  7.000000000000011E-004    7.256433611289331E-045
  8.000000000000011E-004    1.675056889462017E-044
  9.000000000000012E-004    2.248332768240624E-044
  1.000000000000001E-003    2.104551290208025E-044
  1.100000000000001E-003    9.393050599105758E-045
  1.200000000000001E-003   -1.279374092637435E-044
  1.300000000000001E-003   -4.311923568950236E-044
  1.400000000000001E-003   -7.727771108857584E-044
  1.500000000000001E-003   -1.060434133423620E-043
  1.600000000000001E-003   -1.162804866631274E-043
  1.700000000000001E-003   -9.596922706058422E-044
  1.800000000000001E-003   -3.340960989922129E-044
  1.900000000000001E-003    8.060789179597531E-044
  2.000000000000001E-003    2.449786985410581E-043
  2.100000000000001E-003    4.465336277499840E-043
  2.200000000000001E-003    6.559473670216923E-043
  2.300000000000001E-003    8.307589192648404E-043
  2.400000000000001E-003    9.122175460201841E-043
  2.500000000000001E-003    8.356332586261208E-043
  2.600000000000001E-003    5.401997968796815E-043
  2.700000000000001E-003   -1.776675990323524E-044
  2.800000000000001E-003   -8.460952435900737E-043
  2.900000000000001E-003   -1.904057960131827E-042
  3.000000000000001E-003   -3.084487121552699E-042
  3.100000000000001E-003   -4.213576169480076E-042
  3.200000000000001E-003   -5.051725152847364E-042
  3.300000000000001E-003   -5.316051958902718E-042
  3.400000000000001E-003   -4.715619682444160E-042
  3.500000000000001E-003   -3.003950212495264E-042
  3.600000000000001E-003   -3.871449432593221E-044
  3.700000000000001E-003    4.154857423998549E-042
  3.800000000000001E-003    9.320971574341122E-042
  3.900000000000001E-003    1.494191560532890E-041
  4.000000000000001E-003    2.022608928767388E-041
  4.100000000000001E-003    2.415359986639015E-041
  4.200000000000001E-003    2.556857433246807E-041
  4.300000000000001E-003    2.332489572797440E-041
  4.400000000000001E-003    1.648074090067780E-041
  4.500000000000001E-003    4.520906025737087E-042
  4.600000000000002E-003   -1.242308866398291E-041
  4.700000000000001E-003   -3.338604618488710E-041
  4.800000000000001E-003   -5.646155981252895E-041
  4.900000000000002E-003   -7.880801638989308E-041
  5.000000000000001E-003   -9.680273903510854E-041
  5.100000000000001E-003   -1.063572465902293E-040
  5.200000000000001E-003   -1.033957325764049E-040
  5.300000000000002E-003   -8.445143696817921E-041
  5.400000000000001E-003   -4.734455599056771E-041
  5.500000000000001E-003    8.156660906412602E-042
  5.600000000000002E-003    7.978137859267381E-041
  5.700000000000001E-003    1.624089026670750E-040
  5.800000000000001E-003    2.480239154522485E-040
  5.900000000000002E-003    3.260478136856809E-040
  6.000000000000001E-003    3.840779967503304E-040
  6.100000000000001E-003    4.090180585324746E-040
  6.200000000000002E-003    3.885296773785218E-040
  6.300000000000002E-003    3.127037632731551E-040
  6.400000000000001E-003    1.757817813239250E-040
  6.500000000000001E-003   -2.224584929994205E-041
  6.600000000000002E-003   -2.743502480602118E-040
  6.700000000000001E-003   -5.656508857283976E-040
  6.800000000000001E-003   -8.732181006071800E-040
  6.900000000000002E-003   -1.166582652067361E-039
  7.000000000000001E-003   -1.409011986462541E-039
  7.100000000000001E-003   -1.559557110812684E-039
  7.200000000000002E-003   -1.575872058939821E-039
  7.300000000000002E-003   -1.417777107211871E-039
  7.400000000000001E-003   -1.051530888455966E-039
  7.500000000000001E-003   -4.547644240082421E-040
  7.600000000000002E-003    3.780297796365701E-040
  7.700000000000001E-003    1.429647289364096E-039
  7.800000000000001E-003    2.654333153672679E-039
  7.900000000000001E-003    3.972552544128019E-039
  8.000000000000002E-003    5.267276474961252E-039
  8.100000000000001E-003    6.382986520756494E-039
  8.200000000000001E-003    7.128879065817114E-039
  8.300000000000002E-003    7.287869279580007E-039
  8.400000000000001E-003    6.632876350684595E-039
  8.500000000000002E-003    4.951441882217448E-039
  8.600000000000002E-003    2.078827932901584E-039
  8.700000000000001E-003   -2.061526190061079E-039
  8.800000000000002E-003   -7.413047319011572E-039
  8.900000000000002E-003   -1.374139275196666E-038
  9.000000000000001E-003   -2.059689690009925E-038
  9.100000000000002E-003   -2.729258497782202E-038
  9.200000000000002E-003   -3.290718890540991E-038
  9.300000000000001E-003   -3.632243087471331E-038
  9.400000000000002E-003   -3.630219675954059E-038
  9.500000000000001E-003   -3.161783452240187E-038
  9.600000000000001E-003   -2.121842444335338E-038
  9.700000000000002E-003   -4.438152055705797E-039
  9.800000000000001E-003    1.877552042587388E-038
  9.900000000000001E-003    4.763749751145412E-038
  1.000000000000000E-002    8.033707202397273E-038
  1.010000000000000E-002    1.139248055543645E-037
  1.020000000000000E-002    1.443151020391364E-037
  1.030000000000000E-002    1.664429727524787E-037
  1.040000000000000E-002    1.746052592867973E-037
  1.050000000000000E-002    1.630015249025392E-037
  1.060000000000000E-002    1.264682162788403E-037
  1.070000000000000E-002    6.137209385494216E-038
  1.080000000000000E-002   -3.340327996901460E-038
  1.090000000000000E-002   -1.554767157644520E-037
  1.100000000000000E-002   -2.981252318435062E-037
  1.110000000000000E-002   -4.497308660132901E-037
  1.120000000000000E-002   -5.936851130266567E-037
  1.130000000000000E-002   -7.089126783666129E-037
  1.140000000000000E-002   -7.711477430075681E-037
  1.150000000000000E-002   -7.550424269562731E-037
  1.160000000000000E-002   -6.371050080805658E-037
  1.170000000000000E-002   -3.993551797111877E-037
  1.180000000000000E-002   -3.345567942682588E-038
  1.190000000000000E-002    4.550663981124267E-037
  1.200000000000000E-002    1.043031175088776E-036
  1.210000000000000E-002    1.686893783098445E-036
  1.220000000000000E-002    2.321818054233460E-036
  1.230000000000000E-002    2.863247854595423E-036
  1.240000000000000E-002    3.211586430930916E-036
  1.250000000000000E-002    3.260378775858052E-036
  1.260000000000000E-002    2.908053008284799E-036
  1.270000000000000E-002    2.072803958310180E-036
  1.280000000000000E-002    7.096504221858935E-037
  1.290000000000000E-002   -1.171935566769103E-036
  1.300000000000000E-002   -3.492009193651158E-036
  1.310000000000000E-002   -6.088427714576689E-036
  1.320000000000000E-002   -8.712378098533079E-036
  1.330000000000000E-002   -1.103405531171124E-035
  1.340000000000000E-002   -1.266092799114659E-035
  1.350000000000000E-002   -1.317006162247036E-035
  1.360000000000000E-002   -1.215448582023004E-035
  1.370000000000000E-002   -9.281678266583941E-036
  1.380000000000000E-002   -4.359944039112122E-036
  1.390000000000000E-002    2.593840983911327E-036
  1.400000000000000E-002    1.129389800481210E-035
  1.410000000000000E-002    2.114292797104798E-035
  1.420000000000000E-002    3.121819869314177E-035
  1.430000000000000E-002    4.029665877640133E-035
  1.440000000000000E-002    4.692704961330526E-035
  1.450000000000000E-002    4.955299907866450E-035
  1.460000000000000E-002    4.668525330870590E-035
  1.470000000000000E-002    3.711415557780932E-035
  1.480000000000000E-002    2.014556877399843E-035
  1.490000000000000E-002   -4.164400977511388E-036
  1.500000000000000E-002   -3.480704515660475E-035
  1.510000000000000E-002   -6.968648099400294E-035
  1.520000000000000E-002   -1.055888963023608E-034
  1.530000000000000E-002   -1.382875930098716E-034
  1.540000000000000E-002   -1.628065992756682E-034
  1.550000000000000E-002   -1.738509752741237E-034
  1.560000000000000E-002   -1.663922185633246E-034
  1.570000000000000E-002   -1.363744998439999E-034
  1.580000000000000E-002   -8.148282500584258E-035
  1.590000000000000E-002   -1.891299031178793E-036
  1.600000000000000E-002    9.910814001374243E-035
  1.610000000000000E-002    2.147069955905049E-034
  1.620000000000000E-002    3.345193679727169E-034
  1.630000000000000E-002    4.449522157907453E-034
  1.640000000000000E-002    5.300684471398041E-034
  1.650000000000000E-002    5.729583683047614E-034
  1.660000000000000E-002    5.575757432647290E-034
  1.670000000000000E-002    4.709255269162139E-034
  1.680000000000000E-002    3.054212764838717E-034
  1.690000000000000E-002    6.116197570263314E-035
  1.700000000000000E-002   -2.521692695135228E-034
  1.710000000000000E-002   -6.141113957167412E-034
  1.720000000000000E-002   -9.932519356658576E-034
  1.730000000000000E-002   -1.348344787554739E-033
  1.740000000000000E-002   -1.630894659209887E-033
  1.750000000000000E-002   -1.789248889001076E-033
  1.760000000000000E-002   -1.774062039557930E-033
  1.770000000000000E-002   -1.544803136046719E-033
  1.780000000000000E-002   -1.076762217810406E-033
  1.790000000000000E-002   -3.678322878247465E-034
  1.800000000000000E-002    5.558143382076073E-034
  1.810000000000000E-002    1.636102679070178E-033
  1.820000000000000E-002    2.782414857852038E-033
  1.830000000000000E-002    3.874719853329523E-033
  1.840000000000000E-002    4.770987793491772E-033
  1.850000000000000E-002    5.319004735797059E-033
  1.860000000000000E-002    5.372197774561959E-033
  1.870000000000000E-002    4.808490598854013E-033