 -4.000000000000000E-002    0.000000000000000E+000
 -3.990000000000000E-002    0.000000000000000E+000
 -3.980000000000000E-002    0.000000000000000E+000
 -3.970000000000000E-002    0.000000000000000E+000
 -3.960000000000000E-002    0.000000000000000E+000
 -3.950000000000000E-002    0.000000000000000E+000
 -3.940000000000000E-002    0.000000000000000E+000
 -3.930000000000000E-002    0.000000000000000E+000
 -3.920000000000000E-002    0.000000000000000E+000
 -3.910000000000000E-002    0.000000000000000E+000
 -3.900000000000000E-002    0.000000000000000E+000
 -3.890000000000000E-002    0.000000000000000E+000
 -3.880000000000000E-002    0.000000000000000E+000
 -3.870000000000000E-002    0.000000000000000E+000
 -3.860000000000000E-002    0.000000000000000E+000
 -3.850000000000000E-002    0.000000000000000E+000
 -3.840000000000000E-002    0.000000000000000E+000
 -3.830000000000000E-002    3.061449213687911E-048
 -3.820000000000000E-002    2.464843442754679E-047
 -3.810000000000000E-002    2.186515983321423E-046
 -3.800000000000000E-002    1.626080095066834E-045
 -3.790000000000000E-002    7.999029381542134E-045
 -3.780000000000000E-002    4.160774064071028E-044
 -3.770000000000000E-002    1.905470726192030E-043
 -3.760000000000000E-002    8.041216849063684E-043
 -3.750000000000000E-002    3.136600048462284E-042
 -3.740000000000000E-002    1.136594227141095E-041
 -3.730000000000000E-002    3.850000637641539E-041
 -3.720000000000000E-002    1.224374602111113E-040
 -3.710000000000000E-002    3.668414999703801E-040
 -3.700000000000000E-002    1.038397510797364E-039
 -3.690000000000000E-002    2.783025238056182E-039
 -3.680000000000000E-002    7.073540945694307E-039
 -3.670000000000000E-002    1.706715273472068E-038
 -3.660000000000000E-002    3.910467042342425E-038
 -3.650000000000000E-002    8.503569190331083E-038
 -3.640000000000000E-002    1.751943960147664E-037
 -3.630000000000000E-002    3.407544169600359E-037
 -3.620000000000000E-002    6.216064095644435E-037
 -3.610000000000000E-002    1.050652040232530E-036
 -3.600000000000000E-002    1.605918909736370E-036
 -3.590000000000000E-002    2.096498468265566E-036
 -3.580000000000000E-002    1.926130821146110E-036
 -3.570000000000000E-002   -3.489272409145548E-037
 -3.560000000000000E-002   -7.775713831334146E-036
 -3.550000000000000E-002   -2.618583548874022E-035
 -3.540000000000000E-002   -6.586207458571573E-035
 -3.530000000000000E-002   -1.435847131117296E-034
 -3.520000000000000E-002   -2.845883000844825E-034
 -3.510000000000000E-002   -5.232903848931054E-034
 -3.500000000000000E-002   -9.005680542565177E-034
 -3.490000000000000E-002   -1.453784099617189E-033
 -3.480000000000000E-002   -2.193748381676905E-033
 -3.470000000000000E-002   -3.060625590149688E-033
 -3.460000000000000E-002   -3.849156359518119E-033
 -3.450000000000000E-002   -4.093702226249933E-033
 -3.440000000000000E-002   -2.907610546270284E-033
 -3.430000000000000E-002    1.217969729603590E-033
 -3.420000000000000E-002    1.062980817771210E-032
 -3.410000000000000E-002    2.868204938568049E-032
 -3.400000000000000E-002    5.974699990704341E-032
 -3.390000000000000E-002    1.088862911344183E-031
 -3.380000000000000E-002    1.809208350953353E-031
 -3.370000000000000E-002    2.785587966875263E-031
 -3.360000000000000E-002    3.991886439848608E-031
 -3.350000000000000E-002    5.299597505929749E-031
 -3.340000000000000E-002    6.409143957455616E-031
 -3.330000000000000E-002    6.762758194820470E-031
 -3.320000000000000E-002    5.446188203389442E-031
 -3.310000000000000E-002    1.096271555156342E-031
 -3.300000000000000E-002   -8.154783537149561E-031
 -3.290000000000000E-002   -2.465002833123150E-030
 -3.280000000000000E-002   -5.102503204781382E-030
 -3.270000000000000E-002   -8.978431645799184E-030
 -3.260000000000000E-002   -1.425364997726097E-029
 -3.250000000000000E-002   -2.087888191201765E-029
 -3.240000000000000E-002   -2.842277681622722E-029
 -3.230000000000000E-002   -3.584769501297538E-029
 -3.220000000000000E-002   -4.124394617251133E-029
 -3.210000000000000E-002   -4.155131886221248E-029
 -3.200000000000000E-002   -3.232198378126096E-029
 -3.190000000000000E-002   -7.610775987589568E-030
 -3.180000000000000E-002    3.988462400137042E-029
 -3.170000000000000E-002    1.182750526190744E-028
 -3.160000000000000E-002    2.353363711355398E-028
 -3.150000000000000E-002    3.965774534782436E-028
 -3.140000000000000E-002    6.023546848978790E-028
 -3.130000000000000E-002    8.439516065876114E-028
 -3.120000000000000E-002    1.098701286193783E-027
 -3.110000000000000E-002    1.324479792951290E-027
 -3.100000000000000E-002    1.454253547411645E-027
 -3.090000000000000E-002    1.391813644153689E-027
 -3.080000000000000E-002    1.010352997304218E-027
 -3.070000000000000E-002    1.560717600037719E-028
 -3.060000000000000E-002   -1.340561356879778E-027
 -3.050000000000000E-002   -3.643061885892973E-027
 -3.040000000000000E-002   -6.874081747694289E-027
 -3.030000000000000E-002   -1.106570864143662E-026
 -3.020000000000000E-002   -1.609488426562753E-026
 -3.010000000000000E-002   -2.160669813795005E-026
 -3.000000000000000E-002   -2.693223905208292E-026
 -2.990000000000000E-002   -3.101270975356898E-026
 -2.980000000000000E-002   -3.234726444420661E-026
 -2.970000000000000E-002   -2.898794452581768E-026
 -2.960000000000000E-002   -1.861004775262956E-026
 -2.950000000000000E-002    1.311074439162976E-027
 -2.940000000000000E-002    3.318721322400656E-026
 -2.930000000000000E-002    7.884641503964112E-026
 -2.920000000000000E-002    1.388972908673048E-025
 -2.910000000000000E-002    2.119465738483502E-025
 -2.900000000000000E-002    2.937224854469010E-025
 -2.890000000000000E-002    3.761997334560929E-025
 -2.880000000000000E-002    4.468710024635077E-025
 -2.870000000000000E-002    4.883588419058486E-025
 -2.860000000000000E-002    4.786025676539694E-025
 -2.850000000000000E-002    3.918762439514172E-025
 -2.840000000000000E-002    2.008844307282995E-025
 -2.830000000000000E-002   -1.198731756178184E-025
 -2.820000000000000E-002   -5.893873486623355E-025
 -2.810000000000000E-002   -1.214168755747754E-024
 -2.800000000000000E-002   -1.981351039532105E-024
 -2.790000000000000E-002   -2.851487379194050E-024
 -2.780000000000000E-002   -3.751977016909628E-024
 -2.770000000000000E-002   -4.572365936472915E-024
 -2.760000000000000E-002   -5.163015185352127E-024
 -2.750000000000000E-002   -5.338749036446676E-024
 -2.740000000000000E-002   -4.889029557610241E-024
 -2.730000000000000E-002   -3.595877339418679E-024
 -2.720000000000000E-002   -1.260130093012101E-024
 -2.710000000000000E-002    2.264318300620213E-024
 -2.700000000000000E-002    7.029912666913338E-024
 -2.690000000000000E-002    1.295154980184472E-023
 -2.680000000000000E-002    1.976406362552930E-023
 -2.670000000000000E-002    2.698720037282214E-023
 -2.660000000000000E-002    3.390529782972836E-023
 -2.650000000000000E-002    3.956939967010709E-023
 -2.640000000000000E-002    4.282913865767893E-023
 -2.630000000000000E-002    4.240023384100501E-023
 -2.620000000000000E-002    3.697074469193079E-023
 -2.610000000000000E-002    2.534529385185908E-023
 -2.600000000000000E-002    6.621530003895118E-024
 -2.590000000000000E-002   -1.961252762583295E-023
 -2.580000000000000E-002   -5.307728373849583E-023
 -2.570000000000000E-002   -9.261859972969293E-023
 -2.560000000000000E-002   -1.360687438045494E-022
 -2.550000000000000E-002   -1.801783307042271E-022
 -2.540000000000000E-002   -2.206447431236154E-022
 -2.530000000000000E-002   -2.522576800317947E-022
 -2.520000000000000E-002   -2.691741234471353E-022
 -2.510000000000000E-002   -2.653238246486966E-022
 -2.500000000000000E-002   -2.349328619937862E-022
 -2.490000000000000E-002   -1.731387859465586E-022
 -2.480000000000000E-002   -7.665709861366881E-023
 -2.470000000000000E-002    5.555200379996534E-023
 -2.460000000000000E-002    2.216746874612967E-022
 -2.450000000000000E-002    4.165522853601472E-022
 -2.440000000000000E-002    6.313635865198579E-022
 -2.430000000000000E-002    8.535270953054218E-022
 -2.420000000000000E-002    1.066856642636256E-021
 -2.410000000000000E-002    1.251987402382649E-021
 -2.400000000000000E-002    1.387074856326202E-021
 -2.390000000000000E-002    1.448757306387736E-021
 -2.380000000000000E-002    1.413364181460817E-021
 -2.370000000000000E-002    1.258352534070468E-021
 -2.360000000000000E-002    9.639567536116752E-022
 -2.350000000000000E-002    5.150423020506005E-022
 -2.340000000000000E-002   -9.684250371384186E-023
 -2.330000000000000E-002   -8.712290458505512E-022
 -2.320000000000000E-002   -1.796339172025032E-021
 -2.310000000000000E-002   -2.846621876487064E-021
 -2.300000000000000E-002   -3.980361377580034E-021
 -2.290000000000000E-002   -5.137594493744513E-021
 -2.280000000000000E-002   -6.238680713145895E-021
 -2.270000000000000E-002   -7.183982009123084E-021
 -2.260000000000000E-002   -7.855194815792097E-021
 -2.250000000000000E-002   -8.118927637742963E-021
 -2.240000000000000E-002   -7.833082683437931E-021
 -2.230000000000000E-002   -6.856478288010581E-021
 -2.220000000000000E-002   -5.061892544798421E-021
 -2.210000000000000E-002   -2.352336204718269E-021
 -2.200000000000000E-002    1.320132811204571E-021
 -2.190000000000000E-002    5.934312840871195E-021
 -2.180000000000000E-002    1.138034217416627E-020
 -2.170000000000000E-002    1.744316870239532E-020
 -2.160000000000000E-002    2.379180867894118E-020
 -2.150000000000000E-002    2.997735063315527E-020
 -2.140000000000000E-002    3.544245939403062E-020
 -2.130000000000000E-002    3.954453347229767E-020
 -2.120000000000000E-002    4.159364294493708E-020
 -2.110000000000000E-002    4.090489317916413E-020
 -2.100000000000000E-002    3.686311440548923E-020
 -2.090000000000000E-002    2.899581613394424E-020
 -2.080000000000000E-002    1.704847808926256E-020
 -2.070000000000000E-002    1.054671907045661E-021
 -2.060000000000000E-002   -1.860746346245440E-020
 -2.050000000000000E-002   -4.118102148675804E-020
 -2.040000000000000E-002   -6.552612822847118E-020
 -2.030000000000000E-002   -9.015140236291097E-020
 -2.020000000000000E-002   -1.132837413721694E-019
 -2.010000000000000E-002   -1.329749872105216E-019
 -2.000000000000000E-002   -1.472396782047997E-019
 -1.990000000000000E-002   -1.542135034069351E-019
 -1.980000000000000E-002   -1.523182811199436E-019
 -1.970000000000000E-002   -1.404166325425741E-019
 -1.960000000000000E-002   -1.179385710171993E-019
 -1.950000000000000E-002   -8.496382368935915E-020
 -1.940000000000000E-002   -4.224731414438455E-020
 -1.930000000000000E-002    8.818541284330026E-021
 -1.920000000000000E-002    6.630324358415419E-020
 -1.910000000000000E-002    1.278889899862668E-019
 -1.900000000000000E-002    1.910537889061756E-019
 -1.890000000000000E-002    2.532607740585644E-019
 -1.880000000000000E-002    3.121231785637983E-019
 -1.870000000000000E-002    3.655143488155467E-019
 -1.860000000000000E-002    4.115967205163153E-019
 -1.850000000000000E-002    4.487536434654401E-019
 -1.840000000000000E-002    4.754224099310751E-019
 -1.830000000000000E-002    4.898451732770523E-019
 -1.820000000000000E-002    4.897735190494437E-019
 -1.810000000000000E-002    4.721813810453778E-019
 -1.800000000000000E-002    4.330547717851690E-019
 -1.790000000000000E-002    3.673336172071639E-019
 -1.780000000000000E-002    2.690780541464186E-019
 -1.770000000000000E-002    1.319161116998625E-019
 -1.760000000000000E-002   -5.019733115665022E-020
 -1.750000000000000E-002   -2.819192964803858E-019
 -1.740000000000000E-002   -5.652113593778052E-019
 -1.730000000000000E-002   -8.978928282008469E-019
 -1.720000000000000E-002   -1.272210159202756E-018
 -1.710000000000000E-002   -1.673616753705374E-018
 -1.700000000000000E-002   -2.079979788219747E-018
 -1.690000000000000E-002   -2.461430579381834E-018
 -1.680000000000000E-002   -2.781044657259734E-018
 -1.670000000000000E-002   -2.996483103026866E-018
 -1.660000000000000E-002   -3.062635442824778E-018
 -1.650000000000000E-002   -2.935201720268989E-018
 -1.640000000000000E-002   -2.575023616164005E-018
 -1.630000000000000E-002   -1.952857602200198E-018
 -1.620000000000000E-002   -1.054172475299798E-018
 -1.610000000000000E-002    1.165209178007917E-019
 -1.600000000000000E-002    1.532332607856850E-018
 -1.590000000000000E-002    3.142148776037938E-018
 -1.580000000000000E-002    4.870693509198967E-018
 -1.570000000000000E-002    6.620764095372833E-018
 -1.560000000000000E-002    8.277706284286845E-018
 -1.550000000000000E-002    9.715971862913585E-018
 -1.540000000000000E-002    1.080734916884210E-017
 -1.530000000000000E-002    1.143024266707027E-017
 -1.520000000000000E-002    1.147920355258922E-017
 -1.510000000000000E-002    1.087381819689240E-017
 -1.500000000000000E-002    9.566066629801946E-018
 -1.490000000000000E-002    7.545382846069680E-018
 -1.480000000000000E-002    4.840869581389190E-018
 -1.470000000000000E-002    1.520441486423979E-018
 -1.460000000000000E-002   -2.312963254057489E-018
 -1.450000000000000E-002   -6.527570637354783E-018
 -1.440000000000000E-002   -1.097048761001766E-017
 -1.430000000000000E-002   -1.547583224107423E-017
 -1.420000000000000E-002   -1.987207139770934E-017
 -1.410000000000000E-002   -2.398744282670959E-017
 -1.400000000000000E-002   -2.765263296091967E-017
 -1.390000000000000E-002   -3.070034959328559E-017
 -1.380000000000000E-002   -3.296205803801302E-017
 -1.370000000000000E-002   -3.426280141441951E-017
 -1.360000000000000E-002   -3.441572433935173E-017
 -1.350000000000000E-002   -3.321838268219635E-017
 -1.340000000000000E-002   -3.045325455000010E-017
 -1.330000000000000E-002   -2.589473927159648E-017
 -1.320000000000000E-002   -1.932452030488888E-017
 -1.310000000000000E-002   -1.055624592253409E-017
 -1.300000000000000E-002    5.307227906815489E-019
 -1.290000000000000E-002    1.395028676128962E-017
 -1.280000000000000E-002    2.956467782793252E-017
 -1.270000000000000E-002    4.704050570635588E-017
 -1.260000000000000E-002    6.581182380396864E-017
 -1.250000000000000E-002    8.505689659870982E-017
 -1.240000000000000E-002    1.036951534385157E-016
 -1.230000000000000E-002    1.204099289092074E-016
 -1.220000000000000E-002    1.337006014232703E-016
 -1.210000000000000E-002    1.419651669514439E-016
 -1.200000000000000E-002    1.436109327487040E-016
 -1.190000000000000E-002    1.371875628641928E-016
 -1.180000000000000E-002    1.215332254445907E-016
 -1.170000000000000E-002    9.592167006222896E-017
 -1.160000000000000E-002    6.019621602187384E-017
 -1.150000000000000E-002    1.487597361109273E-017
 -1.140000000000000E-002   -3.877938284370892E-017
 -1.130000000000000E-002   -9.875746072749171E-017
 -1.120000000000000E-002   -1.623406547429595E-016
 -1.110000000000000E-002   -2.262152084609657E-016
 -1.100000000000000E-002   -2.866376837776972E-016
 -1.090000000000000E-002   -3.396490960461310E-016
 -1.080000000000000E-002   -3.813213103192091E-016
 -1.070000000000000E-002   -4.080167901212445E-016
 -1.060000000000000E-002   -4.166406142819408E-016
 -1.050000000000000E-002   -4.048638404991208E-016
 -1.040000000000000E-002   -3.712999452180449E-016
 -1.030000000000000E-002   -3.156208631533128E-016
 -1.020000000000000E-002   -2.386050763705760E-016
 -1.010000000000000E-002   -1.421176757058151E-016
 -1.000000000000000E-002   -2.902907012399056E-017
 -9.899999999999999E-003    9.691492236621224E-017
 -9.800000000000000E-003    2.312546895535541E-016
 -9.699999999999999E-003    3.689919324014641E-016
 -9.599999999999999E-003    5.047611485767460E-016
 -9.500000000000000E-003    6.329848263939861E-016
 -9.399999999999999E-003    7.480057214916718E-016
 -9.299999999999999E-003    8.441975389604436E-016
 -9.200000000000000E-003    9.160627722153114E-016
 -9.099999999999999E-003    9.583333393003959E-016
 -8.999999999999999E-003    9.660932756171386E-016
 -8.900000000000000E-003    9.349428594453991E-016
 -8.799999999999999E-003    8.612207185280957E-016
 -8.699999999999999E-003    7.422907310184388E-016
 -8.600000000000000E-003    5.768904304894822E-016
 -8.499999999999999E-003    3.655230677514577E-016
 -8.399999999999999E-003    1.108607631939378E-016
 -8.300000000000000E-003   -1.818858559496482E-016
 -8.199999999999999E-003   -5.046861441851038E-016
 -8.100000000000000E-003   -8.465530513499822E-016
 -8.000000000000000E-003   -1.193606854229895E-015
 -7.899999999999999E-003   -1.529381194422164E-015
 -7.800000000000000E-003   -1.835397102211489E-015
 -7.699999999999999E-003   -2.092005920164869E-015
 -7.599999999999999E-003   -2.279473777509476E-015
 -7.499999999999999E-003   -2.379254173176397E-015
 -7.399999999999999E-003   -2.375367408466173E-015
 -7.299999999999999E-003   -2.255785647292770E-015
 -7.199999999999999E-003   -2.013713334682680E-015
 -7.100000000000000E-003   -1.648646673756337E-015
 -6.999999999999999E-003   -1.167108852506533E-015
 -6.899999999999999E-003   -5.829750308582050E-016
 -6.800000000000000E-003    8.267075600509956E-017
 -6.699999999999999E-003    8.021696100707767E-016
 -6.599999999999999E-003    1.542401502025925E-015
 -6.499999999999999E-003    2.266329186402661E-015
 -6.399999999999999E-003    2.934895583679062E-015
 -6.299999999999999E-003    3.509168937512419E-015
 -6.199999999999999E-003    3.952619599724386E-015
 -6.100000000000000E-003    4.233398428417225E-015
 -5.999999999999999E-003    4.326492734641240E-015
 -5.899999999999999E-003    4.215638593981745E-015
 -5.800000000000000E-003    3.894879814822587E-015
 -5.699999999999999E-003    3.369675100273170E-015
 -5.599999999999999E-003    2.657469001600130E-015
 -5.499999999999999E-003    1.787654287570180E-015
 -5.399999999999999E-003    8.008662825777566E-016
 -5.299999999999999E-003   -2.524332430183390E-016
 -5.199999999999999E-003   -1.314105270274424E-015
 -5.099999999999999E-003   -2.321204859192912E-015
 -4.999999999999999E-003   -3.209528758452185E-015
 -4.899999999999999E-003   -3.917733196385832E-015
 -4.799999999999999E-003   -4.391857388650941E-015
 -4.699999999999999E-003   -4.590013611950686E-015
 -4.599999999999999E-003   -4.486933471754868E-015
 -4.499999999999999E-003   -4.077992659180937E-015
 -4.399999999999999E-003   -3.382298251584853E-015
 -4.299999999999999E-003   -2.444402277017825E-015
 -4.199999999999999E-003   -1.334236235505297E-015
 -4.099999999999999E-003   -1.449384726297434E-016
 -3.999999999999999E-003    1.011625645460374E-015
 -3.899999999999999E-003    2.011675655480426E-015
 -3.799999999999999E-003    2.728464991238479E-015
 -3.699999999999999E-003    3.042939848930081E-015
 -3.599999999999999E-003    2.855436766414933E-015
 -3.499999999999999E-003    2.097547285696748E-015
 -3.399999999999999E-003    7.431191643947247E-016
 -3.299999999999999E-003   -1.182721019222859E-015
 -3.199999999999999E-003   -3.597603844206509E-015
 -3.099999999999999E-003   -6.359968417761111E-015
 -2.999999999999999E-003   -9.271842109535127E-015
 -2.899999999999999E-003   -1.208672878868445E-014
 -2.799999999999999E-003   -1.452257379455586E-014
 -2.699999999999999E-003   -1.627932737840284E-014
 -2.599999999999999E-003   -1.706018948381006E-014
 -2.499999999999999E-003   -1.659521592242538E-014
 -2.399999999999999E-003   -1.466566438623807E-014
 -2.299999999999999E-003   -1.112728134585372E-014
 -2.199999999999999E-003   -5.930676896476991E-015
 -2.099999999999999E-003    8.629379143961052E-016
 -1.999999999999999E-003    9.072109170089100E-015
 -1.899999999999999E-003    1.839268192979782E-014
 -1.799999999999999E-003    2.840312621228241E-014
 -1.699999999999999E-003    3.857775063556921E-014
 -1.599999999999999E-003    4.830739052008802E-014
 -1.499999999999999E-003    5.692669834691387E-014
 -1.399999999999999E-003    6.374679034226276E-014
 -1.299999999999999E-003    6.809176347979046E-014
 -1.199999999999999E-003    6.933738284626979E-014
 -1.099999999999999E-003    6.695026686046135E-014
 -9.999999999999989E-004    6.052588089968742E-014
 -8.999999999999990E-004    4.982371103585308E-014
 -7.999999999999990E-004    3.479815212551626E-014
 -6.999999999999989E-004    1.562364371204971E-014
 -5.999999999999990E-004   -7.287332164149253E-015
 -4.999999999999989E-004   -3.327477187677959E-014
 -3.999999999999989E-004   -6.143159549787416E-014
 -2.999999999999989E-004   -9.061542241582923E-014
 -1.999999999999989E-004   -1.194730041442599E-013
 -9.999999999999892E-005   -1.464783909445510E-013
  1.084202172485504E-018   -1.699856306699101E-013
  1.000000000000011E-004   -1.882960506439737E-013
  2.000000000000011E-004   -1.997393474346786E-013
  3.000000000000011E-004   -2.027666069690361E-013
  4.000000000000011E-004   -1.960521487867164E-013
  5.000000000000011E-004   -1.785994613675314E-013
  6.000000000000011E-004   -1.498455460191390E-013
  7.000000000000011E-004   -1.097564160410976E-013
  8.000000000000011E-004   -5.890605399872215E-014
  9.000000000000012E-004    1.469344883252310E-015
  1.000000000000001E-003    6.944952263862909E-014
  1.100000000000001E-003    1.424473168811703E-013
  1.200000000000001E-003    2.172695617740268E-013
  1.300000000000001E-003    2.902239439275669E-013
  1.400000000000001E-003    3.572708311784996E-013
  1.500000000000001E-003    4.142158191366803E-013
  1.600000000000001E-003    4.569348837181860E-013
  1.700000000000001E-003    4.816211992401642E-013
  1.800000000000001E-003    4.850392122195519E-013
  1.900000000000001E-003    4.647702220083839E-013
  2.000000000000001E-003    4.194324105241974E-013
  2.100000000000001E-003    3.488586593181381E-013
  2.200000000000001E-003    2.542171216657313E-013
  2.300000000000001E-003    1.380622045905428E-013
  2.400000000000001E-003    4.307635538895470E-015
  2.500000000000001E-003   -1.418818986121309E-013
  2.600000000000001E-003   -2.942790083101306E-013
  2.700000000000001E-003   -4.458546450043536E-013
  2.800000000000001E-003   -5.890998126897813E-013
  2.900000000000001E-003   -7.163915210781173E-013
  3.000000000000001E-003   -8.203830203484283E-013
  3.100000000000001E-003   -8.943964351881191E-013
  3.200000000000001E-003   -9.327951494115715E-013
  3.300000000000001E-003   -9.313144949837774E-013
  3.400000000000001E-003   -8.873314273022521E-013
  3.500000000000001E-003   -8.000576514002647E-013
  3.600000000000001E-003   -6.706452927331740E-013
  3.700000000000001E-003   -5.021996662269743E-013
  3.800000000000001E-003   -2.996991683455453E-013
  3.900000000000001E-003   -6.982808298156889E-014
  4.000000000000001E-003    1.792675095887940E-013
  4.100000000000001E-003    4.382857934232226E-013
  4.200000000000001E-003    6.971201321255637E-013
  4.300000000000001E-003    9.452357587015542E-013
  4.400000000000001E-003    1.172053355366810E-012
  4.500000000000001E-003    1.367322343205629E-012
  4.600000000000002E-003    1.521468538130464E-012
  4.700000000000001E-003    1.625906596452790E-012
  4.800000000000001E-003    1.673309509469517E-012
  4.900000000000002E-003    1.657835150878690E-012
  5.000000000000001E-003    1.575311724983845E-012
  5.100000000000001E-003    1.423390480626442E-012
  5.200000000000001E-003    1.201674245324399E-012
  5.300000000000002E-003    9.118331573977757E-013
  5.400000000000001E-003    5.577177417727792E-013
  5.500000000000001E-003    1.454752315471141E-013
  5.600000000000002E-003   -3.163285106803177E-013
  5.700000000000001E-003   -8.165874209965186E-013
  5.800000000000001E-003   -1.341546779007633E-012
  5.900000000000002E-003   -1.874731465985763E-012
  6.000000000000001E-003   -2.396941614524767E-012
  6.100000000000001E-003   -2.886353540601980E-012
  6.200000000000002E-003   -3.318770681668110E-012
  6.300000000000002E-003   -3.668066991936983E-012
  6.400000000000001E-003   -3.906864291289489E-012
  6.500000000000001E-003   -4.007476631794436E-012
  6.600000000000002E-003   -3.943138081726273E-012
  6.700000000000001E-003   -3.689512626760047E-012
  6.800000000000001E-003   -3.226458723312451E-012
  6.900000000000002E-003   -2.539993553397503E-012
  7.000000000000001E-003   -1.624371213172017E-012
  7.100000000000001E-003   -4.841597873988289E-013
  7.200000000000002E-003    8.638273504693393E-013
  7.300000000000002E-003    2.388910420110686E-012
  7.400000000000001E-003    4.045410692157516E-012
  7.500000000000001E-003    5.772188167601221E-012
  7.600000000000002E-003    7.493020508069593E-012
  7.700000000000001E-003    9.117971551409734E-012
  7.800000000000001E-003    1.054585629365970E-011
  7.900000000000001E-003    1.166785415105291E-011
  8.000000000000002E-003    1.237226462092004E-011
  8.100000000000001E-003    1.255030953213146E-011
  8.200000000000001E-003    1.210281417357639E-011
  8.300000000000002E-003    1.094750544013154E-011
  8.400000000000001E-003    9.026594025650864E-012
  8.500000000000002E-003    6.314218569787443E-012
  8.600000000000002E-003    2.823288223861900E-012
  8.700000000000001E-003   -1.388782073387530E-012
  8.800000000000002E-003   -6.215968581791224E-012
  8.900000000000002E-003   -1.150165717856224E-011
  9.000000000000001E-003   -1.703923896573891E-011
  9.100000000000002E-003   -2.257562794397841E-011
  9.200000000000002E-003   -2.781795147988259E-011
  9.300000000000001E-003   -3.244348286247316E-011
  9.400000000000002E-003   -3.611273460262349E-011
  9.500000000000001E-003   -3.848541053323395E-011
  9.600000000000001E-003   -3.923873122677672E-011
  9.700000000000002E-003   -3.808741382922732E-011
  9.800000000000001E-003   -3.480441858736270E-011
  9.900000000000001E-003   -2.924141190358053E-011
  1.000000000000000E-002   -2.134774753661033E-011
  1.010000000000000E-002   -1.118673624439622E-011
  1.020000000000000E-002    1.052083713420340E-012
  1.030000000000000E-002    1.504583359268247E-011
  1.040000000000000E-002    3.033739835473553E-011
  1.050000000000000E-002    4.634158408640740E-011
  1.060000000000000E-002    6.235882394610674E-011
  1.070000000000000E-002    7.759663694300607E-011
  1.080000000000000E-002    9.119852844132480E-011
  1.090000000000000E-002    1.022797050133728E-010
  1.100000000000000E-002    1.099683866374116E-010
  1.110000000000000E-002    1.134511628188147E-010
  1.120000000000000E-002    1.120203901984597E-010
  1.130000000000000E-002    1.051213510609343E-010
  1.140000000000000E-002    9.239665805227241E-011
  1.150000000000000E-002    7.372522213044200E-011
  1.160000000000000E-002    4.925335714728937E-011
  1.170000000000000E-002    1.941557460186604E-011
  1.180000000000000E-002   -1.505694872160297E-011
  1.190000000000000E-002   -5.314167719039488E-011
  1.200000000000000E-002   -9.354471988136058E-011
  1.210000000000000E-002   -1.347357098326230E-010
  1.220000000000000E-002   -1.749968715600356E-010
  1.230000000000000E-002   -2.124849114089693E-010
  1.240000000000000E-002   -2.453035345160194E-010
  1.250000000000000E-002   -2.715835989013253E-010
  1.260000000000000E-002   -2.895675478247593E-010
  1.270000000000000E-002   -2.976940273683119E-010
  1.280000000000000E-002   -2.946788524691276E-010
  1.290000000000000E-002   -2.795879423475309E-010
  1.300000000000000E-002   -2.518985321072795E-010
  1.310000000000000E-002   -2.115451879403281E-010
  1.320000000000000E-002   -1.589480726274725E-010
  1.330000000000000E-002   -9.502141228589090E-011
  1.340000000000000E-002   -2.116156424899272E-011
  1.350000000000000E-002    6.078517845211962E-011
  1.360000000000000E-002    1.485736617140139E-010
  1.370000000000000E-002    2.396274078934033E-010
  1.380000000000000E-002    3.311193448211283E-010
  1.390000000000000E-002    4.200617720462842E-010
  1.400000000000000E-002    5.034009726564707E-010
  1.410000000000000E-002    5.781118575570479E-010
  1.420000000000000E-002    6.412881268754642E-010
  1.430000000000000E-002    6.902238687242254E-010
  1.440000000000000E-002    7.224832024770711E-010
  1.450000000000000E-002    7.359554479760546E-010
  1.460000000000000E-002    7.288950688798364E-010
  1.470000000000000E-002    6.999461267107266E-010
  1.480000000000000E-002    6.481529403915567E-010
  1.490000000000000E-002    5.729597357699731E-010
  1.500000000000000E-002    4.742027143799342E-010
  1.510000000000000E-002    3.521002440959806E-010
  1.520000000000000E-002    2.072451806166930E-010
  1.530000000000000E-002    4.060524499322144E-011
  1.540000000000000E-002   -1.464639104381187E-010
  1.550000000000000E-002   -3.521894752760977E-010
  1.560000000000000E-002   -5.743329405978412E-010
  1.570000000000000E-002   -8.101224491471243E-010
  1.580000000000000E-002   -1.056167073257388E-009
  1.590000000000000E-002   -1.308357142863813E-009
  1.600000000000000E-002   -1.561757544579619E-009
  1.610000000000000E-002   -1.810502143302403E-009
  1.620000000000000E-002   -2.047701585882823E-009
  1.630000000000000E-002   -2.265375248366875E-009
  1.640000000000000E-002   -2.454424509954711E-009
  1.650000000000000E-002   -2.604658156008135E-009
  1.660000000000000E-002   -2.704885905502842E-009
  1.670000000000000E-002   -2.743092182331330E-009
  1.680000000000000E-002   -2.706697924081780E-009
  1.690000000000000E-002   -2.582920541650458E-009
  1.700000000000000E-002   -2.359230009392161E-009
  1.710000000000000E-002   -2.023899632567161E-009
  1.720000000000000E-002   -1.566644282718257E-009
  1.730000000000000E-002   -9.793281401402189E-010
  1.740000000000000E-002   -2.567239020596417E-010
  1.750000000000000E-002    6.027060156428109E-010
  1.760000000000000E-002    1.596033741323757E-009
  1.770000000000000E-002    2.715134936022066E-009
  1.780000000000000E-002    3.946042261007286E-009
  1.790000000000000E-002    5.268419852077530E-009
  1.800000000000000E-002    6.655203397396348E-009
  1.810000000000000E-002    8.072443453274048E-009
  1.820000000000000E-002    9.479386391789117E-009
  1.830000000000000E-002    1.082882784784355E-008
  1.840000000000000E-002    1.206775420191201E-008
  1.850000000000000E-002    1.313829820838784E-008
  1.860000000000000E-002    1.397900858200470E-008
  1.870000000000000E-002    1.452643331195867E-008