 -4.000000000000000E-002    0.000000000000000E+000
 -3.990000000000000E-002    0.000000000000000E+000
 -3.980000000000000E-002   -9.648006348987985E-012
 -3.970000000000000E-002   -3.986258492684415E-011
 -3.960000000000000E-002   -8.522583964052976E-011
 -3.950000000000000E-002   -9.999039094553665E-011
 -3.940000000000000E-002    2.723300645284159E-011
 -3.930000000000000E-002    4.936018519278500E-010
 -3.920000000000000E-002    1.590205102935016E-009
 -3.910000000000000E-002    3.692601322375666E-009
 -3.900000000000000E-002    7.230496357083758E-009
 -3.890000000000000E-002    1.263684038485683E-008
 -3.880000000000000E-002    2.028056378965519E-008
 -3.870000000000000E-002    3.039099147501652E-008
 -3.860000000000000E-002    4.298509796317963E-008
 -3.850000000000000E-002    5.780996774918189E-008
 -3.840000000000000E-002    7.431272619563456E-008
 -3.830000000000000E-002    9.164742736936902E-008
 -3.820000000000000E-002    1.087239928534996E-007
 -3.810000000000000E-002    1.242985272652016E-007
 -3.800000000000000E-002    1.370975578341536E-007
 -3.790000000000000E-002    1.459627025826272E-007
 -3.780000000000000E-002    1.499970456318395E-007
 -3.770000000000000E-002    1.486918392342507E-007
 -3.760000000000000E-002    1.420120184739956E-007
 -3.750000000000000E-002    1.304222228423260E-007
 -3.740000000000000E-002    1.148409109295969E-007
 -3.730000000000000E-002    9.651902069677070E-008
 -3.720000000000000E-002    7.684904513716614E-008
 -3.710000000000000E-002    5.712108470257476E-008
 -3.700000000000000E-002    3.825071928585681E-008
 -3.690000000000000E-002    2.051065303774057E-008
 -3.680000000000000E-002    3.300383427755539E-009
 -3.670000000000000E-002   -1.501300918652366E-008
 -3.660000000000000E-002   -3.715575812567608E-008
 -3.650000000000000E-002   -6.689194599444641E-008
 -3.640000000000000E-002   -1.088469111872436E-007
 -3.630000000000000E-002   -1.682191385785306E-007
 -3.620000000000000E-002   -2.504027798070745E-007
 -3.610000000000000E-002   -3.605570255431490E-007
 -3.600000000000000E-002   -5.031649005007608E-007
 -3.590000000000000E-002   -6.816305275987562E-007
 -3.580000000000000E-002   -8.979589795937071E-007
 -3.570000000000000E-002   -1.152558621325488E-006
 -3.560000000000000E-002   -1.444193263721482E-006
 -3.550000000000000E-002   -1.770093638618862E-006
 -3.540000000000000E-002   -2.126226202974734E-006
 -3.530000000000000E-002   -2.507693406381548E-006
 -3.520000000000000E-002   -2.909232195958703E-006
 -3.510000000000000E-002   -3.325758490957418E-006
 -3.500000000000000E-002   -3.752912980002055E-006
 -3.490000000000000E-002   -4.187544669297053E-006
 -3.480000000000000E-002   -4.628098963206842E-006
 -3.470000000000000E-002   -5.074867728928375E-006
 -3.460000000000000E-002   -5.530081156715284E-006
 -3.450000000000000E-002   -5.997849900711385E-006
 -3.440000000000000E-002   -6.483958079397128E-006
 -3.430000000000000E-002   -6.995546682820946E-006
 -3.420000000000000E-002   -7.540718962470794E-006
 -3.410000000000000E-002   -8.128121485130238E-006
 -3.400000000000000E-002   -8.766540688294759E-006
 -3.390000000000000E-002   -9.464546030490826E-006
 -3.380000000000000E-002   -1.023023888480956E-005
 -3.370000000000000E-002   -1.107108478918787E-005
 -3.360000000000000E-002   -1.199386585439755E-005
 -3.350000000000000E-002   -1.300473014314329E-005
 -3.340000000000000E-002   -1.410931374498844E-005
 -3.330000000000000E-002   -1.531292574675120E-005
 -3.320000000000000E-002   -1.662073490553946E-005
 -3.310000000000000E-002   -1.803795870955522E-005
 -3.300000000000000E-002   -1.957001961682730E-005
 -3.290000000000000E-002   -2.122263637218752E-005
 -3.280000000000000E-002   -2.300187556321262E-005
 -3.270000000000000E-002   -2.491414023679498E-005
 -3.260000000000000E-002   -2.696612322127180E-005
 -3.250000000000000E-002   -2.916474780988317E-005
 -3.240000000000000E-002   -3.151710363762612E-005
 -3.230000000000000E-002   -3.403040391086351E-005
 -3.220000000000000E-002   -3.671198269010248E-005
 -3.210000000000000E-002   -3.956935376050430E-005
 -3.200000000000000E-002   -4.261031817691479E-005
 -3.190000000000000E-002   -4.584308376105237E-005
 -3.180000000000000E-002   -4.927645258048022E-005
 -3.170000000000000E-002   -5.291997761461024E-005
 -3.160000000000000E-002   -5.678414088609610E-005
 -3.150000000000000E-002   -6.088046686827433E-005
 -3.140000000000000E-002   -6.522159203693383E-005
 -3.130000000000000E-002   -6.982127501228671E-005
 -3.120000000000000E-002   -7.469432259034081E-005
 -3.110000000000000E-002   -7.985654144442078E-005
 -3.100000000000000E-002   -8.532455888158927E-005
 -3.090000000000000E-002   -9.111569759301680E-005
 -3.080000000000000E-002   -9.724781762110717E-005
 -3.070000000000000E-002   -1.037392576415409E-004
 -3.060000000000000E-002   -1.106087803814260E-004
 -3.050000000000000E-002   -1.178756075018861E-004
 -3.040000000000000E-002   -1.255595354961083E-004
 -3.030000000000000E-002   -1.336810929697730E-004
 -3.020000000000000E-002   -1.422617195784216E-004
 -3.010000000000000E-002   -1.513241051339833E-004
 -3.000000000000000E-002   -1.608923388539801E-004
 -2.990000000000000E-002   -1.709922015765529E-004
 -2.980000000000000E-002   -1.816513148080179E-004
 -2.970000000000000E-002   -1.928992484202505E-004
 -2.960000000000000E-002   -2.047676115975799E-004
 -2.950000000000000E-002   -2.172899439470380E-004
 -2.940000000000000E-002   -2.305017118819838E-004
 -2.930000000000000E-002   -2.444401923713178E-004
 -2.920000000000000E-002   -2.591442503282185E-004
 -2.910000000000000E-002   -2.746543086694357E-004
 -2.900000000000000E-002   -2.910122373409861E-004
 -2.890000000000000E-002   -3.082612250391820E-004
 -2.880000000000000E-002   -3.264459012264542E-004
 -2.870000000000000E-002   -3.456123874587983E-004
 -2.860000000000000E-002   -3.658085484836837E-004
 -2.850000000000000E-002   -3.870841467886472E-004
 -2.840000000000000E-002   -4.094911312118937E-004
 -2.830000000000000E-002   -4.330839799318819E-004
 -2.820000000000000E-002   -4.579199840117790E-004
 -2.810000000000000E-002   -4.840595242687764E-004
 -2.800000000000000E-002   -5.115662968507792E-004
 -2.790000000000000E-002   -5.405074658179090E-004
 -2.780000000000000E-002   -5.709538754673163E-004
 -2.770000000000000E-002   -6.029799365269262E-004
 -2.760000000000000E-002   -6.366638411043383E-004
 -2.750000000000000E-002   -6.720873648931025E-004
 -2.740000000000000E-002   -7.093358513877667E-004
 -2.730000000000000E-002   -7.484981322618458E-004
 -2.720000000000000E-002   -7.896664667516429E-004
 -2.710000000000000E-002   -8.329363365949415E-004
 -2.700000000000000E-002   -8.784067317653353E-004
 -2.690000000000000E-002   -9.261799378445635E-004
 -2.680000000000000E-002   -9.763617455961186E-004
 -2.670000000000000E-002   -1.029061585510874E-003
 -2.660000000000000E-002   -1.084392860260110E-003
 -2.650000000000000E-002   -1.142473140107725E-003
 -2.640000000000000E-002   -1.203424416804586E-003
 -2.630000000000000E-002   -1.267373702849586E-003
 -2.620000000000000E-002   -1.334453189749794E-003
 -2.610000000000000E-002   -1.404801074607248E-003
 -2.600000000000000E-002   -1.478561411240750E-003
 -2.590000000000000E-002   -1.555884861555090E-003
 -2.580000000000000E-002   -1.636929158061843E-003
 -2.570000000000000E-002   -1.721858626716143E-003
 -2.560000000000000E-002   -1.810845137482765E-003
 -2.550000000000000E-002   -1.904067759682587E-003
 -2.540000000000000E-002   -2.001713171689671E-003
 -2.530000000000000E-002   -2.103974696463273E-003
 -2.520000000000000E-002   -2.211053599477206E-003
 -2.510000000000000E-002   -2.323157510761481E-003
 -2.500000000000000E-002   -2.440500948535238E-003
 -2.490000000000000E-002   -2.563305216686842E-003
 -2.480000000000000E-002   -2.691798176313737E-003
 -2.470000000000000E-002   -2.826214111451977E-003
 -2.460000000000000E-002   -2.966795123461079E-003
 -2.450000000000000E-002   -3.113789712979134E-003
 -2.440000000000000E-002   -3.267454284446436E-003
 -2.430000000000000E-002   -3.428053400945002E-003
 -2.420000000000000E-002   -3.595861142542179E-003
 -2.410000000000000E-002   -3.771160339604002E-003
 -2.400000000000000E-002   -3.954245023756622E-003
 -2.390000000000000E-002   -4.145419593917576E-003
 -2.380000000000000E-002   -4.345001256359242E-003
 -2.370000000000000E-002   -4.553318039151611E-003
 -2.360000000000000E-002   -4.770711137790182E-003
 -2.350000000000000E-002   -4.997532969939654E-003
 -2.340000000000000E-002   -5.234150028808921E-003
 -2.330000000000000E-002   -5.480938903375452E-003
 -2.320000000000000E-002   -5.738289755399599E-003
 -2.310000000000000E-002   -6.006604421271274E-003
 -2.300000000000000E-002   -6.286294473560839E-003
 -2.290000000000000E-002   -6.577784341501775E-003
 -2.280000000000000E-002   -6.881508022841350E-003
 -2.270000000000000E-002   -7.197912473075239E-003
 -2.260000000000000E-002   -7.527455199504280E-003
 -2.250000000000000E-002   -7.870607012567475E-003
 -2.240000000000000E-002   -8.227850528621249E-003
 -2.230000000000000E-002   -8.599682947332252E-003
 -2.220000000000000E-002   -8.986615238204132E-003
 -2.210000000000000E-002   -9.389174547083502E-003
 -2.200000000000000E-002   -9.807903368989382E-003
 -2.190000000000000E-002   -1.024335926269463E-002
 -2.180000000000000E-002   -1.069611638839532E-002
 -2.170000000000000E-002   -1.116676767041689E-002
 -2.160000000000000E-002   -1.165591999469950E-002
 -2.150000000000000E-002   -1.216419777034516E-002
 -2.140000000000000E-002   -1.269224265554502E-002
 -2.130000000000000E-002   -1.324070977747697E-002
 -2.120000000000000E-002   -1.381027118800969E-002
 -2.110000000000000E-002   -1.440161432408588E-002
 -2.100000000000000E-002   -1.501544078224407E-002
 -2.090000000000000E-002   -1.565246731881912E-002
 -2.080000000000000E-002   -1.631342870317737E-002
 -2.070000000000000E-002   -1.699907431081340E-002
 -2.060000000000000E-002   -1.771016863567892E-002
 -2.050000000000000E-002   -1.844749571661901E-002
 -2.040000000000000E-002   -1.921185516298993E-002
 -2.030000000000000E-002   -2.000406508065605E-002
 -2.020000000000000E-002   -2.082496757317236E-002
 -2.010000000000000E-002   -2.167541532873733E-002
 -2.000000000000000E-002   -2.255628273920591E-002
 -1.990000000000000E-002   -2.346846637248985E-002
 -1.980000000000000E-002   -2.441287633914056E-002
 -1.970000000000000E-002   -2.539044121148950E-002
 -1.960000000000000E-002   -2.640210928555617E-002
 -1.950000000000000E-002   -2.744884042127139E-002
 -1.940000000000000E-002   -2.853161591056798E-002
 -1.930000000000000E-002   -2.965142571075644E-002
 -1.920000000000000E-002   -3.080928465200833E-002
 -1.910000000000000E-002   -3.200621653945630E-002
 -1.900000000000000E-002   -3.324326194304131E-002
 -1.890000000000000E-002   -3.452147885290723E-002
 -1.880000000000000E-002   -3.584193834015491E-002
 -1.870000000000000E-002   -3.720572469928300E-002
 -1.860000000000000E-002   -3.861394489879862E-002
 -1.850000000000000E-002   -4.006772227622856E-002
 -1.840000000000000E-002   -4.156818744042048E-002
 -1.830000000000000E-002   -4.311648702103563E-002
 -1.820000000000000E-002   -4.471379292982837E-002
 -1.810000000000000E-002   -4.636128146192790E-002
 -1.800000000000000E-002   -4.806014103976330E-002
 -1.790000000000000E-002   -4.981157957690660E-002
 -1.780000000000000E-002   -5.161681259415962E-002
 -1.770000000000000E-002   -5.347706659698000E-002
 -1.760000000000000E-002   -5.539357337935404E-002
 -1.750000000000000E-002   -5.736757851127246E-002
 -1.740000000000000E-002   -5.940032632978438E-002
 -1.730000000000000E-002   -6.149307925397048E-002
 -1.720000000000000E-002   -6.364710181888740E-002
 -1.710000000000000E-002   -6.586366356974417E-002
 -1.700000000000000E-002   -6.814404392248354E-002
 -1.690000000000000E-002   -7.048951903064533E-002
 -1.680000000000000E-002   -7.290137174866507E-002
 -1.670000000000000E-002   -7.538089055156388E-002
 -1.660000000000000E-002   -7.792934819923152E-002
 -1.650000000000000E-002   -8.054806018260240E-002
 -1.640000000000000E-002   -8.323828996758854E-002
 -1.630000000000000E-002   -8.600133521403051E-002
 -1.620000000000000E-002   -8.883847859730004E-002
 -1.610000000000000E-002   -9.175099977944731E-002
 -1.600000000000000E-002   -9.474016246354827E-002
 -1.590000000000000E-002   -9.780724163949733E-002
 -1.580000000000000E-002   -0.100953470328477     
 -1.570000000000000E-002   -0.104180111186886     
 -1.560000000000000E-002   -0.107488374283545     
 -1.550000000000000E-002   -0.110879483094488     
 -1.540000000000000E-002   -0.114354623411270     
 -1.530000000000000E-002   -0.117914982069032     
 -1.520000000000000E-002   -0.121561710354942     
 -1.510000000000000E-002   -0.125295965157779     
 -1.500000000000000E-002   -0.129118852151280     
 -1.490000000000000E-002   -0.133031455737073     
 -1.480000000000000E-002   -0.137034846610382     
 -1.470000000000000E-002   -0.141130058793320     
 -1.460000000000000E-002   -0.145318095502867     
 -1.450000000000000E-002   -0.149599936353299     
 -1.440000000000000E-002   -0.153976514288654     
 -1.430000000000000E-002   -0.158448729813046     
 -1.420000000000000E-002   -0.163017458011657     
 -1.410000000000000E-002   -0.167683485032009     
 -1.400000000000000E-002   -0.172447619397121     
 -1.390000000000000E-002   -0.177310578620039     
 -1.380000000000000E-002   -0.182273051773438     
 -1.370000000000000E-002   -0.187335654120513     
 -1.360000000000000E-002   -0.192498972040193     
 -1.350000000000000E-002   -0.197763541602883     
 -1.340000000000000E-002   -0.203129801161241     
 -1.330000000000000E-002   -0.208598163021961     
 -1.320000000000000E-002   -0.214168968141268     
 -1.310000000000000E-002   -0.219842490058353     
 -1.300000000000000E-002   -0.225618937825286     
 -1.290000000000000E-002   -0.231498427667568     
 -1.280000000000000E-002   -0.237481029701956     
 -1.270000000000000E-002   -0.243566745191872     
 -1.260000000000000E-002   -0.249755457954245     
 -1.250000000000000E-002   -0.256047016871346     
 -1.240000000000000E-002   -0.262441160213953     
 -1.230000000000000E-002   -0.268937520796347     
 -1.220000000000000E-002   -0.275535675692635     
 -1.210000000000000E-002   -0.282235115115759     
 -1.200000000000000E-002   -0.289035235625593     
 -1.190000000000000E-002   -0.295935322365577     
 -1.180000000000000E-002   -0.302934563358740     
 -1.170000000000000E-002   -0.310032021551366     
 -1.160000000000000E-002   -0.317226719916716     
 -1.150000000000000E-002   -0.324517521234961     
 -1.140000000000000E-002   -0.331903210422516     
 -1.130000000000000E-002   -0.339382466744891     
 -1.120000000000000E-002   -0.346953847870153     
 -1.110000000000000E-002   -0.354615762760832     
 -1.100000000000000E-002   -0.362366556227922     
 -1.090000000000000E-002   -0.370204422394585     
 -1.080000000000000E-002   -0.378127432447210     
 -1.070000000000000E-002   -0.386133584574015     
 -1.060000000000000E-002   -0.394220708588091     
 -1.050000000000000E-002   -0.402386524093555     
 -1.040000000000000E-002   -0.410628631287713     
 -1.030000000000000E-002   -0.418944497643491     
 -1.020000000000000E-002   -0.427331398538662     
 -1.010000000000000E-002   -0.435786594512359     
 -1.000000000000000E-002   -0.444307129626406     
 -9.899999999999999E-003   -0.452889897541550     
 -9.800000000000000E-003   -0.461531728693513     
 -9.699999999999999E-003   -0.470229239310139     
 -9.599999999999999E-003   -0.478978948767077     
 -9.500000000000000E-003   -0.487777291596791     
 -9.399999999999999E-003   -0.496620503619602     
 -9.299999999999999E-003   -0.505504655368959     
 -9.200000000000000E-003   -0.514425745440270     
 -9.099999999999999E-003   -0.523379572095292     
 -8.999999999999999E-003   -0.532361883625980     
 -8.900000000000000E-003   -0.541368203579680     
 -8.799999999999999E-003   -0.550393995100603     
 -8.699999999999999E-003   -0.559434484778813     
 -8.600000000000000E-003   -0.568484863594827     
 -8.499999999999999E-003   -0.577540099234463     
 -8.399999999999999E-003   -0.586595093371848     
 -8.300000000000000E-003   -0.595644600022584     
 -8.199999999999999E-003   -0.604683214987333     
 -8.100000000000000E-003   -0.613705426693647     
 -8.000000000000000E-003   -0.622705576097435     
 -7.899999999999999E-003   -0.631677920283101     
 -7.800000000000000E-003   -0.640616491749717     
 -7.699999999999999E-003   -0.649515316848229     
 -7.599999999999999E-003   -0.658368236848542     
 -7.499999999999999E-003   -0.667168988252509     
 -7.399999999999999E-003   -0.675911139047105     
 -7.299999999999999E-003   -0.684588305542934     
 -7.199999999999999E-003   -0.693193819815343     
 -7.100000000000000E-003   -0.701721033894436     
 -6.999999999999999E-003   -0.710163137605401     
 -6.899999999999999E-003   -0.718513226710108     
 -6.800000000000000E-003   -0.726764304101628     
 -6.699999999999999E-003   -0.734909350673717     
 -6.599999999999999E-003   -0.742941164080464     
 -6.499999999999999E-003   -0.750852526186961     
 -6.399999999999999E-003   -0.758636107580930     
 -6.299999999999999E-003   -0.766284591253455     
 -6.199999999999999E-003   -0.773790496418973     
 -6.100000000000000E-003   -0.781146310090128     
 -5.999999999999999E-003   -0.788344460044414     
 -5.899999999999999E-003   -0.795377392165435     
 -5.800000000000000E-003   -0.802237523296526     
 -5.699999999999999E-003   -0.808917131062986     
 -5.599999999999999E-003   -0.815408456331699     
 -5.499999999999999E-003   -0.821703836508640     
 -5.399999999999999E-003   -0.827795511140589     
 -5.299999999999999E-003   -0.833675800004575     
 -5.199999999999999E-003   -0.839337002802760     
 -5.099999999999999E-003   -0.844771304073962     
 -4.999999999999999E-003   -0.849970971811463     
 -4.899999999999999E-003   -0.854928344824647     
 -4.799999999999999E-003   -0.859635778892680     
 -4.699999999999999E-003   -0.864085644232242     
 -4.599999999999999E-003   -0.868270359050998     
 -4.499999999999999E-003   -0.872182374214960     
 -4.399999999999999E-003   -0.875814277976937     
 -4.299999999999999E-003   -0.879158604311883     
 -4.199999999999999E-003   -0.882208034482048     
 -4.099999999999999E-003   -0.884955312367401     
 -3.999999999999999E-003   -0.887393326950227     
 -3.899999999999999E-003   -0.889515038491504     
 -3.799999999999999E-003   -0.891313553060684     
 -3.699999999999999E-003   -0.892782032008507     
 -3.599999999999999E-003   -0.893913776547022     
 -3.499999999999999E-003   -0.894702307276735     
 -3.399999999999999E-003   -0.895141216013813     
 -3.299999999999999E-003   -0.895224296762654     
 -3.199999999999999E-003   -0.894945468582687     
 -3.099999999999999E-003   -0.894298846099066     
 -2.999999999999999E-003   -0.893278691187519     
 -2.899999999999999E-003   -0.891879505034746     
 -2.799999999999999E-003   -0.890095908509165     
 -2.699999999999999E-003   -0.887922751493227     
 -2.599999999999999E-003   -0.885355174919526     
 -2.499999999999999E-003   -0.882388416575770     
 -2.399999999999999E-003   -0.879017994940066     
 -2.299999999999999E-003   -0.875239735133057     
 -2.199999999999999E-003   -0.871049641114533     
 -2.099999999999999E-003   -0.866443955108152     
 -1.999999999999999E-003   -0.861419230004732     
 -1.899999999999999E-003   -0.855972274152377     
 -1.799999999999999E-003   -0.850100153485005     
 -1.699999999999999E-003   -0.843800267569643     
 -1.599999999999999E-003   -0.837070199686123     
 -1.499999999999999E-003   -0.829907969200089     
 -1.399999999999999E-003   -0.822311770660133     
 -1.299999999999999E-003   -0.814280204500086     
 -1.199999999999999E-003   -0.805812063486494     
 -1.099999999999999E-003   -0.796906591548120     
 -9.999999999999989E-004   -0.787563268726468     
 -8.999999999999990E-004   -0.777781880701636     
 -7.999999999999990E-004   -0.767562653081391     
 -6.999999999999989E-004   -0.756906048024870     
 -5.999999999999990E-004   -0.745812944184509     
 -4.999999999999989E-004   -0.734284500087669     
 -3.999999999999989E-004   -0.722322243280094     
 -2.999999999999989E-004   -0.709928049780924     
 -1.999999999999989E-004   -0.697104222502673     
 -9.999999999999892E-005   -0.683853306050031     
  1.084202172485504E-018   -0.670178239040472     
  1.000000000000011E-004   -0.656082359672971     
  2.000000000000011E-004   -0.641569349343903     
  3.000000000000011E-004   -0.626643222473388     
  4.000000000000011E-004   -0.611308375701482     
  5.000000000000011E-004   -0.595569591638164     
  6.000000000000011E-004   -0.579431995760054     
  7.000000000000011E-004   -0.562901029420511     
  8.000000000000011E-004   -0.545982591116853     
  9.000000000000012E-004   -0.528682862355037     
  1.000000000000001E-003   -0.511008394634437     
  1.100000000000001E-003   -0.492966116933375     
  1.200000000000001E-003   -0.474563299292985     
  1.300000000000001E-003   -0.455807526426866     
  1.400000000000001E-003   -0.436706755435766     
  1.500000000000001E-003   -0.417269266265846     
  1.600000000000001E-003   -0.397503674696573     
  1.700000000000001E-003   -0.377418951168065     
  1.800000000000001E-003   -0.357024347581311     
  1.900000000000001E-003   -0.336329453696104     
  2.000000000000001E-003   -0.315344162437417     
  2.100000000000001E-003   -0.294078670531224     
  2.200000000000001E-003   -0.272543466173546     
  2.300000000000001E-003   -0.250749352359419     
  2.400000000000001E-003   -0.228707386027810     
  2.500000000000001E-003   -0.206428934371827     
  2.600000000000001E-003   -0.183925565822930     
  2.700000000000001E-003   -0.161209196994379     
  2.800000000000001E-003   -0.138291913243363     
  2.900000000000001E-003   -0.115186090299284     
  3.000000000000001E-003   -9.190428066113594E-002
  3.100000000000001E-003   -6.845933092978268E-002
  3.200000000000001E-003   -4.486418828378232E-002
  3.300000000000001E-003   -2.113205265817293E-002
  3.400000000000001E-003    2.723688845830418E-003
  3.500000000000001E-003    2.668950369494855E-002
  3.600000000000001E-003    5.075170164667510E-002
  3.700000000000001E-003    7.489640417644455E-002
  3.800000000000001E-003    9.910967926398465E-002
  3.900000000000001E-003    0.123377364892116     
  4.000000000000001E-003    0.147685255987830     
  4.100000000000001E-003    0.172019042887023     
  4.200000000000001E-003    0.196364279838986     
  4.300000000000001E-003    0.220706516570204     
  4.400000000000001E-003    0.245031279824509     
  4.500000000000001E-003    0.269323909400834     
  4.600000000000002E-003    0.293569867538927     
  4.700000000000001E-003    0.317754500093669     
  4.800000000000001E-003    0.341863199405002     
  4.900000000000002E-003    0.365881339387576     
  5.000000000000001E-003    0.389794345432269     
  5.100000000000001E-003    0.413587671718294     
  5.200000000000001E-003    0.437246847978066     
  5.300000000000002E-003    0.460757523087358     
  5.400000000000001E-003    0.484105294772311     
  5.500000000000001E-003    0.507275970945627     
  5.600000000000002E-003    0.530255455030670     
  5.700000000000001E-003    0.553029664612426     
  5.800000000000001E-003    0.575584833728415     
  5.900000000000002E-003    0.597907206733610     
  6.000000000000001E-003    0.619983214710666     
  6.100000000000001E-003    0.641799488132358     
  6.200000000000002E-003    0.663342792779160     
  6.300000000000002E-003    0.684600217278353     
  6.400000000000001E-003    0.705558929579039     
  6.500000000000001E-003    0.726206414858619     
  6.600000000000002E-003    0.746530456800747     
  6.700000000000001E-003    0.766519029146720     
  6.800000000000001E-003    0.786160250060751     
  6.900000000000002E-003    0.805442742567807     
  7.000000000000001E-003    0.824355310827697     
  7.100000000000001E-003    0.842887038495736     
  7.200000000000002E-003    0.861027302076922     
  7.300000000000002E-003    0.878765884377215     
  7.400000000000001E-003    0.896092784428901     
  7.500000000000001E-003    0.912998372672273     
  7.600000000000002E-003    0.929473481049906     
  7.700000000000001E-003    0.945509145723948     
  7.800000000000001E-003    0.961096856686218     
  7.900000000000001E-003    0.976228412459063     
  8.000000000000002E-003    0.990895980661053     
  8.100000000000001E-003     1.00509213965199     
  8.200000000000001E-003     1.01880986883468     
  8.300000000000002E-003     1.03204263302250     
  8.400000000000001E-003     1.04478412602497     
  8.500000000000002E-003     1.05702867572229     
  8.600000000000002E-003     1.06877076955182     
  8.700000000000001E-003     1.08000545316466     
  8.800000000000002E-003     1.09072832680013     
  8.900000000000002E-003     1.10093514573752     
  9.000000000000001E-003     1.11062230062075     
  9.100000000000002E-003     1.11978645726651     
  9.200000000000002E-003     1.12842477319643     
  9.300000000000001E-003     1.13653488775428     
  9.400000000000002E-003     1.14411476816063     
  9.500000000000001E-003     1.15116284934204     
  9.600000000000001E-003     1.15767808034080     
  9.700000000000002E-003     1.16365973986448     
  9.800000000000001E-003     1.16910763162130     
  9.900000000000001E-003     1.17402178861071     
  1.000000000000000E-002     1.17840295681573     
  1.010000000000000E-002     1.18225208621630     
  1.020000000000000E-002     1.18557062567022     
  1.030000000000000E-002     1.18836047784566     
  1.040000000000000E-002     1.19062394778159     
  1.050000000000000E-002     1.19236359603108     
  1.060000000000000E-002     1.19358256037561     
  1.070000000000000E-002     1.19428433842605     
  1.080000000000000E-002     1.19447271742105     
  1.090000000000000E-002     1.19415191236665     
  1.100000000000000E-002     1.19332660957822     
  1.110000000000000E-002     1.19200175674257     
  1.120000000000000E-002     1.19018265315590     
  1.130000000000000E-002     1.18787515567954     
  1.140000000000000E-002     1.18508516697113     
  1.150000000000000E-002     1.18181911200690     
  1.160000000000000E-002     1.17808377684176     
  1.170000000000000E-002     1.17388624132070     
  1.180000000000000E-002     1.16923378380796     
  1.190000000000000E-002     1.16413407647599     
  1.200000000000000E-002     1.15859504145981     
  1.210000000000000E-002     1.15262491253735     
  1.220000000000000E-002     1.14623208194493     
  1.230000000000000E-002     1.13942535430397     
  1.240000000000000E-002     1.13221371934875     
  1.250000000000000E-002     1.12460632349521     
  1.260000000000000E-002     1.11661268566816     
  1.270000000000000E-002     1.10824232167654     
  1.280000000000000E-002     1.09950518316020     
  1.290000000000000E-002     1.09041125948959     
  1.300000000000000E-002     1.08097081701211     
  1.310000000000000E-002     1.07119429964504     
  1.320000000000000E-002     1.06109219312200     
  1.330000000000000E-002     1.05067517330548     
  1.340000000000000E-002     1.03995407290102     
  1.350000000000000E-002     1.02893981181612     
  1.360000000000000E-002     1.01764342833041     
  1.370000000000000E-002     1.00607605989101     
  1.380000000000000E-002    0.994248839756352     
  1.390000000000000E-002    0.982173081238590     
  1.400000000000000E-002    0.969860090342308     
  1.410000000000000E-002    0.957321180986603     
  1.420000000000000E-002    0.944567777040172     
  1.430000000000000E-002    0.931611253032226     
  1.440000000000000E-002    0.918463053469243     
  1.450000000000000E-002    0.905134549329735     
  1.460000000000000E-002    0.891637144424158     
  1.470000000000000E-002    0.877982244018740     
  1.480000000000000E-002    0.864181186085747     
  1.490000000000000E-002    0.850245317943885     
  1.500000000000000E-002    0.836185859365243     
  1.510000000000000E-002    0.822013977645599     
  1.520000000000000E-002    0.807740781269023     
  1.530000000000000E-002    0.793377220589543     
  1.540000000000000E-002    0.778934282529538     
  1.550000000000000E-002    0.764422689755039     
  1.560000000000000E-002    0.749853144590564     
  1.570000000000000E-002    0.735236154916940     
  1.580000000000000E-002    0.720582113229929     
  1.590000000000000E-002    0.705901303856652     
  1.600000000000000E-002    0.691203827571292     
  1.610000000000000E-002    0.676499588241901     
  1.620000000000000E-002    0.661798407446944     
  1.630000000000000E-002    0.647109861588453     
  1.640000000000000E-002    0.632443421849641     
  1.650000000000000E-002    0.617808332266468     
  1.660000000000000E-002    0.603213630793686     
  1.670000000000000E-002    0.588668181120329     
  1.680000000000000E-002    0.574180605197401     
  1.690000000000000E-002    0.559759361970431     
  1.700000000000000E-002    0.545412681577935     
  1.710000000000000E-002    0.531148502536358     
  1.720000000000000E-002    0.516974621240277     
  1.730000000000000E-002    0.502898556917354     
  1.740000000000000E-002    0.488927599985851     
  1.750000000000000E-002    0.475068828180056     
  1.760000000000000E-002    0.461329097967171     
  1.770000000000000E-002    0.447714980801058     
  1.780000000000000E-002    0.434232829015414     
  1.790000000000000E-002    0.420888753065503     
  1.800000000000000E-002    0.407688635453962     
  1.810000000000000E-002    0.394638119786246     
  1.820000000000000E-002    0.381742558783445     
  1.830000000000000E-002    0.369007120705059     
  1.840000000000000E-002    0.356436662461731     
  1.850000000000000E-002    0.344035822466033     
  1.860000000000000E-002    0.331808971421722     
  1.870000000000000E-002    0.319760237430875     