 -4.000000000000000E-002    0.000000000000000E+000
 -3.990000000000000E-002    0.000000000000000E+000
 -3.980000000000000E-002    0.000000000000000E+000
 -3.970000000000000E-002    0.000000000000000E+000
 -3.960000000000000E-002   -1.344249771846769E-018
 -3.950000000000000E-002   -1.211323538173908E-017
 -3.940000000000000E-002   -5.993876335019752E-017
 -3.930000000000000E-002   -2.140435664855529E-016
 -3.920000000000000E-002   -6.125328328247776E-016
 -3.910000000000000E-002   -1.479781938415178E-015
 -3.900000000000000E-002   -3.103174956078792E-015
 -3.890000000000000E-002   -5.722882772431470E-015
 -3.880000000000000E-002   -9.280866538970440E-015
 -3.870000000000000E-002   -1.298632347824814E-014
 -3.860000000000000E-002   -1.469416427046627E-014
 -3.850000000000000E-002   -1.016614162354652E-014
 -3.840000000000000E-002    7.613094561019677E-015
 -3.830000000000000E-002    4.877657629890017E-014
 -3.820000000000000E-002    1.261835958519593E-013
 -3.810000000000000E-002    2.538630151469873E-013
 -3.800000000000000E-002    4.439111112356023E-013
 -3.790000000000000E-002    7.016502620459002E-013
 -3.780000000000000E-002    1.019188688627797E-012
 -3.770000000000000E-002    1.367988333061143E-012
 -3.760000000000000E-002    1.691589027638868E-012
 -3.750000000000000E-002    1.900165549904812E-012
 -3.740000000000000E-002    1.868974346704310E-012
 -3.730000000000000E-002    1.442856658210702E-012
 -3.720000000000000E-002    4.486697490573976E-013
 -3.710000000000000E-002   -1.283251621357004E-012
 -3.700000000000000E-002   -3.888748432297915E-012
 -3.690000000000000E-002   -7.432394623183362E-012
 -3.680000000000000E-002   -1.186658176931173E-011
 -3.670000000000000E-002   -1.699252016449233E-011
 -3.660000000000000E-002   -2.242989164476704E-011
 -3.650000000000000E-002   -2.760247062051024E-011
 -3.640000000000000E-002   -3.174659929435558E-011
 -3.630000000000000E-002   -3.394772042851651E-011
 -3.620000000000000E-002   -3.320734534017630E-011
 -3.610000000000000E-002   -2.853894242485079E-011
 -3.600000000000000E-002   -1.908686628062843E-011
 -3.590000000000000E-002   -4.258015867491103E-012
 -3.580000000000000E-002    1.614778270285846E-011
 -3.570000000000000E-002    4.182492574171873E-011
 -3.560000000000000E-002    7.188337672890928E-011
 -3.550000000000000E-002    1.048188506443065E-010
 -3.540000000000000E-002    1.385422875005212E-010
 -3.530000000000000E-002    1.704727375925978E-010
 -3.520000000000000E-002    1.976904689829338E-010
 -3.510000000000000E-002    2.171391923658267E-010
 -3.500000000000000E-002    2.258596241312736E-010
 -3.490000000000000E-002    2.212315801346550E-010
 -3.480000000000000E-002    2.012000595497175E-010
 -3.470000000000000E-002    1.644620112459023E-010
 -3.460000000000000E-002    1.105955598856739E-010
 -3.450000000000000E-002    4.012131848279466E-011
 -3.440000000000000E-002   -4.550528662870534E-011
 -3.430000000000000E-002   -1.439615475807069E-010
 -3.420000000000000E-002   -2.521676648907620E-010
 -3.410000000000000E-002   -3.664166715213530E-010
 -3.400000000000000E-002   -4.825002306929202E-010
 -3.390000000000000E-002   -5.958099235223964E-010
 -3.380000000000000E-002   -7.014019022801717E-010
 -3.370000000000000E-002   -7.940247272749786E-010
 -3.360000000000000E-002   -8.681235211351344E-010
 -3.350000000000000E-002   -9.178462071008296E-010
 -3.340000000000000E-002   -9.370875696997254E-010
 -3.330000000000000E-002   -9.196097258115531E-010
 -3.320000000000000E-002   -8.592752937212197E-010
 -3.310000000000000E-002   -7.504165900258693E-010
 -3.300000000000000E-002   -5.883464829668138E-010
 -3.290000000000000E-002   -3.699912765489517E-010
 -3.280000000000000E-002   -9.459998783807586E-011
 -3.270000000000000E-002    2.355407942716664E-010
 -3.260000000000000E-002    6.144758826148651E-010
 -3.250000000000000E-002    1.032132881772365E-009
 -3.240000000000000E-002    1.474150121159734E-009
 -3.230000000000000E-002    1.922058977814317E-009
 -3.220000000000000E-002    2.353864883083377E-009
 -3.210000000000000E-002    2.745032404200392E-009
 -3.200000000000000E-002    3.069830101055374E-009
 -3.190000000000000E-002    3.302944289278006E-009
 -3.180000000000000E-002    3.421231707281383E-009
 -3.170000000000000E-002    3.405451152819965E-009
 -3.160000000000000E-002    3.241807143590068E-009
 -3.150000000000000E-002    2.923147006784992E-009
 -3.140000000000000E-002    2.449688793414388E-009
 -3.130000000000000E-002    1.829202580293153E-009
 -3.120000000000000E-002    1.076634440372465E-009
 -3.110000000000000E-002    2.132239342660362E-010
 -3.100000000000000E-002   -7.347694594917753E-010
 -3.090000000000000E-002   -1.737571019964730E-009
 -3.080000000000000E-002   -2.763437952614281E-009
 -3.070000000000000E-002   -3.780064932384671E-009
 -3.060000000000000E-002   -4.755687283202955E-009
 -3.050000000000000E-002   -5.659780221277736E-009
 -3.040000000000000E-002   -6.463318695018968E-009
 -3.030000000000000E-002   -7.138647566057377E-009
 -3.020000000000000E-002   -7.659088562924274E-009
 -3.010000000000000E-002   -7.998471752826609E-009
 -3.000000000000000E-002   -8.130819247916815E-009
 -2.990000000000000E-002   -8.030410638064192E-009
 -2.980000000000000E-002   -7.672424494703060E-009
 -2.970000000000000E-002   -7.034280095477812E-009
 -2.960000000000000E-002   -6.097709332727630E-009
 -2.950000000000000E-002   -4.851461275012638E-009
 -2.940000000000000E-002   -3.294432468509774E-009
 -2.930000000000000E-002   -1.438901038717998E-009
 -2.920000000000000E-002    6.865323662450768E-010
 -2.910000000000000E-002    3.034727455794732E-009
 -2.900000000000000E-002    5.538933310567830E-009
 -2.890000000000000E-002    8.113209429586163E-009
 -2.880000000000000E-002    1.065457049721789E-008
 -2.870000000000000E-002    1.304693487706001E-008
 -2.860000000000000E-002    1.516676938974411E-008
 -2.850000000000000E-002    1.689013865266589E-008
 -2.840000000000000E-002    1.810070658172326E-008
 -2.830000000000000E-002    1.869810066398286E-008
 -2.820000000000000E-002    1.860596287569456E-008
 -2.810000000000000E-002    1.777900700614890E-008
 -2.800000000000000E-002    1.620842931333182E-008
 -2.790000000000000E-002    1.392515315930223E-008
 -2.780000000000000E-002    1.100052227427248E-008
 -2.770000000000000E-002    7.544282684298809E-009
 -2.760000000000000E-002    3.699891632485585E-009
 -2.750000000000000E-002   -3.625888586522313E-010
 -2.740000000000000E-002   -4.455555333036473E-009
 -2.730000000000000E-002   -8.384293665099634E-009
 -2.720000000000000E-002   -1.195805806067782E-008
 -2.710000000000000E-002   -1.500106113841656E-008
 -2.700000000000000E-002   -1.736264073617071E-008
 -2.690000000000000E-002   -1.892594623616641E-008
 -2.680000000000000E-002   -1.961459682462310E-008
 -2.670000000000000E-002   -1.939692954953111E-008
 -2.660000000000000E-002   -1.828761401613192E-008
 -2.650000000000000E-002   -1.634660227786343E-008
 -2.640000000000000E-002   -1.367554552102542E-008
 -2.630000000000000E-002   -1.041198745674496E-008
 -2.620000000000000E-002   -6.721745025129546E-009
 -2.610000000000000E-002   -2.790042629915829E-009
 -2.600000000000000E-002    1.188040802236882E-009
 -2.590000000000000E-002    5.017161950463252E-009
 -2.580000000000000E-002    8.510750419296473E-009
 -2.570000000000000E-002    1.149895479373514E-008
 -2.560000000000000E-002    1.383503136755758E-008
 -2.550000000000000E-002    1.539990547616060E-008
 -2.540000000000000E-002    1.610473949546820E-008
 -2.530000000000000E-002    1.589158626068606E-008
 -2.520000000000000E-002    1.473235869014485E-008
 -2.510000000000000E-002    1.262658801263854E-008
 -2.500000000000000E-002    9.598554567661247E-009
 -2.490000000000000E-002    5.694545150775905E-009
 -2.480000000000000E-002    9.810179033698089E-010
 -2.470000000000000E-002   -4.455546846735337E-009
 -2.460000000000000E-002   -1.050645713025446E-008
 -2.450000000000000E-002   -1.703577206632780E-008
 -2.440000000000000E-002   -2.387228523573688E-008
 -2.430000000000000E-002   -3.079858996279997E-008
 -2.420000000000000E-002   -3.753777401369661E-008
 -2.410000000000000E-002   -4.373861544274364E-008
 -2.400000000000000E-002   -4.896048449817966E-008
 -2.390000000000000E-002   -5.265932742582561E-008
 -2.380000000000000E-002   -5.417652580901995E-008
 -2.370000000000000E-002   -5.273181609874711E-008
 -2.360000000000000E-002   -4.742212605746588E-008
 -2.350000000000000E-002   -3.722707143342299E-008
 -2.340000000000000E-002   -2.102182460010530E-008
 -2.330000000000000E-002    2.402513451986455E-009
 -2.320000000000000E-002    3.431163834703464E-008
 -2.310000000000000E-002    7.599507679471423E-008
 -2.300000000000000E-002    1.287293153137349E-007
 -2.290000000000000E-002    1.937390075795800E-007
 -2.280000000000000E-002    2.721588936331260E-007
 -2.270000000000000E-002    3.649990548462736E-007
 -2.260000000000000E-002    4.731157198109390E-007
 -2.250000000000000E-002    5.971900887882072E-007
 -2.240000000000000E-002    7.377162449343383E-007
 -2.230000000000000E-002    8.949998631806788E-007
 -2.220000000000000E-002    1.069167477955522E-006
 -2.210000000000000E-002    1.260185792722082E-006
 -2.200000000000000E-002    1.467890327446419E-006
 -2.190000000000000E-002    1.692020506885705E-006
 -2.180000000000000E-002    1.932260496040174E-006
 -2.170000000000000E-002    2.188281752513652E-006
 -2.160000000000000E-002    2.459784805044681E-006
 -2.150000000000000E-002    2.746538110156846E-006
 -2.140000000000000E-002    3.048411210223747E-006
 -2.130000000000000E-002    3.365399995644214E-006
 -2.120000000000000E-002    3.697642801224195E-006
 -2.110000000000000E-002    4.045427251378739E-006
 -2.100000000000000E-002    4.409186651817524E-006
 -2.090000000000000E-002    4.789485908753408E-006
 -2.080000000000000E-002    5.187001892103827E-006
 -2.070000000000000E-002    5.602495752432516E-006
 -2.060000000000000E-002    6.036781848804100E-006
 -2.050000000000000E-002    6.490698806154235E-006
 -2.040000000000000E-002    6.965078057230807E-006
 -2.030000000000000E-002    7.460724017645090E-006
 -2.020000000000000E-002    7.978398130217274E-006
 -2.010000000000000E-002    8.518817166032226E-006
 -2.000000000000000E-002    9.082663358176522E-006
 -1.990000000000000E-002    9.670610716831753E-006
 -1.980000000000000E-002    1.028336243477864E-005
 -1.970000000000000E-002    1.092170311584511E-005
 -1.960000000000000E-002    1.158655843003287E-005
 -1.950000000000000E-002    1.227906659925541E-005
 -1.940000000000000E-002    1.300064539710185E-005
 -1.930000000000000E-002    1.375305634726914E-005
 -1.920000000000000E-002    1.453846110084504E-005
 -1.910000000000000E-002    1.535945801645411E-005
 -1.900000000000000E-002    1.621910205834901E-005
 -1.890000000000000E-002    1.712089405303755E-005
 -1.880000000000000E-002    1.806874818748063E-005
 -1.870000000000000E-002    1.906692965987680E-005
 -1.860000000000000E-002    2.011997077338663E-005
 -1.850000000000000E-002    2.123256237796383E-005
 -1.840000000000000E-002    2.240943410476041E-005
 -1.830000000000000E-002    2.365523482471412E-005
 -1.820000000000000E-002    2.497441467314899E-005
 -1.810000000000000E-002    2.637112708991336E-005
 -1.800000000000000E-002    2.784915065944459E-005
 -1.790000000000000E-002    2.941185604436237E-005
 -1.780000000000000E-002    3.106219926979979E-005
 -1.770000000000000E-002    3.280277395876055E-005
 -1.760000000000000E-002    3.463588609117167E-005
 -1.750000000000000E-002    3.656368940355768E-005
 -1.740000000000000E-002    3.858833233988933E-005
 -1.730000000000000E-002    4.071213522390050E-005
 -1.720000000000000E-002    4.293776031008021E-005
 -1.710000000000000E-002    4.526839282074503E-005
 -1.700000000000000E-002    4.770788875845782E-005
 -1.690000000000000E-002    5.026087676463597E-005
 -1.680000000000000E-002    5.293284969889711E-005
 -1.670000000000000E-002    5.573016623979087E-005
 -1.660000000000000E-002    5.866002043405871E-005
 -1.650000000000000E-002    6.173036147140998E-005
 -1.640000000000000E-002    6.494975954733076E-005
 -1.630000000000000E-002    6.832725885794930E-005
 -1.620000000000000E-002    7.187216557828095E-005
 -1.610000000000000E-002    7.559389094594665E-005
 -1.600000000000000E-002    7.950177209657202E-005
 -1.590000000000000E-002    8.360491012533882E-005
 -1.580000000000000E-002    8.791206998075419E-005
 -1.570000000000000E-002    9.243164582903582E-005
 -1.560000000000000E-002    9.717162041244865E-005
 -1.550000000000000E-002    1.021396551805605E-004
 -1.540000000000000E-002    1.073431859583799E-004
 -1.530000000000000E-002    1.127895512721761E-004
 -1.520000000000000E-002    1.184862176167662E-004
 -1.510000000000000E-002    1.244409443195518E-004
 -1.500000000000000E-002    1.306619963523241E-004
 -1.490000000000000E-002    1.371583473267322E-004
 -1.480000000000000E-002    1.439398361172797E-004
 -1.470000000000000E-002    1.510172539430766E-004
 -1.460000000000000E-002    1.584024540294031E-004
 -1.450000000000000E-002    1.661083474683513E-004
 -1.440000000000000E-002    1.741488842478091E-004
 -1.430000000000000E-002    1.825389472516991E-004
 -1.420000000000000E-002    1.912942143072373E-004
 -1.410000000000000E-002    2.004310405333186E-004
 -1.400000000000000E-002    2.099662613049017E-004
 -1.390000000000000E-002    2.199169920225864E-004
 -1.380000000000000E-002    2.303004780715370E-004
 -1.370000000000000E-002    2.411339520915690E-004
 -1.360000000000000E-002    2.524344731774057E-004
 -1.350000000000000E-002    2.642189334797239E-004
 -1.340000000000000E-002    2.765039510350294E-004
 -1.330000000000000E-002    2.893058865432903E-004
 -1.320000000000000E-002    3.026409905441347E-004
 -1.310000000000000E-002    3.165253729034646E-004
 -1.300000000000000E-002    3.309752345094697E-004
 -1.290000000000000E-002    3.460069075445713E-004
 -1.280000000000000E-002    3.616370772648746E-004
 -1.270000000000000E-002    3.778829145154917E-004
 -1.260000000000000E-002    3.947622206198018E-004
 -1.250000000000000E-002    4.122934740626273E-004
 -1.240000000000000E-002    4.304958948563312E-004
 -1.230000000000000E-002    4.493896178012900E-004
 -1.220000000000000E-002    4.689954507130206E-004
 -1.210000000000000E-002    4.893351189472602E-004
 -1.200000000000000E-002    5.104309106517367E-004
 -1.190000000000000E-002    5.323056925260451E-004
 -1.180000000000000E-002    5.549827968503777E-004
 -1.170000000000000E-002    5.784857994648804E-004
 -1.160000000000000E-002    6.028384050582963E-004
 -1.150000000000000E-002    6.280642164292753E-004
 -1.140000000000000E-002    6.541866237086958E-004
 -1.130000000000000E-002    6.812287138394954E-004
 -1.120000000000000E-002    7.092130950808645E-004
 -1.110000000000000E-002    7.381618328774294E-004
 -1.100000000000000E-002    7.680963845975238E-004
 -1.090000000000000E-002    7.990376374631507E-004
 -1.080000000000000E-002    8.310057934869538E-004
 -1.070000000000000E-002    8.640204726174124E-004
 -1.060000000000000E-002    8.981006706089753E-004
 -1.050000000000000E-002    9.332648322475581E-004
 -1.040000000000000E-002    9.695309728574687E-004
 -1.030000000000000E-002    1.006916451611715E-003
 -1.020000000000000E-002    1.045438293068899E-003
 -1.010000000000000E-002    1.085112945361171E-003
 -1.000000000000000E-002    1.125956267409269E-003
 -9.899999999999999E-003    1.167983669741943E-003
 -9.800000000000000E-003    1.211209703320874E-003
 -9.699999999999999E-003    1.255648078518418E-003
 -9.599999999999999E-003    1.301311730693484E-003
 -9.500000000000000E-003    1.348212363827910E-003
 -9.399999999999999E-003    1.396360425626170E-003
 -9.299999999999999E-003    1.445764988986218E-003
 -9.200000000000000E-003    1.496433515058325E-003
 -9.099999999999999E-003    1.548371825736251E-003
 -8.999999999999999E-003    1.601583847050153E-003
 -8.900000000000000E-003    1.656071424644332E-003
 -8.799999999999999E-003    1.711834373243824E-003
 -8.699999999999999E-003    1.768870246105706E-003
 -8.600000000000000E-003    1.827174023943152E-003
 -8.499999999999999E-003    1.886738226677587E-003
 -8.399999999999999E-003    1.947552705421100E-003
 -8.300000000000000E-003    2.009604420088754E-003
 -8.199999999999999E-003    2.072877287258412E-003
 -8.100000000000000E-003    2.137351965275538E-003
 -8.000000000000000E-003    2.203005531558276E-003
 -7.899999999999999E-003    2.269811330319951E-003
 -7.800000000000000E-003    2.337738652628775E-003
 -7.699999999999999E-003    2.406752698590025E-003
 -7.599999999999999E-003    2.476813677933113E-003
 -7.499999999999999E-003    2.547877178007837E-003
 -7.399999999999999E-003    2.619893525587106E-003
 -7.299999999999999E-003    2.692807706652194E-003
 -7.199999999999999E-003    2.766558879618052E-003
 -7.100000000000000E-003    2.841080330282326E-003
 -6.999999999999999E-003    2.916299492846807E-003
 -6.899999999999999E-003    2.992137117126198E-003
 -6.800000000000000E-003    3.068507733058106E-003
 -6.699999999999999E-003    3.145319128181571E-003
 -6.599999999999999E-003    3.222472161591497E-003
 -6.499999999999999E-003    3.299860945539404E-003
 -6.399999999999999E-003    3.377371938500542E-003
 -6.299999999999999E-003    3.454884296410860E-003
 -6.199999999999999E-003    3.532269259629617E-003
 -6.100000000000000E-003    3.609390257765727E-003
 -5.999999999999999E-003    3.686101702718864E-003
 -5.899999999999999E-003    3.762249554316983E-003
 -5.800000000000000E-003    3.837670283494438E-003
 -5.699999999999999E-003    3.912190505074410E-003
 -5.599999999999999E-003    3.985626564702260E-003
 -5.499999999999999E-003    4.057784202956658E-003
 -5.399999999999999E-003    4.128457507607707E-003
 -5.299999999999999E-003    4.197429141406374E-003
 -5.199999999999999E-003    4.264468916233564E-003
 -5.099999999999999E-003    4.329334709015711E-003
 -4.999999999999999E-003    4.391770745741707E-003
 -4.899999999999999E-003    4.451507906886874E-003
 -4.799999999999999E-003    4.508263443036334E-003
 -4.699999999999999E-003    4.561740061791697E-003
 -4.599999999999999E-003    4.611626240291613E-003
 -4.499999999999999E-003    4.657595179522920E-003
 -4.399999999999999E-003    4.699305228005246E-003
 -4.299999999999999E-003    4.736399235403220E-003
 -4.199999999999999E-003    4.768504561748936E-003
 -4.099999999999999E-003    4.795232464348583E-003
 -3.999999999999999E-003    4.816177452656782E-003
 -3.899999999999999E-003    4.830918284012500E-003
 -3.799999999999999E-003    4.839016631644587E-003
 -3.699999999999999E-003    4.840016831082950E-003
 -3.599999999999999E-003    4.833445556398988E-003
 -3.499999999999999E-003    4.818811402388767E-003
 -3.399999999999999E-003    4.795604827055149E-003
 -3.299999999999999E-003    4.763296761958446E-003
 -3.199999999999999E-003    4.721339344077331E-003
 -3.099999999999999E-003    4.669164365734644E-003
 -2.999999999999999E-003    4.606183604282821E-003
 -2.899999999999999E-003    4.531787698712959E-003
 -2.799999999999999E-003    4.445345485389196E-003
 -2.699999999999999E-003    4.346204444638143E-003
 -2.599999999999999E-003    4.233689073752086E-003
 -2.499999999999999E-003    4.107101750130125E-003
 -2.399999999999999E-003    3.965720984262982E-003
 -2.299999999999999E-003    3.808803026190342E-003
 -2.199999999999999E-003    3.635579471370216E-003
 -2.099999999999999E-003    3.445259078216183E-003
 -1.999999999999999E-003    3.237025690225179E-003
 -1.899999999999999E-003    3.010040219252735E-003
 -1.799999999999999E-003    2.763439319797993E-003
 -1.699999999999999E-003    2.496335956103833E-003
 -1.599999999999999E-003    2.207819499551005E-003
 -1.499999999999999E-003    1.896955734058983E-003
 -1.399999999999999E-003    1.562786519287667E-003
 -1.299999999999999E-003    1.204330904785228E-003
 -1.199999999999999E-003    8.205835744969029E-004
 -1.099999999999999E-003    4.105163044058037E-004
 -9.999999999999989E-004   -2.692364762747196E-005
 -8.999999999999990E-004   -4.928112143184981E-004
 -7.999999999999990E-004   -9.882462388190426E-004
 -6.999999999999989E-004   -1.514352425232803E-003
 -5.999999999999990E-004   -2.072276854248994E-003
 -4.999999999999989E-004   -2.663191014769245E-003
 -3.999999999999989E-004   -3.288290851633638E-003
 -2.999999999999989E-004   -3.948794358213858E-003
 -1.999999999999989E-004   -4.645944559057103E-003
 -9.999999999999892E-005   -5.381007344864908E-003
  1.084202172485504E-018   -6.155272195638055E-003
  1.000000000000011E-004   -6.970050137054130E-003
  2.000000000000011E-004   -7.826673582688687E-003
  3.000000000000011E-004   -8.726497060714400E-003
  4.000000000000011E-004   -9.670895869576080E-003
  5.000000000000011E-004   -1.066126217412438E-002
  6.000000000000011E-004   -1.169900812489335E-002
  7.000000000000011E-004   -1.278556442083585E-002
  8.000000000000011E-004   -1.392237748373703E-002
  9.000000000000012E-004   -1.511091028672735E-002
  1.000000000000001E-003   -1.635264168266438E-002
  1.100000000000001E-003   -1.764906372065241E-002
  1.200000000000001E-003   -1.900167973318607E-002
  1.300000000000001E-003   -2.041200804374596E-002
  1.400000000000001E-003   -2.188157960552719E-002
  1.500000000000001E-003   -2.341193131573641E-002
  1.600000000000001E-003   -2.500461127927755E-002
  1.700000000000001E-003   -2.666117665757056E-002
  1.800000000000001E-003   -2.838318864522174E-002
  1.900000000000001E-003   -3.017221300516374E-002
  2.000000000000001E-003   -3.202982429429591E-002
  2.100000000000001E-003   -3.395759214527003E-002
  2.200000000000001E-003   -3.595709138977313E-002
  2.300000000000001E-003   -3.802989319335984E-002
  2.400000000000001E-003   -4.017756944597954E-002
  2.500000000000001E-003   -4.240168220934425E-002
  2.600000000000001E-003   -4.470379487000536E-002
  2.700000000000001E-003   -4.708544969546798E-002
  2.800000000000001E-003   -4.954818638289161E-002
  2.900000000000001E-003   -5.209353531308467E-002
  3.000000000000001E-003   -5.472300189573338E-002
  3.100000000000001E-003   -5.743808321103248E-002
  3.200000000000001E-003   -6.024025454185156E-002
  3.300000000000001E-003   -6.313097369762208E-002
  3.400000000000001E-003   -6.611166615145062E-002
  3.500000000000001E-003   -6.918374101875441E-002
  3.600000000000001E-003   -7.234857569399235E-002
  3.700000000000001E-003   -7.560751527956104E-002
  3.800000000000001E-003   -7.896187902946872E-002
  3.900000000000001E-003   -8.241294486402571E-002
  4.000000000000001E-003   -8.596195834099220E-002
  4.100000000000001E-003   -8.961012327460639E-002
  4.200000000000001E-003   -9.335860314479341E-002
  4.300000000000001E-003   -9.720850731337058E-002
  4.400000000000001E-003   -0.101160910740092     
  4.500000000000001E-003   -0.105216821493340     
  4.600000000000002E-003   -0.109377197030315     
  4.700000000000001E-003   -0.113642945511973     
  4.800000000000001E-003   -0.118014896363579     
  4.900000000000002E-003   -0.122493839463392     
  5.000000000000001E-003   -0.127080473281237     
  5.100000000000001E-003   -0.131775449056932     
  5.200000000000001E-003   -0.136579334662788     
  5.300000000000002E-003   -0.141492609301583     
  5.400000000000001E-003   -0.146515710692667     
  5.500000000000001E-003   -0.151648972021828     
  5.600000000000002E-003   -0.156892644838335     
  5.700000000000001E-003   -0.162246906048242     
  5.800000000000001E-003   -0.167711834294830     
  5.900000000000002E-003   -0.173287414230935     
  6.000000000000001E-003   -0.178973540072898     
  6.100000000000001E-003   -0.184770022461479     
  6.200000000000002E-003   -0.190676548958134     
  6.300000000000002E-003   -0.196692723121405     
  6.400000000000001E-003   -0.202818028079325     
  6.500000000000001E-003   -0.209051842591807     
  6.600000000000002E-003   -0.215393447776541     
  6.700000000000001E-003   -0.221841991841065     
  6.800000000000001E-003   -0.228396505745704     
  6.900000000000002E-003   -0.235055913667448     
  7.000000000000001E-003   -0.241818990106827     
  7.100000000000001E-003   -0.248684431048447     
  7.200000000000002E-003   -0.255650770803395     
  7.300000000000002E-003   -0.262716421241246     
  7.400000000000001E-003   -0.269879665265456     
  7.500000000000001E-003   -0.277138653130147     
  7.600000000000002E-003   -0.284491376884647     
  7.700000000000001E-003   -0.291935736600233     
  7.800000000000001E-003   -0.299469471548056     
  7.900000000000001E-003   -0.307090184567582     
  8.000000000000002E-003   -0.314795345237572     
  8.100000000000001E-003   -0.322582267830502     
  8.200000000000001E-003   -0.330448124097204     
  8.300000000000002E-003   -0.338389940747832     
  8.400000000000001E-003   -0.346404580889091     
  8.500000000000002E-003   -0.354488797166591     
  8.600000000000002E-003   -0.362639170746065     
  8.700000000000001E-003   -0.370852140413991     
  8.800000000000002E-003   -0.379123961837994     
  8.900000000000002E-003   -0.387450782778516     
  9.000000000000001E-003   -0.395828612519383     
  9.100000000000002E-003   -0.404253263836053     
  9.200000000000002E-003   -0.412720404826126     
  9.300000000000001E-003   -0.421225593927673     
  9.400000000000002E-003   -0.429764252483282     
  9.500000000000001E-003   -0.438331605572046     
  9.600000000000001E-003   -0.446922742099936     
  9.700000000000002E-003   -0.455532601398648     
  9.800000000000001E-003   -0.464156010817965     
  9.900000000000001E-003   -0.472787604358843     
  1.000000000000000E-002   -0.481421937204560     
  1.010000000000000E-002   -0.490053397915723     
  1.020000000000000E-002   -0.498676255966290     
  1.030000000000000E-002   -0.507284591000102     
  1.040000000000000E-002   -0.515872428443226     
  1.050000000000000E-002   -0.524433583609730     
  1.060000000000000E-002   -0.532961784419524     
  1.070000000000000E-002   -0.541450648837553     
  1.080000000000000E-002   -0.549893637258452     
  1.090000000000000E-002   -0.558284140843197     
  1.100000000000000E-002   -0.566615410137266     
  1.110000000000000E-002   -0.574880578410682     
  1.120000000000000E-002   -0.583072683659023     
  1.130000000000000E-002   -0.591184647399592     
  1.140000000000000E-002   -0.599209312628089     
  1.150000000000000E-002   -0.607139473326470     
  1.160000000000000E-002   -0.614967775736839     
  1.170000000000000E-002   -0.622686823273271     
  1.180000000000000E-002   -0.630289120040948     
  1.190000000000000E-002   -0.637767098815241     
  1.200000000000000E-002   -0.645113169964113     
  1.210000000000000E-002   -0.652319625479826     
  1.220000000000000E-002   -0.659378759711057     
  1.230000000000000E-002   -0.666282768728881     
  1.240000000000000E-002   -0.673023851470758     
  1.250000000000000E-002   -0.679594157094727     
  1.260000000000000E-002   -0.685985848508009     
  1.270000000000000E-002   -0.692190971246535     
  1.280000000000000E-002   -0.698201663722723     
  1.290000000000000E-002   -0.704010018305260     
  1.300000000000000E-002   -0.709608157283156     
  1.310000000000000E-002   -0.714988114200487     
  1.320000000000000E-002   -0.720142074976447     
  1.330000000000000E-002   -0.725062213228059     
  1.340000000000000E-002   -0.729740673456153     
  1.350000000000000E-002   -0.734169683527016     
  1.360000000000000E-002   -0.738341533303773     
  1.370000000000000E-002   -0.742248575807489     
  1.380000000000000E-002   -0.745883209152054     
  1.390000000000000E-002   -0.749237876114738     
  1.400000000000000E-002   -0.752305156786811     
  1.410000000000000E-002   -0.755077724713890     
  1.420000000000000E-002   -0.757548342497381     
  1.430000000000000E-002   -0.759709853113569     
  1.440000000000000E-002   -0.761555299687857     
  1.450000000000000E-002   -0.763077725131221     
  1.460000000000000E-002   -0.764270401923596     
  1.470000000000000E-002   -0.765126743751771     
  1.480000000000000E-002   -0.765640256385486     
  1.490000000000000E-002   -0.765804653857590     
  1.500000000000000E-002   -0.765613803389043     
  1.510000000000000E-002   -0.765061758831759     
  1.520000000000000E-002   -0.764142758384108     
  1.530000000000000E-002   -0.762851214050736     
  1.540000000000000E-002   -0.761181749683010     
  1.550000000000000E-002   -0.759129213860142     
  1.560000000000000E-002   -0.756688650536258     
  1.570000000000000E-002   -0.753855382648904     
  1.580000000000000E-002   -0.750624888647411     
  1.590000000000000E-002   -0.746992950642185     
  1.600000000000000E-002   -0.742955588227590     
  1.610000000000000E-002   -0.738509053283476     
  1.620000000000000E-002   -0.733649876541926     
  1.630000000000000E-002   -0.728374870847338     
  1.640000000000000E-002   -0.722681119018858     
  1.650000000000000E-002   -0.716565969226405     
  1.660000000000000E-002   -0.710027060239213     
  1.670000000000000E-002   -0.703062339743958     
  1.680000000000000E-002   -0.695670094499387     
  1.690000000000000E-002   -0.687848840699246     
  1.700000000000000E-002   -0.679597460107107     
  1.710000000000000E-002   -0.670915176276902     
  1.720000000000000E-002   -0.661801449522613     
  1.730000000000000E-002   -0.652256138786007     
  1.740000000000000E-002   -0.642279389297789     
  1.750000000000000E-002   -0.631871778084050     
  1.760000000000000E-002   -0.621034085443555     
  1.770000000000000E-002   -0.609767537129593     
  1.780000000000000E-002   -0.598073649699448     
  1.790000000000000E-002   -0.585954334904332     
  1.800000000000000E-002   -0.573411823331521     
  1.810000000000000E-002   -0.560448682479364     
  1.820000000000000E-002   -0.547067899432079     
  1.830000000000000E-002   -0.533272689306054     
  1.840000000000000E-002   -0.519066792460891     
  1.850000000000000E-002   -0.504454172545412     
  1.860000000000000E-002   -0.489439179255977     
  1.870000000000000E-002   -0.474026556279101     