 -4.000000000000000E-002    0.000000000000000E+000
 -3.990000000000000E-002    0.000000000000000E+000
 -3.980000000000000E-002    0.000000000000000E+000
 -3.970000000000000E-002    0.000000000000000E+000
 -3.960000000000000E-002    0.000000000000000E+000
 -3.950000000000000E-002    0.000000000000000E+000
 -3.940000000000000E-002    0.000000000000000E+000
 -3.930000000000000E-002    0.000000000000000E+000
 -3.920000000000000E-002    0.000000000000000E+000
 -3.910000000000000E-002    0.000000000000000E+000
 -3.900000000000000E-002    0.000000000000000E+000
 -3.890000000000000E-002    0.000000000000000E+000
 -3.880000000000000E-002    0.000000000000000E+000
 -3.870000000000000E-002    0.000000000000000E+000
 -3.860000000000000E-002    0.000000000000000E+000
 -3.850000000000000E-002    0.000000000000000E+000
 -3.840000000000000E-002    0.000000000000000E+000
 -3.830000000000000E-002    0.000000000000000E+000
 -3.820000000000000E-002    0.000000000000000E+000
 -3.810000000000000E-002    0.000000000000000E+000
 -3.800000000000000E-002    0.000000000000000E+000
 -3.790000000000000E-002    0.000000000000000E+000
 -3.780000000000000E-002    0.000000000000000E+000
 -3.770000000000000E-002    0.000000000000000E+000
 -3.760000000000000E-002    0.000000000000000E+000
 -3.750000000000000E-002    0.000000000000000E+000
 -3.740000000000000E-002    0.000000000000000E+000
 -3.730000000000000E-002    0.000000000000000E+000
 -3.720000000000000E-002    0.000000000000000E+000
 -3.710000000000000E-002    0.000000000000000E+000
 -3.700000000000000E-002    0.000000000000000E+000
 -3.690000000000000E-002    0.000000000000000E+000
 -3.680000000000000E-002    0.000000000000000E+000
 -3.670000000000000E-002    0.000000000000000E+000
 -3.660000000000000E-002    0.000000000000000E+000
 -3.650000000000000E-002    0.000000000000000E+000
 -3.640000000000000E-002    0.000000000000000E+000
 -3.630000000000000E-002    0.000000000000000E+000
 -3.620000000000000E-002    0.000000000000000E+000
 -3.610000000000000E-002    0.000000000000000E+000
 -3.600000000000000E-002    0.000000000000000E+000
 -3.590000000000000E-002    0.000000000000000E+000
 -3.580000000000000E-002    0.000000000000000E+000
 -3.570000000000000E-002    0.000000000000000E+000
 -3.560000000000000E-002    0.000000000000000E+000
 -3.550000000000000E-002    0.000000000000000E+000
 -3.540000000000000E-002    0.000000000000000E+000
 -3.530000000000000E-002    0.000000000000000E+000
 -3.520000000000000E-002    0.000000000000000E+000
 -3.510000000000000E-002    0.000000000000000E+000
 -3.500000000000000E-002    0.000000000000000E+000
 -3.490000000000000E-002    0.000000000000000E+000
 -3.480000000000000E-002    0.000000000000000E+000
 -3.470000000000000E-002    0.000000000000000E+000
 -3.460000000000000E-002    0.000000000000000E+000
 -3.450000000000000E-002    0.000000000000000E+000
 -3.440000000000000E-002    0.000000000000000E+000
 -3.430000000000000E-002    0.000000000000000E+000
 -3.420000000000000E-002    0.000000000000000E+000
 -3.410000000000000E-002    0.000000000000000E+000
 -3.400000000000000E-002    0.000000000000000E+000
 -3.390000000000000E-002    0.000000000000000E+000
 -3.380000000000000E-002    0.000000000000000E+000
 -3.370000000000000E-002    0.000000000000000E+000
 -3.360000000000000E-002    0.000000000000000E+000
 -3.350000000000000E-002    0.000000000000000E+000
 -3.340000000000000E-002    0.000000000000000E+000
 -3.330000000000000E-002    0.000000000000000E+000
 -3.320000000000000E-002    0.000000000000000E+000
 -3.310000000000000E-002    0.000000000000000E+000
 -3.300000000000000E-002    0.000000000000000E+000
 -3.290000000000000E-002    0.000000000000000E+000
 -3.280000000000000E-002    0.000000000000000E+000
 -3.270000000000000E-002    0.000000000000000E+000
 -3.260000000000000E-002    0.000000000000000E+000
 -3.250000000000000E-002    0.000000000000000E+000
 -3.240000000000000E-002    0.000000000000000E+000
 -3.230000000000000E-002    0.000000000000000E+000
 -3.220000000000000E-002    0.000000000000000E+000
 -3.210000000000000E-002    0.000000000000000E+000
 -3.200000000000000E-002    0.000000000000000E+000
 -3.190000000000000E-002    0.000000000000000E+000
 -3.180000000000000E-002    0.000000000000000E+000
 -3.170000000000000E-002    0.000000000000000E+000
 -3.160000000000000E-002    0.000000000000000E+000
 -3.150000000000000E-002    0.000000000000000E+000
 -3.140000000000000E-002    0.000000000000000E+000
 -3.130000000000000E-002    0.000000000000000E+000
 -3.120000000000000E-002    0.000000000000000E+000
 -3.110000000000000E-002    0.000000000000000E+000
 -3.100000000000000E-002    0.000000000000000E+000
 -3.090000000000000E-002    0.000000000000000E+000
 -3.080000000000000E-002    0.000000000000000E+000
 -3.070000000000000E-002    0.000000000000000E+000
 -3.060000000000000E-002    0.000000000000000E+000
 -3.050000000000000E-002    0.000000000000000E+000
 -3.040000000000000E-002    0.000000000000000E+000
 -3.030000000000000E-002    0.000000000000000E+000
 -3.020000000000000E-002    0.000000000000000E+000
 -3.010000000000000E-002    0.000000000000000E+000
 -3.000000000000000E-002    0.000000000000000E+000
 -2.990000000000000E-002    0.000000000000000E+000
 -2.980000000000000E-002    0.000000000000000E+000
 -2.970000000000000E-002    0.000000000000000E+000
 -2.960000000000000E-002    0.000000000000000E+000
 -2.950000000000000E-002    0.000000000000000E+000
 -2.940000000000000E-002    0.000000000000000E+000
 -2.930000000000000E-002    1.688708314495861E-048
 -2.920000000000000E-002    3.377416628991722E-048
 -2.910000000000000E-002    1.001966941473111E-047
 -2.900000000000000E-002    5.100061432290103E-047
 -2.890000000000000E-002    9.198155923107095E-047
 -2.880000000000000E-002    9.355768707332275E-047
 -2.870000000000000E-002    8.849156212983517E-047
 -2.860000000000000E-002    3.250186604769637E-047
 -2.850000000000000E-002   -7.007739529356904E-047
 -2.840000000000000E-002   -2.576155187681287E-046
 -2.830000000000000E-002   -5.591496482163712E-046
 -2.820000000000000E-002   -9.534911471457901E-046
 -2.810000000000000E-002   -1.466982082570695E-045
 -2.800000000000000E-002   -1.959630332132510E-045
 -2.790000000000000E-002   -2.475026694613908E-045
 -2.780000000000000E-002   -2.675107584747738E-045
 -2.770000000000000E-002   -2.234446757295048E-045
 -2.760000000000000E-002    1.468087103822143E-046
 -2.750000000000000E-002    3.933760542497522E-045
 -2.740000000000000E-002    1.006229933539372E-044
 -2.730000000000000E-002    1.901911436465615E-044
 -2.720000000000000E-002    3.259908828102990E-044
 -2.710000000000000E-002    4.806473424653270E-044
 -2.700000000000000E-002    6.470731379034052E-044
 -2.690000000000000E-002    7.953994030347356E-044
 -2.680000000000000E-002    8.519910554569689E-044
 -2.670000000000000E-002    7.567400753877226E-044
 -2.660000000000000E-002    3.804401795127481E-044
 -2.650000000000000E-002   -4.011521411962630E-044
 -2.640000000000000E-002   -1.707522820391050E-043
 -2.630000000000000E-002   -3.670950248041687E-043
 -2.620000000000000E-002   -6.325573874730264E-043
 -2.610000000000000E-002   -9.584693353541695E-043
 -2.600000000000000E-002   -1.317287248846396E-042
 -2.590000000000000E-002   -1.651541247640263E-042
 -2.580000000000000E-002   -1.870205731004196E-042
 -2.570000000000000E-002   -1.840231293270740E-042
 -2.560000000000000E-002   -1.392766624066326E-042
 -2.550000000000000E-002   -3.262720505494743E-043
 -2.540000000000000E-002    1.564644109295368E-042
 -2.530000000000000E-002    4.455195609714641E-042
 -2.520000000000000E-002    8.434305367257975E-042
 -2.510000000000000E-002    1.342790013053969E-041
 -2.500000000000000E-002    1.911685427249378E-041
 -2.490000000000000E-002    2.484264287017673E-041
 -2.480000000000000E-002    2.952911404829092E-041
 -2.470000000000000E-002    3.163338972779633E-041
 -2.460000000000000E-002    2.915758581158356E-041
 -2.450000000000000E-002    1.974674708038034E-041
 -2.440000000000000E-002    9.066859880569022E-043
 -2.430000000000000E-002   -2.963091847316325E-041
 -2.420000000000000E-002   -7.339225298880272E-041
 -2.410000000000000E-002   -1.304922286868520E-040
 -2.400000000000000E-002   -1.988599046692070E-040
 -2.390000000000000E-002   -2.734232179374304E-040
 -2.380000000000000E-002   -3.453742383124416E-040
 -2.370000000000000E-002   -4.016559859056017E-040
 -2.360000000000000E-002   -4.248669013345339E-040
 -2.350000000000000E-002   -3.937634927972162E-040
 -2.340000000000000E-002   -2.845629999821639E-040
 -2.330000000000000E-002   -7.318628986668232E-041
 -2.320000000000000E-002    2.614768037622868E-040
 -2.310000000000000E-002    7.333197925882255E-040
 -2.300000000000000E-002    1.343950532855818E-039
 -2.290000000000000E-002    2.077120089878163E-039
 -2.280000000000000E-002    2.893095985620715E-039
 -2.270000000000000E-002    3.723572144931486E-039
 -2.260000000000000E-002    4.467725409302225E-039
 -2.250000000000000E-002    4.990099332928811E-039
 -2.240000000000000E-002    5.120909197387038E-039
 -2.230000000000000E-002    4.659354626065905E-039
 -2.220000000000000E-002    3.380477156672018E-039
 -2.210000000000000E-002    1.046257002709488E-039
 -2.200000000000000E-002   -2.578024747413601E-039
 -2.190000000000000E-002   -7.700522638361087E-039
 -2.180000000000000E-002   -1.447007127131923E-038
 -2.170000000000000E-002   -2.293029876575912E-038
 -2.160000000000000E-002   -3.295603464560403E-038
 -2.150000000000000E-002   -4.416726949061019E-038
 -2.140000000000000E-002   -5.581724359305841E-038
 -2.130000000000000E-002   -6.665519424196371E-038
 -2.120000000000000E-002   -7.477185374454183E-038
 -2.110000000000000E-002   -7.744782699179889E-038
 -2.100000000000000E-002   -7.104183996326301E-038
 -2.090000000000000E-002   -5.097638951119393E-038
 -2.080000000000000E-002   -1.190011709002945E-038
 -2.070000000000000E-002    5.187563572785839E-038
 -2.060000000000000E-002    1.455613358493309E-037
 -2.050000000000000E-002    2.726030556102456E-037
 -2.040000000000000E-002    4.328771101522265E-037
 -2.030000000000000E-002    6.204010856814416E-037
 -2.020000000000000E-002    8.207266977918435E-037
 -2.010000000000000E-002    1.008354877443982E-036
 -2.000000000000000E-002    1.144720583085205E-036
 -1.990000000000000E-002    1.177505525261878E-036
 -1.980000000000000E-002    1.042207908823349E-036
 -1.970000000000000E-002    6.669634830945359E-037
 -1.960000000000000E-002   -1.849516198259934E-038
 -1.950000000000000E-002   -1.069212743468760E-036
 -1.940000000000000E-002   -2.506856567644176E-036
 -1.930000000000000E-002   -4.298162007519417E-036
 -1.920000000000000E-002   -6.332381229261324E-036
 -1.910000000000000E-002   -8.401573403806040E-036
 -1.900000000000000E-002   -1.018893469119713E-035
 -1.890000000000000E-002   -1.127133892499755E-035
 -1.880000000000000E-002   -1.114243815937528E-035
 -1.870000000000000E-002   -9.261637642197345E-036
 -1.860000000000000E-002   -5.131670207282577E-036
 -1.850000000000000E-002    1.596861586103142E-036
 -1.840000000000000E-002    1.100160985313485E-035
 -1.830000000000000E-002    2.276002794262316E-035
 -1.820000000000000E-002    3.603841107382385E-035
 -1.810000000000000E-002    4.942647560007335E-035
 -1.800000000000000E-002    6.094839163627447E-035
 -1.790000000000000E-002    6.817897683181938E-035
 -1.780000000000000E-002    6.848478288063569E-035
 -1.770000000000000E-002    5.939305325310181E-035
 -1.760000000000000E-002    3.906742183345846E-035
 -1.750000000000000E-002    6.839605648866919E-036
 -1.740000000000000E-002   -3.628459818555388E-035
 -1.730000000000000E-002   -8.725290671819072E-035
 -1.720000000000000E-002   -1.408498631476195E-034
 -1.710000000000000E-002   -1.899517106522030E-034
 -1.700000000000000E-002   -2.262359825696481E-034
 -1.690000000000000E-002   -2.413650748707720E-034
 -1.680000000000000E-002   -2.285704444422139E-034
 -1.670000000000000E-002   -1.844506350893671E-034
 -1.660000000000000E-002   -1.106783766997965E-034
 -1.650000000000000E-002   -1.521416708204668E-035
 -1.640000000000000E-002    8.742615786587159E-035
 -1.630000000000000E-002    1.772727987983115E-034
 -1.620000000000000E-002    2.316618623681680E-034
 -1.610000000000000E-002    2.296953497635532E-034
 -1.600000000000000E-002    1.580855885758964E-034
 -1.590000000000000E-002    1.763850981294527E-035
 -1.580000000000000E-002   -1.708082810294394E-034
 -1.570000000000000E-002   -3.625373546349215E-034
 -1.560000000000000E-002   -4.889086793523989E-034
 -1.550000000000000E-002   -4.627157025053580E-034
 -1.540000000000000E-002   -1.900266591195878E-034
 -1.530000000000000E-002    4.113243965207484E-034
 -1.520000000000000E-002    1.387747424732094E-033
 -1.510000000000000E-002    2.723124029902907E-033
 -1.500000000000000E-002    4.313579522098732E-033
 -1.490000000000000E-002    5.949455249842372E-033
 -1.480000000000000E-002    7.310827862409362E-033
 -1.470000000000000E-002    7.982624453911782E-033
 -1.460000000000000E-002    7.493795390826238E-033
 -1.450000000000000E-002    5.382033324150584E-033
 -1.440000000000000E-002    1.281270547220303E-033
 -1.430000000000000E-002   -4.975971877145243E-033
 -1.420000000000000E-002   -1.325461646121503E-032
 -1.410000000000000E-002   -2.302926417974005E-032
 -1.400000000000000E-002   -3.333314386417631E-032
 -1.390000000000000E-002   -4.276415473691846E-032
 -1.380000000000000E-002   -4.956445791630709E-032
 -1.370000000000000E-002   -5.178223316978700E-032
 -1.360000000000000E-002   -4.751261581637109E-032
 -1.350000000000000E-002   -3.520069952767322E-032
 -1.340000000000000E-002   -1.397473841047926E-032
 -1.330000000000000E-002    1.603540092424680E-032
 -1.320000000000000E-002    5.344772369472569E-032
 -1.310000000000000E-002    9.550026703808525E-032
 -1.300000000000000E-002    1.380928744979175E-031
 -1.290000000000000E-002    1.760285515957036E-031
 -1.280000000000000E-002    2.034589518885143E-031
 -1.270000000000000E-002    2.145078140235940E-031
 -1.260000000000000E-002    2.040141787974119E-031
 -1.250000000000000E-002    1.683099588323153E-031
 -1.240000000000000E-002    1.059292809412208E-031
 -1.230000000000000E-002    1.814431234184461E-032
 -1.220000000000000E-002   -9.076335331862846E-032
 -1.210000000000000E-002   -2.135555163483273E-031
 -1.200000000000000E-002   -3.404314989182880E-031
 -1.190000000000000E-002   -4.597320248893167E-031
 -1.180000000000000E-002   -5.588776943641111E-031
 -1.170000000000000E-002   -6.254367910457662E-031
 -1.160000000000000E-002   -6.482078715269490E-031
 -1.150000000000000E-002   -6.182185684956187E-031
 -1.140000000000000E-002   -5.295787531673957E-031
 -1.130000000000000E-002   -3.801744795334426E-031
 -1.120000000000000E-002   -1.722352388936571E-031
 -1.110000000000000E-002    8.717024798496932E-032
 -1.100000000000000E-002    3.856683851439749E-031
 -1.090000000000000E-002    7.051640616907960E-031
 -1.080000000000000E-002    1.021598486094294E-030
 -1.070000000000000E-002    1.305135287150878E-030
 -1.060000000000000E-002    1.521151043418982E-030
 -1.050000000000000E-002    1.632463223141357E-030
 -1.040000000000000E-002    1.603185180370121E-030
 -1.030000000000000E-002    1.404392903943339E-030
 -1.020000000000000E-002    1.021412612475184E-030
 -1.010000000000000E-002    4.620159955603169E-031
 -1.000000000000000E-002   -2.358119355593125E-031
 -9.899999999999999E-003   -9.984420850361497E-031
 -9.800000000000000E-003   -1.715807623230349E-030
 -9.699999999999999E-003   -2.247570090429846E-030
 -9.599999999999999E-003   -2.438060031021014E-030
 -9.500000000000000E-003   -2.140672479884379E-030
 -9.399999999999999E-003   -1.250651626807550E-030
 -9.299999999999999E-003    2.570224023400739E-031
 -9.200000000000000E-003    2.290300109705910E-030
 -9.099999999999999E-003    4.611023807995829E-030
 -8.999999999999999E-003    6.823173304214238E-030
 -8.900000000000000E-003    8.387240367729555E-030
 -8.799999999999999E-003    8.667599667355837E-030
 -8.699999999999999E-003    7.015744985185336E-030
 -8.600000000000000E-003    2.886339561390249E-030
 -8.499999999999999E-003   -4.024198128896828E-030
 -8.399999999999999E-003   -1.363438617042939E-029
 -8.300000000000000E-003   -2.535397299753969E-029
 -8.199999999999999E-003   -3.800803216898812E-029
 -8.100000000000000E-003   -4.983687362882229E-029
 -8.000000000000000E-003   -5.859435177906809E-029
 -7.899999999999999E-003   -6.175633745426881E-029
 -7.800000000000000E-003   -5.683499406573310E-029
 -7.699999999999999E-003   -4.177548772559061E-029
 -7.599999999999999E-003   -1.539179966727061E-029
 -7.499999999999999E-003    2.221862019451203E-029
 -7.399999999999999E-003    6.935180065480112E-029
 -7.299999999999999E-003    1.225366956515522E-028
 -7.199999999999999E-003    1.765962714501012E-028
 -7.100000000000000E-003    2.249649116935983E-028
 -6.999999999999999E-003    2.602623539246127E-028
 -6.899999999999999E-003    2.750833078201347E-028
 -6.800000000000000E-003    2.629212526241042E-028
 -6.699999999999999E-003    2.191120993752209E-028
 -6.599999999999999E-003    1.416663157138268E-028
 -6.499999999999999E-003    3.186055914060803E-029
 -6.399999999999999E-003   -1.055116180571201E-028
 -6.299999999999999E-003   -2.622826376342548E-028
 -6.199999999999999E-003   -4.274357697297138E-028
 -6.100000000000000E-003   -5.879327928959284E-028
 -5.999999999999999E-003   -7.297086900782293E-028
 -5.899999999999999E-003   -8.386650362045741E-028
 -5.800000000000000E-003   -9.015008449692445E-028
 -5.699999999999999E-003   -9.062667309258112E-028
 -5.599999999999999E-003   -8.426190219497198E-028
 -5.499999999999999E-003   -7.018648998939411E-028
 -5.399999999999999E-003   -4.770087314203721E-028
 -5.299999999999999E-003   -1.630996947985652E-028
 -5.199999999999999E-003    2.417891964838312E-028
 -5.099999999999999E-003    7.346836758492649E-028
 -4.999999999999999E-003    1.304830642097695E-027
 -4.899999999999999E-003    1.929993442769767E-027
 -4.799999999999999E-003    2.572431856993434E-027
 -4.699999999999999E-003    3.175448441451649E-027
 -4.599999999999999E-003    3.661685311154522E-027
 -4.499999999999999E-003    3.934517850720696E-027
 -4.399999999999999E-003    3.883818488201422E-027
 -4.299999999999999E-003    3.396993095020452E-027
 -4.199999999999999E-003    2.375495106690424E-027
 -4.099999999999999E-003    7.560339156955631E-028
 -3.999999999999999E-003   -1.465492297125624E-027
 -3.899999999999999E-003   -4.210527275318974E-027
 -3.799999999999999E-003   -7.299078264597550E-027
 -3.699999999999999E-003   -1.044046267043387E-026
 -3.599999999999999E-003   -1.323837344869270E-026
 -3.499999999999999E-003   -1.521415649764375E-026
 -3.399999999999999E-003   -1.585039868569755E-026
 -3.299999999999999E-003   -1.465424841276516E-026
 -3.199999999999999E-003   -1.123657811213150E-026
 -3.099999999999999E-003   -5.399504769796127E-027
 -2.999999999999999E-003    2.778557699641476E-027
 -2.899999999999999E-003    1.287368039897614E-026
 -2.799999999999999E-003    2.407750443525665E-026
 -2.699999999999999E-003    3.520232295540333E-026
 -2.599999999999999E-003    4.474085683992780E-026
 -2.499999999999999E-003    5.098615032355279E-026
 -2.399999999999999E-003    5.220985379907776E-026
 -2.299999999999999E-003    4.688861599315544E-026
 -2.199999999999999E-003    3.395937875165964E-026
 -2.099999999999999E-003    1.307629327305165E-026
 -1.999999999999999E-003   -1.516419179440693E-026
 -1.899999999999999E-003   -4.906637729627502E-026
 -1.799999999999999E-003   -8.578162072541278E-026
 -1.699999999999999E-003   -1.213871008304546E-025
 -1.599999999999999E-003   -1.511155926891613E-025
 -1.499999999999999E-003   -1.697401473849288E-025
 -1.399999999999999E-003   -1.720997716296651E-025
 -1.299999999999999E-003   -1.537330980700791E-025
 -1.199999999999999E-003   -1.115684179166147E-025
 -1.099999999999999E-003   -4.460286916687215E-026
 -9.999999999999989E-004    4.550788546855690E-026
 -8.999999999999990E-004    1.540323151614363E-025
 -7.999999999999990E-004    2.729976611161509E-025
 -6.999999999999989E-004    3.913445106553491E-025
 -5.999999999999990E-004    4.954484709550620E-025
 -4.999999999999989E-004    5.700284123882809E-025
 -3.999999999999989E-004    5.994252185545990E-025
 -2.999999999999989E-004    5.691964814586598E-025
 -1.999999999999989E-004    4.679305571218549E-025
 -9.999999999999892E-005    2.891442198631014E-025
  1.084202172485504E-018    3.309141477183647E-026
  1.000000000000011E-004   -2.917158865644509E-025
  2.000000000000011E-004   -6.674885720591260E-025
  3.000000000000011E-004   -1.066855922063592E-024
  4.000000000000011E-004   -1.453467167046729E-024
  5.000000000000011E-004   -1.783645221804121E-024
  6.000000000000011E-004   -2.009169751739278E-024
  7.000000000000011E-004   -2.081172747715157E-024
  8.000000000000011E-004   -1.955013369762771E-024
  9.000000000000012E-004   -1.595866718441096E-024
  1.000000000000001E-003   -9.846244147612249E-025
  1.100000000000001E-003   -1.235720354528569E-025
  1.200000000000001E-003    9.587986143562848E-025
  1.300000000000001E-003    2.204550904704031E-024
  1.400000000000001E-003    3.525354309693726E-024
  1.500000000000001E-003    4.804470309113829E-024
  1.600000000000001E-003    5.902158817726159E-024
  1.700000000000001E-003    6.664744564142687E-024
  1.800000000000001E-003    6.937238319254300E-024
  1.900000000000001E-003    6.579006788024641E-024
  2.000000000000001E-003    5.481528191472729E-024
  2.100000000000001E-003    3.586836119830375E-024
  2.200000000000001E-003    9.048489077952065E-025
  2.300000000000001E-003   -2.472493532934350E-024
  2.400000000000001E-003   -6.362487555624330E-024
  2.500000000000001E-003   -1.049041509755511E-023
  2.600000000000001E-003   -1.449754304535431E-023
  2.700000000000001E-003   -1.795950752775215E-023
  2.800000000000001E-003   -2.041536031017267E-023
  2.900000000000001E-003   -2.140648187549847E-023
  3.000000000000001E-003   -2.052335144089066E-023
  3.100000000000001E-003   -1.745695626952637E-023
  3.200000000000001E-003   -1.205047403891651E-023
  3.300000000000001E-003   -4.345984427806124E-024
  3.400000000000001E-003    5.379526891474837E-024
  3.500000000000001E-003    1.659461736604678E-023
  3.600000000000001E-003    2.851541354462805E-023
  3.700000000000001E-003    4.013313145863820E-023
  3.800000000000001E-003    5.026909551812722E-023
  3.900000000000001E-003    5.765689326346986E-023
  4.000000000000001E-003    6.104853592471206E-023
  4.100000000000001E-003    5.933849350579932E-023
  4.200000000000001E-003    5.169671684480441E-023
  4.300000000000001E-003    3.769932301709425E-023
  4.400000000000001E-003    1.744390888018177E-023
  4.500000000000001E-003   -8.364198545324671E-024
  4.600000000000002E-003   -3.836796382287080E-023
  4.700000000000001E-003   -7.056817993779098E-023
  4.800000000000001E-003   -1.023946720716137E-022
  4.900000000000002E-003   -1.308426850415314E-022
  5.000000000000001E-003   -1.526726337364914E-022
  5.100000000000001E-003   -1.646651983752749E-022
  5.200000000000001E-003   -1.639174634993954E-022
  5.300000000000002E-003   -1.481601197118095E-022
  5.400000000000001E-003   -1.160706295883836E-022
  5.500000000000001E-003   -6.755407439907431E-023
  5.600000000000002E-003   -3.961937211453848E-024
  5.700000000000001E-003    7.177995950532797E-023
  5.800000000000001E-003    1.551594529695467E-022
  5.900000000000002E-003    2.402011987201850E-022
  6.000000000000001E-003    3.197355300305367E-022
  6.100000000000001E-003    3.858131317046630E-022
  6.200000000000002E-003    4.302536032505813E-022
  6.300000000000002E-003    4.453037995872819E-022
  6.400000000000001E-003    4.243685452292602E-022
  6.500000000000001E-003    3.627657490531546E-022
  6.600000000000002E-003    2.584481368068646E-022
  6.700000000000001E-003    1.126275789798247E-022
  6.800000000000001E-003   -6.976414702363302E-023
  6.900000000000002E-003   -2.798426459288957E-022
  7.000000000000001E-003   -5.048225149848221E-022
  7.100000000000001E-003   -7.283969869247080E-022
  7.200000000000002E-003   -9.314708406904996E-022
  7.300000000000002E-003   -1.093247382263003E-021
  7.400000000000001E-003   -1.192643571776624E-021
  7.500000000000001E-003   -1.209975871655112E-021
  7.600000000000002E-003   -1.128827901124980E-021
  7.700000000000001E-003   -9.379805388773295E-022
  7.800000000000001E-003   -6.332595483817004E-022
  7.900000000000001E-003   -2.191362354563762E-022
  8.000000000000002E-003    2.900932150026217E-022
  8.100000000000001E-003    8.697197685649670E-022
  8.200000000000001E-003    1.484777204358733E-021
  8.300000000000002E-003    2.091062061051891E-021
  8.400000000000001E-003    2.637085915852143E-021
  8.500000000000002E-003    3.066966662087946E-021
  8.600000000000002E-003    3.324190111650904E-021
  8.700000000000001E-003    3.356089335735157E-021
  8.800000000000002E-003    3.118806615228932E-021
  8.900000000000002E-003    2.582421451358711E-021
  9.000000000000001E-003    1.735862894283911E-021
  9.100000000000002E-003    5.911755769295980E-022
  9.200000000000002E-003   -8.133133468934751E-022
  9.300000000000001E-003   -2.411368260377039E-021
  9.400000000000002E-003   -4.109156585069419E-021
  9.500000000000001E-003   -5.787811940999249E-021
  9.600000000000001E-003   -7.308437539740950E-021
  9.700000000000002E-003   -8.519589014131773E-021
  9.800000000000001E-003   -9.267084685329621E-021
  9.900000000000001E-003   -9.405791517642540E-021
  1.000000000000000E-002   -8.812819374179860E-021
  1.010000000000000E-002   -7.401345116349262E-021
  1.020000000000000E-002   -5.134103721437568E-021
  1.030000000000000E-002   -2.035432486710611E-021
  1.040000000000000E-002    1.799349974592434E-021
  1.050000000000000E-002    6.198451617722462E-021
  1.060000000000000E-002    1.091317148645998E-020
  1.070000000000000E-002    1.562350740583550E-020
  1.080000000000000E-002    1.995051418214293E-020
  1.090000000000000E-002    2.347570396015205E-020
  1.100000000000000E-002    2.576730712040157E-020
  1.110000000000000E-002    2.641257854530817E-020
  1.120000000000000E-002    2.505470011328365E-020
  1.130000000000000E-002    2.143218051010946E-020
  1.140000000000000E-002    1.541798210907051E-020
  1.150000000000000E-002    7.055110956514603E-021
  1.160000000000000E-002   -3.414954679128069E-021
  1.170000000000000E-002   -1.553475359129717E-020
  1.180000000000000E-002   -2.862781488192812E-020
  1.190000000000000E-002   -4.181314143119827E-020
  1.200000000000000E-002   -5.403937316563720E-020
  1.210000000000000E-002   -6.413946340013129E-020
  1.220000000000000E-002   -7.090520640020313E-020
  1.230000000000000E-002   -7.317904954808699E-020
  1.240000000000000E-002   -6.995873468954547E-020
  1.250000000000000E-002   -6.050828048769238E-020
  1.260000000000000E-002   -4.446720469567814E-020
  1.270000000000000E-002   -2.194843984491004E-020
  1.280000000000000E-002    6.385331169308273E-021
  1.290000000000000E-002    3.927723149962034E-020
  1.300000000000000E-002    7.487309507438605E-020
  1.310000000000000E-002    1.107673312488699E-019
  1.320000000000000E-002    1.441026164394007E-019
  1.330000000000000E-002    1.717245855692745E-019
  1.340000000000000E-002    1.903882280784357E-019
  1.350000000000000E-002    1.970079139184266E-019
  1.360000000000000E-002    1.889378411526302E-019
  1.370000000000000E-002    1.642648703039197E-019
  1.380000000000000E-002    1.220917865429884E-019
  1.390000000000000E-002    6.278582953982207E-020
  1.400000000000000E-002   -1.183380167770256E-020
  1.410000000000000E-002   -9.839531890241800E-020
  1.420000000000000E-002   -1.919835044515642E-019
  1.430000000000000E-002   -2.862764796970978E-019
  1.440000000000000E-002   -3.738202670723250E-019
  1.450000000000000E-002   -4.464418158195227E-019
  1.460000000000000E-002   -4.957896379396323E-019
  1.470000000000000E-002   -5.139793448035063E-019
  1.480000000000000E-002   -4.943085838202733E-019
  1.490000000000000E-002   -4.319945786615818E-019
  1.500000000000000E-002   -3.248780699387917E-019
  1.510000000000000E-002   -1.740303848422533E-019
  1.520000000000000E-002    1.580098834625712E-020
  1.530000000000000E-002    2.359711988666837E-019
  1.540000000000000E-002    4.739952689571130E-019
  1.550000000000000E-002    7.139240234495733E-019
  1.560000000000000E-002    9.370591475459722E-019
  1.570000000000000E-002    1.123003958223371E-018
  1.580000000000000E-002    1.251017897385198E-018
  1.590000000000000E-002    1.301613581371778E-018
  1.600000000000000E-002    1.258306096616214E-018
  1.610000000000000E-002    1.109397116417313E-018
  1.620000000000000E-002    8.496574145428725E-019
  1.630000000000000E-002    4.817561399978666E-019
  1.640000000000000E-002    1.728476700972065E-020
  1.650000000000000E-002   -5.227673939413294E-019
  1.660000000000000E-002   -1.108207740471352E-018
  1.670000000000000E-002   -1.700589914705791E-018
  1.680000000000000E-002   -2.254956287461521E-018
  1.690000000000000E-002   -2.722355531102571E-018
  1.700000000000000E-002   -3.053050261459494E-018
  1.710000000000000E-002   -3.200268147587609E-018
  1.720000000000000E-002   -3.124280432951525E-018
  1.730000000000000E-002   -2.796540132909275E-018
  1.740000000000000E-002   -2.203566640327841E-018
  1.750000000000000E-002   -1.350238307770119E-018
  1.760000000000000E-002   -2.621544130836336E-019
  1.770000000000000E-002    1.013250579398899E-018
  1.780000000000000E-002    2.407105316343084E-018
  1.790000000000000E-002    3.831198294952494E-018
  1.800000000000000E-002    5.181855316097885E-018
  1.810000000000000E-002    6.345557074755971E-018
  1.820000000000000E-002    7.206117507179461E-018
  1.830000000000000E-002    7.653098039017451E-018
  1.840000000000000E-002    7.591001269929422E-018
  1.850000000000000E-002    6.948653161379185E-018
  1.860000000000000E-002    5.688099349166962E-018
  1.870000000000000E-002    3.812276116210878E-018