 -4.000000000000000E-002    0.000000000000000E+000
 -3.990000000000000E-002    0.000000000000000E+000
 -3.980000000000000E-002    0.000000000000000E+000
 -3.970000000000000E-002    0.000000000000000E+000
 -3.960000000000000E-002    0.000000000000000E+000
 -3.950000000000000E-002    0.000000000000000E+000
 -3.940000000000000E-002    0.000000000000000E+000
 -3.930000000000000E-002    0.000000000000000E+000
 -3.920000000000000E-002    0.000000000000000E+000
 -3.910000000000000E-002    0.000000000000000E+000
 -3.900000000000000E-002    0.000000000000000E+000
 -3.890000000000000E-002    0.000000000000000E+000
 -3.880000000000000E-002    0.000000000000000E+000
 -3.870000000000000E-002    0.000000000000000E+000
 -3.860000000000000E-002    0.000000000000000E+000
 -3.850000000000000E-002    0.000000000000000E+000
 -3.840000000000000E-002    0.000000000000000E+000
 -3.830000000000000E-002    0.000000000000000E+000
 -3.820000000000000E-002    0.000000000000000E+000
 -3.810000000000000E-002    0.000000000000000E+000
 -3.800000000000000E-002    0.000000000000000E+000
 -3.790000000000000E-002    0.000000000000000E+000
 -3.780000000000000E-002    0.000000000000000E+000
 -3.770000000000000E-002    0.000000000000000E+000
 -3.760000000000000E-002    0.000000000000000E+000
 -3.750000000000000E-002    0.000000000000000E+000
 -3.740000000000000E-002    0.000000000000000E+000
 -3.730000000000000E-002    0.000000000000000E+000
 -3.720000000000000E-002    0.000000000000000E+000
 -3.710000000000000E-002    0.000000000000000E+000
 -3.700000000000000E-002    0.000000000000000E+000
 -3.690000000000000E-002    0.000000000000000E+000
 -3.680000000000000E-002    0.000000000000000E+000
 -3.670000000000000E-002    0.000000000000000E+000
 -3.660000000000000E-002    0.000000000000000E+000
 -3.650000000000000E-002    0.000000000000000E+000
 -3.640000000000000E-002    0.000000000000000E+000
 -3.630000000000000E-002    0.000000000000000E+000
 -3.620000000000000E-002    0.000000000000000E+000
 -3.610000000000000E-002    0.000000000000000E+000
 -3.600000000000000E-002    0.000000000000000E+000
 -3.590000000000000E-002    0.000000000000000E+000
 -3.580000000000000E-002    0.000000000000000E+000
 -3.570000000000000E-002    0.000000000000000E+000
 -3.560000000000000E-002    0.000000000000000E+000
 -3.550000000000000E-002    0.000000000000000E+000
 -3.540000000000000E-002    0.000000000000000E+000
 -3.530000000000000E-002    0.000000000000000E+000
 -3.520000000000000E-002    0.000000000000000E+000
 -3.510000000000000E-002    0.000000000000000E+000
 -3.500000000000000E-002    0.000000000000000E+000
 -3.490000000000000E-002    0.000000000000000E+000
 -3.480000000000000E-002    0.000000000000000E+000
 -3.470000000000000E-002    0.000000000000000E+000
 -3.460000000000000E-002    0.000000000000000E+000
 -3.450000000000000E-002    0.000000000000000E+000
 -3.440000000000000E-002    0.000000000000000E+000
 -3.430000000000000E-002    0.000000000000000E+000
 -3.420000000000000E-002    0.000000000000000E+000
 -3.410000000000000E-002    0.000000000000000E+000
 -3.400000000000000E-002    0.000000000000000E+000
 -3.390000000000000E-002    0.000000000000000E+000
 -3.380000000000000E-002    0.000000000000000E+000
 -3.370000000000000E-002    0.000000000000000E+000
 -3.360000000000000E-002    0.000000000000000E+000
 -3.350000000000000E-002    0.000000000000000E+000
 -3.340000000000000E-002    0.000000000000000E+000
 -3.330000000000000E-002    0.000000000000000E+000
 -3.320000000000000E-002    0.000000000000000E+000
 -3.310000000000000E-002    0.000000000000000E+000
 -3.300000000000000E-002    0.000000000000000E+000
 -3.290000000000000E-002    0.000000000000000E+000
 -3.280000000000000E-002    0.000000000000000E+000
 -3.270000000000000E-002    0.000000000000000E+000
 -3.260000000000000E-002    0.000000000000000E+000
 -3.250000000000000E-002    0.000000000000000E+000
 -3.240000000000000E-002    0.000000000000000E+000
 -3.230000000000000E-002    0.000000000000000E+000
 -3.220000000000000E-002    0.000000000000000E+000
 -3.210000000000000E-002    0.000000000000000E+000
 -3.200000000000000E-002    0.000000000000000E+000
 -3.190000000000000E-002    0.000000000000000E+000
 -3.180000000000000E-002    0.000000000000000E+000
 -3.170000000000000E-002    0.000000000000000E+000
 -3.160000000000000E-002    0.000000000000000E+000
 -3.150000000000000E-002    0.000000000000000E+000
 -3.140000000000000E-002    0.000000000000000E+000
 -3.130000000000000E-002    0.000000000000000E+000
 -3.120000000000000E-002    0.000000000000000E+000
 -3.110000000000000E-002    0.000000000000000E+000
 -3.100000000000000E-002    0.000000000000000E+000
 -3.090000000000000E-002    0.000000000000000E+000
 -3.080000000000000E-002    0.000000000000000E+000
 -3.070000000000000E-002    0.000000000000000E+000
 -3.060000000000000E-002    0.000000000000000E+000
 -3.050000000000000E-002    0.000000000000000E+000
 -3.040000000000000E-002    0.000000000000000E+000
 -3.030000000000000E-002    0.000000000000000E+000
 -3.020000000000000E-002    0.000000000000000E+000
 -3.010000000000000E-002    0.000000000000000E+000
 -3.000000000000000E-002    0.000000000000000E+000
 -2.990000000000000E-002    0.000000000000000E+000
 -2.980000000000000E-002    0.000000000000000E+000
 -2.970000000000000E-002    0.000000000000000E+000
 -2.960000000000000E-002    0.000000000000000E+000
 -2.950000000000000E-002    0.000000000000000E+000
 -2.940000000000000E-002    0.000000000000000E+000
 -2.930000000000000E-002    0.000000000000000E+000
 -2.920000000000000E-002    0.000000000000000E+000
 -2.910000000000000E-002    0.000000000000000E+000
 -2.900000000000000E-002    0.000000000000000E+000
 -2.890000000000000E-002    0.000000000000000E+000
 -2.880000000000000E-002    0.000000000000000E+000
 -2.870000000000000E-002    0.000000000000000E+000
 -2.860000000000000E-002    0.000000000000000E+000
 -2.850000000000000E-002    0.000000000000000E+000
 -2.840000000000000E-002    0.000000000000000E+000
 -2.830000000000000E-002    0.000000000000000E+000
 -2.820000000000000E-002    0.000000000000000E+000
 -2.810000000000000E-002    0.000000000000000E+000
 -2.800000000000000E-002    0.000000000000000E+000
 -2.790000000000000E-002    0.000000000000000E+000
 -2.780000000000000E-002    0.000000000000000E+000
 -2.770000000000000E-002    0.000000000000000E+000
 -2.760000000000000E-002    0.000000000000000E+000
 -2.750000000000000E-002    0.000000000000000E+000
 -2.740000000000000E-002    0.000000000000000E+000
 -2.730000000000000E-002    0.000000000000000E+000
 -2.720000000000000E-002    0.000000000000000E+000
 -2.710000000000000E-002    0.000000000000000E+000
 -2.700000000000000E-002    0.000000000000000E+000
 -2.690000000000000E-002    0.000000000000000E+000
 -2.680000000000000E-002    0.000000000000000E+000
 -2.670000000000000E-002    0.000000000000000E+000
 -2.660000000000000E-002    0.000000000000000E+000
 -2.650000000000000E-002    0.000000000000000E+000
 -2.640000000000000E-002    0.000000000000000E+000
 -2.630000000000000E-002    0.000000000000000E+000
 -2.620000000000000E-002    0.000000000000000E+000
 -2.610000000000000E-002    0.000000000000000E+000
 -2.600000000000000E-002    0.000000000000000E+000
 -2.590000000000000E-002    0.000000000000000E+000
 -2.580000000000000E-002    0.000000000000000E+000
 -2.570000000000000E-002    0.000000000000000E+000
 -2.560000000000000E-002    0.000000000000000E+000
 -2.550000000000000E-002    0.000000000000000E+000
 -2.540000000000000E-002    0.000000000000000E+000
 -2.530000000000000E-002    0.000000000000000E+000
 -2.520000000000000E-002    0.000000000000000E+000
 -2.510000000000000E-002    0.000000000000000E+000
 -2.500000000000000E-002    0.000000000000000E+000
 -2.490000000000000E-002    0.000000000000000E+000
 -2.480000000000000E-002    0.000000000000000E+000
 -2.470000000000000E-002    0.000000000000000E+000
 -2.460000000000000E-002    0.000000000000000E+000
 -2.450000000000000E-002    0.000000000000000E+000
 -2.440000000000000E-002    0.000000000000000E+000
 -2.430000000000000E-002    0.000000000000000E+000
 -2.420000000000000E-002    0.000000000000000E+000
 -2.410000000000000E-002    0.000000000000000E+000
 -2.400000000000000E-002    0.000000000000000E+000
 -2.390000000000000E-002    0.000000000000000E+000
 -2.380000000000000E-002    0.000000000000000E+000
 -2.370000000000000E-002    0.000000000000000E+000
 -2.360000000000000E-002    0.000000000000000E+000
 -2.350000000000000E-002    0.000000000000000E+000
 -2.340000000000000E-002    0.000000000000000E+000
 -2.330000000000000E-002    0.000000000000000E+000
 -2.320000000000000E-002    0.000000000000000E+000
 -2.310000000000000E-002    0.000000000000000E+000
 -2.300000000000000E-002    0.000000000000000E+000
 -2.290000000000000E-002    0.000000000000000E+000
 -2.280000000000000E-002    0.000000000000000E+000
 -2.270000000000000E-002    0.000000000000000E+000
 -2.260000000000000E-002    0.000000000000000E+000
 -2.250000000000000E-002    0.000000000000000E+000
 -2.240000000000000E-002    0.000000000000000E+000
 -2.230000000000000E-002    0.000000000000000E+000
 -2.220000000000000E-002    0.000000000000000E+000
 -2.210000000000000E-002    0.000000000000000E+000
 -2.200000000000000E-002    0.000000000000000E+000
 -2.190000000000000E-002    0.000000000000000E+000
 -2.180000000000000E-002    0.000000000000000E+000
 -2.170000000000000E-002    0.000000000000000E+000
 -2.160000000000000E-002    0.000000000000000E+000
 -2.150000000000000E-002    0.000000000000000E+000
 -2.140000000000000E-002    0.000000000000000E+000
 -2.130000000000000E-002    0.000000000000000E+000
 -2.120000000000000E-002    0.000000000000000E+000
 -2.110000000000000E-002    0.000000000000000E+000
 -2.100000000000000E-002    0.000000000000000E+000
 -2.090000000000000E-002    0.000000000000000E+000
 -2.080000000000000E-002    0.000000000000000E+000
 -2.070000000000000E-002    0.000000000000000E+000
 -2.060000000000000E-002    0.000000000000000E+000
 -2.050000000000000E-002    0.000000000000000E+000
 -2.040000000000000E-002    0.000000000000000E+000
 -2.030000000000000E-002    0.000000000000000E+000
 -2.020000000000000E-002    0.000000000000000E+000
 -2.010000000000000E-002    0.000000000000000E+000
 -2.000000000000000E-002    0.000000000000000E+000
 -1.990000000000000E-002    0.000000000000000E+000
 -1.980000000000000E-002    0.000000000000000E+000
 -1.970000000000000E-002    0.000000000000000E+000
 -1.960000000000000E-002    0.000000000000000E+000
 -1.950000000000000E-002    0.000000000000000E+000
 -1.940000000000000E-002    0.000000000000000E+000
 -1.930000000000000E-002    0.000000000000000E+000
 -1.920000000000000E-002    0.000000000000000E+000
 -1.910000000000000E-002    0.000000000000000E+000
 -1.900000000000000E-002    0.000000000000000E+000
 -1.890000000000000E-002    0.000000000000000E+000
 -1.880000000000000E-002    0.000000000000000E+000
 -1.870000000000000E-002    0.000000000000000E+000
 -1.860000000000000E-002    0.000000000000000E+000
 -1.850000000000000E-002    0.000000000000000E+000
 -1.840000000000000E-002    0.000000000000000E+000
 -1.830000000000000E-002    0.000000000000000E+000
 -1.820000000000000E-002    0.000000000000000E+000
 -1.810000000000000E-002    0.000000000000000E+000
 -1.800000000000000E-002    0.000000000000000E+000
 -1.790000000000000E-002    0.000000000000000E+000
 -1.780000000000000E-002    0.000000000000000E+000
 -1.770000000000000E-002    0.000000000000000E+000
 -1.760000000000000E-002    0.000000000000000E+000
 -1.750000000000000E-002    0.000000000000000E+000
 -1.740000000000000E-002    0.000000000000000E+000
 -1.730000000000000E-002    0.000000000000000E+000
 -1.720000000000000E-002    0.000000000000000E+000
 -1.710000000000000E-002    0.000000000000000E+000
 -1.700000000000000E-002    0.000000000000000E+000
 -1.690000000000000E-002    0.000000000000000E+000
 -1.680000000000000E-002    0.000000000000000E+000
 -1.670000000000000E-002    0.000000000000000E+000
 -1.660000000000000E-002    0.000000000000000E+000
 -1.650000000000000E-002    0.000000000000000E+000
 -1.640000000000000E-002    0.000000000000000E+000
 -1.630000000000000E-002    0.000000000000000E+000
 -1.620000000000000E-002    0.000000000000000E+000
 -1.610000000000000E-002    0.000000000000000E+000
 -1.600000000000000E-002    0.000000000000000E+000
 -1.590000000000000E-002    0.000000000000000E+000
 -1.580000000000000E-002    0.000000000000000E+000
 -1.570000000000000E-002    0.000000000000000E+000
 -1.560000000000000E-002    0.000000000000000E+000
 -1.550000000000000E-002    0.000000000000000E+000
 -1.540000000000000E-002    0.000000000000000E+000
 -1.530000000000000E-002    0.000000000000000E+000
 -1.520000000000000E-002    0.000000000000000E+000
 -1.510000000000000E-002    0.000000000000000E+000
 -1.500000000000000E-002    0.000000000000000E+000
 -1.490000000000000E-002    0.000000000000000E+000
 -1.480000000000000E-002    0.000000000000000E+000
 -1.470000000000000E-002    0.000000000000000E+000
 -1.460000000000000E-002    0.000000000000000E+000
 -1.450000000000000E-002    0.000000000000000E+000
 -1.440000000000000E-002    0.000000000000000E+000
 -1.430000000000000E-002    0.000000000000000E+000
 -1.420000000000000E-002    0.000000000000000E+000
 -1.410000000000000E-002    0.000000000000000E+000
 -1.400000000000000E-002    0.000000000000000E+000
 -1.390000000000000E-002    0.000000000000000E+000
 -1.380000000000000E-002    0.000000000000000E+000
 -1.370000000000000E-002    0.000000000000000E+000
 -1.360000000000000E-002    0.000000000000000E+000
 -1.350000000000000E-002    0.000000000000000E+000
 -1.340000000000000E-002    0.000000000000000E+000
 -1.330000000000000E-002    0.000000000000000E+000
 -1.320000000000000E-002    0.000000000000000E+000
 -1.310000000000000E-002    0.000000000000000E+000
 -1.300000000000000E-002    0.000000000000000E+000
 -1.290000000000000E-002    0.000000000000000E+000
 -1.280000000000000E-002    0.000000000000000E+000
 -1.270000000000000E-002    0.000000000000000E+000
 -1.260000000000000E-002    0.000000000000000E+000
 -1.250000000000000E-002    0.000000000000000E+000
 -1.240000000000000E-002    0.000000000000000E+000
 -1.230000000000000E-002    0.000000000000000E+000
 -1.220000000000000E-002    0.000000000000000E+000
 -1.210000000000000E-002    0.000000000000000E+000
 -1.200000000000000E-002    0.000000000000000E+000
 -1.190000000000000E-002    0.000000000000000E+000
 -1.180000000000000E-002    0.000000000000000E+000
 -1.170000000000000E-002    0.000000000000000E+000
 -1.160000000000000E-002    0.000000000000000E+000
 -1.150000000000000E-002    0.000000000000000E+000
 -1.140000000000000E-002    0.000000000000000E+000
 -1.130000000000000E-002    0.000000000000000E+000
 -1.120000000000000E-002    0.000000000000000E+000
 -1.110000000000000E-002    0.000000000000000E+000
 -1.100000000000000E-002    0.000000000000000E+000
 -1.090000000000000E-002    0.000000000000000E+000
 -1.080000000000000E-002    0.000000000000000E+000
 -1.070000000000000E-002    0.000000000000000E+000
 -1.060000000000000E-002    0.000000000000000E+000
 -1.050000000000000E-002    0.000000000000000E+000
 -1.040000000000000E-002    0.000000000000000E+000
 -1.030000000000000E-002    0.000000000000000E+000
 -1.020000000000000E-002    0.000000000000000E+000
 -1.010000000000000E-002    0.000000000000000E+000
 -1.000000000000000E-002    0.000000000000000E+000
 -9.899999999999999E-003    0.000000000000000E+000
 -9.800000000000000E-003    0.000000000000000E+000
 -9.699999999999999E-003    0.000000000000000E+000
 -9.599999999999999E-003    0.000000000000000E+000
 -9.500000000000000E-003    0.000000000000000E+000
 -9.399999999999999E-003    0.000000000000000E+000
 -9.299999999999999E-003    0.000000000000000E+000
 -9.200000000000000E-003    0.000000000000000E+000
 -9.099999999999999E-003    0.000000000000000E+000
 -8.999999999999999E-003    0.000000000000000E+000
 -8.900000000000000E-003    0.000000000000000E+000
 -8.799999999999999E-003    0.000000000000000E+000
 -8.699999999999999E-003    0.000000000000000E+000
 -8.600000000000000E-003    0.000000000000000E+000
 -8.499999999999999E-003    0.000000000000000E+000
 -8.399999999999999E-003    0.000000000000000E+000
 -8.300000000000000E-003    0.000000000000000E+000
 -8.199999999999999E-003    0.000000000000000E+000
 -8.100000000000000E-003    0.000000000000000E+000
 -8.000000000000000E-003    0.000000000000000E+000
 -7.899999999999999E-003    0.000000000000000E+000
 -7.800000000000000E-003    0.000000000000000E+000
 -7.699999999999999E-003    0.000000000000000E+000
 -7.599999999999999E-003    0.000000000000000E+000
 -7.499999999999999E-003    0.000000000000000E+000
 -7.399999999999999E-003    0.000000000000000E+000
 -7.299999999999999E-003    0.000000000000000E+000
 -7.199999999999999E-003    0.000000000000000E+000
 -7.100000000000000E-003    0.000000000000000E+000
 -6.999999999999999E-003    0.000000000000000E+000
 -6.899999999999999E-003    0.000000000000000E+000
 -6.800000000000000E-003    0.000000000000000E+000
 -6.699999999999999E-003    0.000000000000000E+000
 -6.599999999999999E-003    0.000000000000000E+000
 -6.499999999999999E-003    0.000000000000000E+000
 -6.399999999999999E-003    0.000000000000000E+000
 -6.299999999999999E-003    0.000000000000000E+000
 -6.199999999999999E-003    0.000000000000000E+000
 -6.100000000000000E-003    0.000000000000000E+000
 -5.999999999999999E-003    0.000000000000000E+000
 -5.899999999999999E-003    8.210456020062442E-049
 -5.800000000000000E-003    1.642091204012488E-048
 -5.699999999999999E-003    4.050491676459389E-048
 -5.599999999999999E-003    6.458892148906289E-048
 -5.499999999999999E-003    8.867292621353189E-048
 -5.399999999999999E-003    1.127569309380009E-047
 -5.299999999999999E-003    1.127569309380009E-047
 -5.199999999999999E-003    1.209673869580633E-047
 -5.099999999999999E-003    8.922028954925021E-048
 -4.999999999999999E-003    8.459189941049733E-049
 -4.899999999999999E-003   -9.638591439161975E-048
 -4.799999999999999E-003   -2.335254794688207E-047
 -4.699999999999999E-003   -4.434652654335871E-047
 -4.599999999999999E-003   -8.145008570565986E-047
 -4.499999999999999E-003   -9.226501605309340E-047
 -4.399999999999999E-003   -1.096185326129478E-046
 -4.299999999999999E-003   -1.223193728907799E-046
 -4.199999999999999E-003   -1.364417058013561E-046
 -4.099999999999999E-003   -1.464268615098483E-046
 -3.999999999999999E-003   -2.364771736668656E-046
 -3.899999999999999E-003   -3.155057080225294E-046
 -3.799999999999999E-003   -3.339720931527561E-046
 -3.699999999999999E-003   -1.665023965796895E-046
 -3.599999999999999E-003    7.255175942858320E-047
 -3.499999999999999E-003    4.558137341069239E-046
 -3.399999999999999E-003    1.391828599415182E-045
 -3.299999999999999E-003    2.407555481268534E-045
 -3.199999999999999E-003    2.696616307805314E-045
 -3.099999999999999E-003    3.236322727440638E-045
 -2.999999999999999E-003    4.168008988977884E-045
 -2.899999999999999E-003    4.108377707345667E-045
 -2.799999999999999E-003    3.675598870947593E-045
 -2.699999999999999E-003    1.484328358205054E-045
 -2.599999999999999E-003   -2.219719297684351E-045
 -2.499999999999999E-003   -7.145274747887457E-045
 -2.399999999999999E-003   -1.380787772372000E-044
 -2.299999999999999E-003   -2.131820390564017E-044
 -2.199999999999999E-003   -2.865055433684776E-044
 -2.099999999999999E-003   -3.437978764128959E-044
 -1.999999999999999E-003   -3.605927784987142E-044
 -1.899999999999999E-003   -3.173176635173725E-044
 -1.799999999999999E-003   -1.995445605867801E-044
 -1.699999999999999E-003    1.548958339230046E-045
 -1.599999999999999E-003    3.306419107159564E-044
 -1.499999999999999E-003    7.316959253828590E-044
 -1.399999999999999E-003    1.174514845966786E-043
 -1.299999999999999E-003    1.603638054169945E-043
 -1.199999999999999E-003    1.919295525171846E-043
 -1.099999999999999E-003    2.014726483213180E-043
 -9.999999999999989E-004    1.785246604660761E-043
 -8.999999999999990E-004    1.126381969903536E-043
 -7.999999999999990E-004    4.678885673263589E-047
 -6.999999999999989E-004   -1.596749302947087E-043
 -5.999999999999990E-004   -3.547963677614253E-043
 -4.999999999999989E-004   -5.653315947999348E-043
 -3.999999999999989E-004   -7.588079166644395E-043
 -2.999999999999989E-004   -8.934629025935505E-043
 -1.999999999999989E-004   -9.224354766371651E-043
 -9.999999999999892E-005   -8.018409332861970E-043
  1.084202172485504E-018   -4.967089040022051E-043
  1.000000000000011E-004    5.642906426333394E-045
  2.000000000000011E-004    6.879417628123160E-043
  3.000000000000011E-004    1.495041990795302E-042
  4.000000000000011E-004    2.331712879324037E-042
  5.000000000000011E-004    3.063299144139729E-042
  6.000000000000011E-004    3.528964805149524E-042
  7.000000000000011E-004    3.561650167916085E-042
  8.000000000000011E-004    3.015750794141071E-042
  9.000000000000012E-004    1.799008278881836E-042
  1.000000000000001E-003   -9.286785820231459E-044
  1.100000000000001E-003   -2.551759175572285E-042
  1.200000000000001E-003   -5.336172151383008E-042
  1.300000000000001E-003   -8.078118757377966E-042
  1.400000000000001E-003   -1.031054884781118E-041
  1.500000000000001E-003   -1.151964916328363E-041
  1.600000000000001E-003   -1.122625845352389E-041
  1.700000000000001E-003   -9.075899993085471E-042
  1.800000000000001E-003   -4.940121530144464E-042
  1.900000000000001E-003    1.001680199927474E-042
  2.000000000000001E-003    8.208824464630829E-042
  2.100000000000001E-003    1.578556137815879E-041
  2.200000000000001E-003    2.255097794281026E-041
  2.300000000000001E-003    2.718583576342312E-041
  2.400000000000001E-003    2.844053971460400E-041
  2.500000000000001E-003    2.539479508386709E-041
  2.600000000000001E-003    1.771132875285170E-041
  2.700000000000001E-003    5.858123604167849E-042
  2.800000000000001E-003   -8.783020666380578E-042
  2.900000000000001E-003   -2.395684759197275E-041
  3.000000000000001E-003   -3.676963081185049E-041
  3.100000000000001E-003   -4.412747948486082E-041
  3.200000000000001E-003   -4.334453674788315E-041
  3.300000000000001E-003   -3.285595249783219E-041
  3.400000000000001E-003   -1.290468516108315E-041
  3.500000000000001E-003    1.393864781349729E-041
  3.600000000000001E-003    4.259661561508830E-041
  3.700000000000001E-003    6.579590298047535E-041
  3.800000000000001E-003    7.496202123780434E-041
  3.900000000000001E-003    6.171799235122207E-041
  4.000000000000001E-003    1.987026400179974E-041
  4.100000000000001E-003   -5.235158930732068E-041
  4.200000000000001E-003   -1.501911846842853E-040
  4.300000000000001E-003   -2.608585719528142E-040
  4.400000000000001E-003   -3.631533022022421E-040
  4.500000000000001E-003   -4.286767499682305E-040
  4.600000000000002E-003   -4.249571876135471E-040
  4.700000000000001E-003   -3.205317129809017E-040
  4.800000000000001E-003   -9.170151768693803E-041
  4.900000000000002E-003    2.697777069259516E-040
  5.000000000000001E-003    7.491789309688225E-040
  5.100000000000001E-003    1.302930788181252E-039
  5.200000000000001E-003    1.856017539682730E-039
  5.300000000000002E-003    2.304209173795802E-039
  5.400000000000001E-003    2.522314624962536E-039
  5.500000000000001E-003    2.378974186051546E-039
  5.600000000000002E-003    1.757507230731243E-039
  5.700000000000001E-003    5.811767991095285E-040
  5.800000000000001E-003   -1.160029901614682E-039
  5.900000000000002E-003   -3.385094983470225E-039
  6.000000000000001E-003   -5.904903099764658E-039
  6.100000000000001E-003   -8.417336776414707E-039
  6.200000000000002E-003   -1.051893456366828E-038
  6.300000000000002E-003   -1.173608075101147E-038
  6.400000000000001E-003   -1.157647880525466E-038
  6.500000000000001E-003   -9.598735045415295E-039
  6.600000000000002E-003   -5.494571157521982E-039
  6.700000000000001E-003    8.251231427125947E-040
  6.800000000000001E-003    9.151986244021803E-039
  6.900000000000002E-003    1.892297786921479E-038
  7.000000000000001E-003    2.919787799603470E-038
  7.100000000000001E-003    3.868354533931561E-038
  7.200000000000002E-003    4.581334342967657E-038
  7.300000000000002E-003    4.888470930845988E-038
  7.400000000000001E-003    4.625077840259790E-038
  7.500000000000001E-003    3.655412076544743E-038
  7.600000000000002E-003    1.898260818075434E-038
  7.700000000000001E-003   -6.479456093127041E-039
  7.800000000000001E-003   -3.883707126577186E-038
  7.900000000000001E-003   -7.594147845250538E-038
  8.000000000000002E-003   -1.144515202326192E-037
  8.100000000000001E-003   -1.499277249944701E-037
  8.200000000000001E-003   -1.770785671179792E-037
  8.300000000000002E-003   -1.901660556118716E-037
  8.400000000000001E-003   -1.835627331094389E-037
  8.500000000000002E-003   -1.524349417317382E-037
  8.600000000000002E-003   -9.350943049890052E-038
  8.700000000000001E-003   -5.862714346961171E-039
  8.800000000000002E-003    1.083432436507351E-037
  8.900000000000002E-003    2.432682617227887E-037
  9.000000000000001E-003    3.890413580178634E-037
  9.100000000000002E-003    5.317478367369398E-037
  9.200000000000002E-003    6.538484922507628E-037
  9.300000000000001E-003    7.351075677505551E-037
  9.400000000000002E-003    7.540766362921248E-037
  9.500000000000001E-003    6.901391954455609E-037
  9.600000000000001E-003    5.260644626955449E-037
  9.700000000000002E-003    2.509470192849631E-037
  9.800000000000001E-003   -1.366704523355169E-037
  9.900000000000001E-003   -6.257825924831446E-037
  1.000000000000000E-002   -1.190386367920533E-036
  1.010000000000000E-002   -1.787867372336212E-036
  1.020000000000000E-002   -2.358785186642735E-036
  1.030000000000000E-002   -2.828530560608144E-036
  1.040000000000000E-002   -3.111260978756962E-036
  1.050000000000000E-002   -3.116383230997910E-036
  1.060000000000000E-002   -2.757635534059254E-036
  1.070000000000000E-002   -1.964528192816765E-036
  1.080000000000000E-002   -6.955408119535517E-037
  1.090000000000000E-002    1.047928881363837E-036
  1.100000000000000E-002    3.208281102128856E-036
  1.110000000000000E-002    5.660881082388642E-036
  1.120000000000000E-002    8.207738144589108E-036
  1.130000000000000E-002    1.057787270780130E-035
  1.140000000000000E-002    1.243644206191748E-035
  1.150000000000000E-002    1.340430832198212E-035
  1.160000000000000E-002    1.308903623011336E-035
  1.170000000000000E-002    1.112726516152887E-035
  1.180000000000000E-002    7.237047335226883E-036
  1.190000000000000E-002    1.277094694342942E-036
  1.200000000000000E-002   -6.691884423848406E-036
  1.210000000000000E-002   -1.635042900746379E-035
  1.220000000000000E-002   -2.707641056973979E-035
  1.230000000000000E-002   -3.792340642375146E-035
  1.240000000000000E-002   -4.763122455943354E-035
  1.250000000000000E-002   -5.467781637569696E-035
  1.260000000000000E-002   -5.737986208941585E-035
  1.270000000000000E-002   -5.404570211436243E-035
  1.280000000000000E-002   -4.317908862653581E-035
  1.290000000000000E-002   -2.372528255912904E-035
  1.300000000000000E-002    4.657195038503348E-036
  1.310000000000000E-002    4.132478569771995E-035
  1.320000000000000E-002    8.441155842468468E-035
  1.330000000000000E-002    1.306680026811200E-034
  1.340000000000000E-002    1.754219782115381E-034
  1.350000000000000E-002    2.127075022853726E-034
  1.360000000000000E-002    2.356004246896705E-034
  1.370000000000000E-002    2.367857273381534E-034
  1.380000000000000E-002    2.093587830894969E-034
  1.390000000000000E-002    1.478323206031615E-034
  1.400000000000000E-002    4.928376912816074E-035
  1.410000000000000E-002   -8.546263983795805E-035
  1.420000000000000E-002   -2.507642141112390E-034
  1.430000000000000E-002   -4.353756672591826E-034
  1.440000000000000E-002   -6.221486920305243E-034
  1.450000000000000E-002   -7.884075777173540E-034
  1.460000000000000E-002   -9.071635679656087E-034
  1.470000000000000E-002   -9.492677632287697E-034
  1.480000000000000E-002   -8.865060196496021E-034
  1.490000000000000E-002   -6.955129466636957E-034
  1.500000000000000E-002   -3.622343300115209E-034
  1.510000000000000E-002    1.134906686452880E-034
  1.520000000000000E-002    7.137988996077034E-034
  1.530000000000000E-002    1.399806519170695E-033
  1.540000000000000E-002    2.110474751150556E-033
  1.550000000000000E-002    2.764032144556341E-033
  1.560000000000000E-002    3.262502245721373E-033
  1.570000000000000E-002    3.499628486812613E-033
  1.580000000000000E-002    3.372119219115911E-033
  1.590000000000000E-002    2.793671213823618E-033
  1.600000000000000E-002    1.710709381965907E-033
  1.610000000000000E-002    1.182654634340312E-034
  1.620000000000000E-002   -1.926037397870737E-033
  1.630000000000000E-002   -4.292222521411207E-033
  1.640000000000000E-002   -6.774825534262702E-033
  1.650000000000000E-002   -9.098558066405836E-033
  1.660000000000000E-002   -1.093437866685601E-032
  1.670000000000000E-002   -1.192663663041778E-032
  1.680000000000000E-002   -1.173069919552256E-032
  1.690000000000000E-002   -1.005897283590546E-032
  1.700000000000000E-002   -6.731600102374202E-033
  1.710000000000000E-002   -1.726598174165062E-033
  1.720000000000000E-002    4.777071787594487E-033
  1.730000000000000E-002    1.237070699605205E-032
  1.740000000000000E-002    2.040853681624704E-032
  1.750000000000000E-002    2.802810364114373E-032
  1.760000000000000E-002    3.420262030660839E-032
  1.770000000000000E-002    3.782656570398039E-032
  1.780000000000000E-002    3.783194677812048E-032
  1.790000000000000E-002    3.332815240713865E-032
  1.800000000000000E-002    2.375371781686321E-032
  1.810000000000000E-002    9.024076277275738E-033
  1.820000000000000E-002   -1.034391183170179E-032
  1.830000000000000E-002   -3.315145666309269E-032
  1.840000000000000E-002   -5.750158585579196E-032
  1.850000000000000E-002   -8.086410362149525E-032
  1.860000000000000E-002   -1.002326516828420E-031
  1.870000000000000E-002   -1.123759599007971E-031