 -4.000000000000000E-002    0.000000000000000E+000
 -3.990000000000000E-002    0.000000000000000E+000
 -3.980000000000000E-002    0.000000000000000E+000
 -3.970000000000000E-002    0.000000000000000E+000
 -3.960000000000000E-002    0.000000000000000E+000
 -3.950000000000000E-002    0.000000000000000E+000
 -3.940000000000000E-002    0.000000000000000E+000
 -3.930000000000000E-002    0.000000000000000E+000
 -3.920000000000000E-002    0.000000000000000E+000
 -3.910000000000000E-002    0.000000000000000E+000
 -3.900000000000000E-002    0.000000000000000E+000
 -3.890000000000000E-002    0.000000000000000E+000
 -3.880000000000000E-002    0.000000000000000E+000
 -3.870000000000000E-002    0.000000000000000E+000
 -3.860000000000000E-002    0.000000000000000E+000
 -3.850000000000000E-002    0.000000000000000E+000
 -3.840000000000000E-002    0.000000000000000E+000
 -3.830000000000000E-002    0.000000000000000E+000
 -3.820000000000000E-002    0.000000000000000E+000
 -3.810000000000000E-002    0.000000000000000E+000
 -3.800000000000000E-002    0.000000000000000E+000
 -3.790000000000000E-002    0.000000000000000E+000
 -3.780000000000000E-002    0.000000000000000E+000
 -3.770000000000000E-002    0.000000000000000E+000
 -3.760000000000000E-002    0.000000000000000E+000
 -3.750000000000000E-002    0.000000000000000E+000
 -3.740000000000000E-002    0.000000000000000E+000
 -3.730000000000000E-002    0.000000000000000E+000
 -3.720000000000000E-002    0.000000000000000E+000
 -3.710000000000000E-002    0.000000000000000E+000
 -3.700000000000000E-002    0.000000000000000E+000
 -3.690000000000000E-002    0.000000000000000E+000
 -3.680000000000000E-002    0.000000000000000E+000
 -3.670000000000000E-002    0.000000000000000E+000
 -3.660000000000000E-002    0.000000000000000E+000
 -3.650000000000000E-002    0.000000000000000E+000
 -3.640000000000000E-002    0.000000000000000E+000
 -3.630000000000000E-002    0.000000000000000E+000
 -3.620000000000000E-002    0.000000000000000E+000
 -3.610000000000000E-002    0.000000000000000E+000
 -3.600000000000000E-002    0.000000000000000E+000
 -3.590000000000000E-002    0.000000000000000E+000
 -3.580000000000000E-002    0.000000000000000E+000
 -3.570000000000000E-002    0.000000000000000E+000
 -3.560000000000000E-002    0.000000000000000E+000
 -3.550000000000000E-002    0.000000000000000E+000
 -3.540000000000000E-002    0.000000000000000E+000
 -3.530000000000000E-002    0.000000000000000E+000
 -3.520000000000000E-002    0.000000000000000E+000
 -3.510000000000000E-002    0.000000000000000E+000
 -3.500000000000000E-002    0.000000000000000E+000
 -3.490000000000000E-002    0.000000000000000E+000
 -3.480000000000000E-002    0.000000000000000E+000
 -3.470000000000000E-002    0.000000000000000E+000
 -3.460000000000000E-002    0.000000000000000E+000
 -3.450000000000000E-002    0.000000000000000E+000
 -3.440000000000000E-002    0.000000000000000E+000
 -3.430000000000000E-002    0.000000000000000E+000
 -3.420000000000000E-002    0.000000000000000E+000
 -3.410000000000000E-002    0.000000000000000E+000
 -3.400000000000000E-002    0.000000000000000E+000
 -3.390000000000000E-002    0.000000000000000E+000
 -3.380000000000000E-002    0.000000000000000E+000
 -3.370000000000000E-002    0.000000000000000E+000
 -3.360000000000000E-002    0.000000000000000E+000
 -3.350000000000000E-002    0.000000000000000E+000
 -3.340000000000000E-002    0.000000000000000E+000
 -3.330000000000000E-002    0.000000000000000E+000
 -3.320000000000000E-002    0.000000000000000E+000
 -3.310000000000000E-002    0.000000000000000E+000
 -3.300000000000000E-002    0.000000000000000E+000
 -3.290000000000000E-002    0.000000000000000E+000
 -3.280000000000000E-002    0.000000000000000E+000
 -3.270000000000000E-002    0.000000000000000E+000
 -3.260000000000000E-002    0.000000000000000E+000
 -3.250000000000000E-002    0.000000000000000E+000
 -3.240000000000000E-002    0.000000000000000E+000
 -3.230000000000000E-002    0.000000000000000E+000
 -3.220000000000000E-002    0.000000000000000E+000
 -3.210000000000000E-002    0.000000000000000E+000
 -3.200000000000000E-002    0.000000000000000E+000
 -3.190000000000000E-002    0.000000000000000E+000
 -3.180000000000000E-002    0.000000000000000E+000
 -3.170000000000000E-002    0.000000000000000E+000
 -3.160000000000000E-002    0.000000000000000E+000
 -3.150000000000000E-002    0.000000000000000E+000
 -3.140000000000000E-002    0.000000000000000E+000
 -3.130000000000000E-002    0.000000000000000E+000
 -3.120000000000000E-002    0.000000000000000E+000
 -3.110000000000000E-002    0.000000000000000E+000
 -3.100000000000000E-002    0.000000000000000E+000
 -3.090000000000000E-002    0.000000000000000E+000
 -3.080000000000000E-002    0.000000000000000E+000
 -3.070000000000000E-002    0.000000000000000E+000
 -3.060000000000000E-002    0.000000000000000E+000
 -3.050000000000000E-002    0.000000000000000E+000
 -3.040000000000000E-002    0.000000000000000E+000
 -3.030000000000000E-002    0.000000000000000E+000
 -3.020000000000000E-002    0.000000000000000E+000
 -3.010000000000000E-002    0.000000000000000E+000
 -3.000000000000000E-002    0.000000000000000E+000
 -2.990000000000000E-002    0.000000000000000E+000
 -2.980000000000000E-002    0.000000000000000E+000
 -2.970000000000000E-002    0.000000000000000E+000
 -2.960000000000000E-002    0.000000000000000E+000
 -2.950000000000000E-002    0.000000000000000E+000
 -2.940000000000000E-002    0.000000000000000E+000
 -2.930000000000000E-002    0.000000000000000E+000
 -2.920000000000000E-002    0.000000000000000E+000
 -2.910000000000000E-002    0.000000000000000E+000
 -2.900000000000000E-002    0.000000000000000E+000
 -2.890000000000000E-002    0.000000000000000E+000
 -2.880000000000000E-002    0.000000000000000E+000
 -2.870000000000000E-002    0.000000000000000E+000
 -2.860000000000000E-002    0.000000000000000E+000
 -2.850000000000000E-002    0.000000000000000E+000
 -2.840000000000000E-002    0.000000000000000E+000
 -2.830000000000000E-002    0.000000000000000E+000
 -2.820000000000000E-002    0.000000000000000E+000
 -2.810000000000000E-002    0.000000000000000E+000
 -2.800000000000000E-002    0.000000000000000E+000
 -2.790000000000000E-002    0.000000000000000E+000
 -2.780000000000000E-002    0.000000000000000E+000
 -2.770000000000000E-002    0.000000000000000E+000
 -2.760000000000000E-002    0.000000000000000E+000
 -2.750000000000000E-002    0.000000000000000E+000
 -2.740000000000000E-002    0.000000000000000E+000
 -2.730000000000000E-002    0.000000000000000E+000
 -2.720000000000000E-002    0.000000000000000E+000
 -2.710000000000000E-002    0.000000000000000E+000
 -2.700000000000000E-002    0.000000000000000E+000
 -2.690000000000000E-002    0.000000000000000E+000
 -2.680000000000000E-002    0.000000000000000E+000
 -2.670000000000000E-002    0.000000000000000E+000
 -2.660000000000000E-002    0.000000000000000E+000
 -2.650000000000000E-002    0.000000000000000E+000
 -2.640000000000000E-002    0.000000000000000E+000
 -2.630000000000000E-002    0.000000000000000E+000
 -2.620000000000000E-002    0.000000000000000E+000
 -2.610000000000000E-002    0.000000000000000E+000
 -2.600000000000000E-002    0.000000000000000E+000
 -2.590000000000000E-002    0.000000000000000E+000
 -2.580000000000000E-002    0.000000000000000E+000
 -2.570000000000000E-002    0.000000000000000E+000
 -2.560000000000000E-002    0.000000000000000E+000
 -2.550000000000000E-002    0.000000000000000E+000
 -2.540000000000000E-002    0.000000000000000E+000
 -2.530000000000000E-002    0.000000000000000E+000
 -2.520000000000000E-002    0.000000000000000E+000
 -2.510000000000000E-002    0.000000000000000E+000
 -2.500000000000000E-002    0.000000000000000E+000
 -2.490000000000000E-002    0.000000000000000E+000
 -2.480000000000000E-002    0.000000000000000E+000
 -2.470000000000000E-002    0.000000000000000E+000
 -2.460000000000000E-002    0.000000000000000E+000
 -2.450000000000000E-002    0.000000000000000E+000
 -2.440000000000000E-002    0.000000000000000E+000
 -2.430000000000000E-002    0.000000000000000E+000
 -2.420000000000000E-002    0.000000000000000E+000
 -2.410000000000000E-002    0.000000000000000E+000
 -2.400000000000000E-002    0.000000000000000E+000
 -2.390000000000000E-002    0.000000000000000E+000
 -2.380000000000000E-002    0.000000000000000E+000
 -2.370000000000000E-002    0.000000000000000E+000
 -2.360000000000000E-002    0.000000000000000E+000
 -2.350000000000000E-002    0.000000000000000E+000
 -2.340000000000000E-002    0.000000000000000E+000
 -2.330000000000000E-002    0.000000000000000E+000
 -2.320000000000000E-002    0.000000000000000E+000
 -2.310000000000000E-002    0.000000000000000E+000
 -2.300000000000000E-002    0.000000000000000E+000
 -2.290000000000000E-002    0.000000000000000E+000
 -2.280000000000000E-002    0.000000000000000E+000
 -2.270000000000000E-002    0.000000000000000E+000
 -2.260000000000000E-002    0.000000000000000E+000
 -2.250000000000000E-002    0.000000000000000E+000
 -2.240000000000000E-002    0.000000000000000E+000
 -2.230000000000000E-002    0.000000000000000E+000
 -2.220000000000000E-002    0.000000000000000E+000
 -2.210000000000000E-002    0.000000000000000E+000
 -2.200000000000000E-002    0.000000000000000E+000
 -2.190000000000000E-002    0.000000000000000E+000
 -2.180000000000000E-002    0.000000000000000E+000
 -2.170000000000000E-002    0.000000000000000E+000
 -2.160000000000000E-002    0.000000000000000E+000
 -2.150000000000000E-002    0.000000000000000E+000
 -2.140000000000000E-002    0.000000000000000E+000
 -2.130000000000000E-002    0.000000000000000E+000
 -2.120000000000000E-002    0.000000000000000E+000
 -2.110000000000000E-002    0.000000000000000E+000
 -2.100000000000000E-002    0.000000000000000E+000
 -2.090000000000000E-002    0.000000000000000E+000
 -2.080000000000000E-002    0.000000000000000E+000
 -2.070000000000000E-002    0.000000000000000E+000
 -2.060000000000000E-002    0.000000000000000E+000
 -2.050000000000000E-002    0.000000000000000E+000
 -2.040000000000000E-002    0.000000000000000E+000
 -2.030000000000000E-002    0.000000000000000E+000
 -2.020000000000000E-002    0.000000000000000E+000
 -2.010000000000000E-002    0.000000000000000E+000
 -2.000000000000000E-002    0.000000000000000E+000
 -1.990000000000000E-002    0.000000000000000E+000
 -1.980000000000000E-002    0.000000000000000E+000
 -1.970000000000000E-002    0.000000000000000E+000
 -1.960000000000000E-002    0.000000000000000E+000
 -1.950000000000000E-002    0.000000000000000E+000
 -1.940000000000000E-002    0.000000000000000E+000
 -1.930000000000000E-002    0.000000000000000E+000
 -1.920000000000000E-002    0.000000000000000E+000
 -1.910000000000000E-002    0.000000000000000E+000
 -1.900000000000000E-002    0.000000000000000E+000
 -1.890000000000000E-002    0.000000000000000E+000
 -1.880000000000000E-002    0.000000000000000E+000
 -1.870000000000000E-002    0.000000000000000E+000
 -1.860000000000000E-002    0.000000000000000E+000
 -1.850000000000000E-002    0.000000000000000E+000
 -1.840000000000000E-002    0.000000000000000E+000
 -1.830000000000000E-002    0.000000000000000E+000
 -1.820000000000000E-002    0.000000000000000E+000
 -1.810000000000000E-002    0.000000000000000E+000
 -1.800000000000000E-002    0.000000000000000E+000
 -1.790000000000000E-002    0.000000000000000E+000
 -1.780000000000000E-002    0.000000000000000E+000
 -1.770000000000000E-002    0.000000000000000E+000
 -1.760000000000000E-002    0.000000000000000E+000
 -1.750000000000000E-002    0.000000000000000E+000
 -1.740000000000000E-002    0.000000000000000E+000
 -1.730000000000000E-002    0.000000000000000E+000
 -1.720000000000000E-002    0.000000000000000E+000
 -1.710000000000000E-002    0.000000000000000E+000
 -1.700000000000000E-002    0.000000000000000E+000
 -1.690000000000000E-002    0.000000000000000E+000
 -1.680000000000000E-002    0.000000000000000E+000
 -1.670000000000000E-002    0.000000000000000E+000
 -1.660000000000000E-002   -1.725055395824490E-048
 -1.650000000000000E-002   -3.450110791648981E-048
 -1.640000000000000E-002   -3.450110791648981E-048
 -1.630000000000000E-002   -3.450110791648981E-048
 -1.620000000000000E-002   -1.725055395824490E-048
 -1.610000000000000E-002    6.962965026777215E-048
 -1.600000000000000E-002    1.737604084520341E-047
 -1.590000000000000E-002    3.123922745527859E-047
 -1.580000000000000E-002    4.158955983022553E-047
 -1.570000000000000E-002    5.193989220517247E-047
 -1.560000000000000E-002    5.866236673575801E-047
 -1.550000000000000E-002    3.591536817606152E-047
 -1.540000000000000E-002    3.438296738318433E-047
 -1.530000000000000E-002   -9.509985894675698E-048
 -1.520000000000000E-002   -9.528448756831816E-047
 -1.510000000000000E-002   -2.136050345441596E-046
 -1.500000000000000E-002   -3.945499329178757E-046
 -1.490000000000000E-002   -5.644470198555195E-046
 -1.480000000000000E-002   -6.228359662087146E-046
 -1.470000000000000E-002   -5.999545469427678E-046
 -1.460000000000000E-002   -4.172172018247758E-046
 -1.450000000000000E-002   -6.605630436089813E-047
 -1.440000000000000E-002    5.744501521154237E-046
 -1.430000000000000E-002    1.566853585127224E-045
 -1.420000000000000E-002    2.968977894784208E-045
 -1.410000000000000E-002    4.810321080140667E-045
 -1.400000000000000E-002    6.601704672478033E-045
 -1.390000000000000E-002    7.934826586795098E-045
 -1.380000000000000E-002    8.153816534006112E-045
 -1.370000000000000E-002    7.459048156359493E-045
 -1.360000000000000E-002    3.078196528749185E-045
 -1.350000000000000E-002   -4.326334386337279E-045
 -1.340000000000000E-002   -1.510913771224931E-044
 -1.330000000000000E-002   -2.801683446959655E-044
 -1.320000000000000E-002   -4.304138398138622E-044
 -1.310000000000000E-002   -5.720454961617293E-044
 -1.300000000000000E-002   -6.596619404163434E-044
 -1.290000000000000E-002   -6.538259467256285E-044
 -1.280000000000000E-002   -4.954156667407315E-044
 -1.270000000000000E-002   -1.360342015855348E-044
 -1.260000000000000E-002    4.548544016078891E-044
 -1.250000000000000E-002    1.276366061667008E-043
 -1.240000000000000E-002    2.281101865659193E-043
 -1.230000000000000E-002    3.336261545152044E-043
 -1.220000000000000E-002    4.234914315109955E-043
 -1.210000000000000E-002    4.707577468283216E-043
 -1.200000000000000E-002    4.431551904709909E-043
 -1.190000000000000E-002    3.050236262252676E-043
 -1.180000000000000E-002    2.784593857284240E-044
 -1.170000000000000E-002   -4.011745717035078E-043
 -1.160000000000000E-002   -9.695190900871424E-043
 -1.150000000000000E-002   -1.626365364291702E-042
 -1.140000000000000E-002   -2.280626301097495E-042
 -1.130000000000000E-002   -2.791333863073716E-042
 -1.120000000000000E-002   -2.980417852178839E-042
 -1.110000000000000E-002   -2.648731987558688E-042
 -1.100000000000000E-002   -1.607439778163972E-042
 -1.090000000000000E-002    2.758969441547397E-043
 -1.080000000000000E-002    3.022736765604562E-042
 -1.070000000000000E-002    6.487058702443052E-042
 -1.060000000000000E-002    1.030716938257299E-041
 -1.050000000000000E-002    1.387991800385383E-041
 -1.040000000000000E-002    1.637142642956689E-041
 -1.030000000000000E-002    1.678178848003065E-041
 -1.020000000000000E-002    1.407424456606862E-041
 -1.010000000000000E-002    7.363281787881850E-042
 -1.000000000000000E-002   -3.835809043784996E-042
 -9.899999999999999E-003   -1.933832890349541E-041
 -9.800000000000000E-003   -3.803309578957009E-041
 -9.699999999999999E-003   -5.770202947151238E-041
 -9.599999999999999E-003   -7.498253093612950E-041
 -9.500000000000000E-003   -8.554002472480410E-041
 -9.399999999999999E-003   -8.450332213059388E-041
 -9.299999999999999E-003   -6.718318762968263E-041
 -9.200000000000000E-003   -3.004845518802518E-041
 -9.099999999999999E-003    2.812971001791343E-041
 -8.999999999999999E-003    1.051223075767952E-040
 -8.900000000000000E-003    1.942911057458351E-040
 -8.799999999999999E-003    2.841119801572374E-040
 -8.699999999999999E-003    3.584387173555212E-040
 -8.600000000000000E-003    3.977369962334099E-040
 -8.499999999999999E-003    3.814195269899238E-040
 -8.399999999999999E-003    2.912376005397121E-040
 -8.300000000000000E-003    1.154780256960451E-040
 -8.199999999999999E-003   -1.465320293128772E-040
 -8.100000000000000E-003   -4.803587744215821E-040
 -8.000000000000000E-003   -8.537257980970862E-040
 -7.899999999999999E-003   -1.216082842935437E-039
 -7.800000000000000E-003   -1.501334692635654E-039
 -7.699999999999999E-003   -1.634270483624638E-039
 -7.599999999999999E-003   -1.540732560737086E-039
 -7.499999999999999E-003   -1.160870970802924E-039
 -7.399999999999999E-003   -4.640386131376993E-040
 -7.299999999999999E-003    5.368463306796881E-040
 -7.199999999999999E-003    1.774231725001818E-039
 -7.100000000000000E-003    3.121108692196847E-039
 -6.999999999999999E-003    4.395121292050300E-039
 -6.899999999999999E-003    5.373378992832206E-039
 -6.800000000000000E-003    5.818284104989317E-039
 -6.699999999999999E-003    5.512715456137326E-039
 -6.599999999999999E-003    4.300727250018813E-039
 -6.499999999999999E-003    2.127894468228678E-039
 -6.399999999999999E-003   -9.260118614723700E-040
 -6.299999999999999E-003   -4.629675081654528E-039
 -6.199999999999999E-003   -8.604830606017856E-039
 -6.100000000000000E-003   -1.235673101568565E-038
 -5.999999999999999E-003   -1.533025403993290E-038
 -5.899999999999999E-003   -1.698624349390117E-038
 -5.800000000000000E-003   -1.688732797995856E-038
 -5.699999999999999E-003   -1.477806652723762E-038
 -5.599999999999999E-003   -1.064211527591271E-038
 -5.499999999999999E-003   -4.720273632064974E-039
 -5.399999999999999E-003    2.521441759662578E-039
 -5.299999999999999E-003    1.047517274046636E-038
 -5.199999999999999E-003    1.851498296955771E-038
 -5.099999999999999E-003    2.613624027341885E-038
 -4.999999999999999E-003    3.307391427513633E-038
 -4.899999999999999E-003    3.935650137124452E-038
 -4.799999999999999E-003    4.525460782602374E-038
 -4.699999999999999E-003    5.109705694215397E-038
 -4.599999999999999E-003    5.695385378024120E-038
 -4.499999999999999E-003    6.222262922352563E-038
 -4.399999999999999E-003    6.519848995690814E-038
 -4.299999999999999E-003    6.274868211488016E-038
 -4.199999999999999E-003    5.024206485832602E-038
 -4.099999999999999E-003    2.188782943897989E-038
 -3.999999999999999E-003   -2.839293696176077E-038
 -3.899999999999999E-003   -1.055122923826405E-037
 -3.799999999999999E-003   -2.112416986969115E-037
 -3.699999999999999E-003   -3.419334029975759E-037
 -3.599999999999999E-003   -4.863138834120960E-037
 -3.499999999999999E-003   -6.238748154684354E-037
 -3.399999999999999E-003   -7.244829055273292E-037
 -3.299999999999999E-003   -7.498337870998562E-037
 -3.199999999999999E-003   -6.572529060092831E-037
 -3.099999999999999E-003   -4.060732658905092E-037
 -2.999999999999999E-003    3.360089372386774E-038
 -2.899999999999999E-003    6.704764550396622E-037
 -2.799999999999999E-003    1.481330946300297E-036
 -2.699999999999999E-003    2.401841452706173E-036
 -2.599999999999999E-003    3.321281958941561E-036
 -2.499999999999999E-003    4.083508678375350E-036
 -2.399999999999999E-003    4.496378779092552E-036
 -2.299999999999999E-003    4.350987626042283E-036
 -2.199999999999999E-003    3.450859044713520E-036
 -2.099999999999999E-003    1.649534519379506E-036
 -1.999999999999999E-003   -1.106944133260147E-036
 -1.899999999999999E-003   -4.738131769421879E-036
 -1.799999999999999E-003   -8.994979938342513E-036
 -1.699999999999999E-003   -1.344142219229987E-035
 -1.599999999999999E-003   -1.745974278256902E-035
 -1.499999999999999E-003   -2.028631698572875E-035
 -1.399999999999999E-003   -2.108145455538497E-035
 -1.299999999999999E-003   -1.903282079542614E-035
 -1.199999999999999E-003   -1.348658497233513E-035
 -1.099999999999999E-003   -4.094597614083474E-036
 -9.999999999999989E-004    9.039733718639064E-036
 -8.999999999999990E-004    2.523864718576522E-035
 -7.999999999999990E-004    4.317451092221106E-035
 -6.999999999999989E-004    6.086527461366417E-035
 -5.999999999999990E-004    7.576059425462944E-035
 -4.999999999999989E-004    8.493071778773120E-035
 -3.999999999999989E-004    8.535915909581304E-035
 -2.999999999999989E-004    7.432657122466748E-035
 -1.999999999999989E-004    4.985827343762998E-035
 -9.999999999999892E-005    1.119323414327803E-035
  1.084202172485504E-018   -4.078017050107436E-035
  1.000000000000011E-004   -1.031846190664096E-034
  2.000000000000011E-004   -1.709762645490755E-034
  3.000000000000011E-004   -2.369904647938704E-034
  4.000000000000011E-004   -2.922600149409047E-034
  5.000000000000011E-004   -3.266353119912616E-034
  6.000000000000011E-004   -3.297088628005670E-034
  7.000000000000011E-004   -2.920134059791116E-034
  8.000000000000011E-004   -2.064263135910075E-034
  9.000000000000012E-004   -6.967407041414941E-035
  1.000000000000001E-003    1.162064678703482E-034
  1.100000000000001E-003    3.426257608118506E-034
  1.200000000000001E-003    5.936176725153604E-034
  1.300000000000001E-003    8.456434493414672E-034
  1.400000000000001E-003    1.068224485145107E-033
  1.500000000000001E-003    1.225572328240948E-033
  1.600000000000001E-003    1.279322456369065E-033
  1.700000000000001E-003    1.192384328034679E-033
  1.800000000000001E-003    9.337920351388465E-034
  1.900000000000001E-003    4.842816747984073E-034
  2.000000000000001E-003   -1.578577056174465E-034
  2.100000000000001E-003   -9.712969166978597E-034
  2.200000000000001E-003   -1.907345176608773E-033
  2.300000000000001E-003   -2.887711325127366E-033
  2.400000000000001E-003   -3.805295643232713E-033
  2.500000000000001E-003   -4.528866668507024E-033
  2.600000000000001E-003   -4.912240011128309E-033
  2.700000000000001E-003   -4.808163565928805E-033
  2.800000000000001E-003   -4.086544681667065E-033
  2.900000000000001E-003   -2.655944626880412E-033
  3.000000000000001E-003   -4.864913151805248E-034
  3.100000000000001E-003    2.368400629206090E-033
  3.200000000000001E-003    5.754729130037339E-033
  3.300000000000001E-003    9.408600021288809E-033
  3.400000000000001E-003    1.295843239505037E-032
  3.500000000000001E-003    1.594162121280019E-032
  3.600000000000001E-003    1.783746001782916E-032
  3.700000000000001E-003    1.811642308073787E-032
  3.800000000000001E-003    1.630373402555767E-032
  3.900000000000001E-003    1.205271041490529E-032
  4.000000000000001E-003    5.220937879247545E-033
  4.100000000000001E-003   -4.059774880380860E-033
  4.200000000000001E-003   -1.533002882975879E-032
  4.300000000000001E-003   -2.777674250103154E-032
  4.400000000000001E-003   -4.024391980857285E-032
  4.500000000000001E-003   -5.128730644659730E-032
  4.600000000000002E-003   -5.927596281926940E-032
  4.700000000000001E-003   -6.253859473107645E-032
  4.800000000000001E-003   -5.954661508841896E-032
  4.900000000000002E-003   -4.911992086657529E-032
  5.000000000000001E-003   -3.063617755122617E-032
  5.100000000000001E-003   -4.220611177852808E-033
  5.200000000000001E-003    2.910829833476921E-032
  5.300000000000002E-003    6.736081951358784E-032
  5.400000000000001E-003    1.075854435520247E-031
  5.500000000000001E-003    1.459791995457879E-031
  5.600000000000002E-003    1.781037148158922E-031
  5.700000000000001E-003    1.992021822241473E-031
  5.800000000000001E-003    2.046025373085252E-031
  5.900000000000002E-003    1.901829501997345E-031
  6.000000000000001E-003    1.528685737522103E-031
  6.100000000000001E-003    9.112321373439780E-032
  6.200000000000002E-003    5.397275216416882E-033
  6.300000000000002E-003   -1.015072892982379E-031
  6.400000000000001E-003   -2.241927823164339E-031
  6.500000000000001E-003   -3.545781984346806E-031
  6.600000000000002E-003   -4.820019055601388E-031
  6.700000000000001E-003   -5.935459234408260E-031
  6.800000000000001E-003   -6.746106584913928E-031
  6.900000000000002E-003   -7.097646099748479E-031
  7.000000000000001E-003   -6.838851080225546E-031
  7.100000000000001E-003   -5.835911313509822E-031
  7.200000000000002E-003   -3.989441428736493E-031
  7.300000000000002E-003   -1.253564868090575E-031
  7.400000000000001E-003    2.344030174995237E-031
  7.500000000000001E-003    6.682760030685843E-031
  7.600000000000002E-003    1.153288920191875E-030
  7.700000000000001E-003    1.654532026568791E-030
  7.800000000000001E-003    2.125084597846238E-030
  7.900000000000001E-003    2.507243736909720E-030
  8.000000000000002E-003    2.735382836104972E-030
  8.100000000000001E-003    2.740673405207822E-030
  8.200000000000001E-003    2.457744420340106E-030
  8.300000000000002E-003    1.833123474250689E-030
  8.400000000000001E-003    8.350121342448637E-031
  8.500000000000002E-003   -5.363788740022725E-031
  8.600000000000002E-003   -2.239045422028186E-030
  8.700000000000001E-003   -4.181348522576796E-030
  8.800000000000002E-003   -6.217706161711084E-030
  8.900000000000002E-003   -8.149439830540842E-030
  9.000000000000001E-003   -9.732229845167608E-030
  9.100000000000002E-003   -1.069122460862566E-029
  9.200000000000002E-003   -1.074418362041137E-029
  9.300000000000001E-003   -9.632129425353133E-030
  9.400000000000002E-003   -7.155908352385454E-030
  9.500000000000001E-003   -3.215877148676809E-030
  9.600000000000001E-003    2.149194111185700E-030
  9.700000000000002E-003    8.728873697707986E-030
  9.800000000000001E-003    1.611891487690363E-029
  9.900000000000001E-003    2.371573501114364E-029
  1.000000000000000E-002    3.073247823177653E-029
  1.010000000000000E-002    3.624031388168194E-029
  1.020000000000000E-002    3.923656841527410E-029
  1.030000000000000E-002    3.873856309577614E-029
  1.040000000000000E-002    3.389879156742153E-029
  1.050000000000000E-002    2.413359358447047E-029
  1.060000000000000E-002    9.254076204384669E-030
  1.070000000000000E-002   -1.041485153879162E-029
  1.080000000000000E-002   -3.394342150751903E-029
  1.090000000000000E-002   -5.975064926413861E-029
  1.100000000000000E-002   -8.561828196160323E-029
  1.110000000000000E-002   -1.087776542586255E-028
  1.120000000000000E-002   -1.260769556845868E-028
  1.130000000000000E-002   -1.342294250920395E-028
  1.140000000000000E-002   -1.301344097858320E-028
  1.150000000000000E-002   -1.112535845551784E-028
  1.160000000000000E-002   -7.601486659576222E-029
  1.170000000000000E-002   -2.420735668964877E-029
  1.180000000000000E-002    4.267652474661495E-029
  1.190000000000000E-002    1.211999078044763E-028
  1.200000000000000E-002    2.058896612786511E-028
  1.210000000000000E-002    2.893375380283273E-028
  1.220000000000000E-002    3.625274963791203E-028
  1.230000000000000E-002    4.154064146410939E-028
  1.240000000000000E-002    4.376939902550415E-028
  1.250000000000000E-002    4.199017122815828E-028
  1.260000000000000E-002    3.545025394899238E-028
  1.270000000000000E-002    2.371638280148133E-028
  1.280000000000000E-002    6.792997707852266E-029
  1.290000000000000E-002   -1.477793492447630E-028
  1.300000000000000E-002   -3.985007995693456E-028
  1.310000000000000E-002   -6.665325712779887E-028
  1.320000000000000E-002   -9.283408364990432E-028
  1.330000000000000E-002   -1.155660989637181E-027
  1.340000000000000E-002   -1.317336259433251E-027
  1.350000000000000E-002   -1.381869735600189E-027
  1.360000000000000E-002   -1.320585002225950E-027
  1.370000000000000E-002   -1.111205338324633E-027
  1.380000000000000E-002   -7.415738114890644E-028
  1.390000000000000E-002   -2.131612149199639E-028
  1.400000000000000E-002    4.560487573725246E-028
  1.410000000000000E-002    1.229732246244668E-027
  1.420000000000000E-002    2.052878440939861E-027
  1.430000000000000E-002    2.853283376746353E-027
  1.440000000000000E-002    3.545132800742734E-027
  1.450000000000000E-002    4.034757284708976E-027
  1.460000000000000E-002    4.228440096836095E-027
  1.470000000000000E-002    4.041914117157232E-027
  1.480000000000000E-002    3.410937038508882E-027
  1.490000000000000E-002    2.302090921709420E-027
  1.500000000000000E-002    7.227485123378379E-028
  1.510000000000000E-002   -1.270984300450178E-027
  1.520000000000000E-002   -3.569583139663600E-027
  1.530000000000000E-002   -6.009830032937347E-027
  1.540000000000000E-002   -8.379887799270467E-027
  1.550000000000000E-002   -1.043031211013939E-026
  1.560000000000000E-002   -1.189110162038553E-026
  1.570000000000000E-002   -1.249430125126555E-026
  1.580000000000000E-002   -1.200101246514953E-026
  1.590000000000000E-002   -1.023099278934814E-026
  1.600000000000000E-002   -7.092412916710867E-027
  1.610000000000000E-002   -2.608843907191154E-027
  1.620000000000000E-002    3.059744011055361E-027
  1.630000000000000E-002    9.605230647286669E-027
  1.640000000000000E-002    1.657179359877516E-026
  1.650000000000000E-002    2.337089346498403E-026
  1.660000000000000E-002    2.931213704536593E-026
  1.670000000000000E-002    3.365006413358006E-026
  1.680000000000000E-002    3.564536471589535E-026
  1.690000000000000E-002    3.463734954237985E-026
  1.700000000000000E-002    3.012279956506233E-026
  1.710000000000000E-002    2.183483129364130E-026
  1.720000000000000E-002    9.814189212787640E-027
  1.730000000000000E-002   -5.535263368598943E-027
  1.740000000000000E-002   -2.341510966959435E-026
  1.750000000000000E-002   -4.263248775108873E-026
  1.760000000000000E-002   -6.163757019226343E-026
  1.770000000000000E-002   -7.860184175672679E-026
  1.780000000000000E-002   -9.153728506860564E-026
  1.790000000000000E-002   -9.845284318765919E-026
  1.800000000000000E-002   -9.754032906625603E-026
  1.810000000000000E-002   -8.737777049761528E-026
  1.820000000000000E-002   -6.713441878221937E-026
  1.830000000000000E-002   -3.675863145272202E-026
  1.840000000000000E-002    2.871954165469297E-027
  1.850000000000000E-002    4.985873101871457E-026
  1.860000000000000E-002    1.012680133927483E-025
  1.870000000000000E-002    1.532098006892079E-025