 -4.000000000000000E-002    0.000000000000000E+000
 -3.990000000000000E-002    0.000000000000000E+000
 -3.980000000000000E-002    0.000000000000000E+000
 -3.970000000000000E-002    0.000000000000000E+000
 -3.960000000000000E-002    0.000000000000000E+000
 -3.950000000000000E-002    0.000000000000000E+000
 -3.940000000000000E-002    0.000000000000000E+000
 -3.930000000000000E-002    0.000000000000000E+000
 -3.920000000000000E-002    0.000000000000000E+000
 -3.910000000000000E-002    5.876236741111014E-033
 -3.900000000000000E-002    1.055054465476335E-031
 -3.890000000000000E-002    9.899487100526201E-031
 -3.880000000000000E-002    6.453850537634155E-030
 -3.870000000000000E-002    3.280174677455353E-029
 -3.860000000000000E-002    1.382909142613418E-028
 -3.850000000000000E-002    5.025840624231308E-028
 -3.840000000000000E-002    1.615795706233905E-027
 -3.830000000000000E-002    4.680761308169947E-027
 -3.820000000000000E-002    1.238463484688120E-026
 -3.810000000000000E-002    3.023566768180326E-026
 -3.800000000000000E-002    6.864371395140065E-026
 -3.790000000000000E-002    1.457763070068496E-025
 -3.780000000000000E-002    2.908504715328074E-025
 -3.770000000000000E-002    5.468250171234498E-025
 -3.760000000000000E-002    9.703803564180351E-025
 -3.750000000000000E-002    1.625659333125176E-024
 -3.740000000000000E-002    2.566720785329696E-024
 -3.730000000000000E-002    3.802513485538582E-024
 -3.720000000000000E-002    5.238175282721047E-024
 -3.710000000000000E-002    6.588605540309763E-024
 -3.700000000000000E-002    7.265595366578766E-024
 -3.690000000000000E-002    6.249124682373526E-024
 -3.680000000000000E-002    1.966851735220198E-024
 -3.670000000000000E-002   -7.777827254594012E-024
 -3.660000000000000E-002   -2.577216268909596E-023
 -3.650000000000000E-002   -5.518557467999223E-023
 -3.640000000000000E-002   -9.911495689636058E-023
 -3.630000000000000E-002   -1.598271109420205E-022
 -3.620000000000000E-002   -2.376785426320673E-022
 -3.610000000000000E-002   -3.297542076320682E-022
 -3.600000000000000E-002   -4.283485689089517E-022
 -3.590000000000000E-002   -5.195051779551815E-022
 -3.580000000000000E-002   -5.819123168566537E-022
 -3.570000000000000E-002   -5.864995802639916E-022
 -3.560000000000000E-002   -4.970613881591784E-022
 -3.550000000000000E-002   -2.721230131441772E-022
 -3.540000000000000E-002    1.319475771853667E-022
 -3.530000000000000E-002    7.568818402386621E-022
 -3.520000000000000E-002    1.638157509977829E-021
 -3.510000000000000E-002    2.801305862538934E-021
 -3.500000000000000E-002    4.259990358144730E-021
 -3.490000000000000E-002    6.016796747116949E-021
 -3.480000000000000E-002    8.067082218125957E-021
 -3.470000000000000E-002    1.040504019818638E-020
 -3.460000000000000E-002    1.302943316541899E-020
 -3.450000000000000E-002    1.594423213364703E-020
 -3.440000000000000E-002    1.914710025616702E-020
 -3.430000000000000E-002    2.259675728691656E-020
 -3.420000000000000E-002    2.614939965860691E-020
 -3.410000000000000E-002    2.945567377349760E-020
 -3.400000000000000E-002    3.181376969590096E-020
 -3.390000000000000E-002    3.198219751936874E-020
 -3.380000000000000E-002    2.796797381036823E-020
 -3.370000000000000E-002    1.682197096823641E-020
 -3.360000000000000E-002   -5.507491087908181E-021
 -3.350000000000000E-002   -4.419192430486438E-020
 -3.340000000000000E-002   -1.053228437967198E-019
 -3.330000000000000E-002   -1.953969090912799E-019
 -3.320000000000000E-002   -3.203914681848603E-019
 -3.310000000000000E-002   -4.843562428481723E-019
 -3.300000000000000E-002   -6.874954285018436E-019
 -3.290000000000000E-002   -9.237848860682658E-019
 -3.280000000000000E-002   -1.178272003444761E-018
 -3.270000000000000E-002   -1.424329127919162E-018
 -3.260000000000000E-002   -1.621270748329700E-018
 -3.250000000000000E-002   -1.712877583239397E-018
 -3.240000000000000E-002   -1.627479707849635E-018
 -3.230000000000000E-002   -1.280301349384592E-018
 -3.220000000000000E-002   -5.787502874347392E-019
 -3.210000000000000E-002    5.688336163851502E-019
 -3.200000000000000E-002    2.240706060591664E-018
 -3.190000000000000E-002    4.485705424657063E-018
 -3.180000000000000E-002    7.304415284004444E-018
 -3.170000000000000E-002    1.062888067719405E-017
 -3.160000000000000E-002    1.430291034483070E-017
 -3.150000000000000E-002    1.806563814362070E-017
 -3.140000000000000E-002    2.154142445338337E-017
 -3.130000000000000E-002    2.423940487496374E-017
 -3.120000000000000E-002    2.556567942459615E-017
 -3.110000000000000E-002    2.485054016561037E-017
 -3.100000000000000E-002    2.139186764844323E-017
 -3.090000000000000E-002    1.451435941803558E-017
 -3.080000000000000E-002    3.642086859378075E-018
 -3.070000000000000E-002   -1.161967088846461E-017
 -3.060000000000000E-002   -3.139972559939997E-017
 -3.050000000000000E-002   -5.548054590485502E-017
 -3.040000000000000E-002   -8.323005163594430E-017
 -3.030000000000000E-002   -1.135528174249800E-016
 -3.020000000000000E-002   -1.448663039981221E-016
 -3.010000000000000E-002   -1.751050617166665E-016
 -3.000000000000000E-002   -2.017525267460723E-016
 -2.990000000000000E-002   -2.218970440213396E-016
 -2.980000000000000E-002   -2.323060079699790E-016
 -2.970000000000000E-002   -2.295118649606897E-016
 -2.960000000000000E-002   -2.099044142429767E-016
 -2.950000000000000E-002   -1.698305526806604E-016
 -2.940000000000000E-002   -1.057071972150228E-016
 -2.930000000000000E-002   -1.416587968964608E-017
 -2.920000000000000E-002    1.077438191570053E-016
 -2.910000000000000E-002    2.622560449702323E-016
 -2.900000000000000E-002    4.504547362918714E-016
 -2.890000000000000E-002    6.716683621739214E-016
 -2.880000000000000E-002    9.226713300886207E-016
 -2.870000000000000E-002    1.196700096941825E-015
 -2.860000000000000E-002    1.482331276510714E-015
 -2.850000000000000E-002    1.762326027541526E-015
 -2.840000000000000E-002    2.012602103964762E-015
 -2.830000000000000E-002    2.201559111820644E-015
 -2.820000000000000E-002    2.290028175034292E-015
 -2.810000000000000E-002    2.232145474516896E-015
 -2.800000000000000E-002    1.977438968815723E-015
 -2.790000000000000E-002    1.474355655292835E-015
 -2.780000000000000E-002    6.753488129502372E-016
 -2.770000000000000E-002   -4.565315902665494E-016
 -2.760000000000000E-002   -1.939814305909027E-015
 -2.750000000000000E-002   -3.766083283134264E-015
 -2.740000000000000E-002   -5.891543535536352E-015
 -2.730000000000000E-002   -8.229712068274769E-015
 -2.720000000000000E-002   -1.064642895376486E-014
 -2.710000000000000E-002   -1.295846298283308E-014
 -2.700000000000000E-002   -1.493689949380987E-014
 -2.690000000000000E-002   -1.631624839695757E-014
 -2.680000000000000E-002   -1.680977954253445E-014
 -2.670000000000000E-002   -1.613099920857375E-014
 -2.660000000000000E-002   -1.402045051123181E-014
 -2.650000000000000E-002   -1.027624597581411E-014
 -2.640000000000000E-002   -4.785957575504849E-015
 -2.630000000000000E-002    2.443151613694478E-015
 -2.620000000000000E-002    1.125896643696591E-014
 -2.610000000000000E-002    2.134796750903544E-014
 -2.600000000000000E-002    3.223045548089883E-014
 -2.590000000000000E-002    4.327007636533795E-014
 -2.580000000000000E-002    5.369893525083424E-014
 -2.570000000000000E-002    6.265823007290041E-014
 -2.560000000000000E-002    6.925254272916523E-014
 -2.550000000000000E-002    7.261437900753492E-014
 -2.540000000000000E-002    7.197395980610676E-014
 -2.530000000000000E-002    6.672821561811094E-014
 -2.520000000000000E-002    5.650247274655701E-014
 -2.510000000000000E-002    4.119853362285590E-014
 -2.500000000000000E-002    2.102388159970979E-014
 -2.490000000000000E-002   -3.501479297201309E-015
 -2.480000000000000E-002   -3.156161955105917E-014
 -2.470000000000000E-002   -6.208330535792469E-014
 -2.460000000000000E-002   -9.379234312052602E-014
 -2.450000000000000E-002   -1.252812864962508E-013
 -2.440000000000000E-002   -1.550805224743485E-013
 -2.430000000000000E-002   -1.817245034686135E-013
 -2.420000000000000E-002   -2.038055712402339E-013
 -2.410000000000000E-002   -2.200100636583310E-013
 -2.400000000000000E-002   -2.291347097254586E-013
 -2.390000000000000E-002   -2.300850673311966E-013
 -2.380000000000000E-002   -2.218622635473614E-013
 -2.370000000000000E-002   -2.035476537626883E-013
 -2.360000000000000E-002   -1.742977434650316E-013
 -2.350000000000000E-002   -1.333626136268331E-013
 -2.340000000000000E-002   -8.013950329365494E-014
 -2.330000000000000E-002   -1.426908232975887E-014
 -2.320000000000000E-002    6.422330320365137E-014
 -2.310000000000000E-002    1.547478909026147E-013
 -2.300000000000000E-002    2.559468929728026E-013
 -2.290000000000000E-002    3.654900872042993E-013
 -2.280000000000000E-002    4.798994358607497E-013
 -2.270000000000000E-002    5.944369696612229E-013
 -2.260000000000000E-002    7.030895400491958E-013
 -2.250000000000000E-002    7.986799707796747E-013
 -2.240000000000000E-002    8.731243439308209E-013
 -2.230000000000000E-002    9.178420458689789E-013
 -2.220000000000000E-002    9.243080787176488E-013
 -2.210000000000000E-002    8.847180111506291E-013
 -2.200000000000000E-002    7.927200687231066E-013
 -2.190000000000000E-002    6.441522814424261E-013
 -2.180000000000000E-002    4.377149395878012E-013
 -2.170000000000000E-002    1.755049033836297E-013
 -2.160000000000000E-002   -1.366551640823609E-013
 -2.150000000000000E-002   -4.891444906141301E-013
 -2.140000000000000E-002   -8.687611782969661E-013
 -2.130000000000000E-002   -1.259231685234461E-012
 -2.120000000000000E-002   -1.641987514770064E-012
 -2.110000000000000E-002   -1.997154105558714E-012
 -2.100000000000000E-002   -2.304674041730125E-012
 -2.090000000000000E-002   -2.545468196841624E-012
 -2.080000000000000E-002   -2.702534946498684E-012
 -2.070000000000000E-002   -2.761891797842309E-012
 -2.060000000000000E-002   -2.713280645943628E-012
 -2.050000000000000E-002   -2.550590568947706E-012
 -2.040000000000000E-002   -2.271979848826386E-012
 -2.030000000000000E-002   -1.879723443950227E-012
 -2.020000000000000E-002   -1.379841599560982E-012
 -2.010000000000000E-002   -7.815970123203141E-013
 -2.000000000000000E-002   -9.695980280738011E-014
 -1.990000000000000E-002    6.598565799579596E-013
 -1.980000000000000E-002    1.472702194465322E-012
 -1.970000000000000E-002    2.323584783894140E-012
 -1.960000000000000E-002    3.192537288015074E-012
 -1.950000000000000E-002    4.057292582361849E-012
 -1.940000000000000E-002    4.892848308158259E-012
 -1.930000000000000E-002    5.671044735391912E-012
 -1.920000000000000E-002    6.360308143523581E-012
 -1.910000000000000E-002    6.925713407976051E-012
 -1.900000000000000E-002    7.329509988280307E-012
 -1.890000000000000E-002    7.532213728814929E-012
 -1.880000000000000E-002    7.494310074426834E-012
 -1.870000000000000E-002    7.178543825613804E-012
 -1.860000000000000E-002    6.552688099248593E-012
 -1.850000000000000E-002    5.592614481760733E-012
 -1.840000000000000E-002    4.285429194225705E-012
 -1.830000000000000E-002    2.632388940225807E-012
 -1.820000000000000E-002    6.513143531755058E-013
 -1.810000000000000E-002   -1.621765420338830E-012
 -1.800000000000000E-002   -4.131959294308206E-012
 -1.790000000000000E-002   -6.805988573498640E-012
 -1.780000000000000E-002   -9.553841603394930E-012
 -1.770000000000000E-002   -1.227154968129183E-011
 -1.760000000000000E-002   -1.484495253514422E-011
 -1.750000000000000E-002   -1.715422272114882E-011
 -1.740000000000000E-002   -1.907888800328913E-011
 -1.730000000000000E-002   -2.050304850359913E-011
 -1.720000000000000E-002   -2.132052500289714E-011
 -1.710000000000000E-002   -2.143967473562213E-011
 -1.700000000000000E-002   -2.078771034885236E-011
 -1.690000000000000E-002   -1.931439865201886E-011
 -1.680000000000000E-002   -1.699508650705366E-011
 -1.670000000000000E-002   -1.383304525954141E-011
 -1.660000000000000E-002   -9.861168789963544E-012
 -1.650000000000000E-002   -5.143048425964596E-012
 -1.640000000000000E-002    2.265902879720233E-013
 -1.630000000000000E-002    6.122128725135540E-012
 -1.620000000000000E-002    1.238809604245030E-011
 -1.610000000000000E-002    1.884117007658832E-011
 -1.600000000000000E-002    2.527334019613549E-011
 -1.590000000000000E-002    3.145642584350982E-011
 -1.580000000000000E-002    3.714812141214698E-011
 -1.570000000000000E-002    4.209960313553924E-011
 -1.560000000000000E-002    4.606466102124999E-011
 -1.550000000000000E-002    4.881008662726415E-011
 -1.540000000000000E-002    5.012690442400967E-011
 -1.530000000000000E-002    4.984186094212777E-011
 -1.520000000000000E-002    4.782842055244400E-011
 -1.510000000000000E-002    4.401649698916896E-011
 -1.500000000000000E-002    3.840008011500037E-011
 -1.490000000000000E-002    3.104206604484093E-011
 -1.480000000000000E-002    2.207577833647303E-011
 -1.470000000000000E-002    1.170283805688721E-011
 -1.460000000000000E-002    1.874578277968884E-013
 -1.450000000000000E-002   -1.215254236853888E-011
 -1.440000000000000E-002   -2.495735845638477E-011
 -1.430000000000000E-002   -3.783862402140281E-011
 -1.420000000000000E-002   -5.039362992085615E-011
 -1.410000000000000E-002   -6.221932928637488E-011
 -1.400000000000000E-002   -7.292523788162286E-011
 -1.390000000000000E-002   -8.214447090836836E-011
 -1.380000000000000E-002   -8.954260033550715E-011
 -1.370000000000000E-002   -9.482418643854041E-011
 -1.360000000000000E-002   -9.773735317118670E-011
 -1.350000000000000E-002   -9.807693734706654E-011
 -1.340000000000000E-002   -9.568704547397242E-011
 -1.330000000000000E-002   -9.046382836280963E-011
 -1.320000000000000E-002   -8.235915633966394E-011
 -1.310000000000000E-002   -7.138587652862798E-011
 -1.300000000000000E-002   -5.762453174509677E-011
 -1.290000000000000E-002   -4.123139883589286E-011
 -1.280000000000000E-002   -2.244700338917999E-011
 -1.270000000000000E-002   -1.603839581871690E-012
 -1.260000000000000E-002    2.086810839542356E-011
 -1.250000000000000E-002    4.443978008059329E-011
 -1.240000000000000E-002    6.848680614770614E-011
 -1.230000000000000E-002    9.229993317864865E-011
 -1.220000000000000E-002    1.151027193009481E-010
 -1.210000000000000E-002    1.360765041762088E-010
 -1.200000000000000E-002    1.543918928596043E-010
 -1.190000000000000E-002    1.692451880409403E-010
 -1.180000000000000E-002    1.798975240800852E-010
 -1.170000000000000E-002    1.857140832051870E-010
 -1.160000000000000E-002    1.862004695765506E-010
 -1.150000000000000E-002    1.810333294160306E-010
 -1.140000000000000E-002    1.700829193545923E-010
 -1.130000000000000E-002    1.534258160917224E-010
 -1.120000000000000E-002    1.313467669046460E-010
 -1.110000000000000E-002    1.043298887675950E-010
 -1.100000000000000E-002    7.304010166468463E-011
 -1.090000000000000E-002    3.829666951050806E-011
 -1.080000000000000E-002    1.041251294690693E-012
 -1.070000000000000E-002   -3.769678584962326E-011
 -1.060000000000000E-002   -7.683520678201538E-011
 -1.050000000000000E-002   -1.152716224981099E-010
 -1.040000000000000E-002   -1.519124260897044E-010
 -1.030000000000000E-002   -1.856972303041090E-010
 -1.020000000000000E-002   -2.156189360823802E-010
 -1.010000000000000E-002   -2.407404017685437E-010
 -1.000000000000000E-002   -2.602092653526774E-010
 -9.899999999999999E-003   -2.732728813721818E-010
 -9.800000000000000E-003   -2.792951700368603E-010
 -9.699999999999999E-003   -2.777767791106440E-010
 -9.599999999999999E-003   -2.683793069367595E-010
 -9.500000000000000E-003   -2.509530286588311E-010
 -9.399999999999999E-003   -2.255667056966961E-010
 -9.299999999999999E-003   -1.925367878423354E-010
 -9.200000000000000E-003   -1.524525837182413E-010
 -9.099999999999999E-003   -1.061932712832431E-010
 -8.999999999999999E-003   -5.493264837274836E-011
 -8.900000000000000E-003   -1.282269759263302E-013
 -8.799999999999999E-003    5.650811026697327E-011
 -8.699999999999999E-003    1.130589975410052E-010
 -8.600000000000000E-003    1.674692739768755E-010
 -8.499999999999999E-003    2.176299867892857E-010
 -8.399999999999999E-003    2.614745172296910E-010
 -8.300000000000000E-003    2.970807477281562E-010
 -8.199999999999999E-003    3.227726374689934E-010
 -8.100000000000000E-003    3.372138668750997E-010
 -8.000000000000000E-003    3.394865975624203E-010
 -7.899999999999999E-003    3.291494735714416E-010
 -7.800000000000000E-003    3.062705920978763E-010
 -7.699999999999999E-003    2.714331541423500E-010
 -7.599999999999999E-003    2.257140704380818E-010
 -7.499999999999999E-003    1.706379386783118E-010
 -7.399999999999999E-003    1.081109192483821E-010
 -7.299999999999999E-003    4.034056207714047E-011
 -7.199999999999999E-003   -3.025083864857525E-011
 -7.100000000000000E-003   -1.011126753596736E-010
 -6.999999999999999E-003   -1.696450956493146E-010
 -6.899999999999999E-003   -2.332658450147978E-010
 -6.800000000000000E-003   -2.894615007335403E-010
 -6.699999999999999E-003   -3.358218196392016E-010
 -6.599999999999999E-003   -3.700592451580702E-010
 -6.499999999999999E-003   -3.900173439340379E-010
 -6.399999999999999E-003   -3.936737327075905E-010
 -6.299999999999999E-003   -3.791448192403650E-010
 -6.199999999999999E-003   -3.446998404902279E-010
 -6.100000000000000E-003   -2.887909099877229E-010
 -5.999999999999999E-003   -2.101047891940735E-010
 -5.899999999999999E-003   -1.076397358567780E-010
 -5.800000000000000E-003    1.919285155208613E-011
 -5.699999999999999E-003    1.704440724735806E-010
 -5.599999999999999E-003    3.454878127548071E-010
 -5.499999999999999E-003    5.428747719144704E-010
 -5.399999999999999E-003    7.601925629834513E-010
 -5.299999999999999E-003    9.939458867318888E-010
 -5.199999999999999E-003    1.239471688678468E-009
 -5.099999999999999E-003    1.490902744744377E-009
 -4.999999999999999E-003    1.741192360622404E-009
 -4.899999999999999E-003    1.982208472289260E-009
 -4.799999999999999E-003    2.204901709255861E-009
 -4.699999999999999E-003    2.399547961550257E-009
 -4.599999999999999E-003    2.556058662633862E-009
 -4.499999999999999E-003    2.664348070236865E-009
 -4.399999999999999E-003    2.714741284746495E-009
 -4.299999999999999E-003    2.698404776973239E-009
 -4.199999999999999E-003    2.607776071524198E-009
 -4.099999999999999E-003    2.436973310184082E-009
 -3.999999999999999E-003    2.182162823743985E-009
 -3.899999999999999E-003    1.841869662100781E-009
 -3.799999999999999E-003    1.417222907120596E-009
 -3.699999999999999E-003    9.121328457834821E-010
 -3.599999999999999E-003    3.334047481044421E-010
 -3.499999999999999E-003   -3.091906205438755E-010
 -3.399999999999999E-003   -1.002867345560203E-009
 -3.299999999999999E-003   -1.731766447732940E-009
 -3.199999999999999E-003   -2.476850370738635E-009
 -3.099999999999999E-003   -3.215712840312006E-009
 -2.999999999999999E-003   -3.922267439024640E-009
 -2.899999999999999E-003   -4.566289603609732E-009
 -2.799999999999999E-003   -5.112778668073478E-009
 -2.699999999999999E-003   -5.521139815977634E-009
 -2.599999999999999E-003   -5.744194131869401E-009
 -2.499999999999999E-003   -5.727017168918174E-009
 -2.399999999999999E-003   -5.405672996351955E-009
 -2.299999999999999E-003   -4.705856767347706E-009
 -2.199999999999999E-003   -3.541536037418116E-009
 -2.099999999999999E-003   -1.813633058617284E-009
 -1.999999999999999E-003    5.911710834211210E-010
 -1.899999999999999E-003    3.801459489722540E-009
 -1.799999999999999E-003    7.961873742170094E-009
 -1.699999999999999E-003    1.323364763777354E-008
 -1.599999999999999E-003    1.979485620821900E-008
 -1.499999999999999E-003    2.784039825182297E-008
 -1.399999999999999E-003    3.758172615629064E-008
 -1.299999999999999E-003    4.924636742302560E-008
 -1.199999999999999E-003    6.307730834369772E-008
 -1.099999999999999E-003    7.933230392137361E-008
 -9.999999999999989E-004    9.828315302772087E-008
 -8.999999999999990E-004    1.202150692429390E-007
 -7.999999999999990E-004    1.454261576191134E-007
 -6.999999999999989E-004    1.742270187378311E-007
 -5.999999999999990E-004    2.069405492305830E-007
 -4.999999999999989E-004    2.439018925947715E-007
 -3.999999999999989E-004    2.854585114152237E-007
 -2.999999999999989E-004    3.319703010933907E-007
 -1.999999999999989E-004    3.838097706982078E-007
 -9.999999999999892E-005    4.413620440501435E-007
  1.084202172485504E-018    5.050248889658543E-007
  1.000000000000011E-004    5.752083532609356E-007
  2.000000000000011E-004    6.523341912882684E-007
  3.000000000000011E-004    7.368352194814084E-007
  4.000000000000011E-004    8.291543297661247E-007
  5.000000000000011E-004    9.297431750902367E-007
  6.000000000000011E-004    1.039061269784876E-006
  7.000000000000011E-004    1.157574443396774E-006
  8.000000000000011E-004    1.285754475406486E-006
  9.000000000000012E-004    1.424078307204078E-006
  1.000000000000001E-003    1.573028287375881E-006
  1.100000000000001E-003    1.733092841370841E-006
  1.200000000000001E-003    1.904768385696122E-006
  1.300000000000001E-003    2.088561716321704E-006
  1.400000000000001E-003    2.284993287936819E-006
  1.500000000000001E-003    2.494601992567287E-006
  1.600000000000001E-003    2.717949924596582E-006
  1.700000000000001E-003    2.955628282297145E-006
  1.800000000000001E-003    3.208263198892822E-006
  1.900000000000001E-003    3.476521808443592E-006
  2.000000000000001E-003    3.761118966065583E-006
  2.100000000000001E-003    4.062822131870428E-006
  2.200000000000001E-003    4.382457015068683E-006
  2.300000000000001E-003    4.720911735874706E-006
  2.400000000000001E-003    5.079140074422108E-006
  2.500000000000001E-003    5.458164019829352E-006
  2.600000000000001E-003    5.859075205550401E-006
  2.700000000000001E-003    6.283037029865779E-006
  2.800000000000001E-003    6.731282930907115E-006
  2.900000000000001E-003    7.205118368503368E-006
  3.000000000000001E-003    7.705919801991451E-006
  3.100000000000001E-003    8.235136502693734E-006
  3.200000000000001E-003    8.794290383395082E-006
  3.300000000000001E-003    9.384980497889813E-006
  3.400000000000001E-003    1.000888494568294E-005
  3.500000000000001E-003    1.066776711472633E-005
  3.600000000000001E-003    1.136348272431481E-005
  3.700000000000001E-003    1.209798676984203E-005
  3.800000000000001E-003    1.287334546594696E-005
  3.900000000000001E-003    1.369174430927257E-005
  4.000000000000001E-003    1.455549986585802E-005
  4.100000000000001E-003    1.546707041293013E-005
  4.200000000000001E-003    1.642907053750423E-005
  4.300000000000001E-003    1.744427558356245E-005
  4.400000000000001E-003    1.851563433837912E-005
  4.500000000000001E-003    1.964627713219803E-005
  4.600000000000002E-003    2.083951793876656E-005
  4.700000000000001E-003    2.209886382356064E-005
  4.800000000000001E-003    2.342801444382646E-005
  4.900000000000002E-003    2.483086105978161E-005
  5.000000000000001E-003    2.631149210974735E-005
  5.100000000000001E-003    2.787418685921096E-005
  5.200000000000001E-003    2.952341599628345E-005
  5.300000000000002E-003    3.126384570557786E-005
  5.400000000000001E-003    3.310033500952556E-005
  5.500000000000001E-003    3.503793643617968E-005
  5.600000000000002E-003    3.708190248560067E-005
  5.700000000000001E-003    3.923769391926496E-005
  5.800000000000001E-003    4.151098713616848E-005
  5.900000000000002E-003    4.390768518243729E-005
  6.000000000000001E-003    4.643393220630863E-005
  6.100000000000001E-003    4.909613250470210E-005
  6.200000000000002E-003    5.190095712383061E-005
  6.300000000000002E-003    5.485537400121383E-005
  6.400000000000001E-003    5.796665525628093E-005
  6.500000000000001E-003    6.124240176067283E-005
  6.600000000000002E-003    6.469055348347603E-005
  6.700000000000001E-003    6.831940125557341E-005
  6.800000000000001E-003    7.213761143154570E-005
  6.900000000000002E-003    7.615422449331186E-005
  7.000000000000001E-003    8.037867246726192E-005
  7.100000000000001E-003    8.482078964020044E-005
  7.200000000000002E-003    8.949079946266450E-005
  7.300000000000002E-003    9.439935680074771E-005
  7.400000000000001E-003    9.955752780845803E-005
  7.500000000000001E-003    1.049768138596355E-004
  7.600000000000002E-003    1.106691616318541E-004
  7.700000000000001E-003    1.166469641588996E-004
  7.800000000000001E-003    1.229231009482402E-004
  7.900000000000001E-003    1.295109346183716E-004
  8.000000000000002E-003    1.364243475342661E-004
  8.100000000000001E-003    1.436777782401103E-004
  8.200000000000001E-003    1.512862195641571E-004
  8.300000000000002E-003    1.592652740143148E-004
  8.400000000000001E-003    1.676311707050700E-004
  8.500000000000002E-003    1.764007973945705E-004
  8.600000000000002E-003    1.855917282371511E-004
  8.700000000000001E-003    1.952222572187407E-004
  8.800000000000002E-003    2.053114099943195E-004
  8.900000000000002E-003    2.158789716906080E-004
  9.000000000000001E-003    2.269455365108527E-004
  9.100000000000002E-003    2.385324354977884E-004
  9.200000000000002E-003    2.506618406704775E-004
  9.300000000000001E-003    2.633567665448268E-004
  9.400000000000002E-003    2.766409950480494E-004
  9.500000000000001E-003    2.905391769228356E-004
  9.600000000000001E-003    3.050767949963721E-004
  9.700000000000002E-003    3.202801924615198E-004
  9.800000000000001E-003    3.361765422775939E-004
  9.900000000000001E-003    3.527939512852310E-004
  1.000000000000000E-002    3.701613852388386E-004
  1.010000000000000E-002    3.883087289874514E-004
  1.020000000000000E-002    4.072668756406817E-004
  1.030000000000000E-002    4.270676494843983E-004
  1.040000000000000E-002    4.477439172366048E-004
  1.050000000000000E-002    4.693296166963416E-004
  1.060000000000000E-002    4.918598043243557E-004
  1.070000000000000E-002    5.153706724600681E-004
  1.080000000000000E-002    5.398995811350465E-004
  1.090000000000000E-002    5.654851731153446E-004
  1.100000000000000E-002    5.921673382004310E-004
  1.110000000000000E-002    6.199873127703908E-004
  1.120000000000000E-002    6.489875786245217E-004
  1.130000000000000E-002    6.792120517299867E-004
  1.140000000000000E-002    7.107060252988756E-004
  1.150000000000000E-002    7.435161370075842E-004
  1.160000000000000E-002    7.776903651072293E-004
  1.170000000000000E-002    8.132781189030485E-004
  1.180000000000000E-002    8.503301574377182E-004
  1.190000000000000E-002    8.888987089086215E-004
  1.200000000000000E-002    9.290372630446959E-004
  1.210000000000000E-002    9.708006981010691E-004
  1.220000000000000E-002    1.014245288065878E-003
  1.230000000000000E-002    1.059428686788830E-003
  1.240000000000000E-002    1.106409954507596E-003
  1.250000000000000E-002    1.155249461522371E-003
  1.260000000000000E-002    1.206009096377672E-003
  1.270000000000000E-002    1.258752098330017E-003
  1.280000000000000E-002    1.313543355253547E-003
  1.290000000000000E-002    1.370449039115225E-003
  1.300000000000000E-002    1.429537030384862E-003
  1.310000000000000E-002    1.490876639596549E-003
  1.320000000000000E-002    1.554539053500039E-003
  1.330000000000000E-002    1.620596789191309E-003
  1.340000000000000E-002    1.689124283529098E-003
  1.350000000000000E-002    1.760197512486900E-003
  1.360000000000000E-002    1.833894154603095E-003
  1.370000000000000E-002    1.910293555921394E-003
  1.380000000000000E-002    1.989476816754645E-003
  1.390000000000000E-002    2.071526634313547E-003
  1.400000000000000E-002    2.156527172105325E-003
  1.410000000000000E-002    2.244564454792953E-003
  1.420000000000000E-002    2.335725920304984E-003
  1.430000000000000E-002    2.430100470393207E-003
  1.440000000000000E-002    2.527778774859775E-003
  1.450000000000000E-002    2.628852547981634E-003
  1.460000000000000E-002    2.733415150869092E-003
  1.470000000000000E-002    2.841561443415385E-003
  1.480000000000000E-002    2.953387438461895E-003
  1.490000000000000E-002    3.068990441480489E-003
  1.500000000000000E-002    3.188469551988893E-003
  1.510000000000000E-002    3.311924836889012E-003
  1.520000000000000E-002    3.439457858753470E-003
  1.530000000000000E-002    3.571171496415281E-003
  1.540000000000000E-002    3.707170229690535E-003
  1.550000000000000E-002    3.847559606538463E-003
  1.560000000000000E-002    3.992446760323152E-003
  1.570000000000000E-002    4.141939706139041E-003
  1.580000000000000E-002    4.296147654326217E-003
  1.590000000000000E-002    4.455182180645820E-003
  1.600000000000000E-002    4.619154160867255E-003
  1.610000000000000E-002    4.788177052522908E-003
  1.620000000000000E-002    4.962364300394430E-003
  1.630000000000000E-002    5.141830737090128E-003
  1.640000000000000E-002    5.326691278713457E-003
  1.650000000000000E-002    5.517062010366575E-003
  1.660000000000000E-002    5.713059020022969E-003
  1.670000000000000E-002    5.914799221307478E-003
  1.680000000000000E-002    6.122398946773432E-003
  1.690000000000000E-002    6.335975386148527E-003
  1.700000000000000E-002    6.555644748083895E-003
  1.710000000000000E-002    6.781524286817717E-003
  1.720000000000000E-002    7.013729922859469E-003
  1.730000000000000E-002    7.252377647534569E-003
  1.740000000000000E-002    7.497582881453260E-003
  1.750000000000000E-002    7.749460518103988E-003
  1.760000000000000E-002    8.008124781382676E-003
  1.770000000000000E-002    8.273688449684022E-003
  1.780000000000000E-002    8.546265103699073E-003
  1.790000000000000E-002    8.825964894131250E-003
  1.800000000000000E-002    9.112899708486680E-003
  1.810000000000000E-002    9.407176980895125E-003
  1.820000000000000E-002    9.708904663750019E-003
  1.830000000000000E-002    1.001818880028152E-002
  1.840000000000000E-002    1.033513205931232E-002
  1.850000000000000E-002    1.065983696981165E-002
  1.860000000000000E-002    1.099240265041578E-002
  1.870000000000000E-002    1.133292478562297E-002