 -4.000000000000000E-002    0.000000000000000E+000
 -3.990000000000000E-002    0.000000000000000E+000
 -3.980000000000000E-002    0.000000000000000E+000
 -3.970000000000000E-002    0.000000000000000E+000
 -3.960000000000000E-002    0.000000000000000E+000
 -3.950000000000000E-002    0.000000000000000E+000
 -3.940000000000000E-002    0.000000000000000E+000
 -3.930000000000000E-002    0.000000000000000E+000
 -3.920000000000000E-002    0.000000000000000E+000
 -3.910000000000000E-002    0.000000000000000E+000
 -3.900000000000000E-002    0.000000000000000E+000
 -3.890000000000000E-002    0.000000000000000E+000
 -3.880000000000000E-002    0.000000000000000E+000
 -3.870000000000000E-002    0.000000000000000E+000
 -3.860000000000000E-002    0.000000000000000E+000
 -3.850000000000000E-002    0.000000000000000E+000
 -3.840000000000000E-002    0.000000000000000E+000
 -3.830000000000000E-002    0.000000000000000E+000
 -3.820000000000000E-002    0.000000000000000E+000
 -3.810000000000000E-002    0.000000000000000E+000
 -3.800000000000000E-002    0.000000000000000E+000
 -3.790000000000000E-002    0.000000000000000E+000
 -3.780000000000000E-002    0.000000000000000E+000
 -3.770000000000000E-002    0.000000000000000E+000
 -3.760000000000000E-002    0.000000000000000E+000
 -3.750000000000000E-002    0.000000000000000E+000
 -3.740000000000000E-002    0.000000000000000E+000
 -3.730000000000000E-002    0.000000000000000E+000
 -3.720000000000000E-002    0.000000000000000E+000
 -3.710000000000000E-002    0.000000000000000E+000
 -3.700000000000000E-002    0.000000000000000E+000
 -3.690000000000000E-002    0.000000000000000E+000
 -3.680000000000000E-002    0.000000000000000E+000
 -3.670000000000000E-002    0.000000000000000E+000
 -3.660000000000000E-002    0.000000000000000E+000
 -3.650000000000000E-002    0.000000000000000E+000
 -3.640000000000000E-002    0.000000000000000E+000
 -3.630000000000000E-002    0.000000000000000E+000
 -3.620000000000000E-002    0.000000000000000E+000
 -3.610000000000000E-002    0.000000000000000E+000
 -3.600000000000000E-002    0.000000000000000E+000
 -3.590000000000000E-002    0.000000000000000E+000
 -3.580000000000000E-002    0.000000000000000E+000
 -3.570000000000000E-002    0.000000000000000E+000
 -3.560000000000000E-002    0.000000000000000E+000
 -3.550000000000000E-002    0.000000000000000E+000
 -3.540000000000000E-002    0.000000000000000E+000
 -3.530000000000000E-002    0.000000000000000E+000
 -3.520000000000000E-002    0.000000000000000E+000
 -3.510000000000000E-002    0.000000000000000E+000
 -3.500000000000000E-002    0.000000000000000E+000
 -3.490000000000000E-002    0.000000000000000E+000
 -3.480000000000000E-002    0.000000000000000E+000
 -3.470000000000000E-002    0.000000000000000E+000
 -3.460000000000000E-002    0.000000000000000E+000
 -3.450000000000000E-002    0.000000000000000E+000
 -3.440000000000000E-002    0.000000000000000E+000
 -3.430000000000000E-002    0.000000000000000E+000
 -3.420000000000000E-002    0.000000000000000E+000
 -3.410000000000000E-002    0.000000000000000E+000
 -3.400000000000000E-002    0.000000000000000E+000
 -3.390000000000000E-002    0.000000000000000E+000
 -3.380000000000000E-002    0.000000000000000E+000
 -3.370000000000000E-002    0.000000000000000E+000
 -3.360000000000000E-002    0.000000000000000E+000
 -3.350000000000000E-002    0.000000000000000E+000
 -3.340000000000000E-002    0.000000000000000E+000
 -3.330000000000000E-002    0.000000000000000E+000
 -3.320000000000000E-002    0.000000000000000E+000
 -3.310000000000000E-002    0.000000000000000E+000
 -3.300000000000000E-002    0.000000000000000E+000
 -3.290000000000000E-002    0.000000000000000E+000
 -3.280000000000000E-002    0.000000000000000E+000
 -3.270000000000000E-002    0.000000000000000E+000
 -3.260000000000000E-002    0.000000000000000E+000
 -3.250000000000000E-002    0.000000000000000E+000
 -3.240000000000000E-002    0.000000000000000E+000
 -3.230000000000000E-002    0.000000000000000E+000
 -3.220000000000000E-002    0.000000000000000E+000
 -3.210000000000000E-002    0.000000000000000E+000
 -3.200000000000000E-002    0.000000000000000E+000
 -3.190000000000000E-002    0.000000000000000E+000
 -3.180000000000000E-002    0.000000000000000E+000
 -3.170000000000000E-002    0.000000000000000E+000
 -3.160000000000000E-002    0.000000000000000E+000
 -3.150000000000000E-002    0.000000000000000E+000
 -3.140000000000000E-002    0.000000000000000E+000
 -3.130000000000000E-002    0.000000000000000E+000
 -3.120000000000000E-002    0.000000000000000E+000
 -3.110000000000000E-002    0.000000000000000E+000
 -3.100000000000000E-002    0.000000000000000E+000
 -3.090000000000000E-002    0.000000000000000E+000
 -3.080000000000000E-002    0.000000000000000E+000
 -3.070000000000000E-002    0.000000000000000E+000
 -3.060000000000000E-002    0.000000000000000E+000
 -3.050000000000000E-002    0.000000000000000E+000
 -3.040000000000000E-002    0.000000000000000E+000
 -3.030000000000000E-002    0.000000000000000E+000
 -3.020000000000000E-002    0.000000000000000E+000
 -3.010000000000000E-002    0.000000000000000E+000
 -3.000000000000000E-002    0.000000000000000E+000
 -2.990000000000000E-002    0.000000000000000E+000
 -2.980000000000000E-002    0.000000000000000E+000
 -2.970000000000000E-002    0.000000000000000E+000
 -2.960000000000000E-002    0.000000000000000E+000
 -2.950000000000000E-002    0.000000000000000E+000
 -2.940000000000000E-002    0.000000000000000E+000
 -2.930000000000000E-002    0.000000000000000E+000
 -2.920000000000000E-002    0.000000000000000E+000
 -2.910000000000000E-002    0.000000000000000E+000
 -2.900000000000000E-002    0.000000000000000E+000
 -2.890000000000000E-002    0.000000000000000E+000
 -2.880000000000000E-002    0.000000000000000E+000
 -2.870000000000000E-002    0.000000000000000E+000
 -2.860000000000000E-002    0.000000000000000E+000
 -2.850000000000000E-002    0.000000000000000E+000
 -2.840000000000000E-002    0.000000000000000E+000
 -2.830000000000000E-002    0.000000000000000E+000
 -2.820000000000000E-002    0.000000000000000E+000
 -2.810000000000000E-002    0.000000000000000E+000
 -2.800000000000000E-002    0.000000000000000E+000
 -2.790000000000000E-002    0.000000000000000E+000
 -2.780000000000000E-002    0.000000000000000E+000
 -2.770000000000000E-002    0.000000000000000E+000
 -2.760000000000000E-002    0.000000000000000E+000
 -2.750000000000000E-002    0.000000000000000E+000
 -2.740000000000000E-002    0.000000000000000E+000
 -2.730000000000000E-002    0.000000000000000E+000
 -2.720000000000000E-002    0.000000000000000E+000
 -2.710000000000000E-002    0.000000000000000E+000
 -2.700000000000000E-002    0.000000000000000E+000
 -2.690000000000000E-002    0.000000000000000E+000
 -2.680000000000000E-002    0.000000000000000E+000
 -2.670000000000000E-002    0.000000000000000E+000
 -2.660000000000000E-002    0.000000000000000E+000
 -2.650000000000000E-002    0.000000000000000E+000
 -2.640000000000000E-002    0.000000000000000E+000
 -2.630000000000000E-002    0.000000000000000E+000
 -2.620000000000000E-002    0.000000000000000E+000
 -2.610000000000000E-002    0.000000000000000E+000
 -2.600000000000000E-002    0.000000000000000E+000
 -2.590000000000000E-002    0.000000000000000E+000
 -2.580000000000000E-002    0.000000000000000E+000
 -2.570000000000000E-002    0.000000000000000E+000
 -2.560000000000000E-002    0.000000000000000E+000
 -2.550000000000000E-002    0.000000000000000E+000
 -2.540000000000000E-002    0.000000000000000E+000
 -2.530000000000000E-002    0.000000000000000E+000
 -2.520000000000000E-002    0.000000000000000E+000
 -2.510000000000000E-002    0.000000000000000E+000
 -2.500000000000000E-002    0.000000000000000E+000
 -2.490000000000000E-002    0.000000000000000E+000
 -2.480000000000000E-002    0.000000000000000E+000
 -2.470000000000000E-002    0.000000000000000E+000
 -2.460000000000000E-002    0.000000000000000E+000
 -2.450000000000000E-002    0.000000000000000E+000
 -2.440000000000000E-002    0.000000000000000E+000
 -2.430000000000000E-002    0.000000000000000E+000
 -2.420000000000000E-002    0.000000000000000E+000
 -2.410000000000000E-002    0.000000000000000E+000
 -2.400000000000000E-002    0.000000000000000E+000
 -2.390000000000000E-002    0.000000000000000E+000
 -2.380000000000000E-002    0.000000000000000E+000
 -2.370000000000000E-002    0.000000000000000E+000
 -2.360000000000000E-002    0.000000000000000E+000
 -2.350000000000000E-002    0.000000000000000E+000
 -2.340000000000000E-002    0.000000000000000E+000
 -2.330000000000000E-002    0.000000000000000E+000
 -2.320000000000000E-002    0.000000000000000E+000
 -2.310000000000000E-002    0.000000000000000E+000
 -2.300000000000000E-002    0.000000000000000E+000
 -2.290000000000000E-002    0.000000000000000E+000
 -2.280000000000000E-002    0.000000000000000E+000
 -2.270000000000000E-002    0.000000000000000E+000
 -2.260000000000000E-002    0.000000000000000E+000
 -2.250000000000000E-002    0.000000000000000E+000
 -2.240000000000000E-002    0.000000000000000E+000
 -2.230000000000000E-002    0.000000000000000E+000
 -2.220000000000000E-002    0.000000000000000E+000
 -2.210000000000000E-002    0.000000000000000E+000
 -2.200000000000000E-002    0.000000000000000E+000
 -2.190000000000000E-002    0.000000000000000E+000
 -2.180000000000000E-002    0.000000000000000E+000
 -2.170000000000000E-002    0.000000000000000E+000
 -2.160000000000000E-002    0.000000000000000E+000
 -2.150000000000000E-002    0.000000000000000E+000
 -2.140000000000000E-002    0.000000000000000E+000
 -2.130000000000000E-002    0.000000000000000E+000
 -2.120000000000000E-002    0.000000000000000E+000
 -2.110000000000000E-002    0.000000000000000E+000
 -2.100000000000000E-002    0.000000000000000E+000
 -2.090000000000000E-002    0.000000000000000E+000
 -2.080000000000000E-002    0.000000000000000E+000
 -2.070000000000000E-002    0.000000000000000E+000
 -2.060000000000000E-002    0.000000000000000E+000
 -2.050000000000000E-002    0.000000000000000E+000
 -2.040000000000000E-002   -3.264376616938309E-048
 -2.030000000000000E-002   -6.528753233876618E-048
 -2.020000000000000E-002   -9.793129850814926E-048
 -2.010000000000000E-002   -9.793129850814926E-048
 -2.000000000000000E-002   -9.793129850814926E-048
 -1.990000000000000E-002   -6.528753233876618E-048
 -1.980000000000000E-002   -3.264376616938309E-048
 -1.970000000000000E-002    0.000000000000000E+000
 -1.960000000000000E-002    1.598905682856969E-047
 -1.950000000000000E-002    2.206625241354968E-047
 -1.940000000000000E-002    3.805530924211937E-047
 -1.930000000000000E-002    6.057311930456567E-047
 -1.920000000000000E-002    4.286196725510488E-047
 -1.910000000000000E-002    3.682350527091530E-047
 -1.900000000000000E-002    9.198543482572766E-047
 -1.890000000000000E-002    1.898181931004574E-046
 -1.880000000000000E-002    4.191620831677012E-046
 -1.870000000000000E-002    6.950514364097290E-046
 -1.860000000000000E-002    8.198536045926276E-046
 -1.850000000000000E-002    9.991820100524841E-046
 -1.840000000000000E-002    1.002861321322405E-045
 -1.830000000000000E-002    5.727816618974596E-046
 -1.820000000000000E-002   -6.905037076184913E-046
 -1.810000000000000E-002   -3.113894153172055E-045
 -1.800000000000000E-002   -5.498841675959784E-045
 -1.790000000000000E-002   -8.991364736688344E-045
 -1.780000000000000E-002   -1.198785317141594E-044
 -1.770000000000000E-002   -1.546183306880015E-044
 -1.760000000000000E-002   -1.634056995093570E-044
 -1.750000000000000E-002   -1.383003383500351E-044
 -1.740000000000000E-002   -5.346162607358841E-045
 -1.730000000000000E-002    1.009909418889477E-044
 -1.720000000000000E-002    3.385238828242707E-044
 -1.710000000000000E-002    6.580228821995549E-044
 -1.700000000000000E-002    1.018516938842291E-043
 -1.690000000000000E-002    1.343063701330117E-043
 -1.680000000000000E-002    1.539144641956958E-043
 -1.670000000000000E-002    1.454586094499509E-043
 -1.660000000000000E-002    9.178437172881136E-044
 -1.650000000000000E-002   -2.266120760086460E-044
 -1.640000000000000E-002   -2.065889565609667E-043
 -1.630000000000000E-002   -4.580525422761216E-043
 -1.620000000000000E-002   -7.552244555355148E-043
 -1.610000000000000E-002   -1.049913432093462E-042
 -1.600000000000000E-002   -1.267119495679296E-042
 -1.590000000000000E-002   -1.301062588849226E-042
 -1.580000000000000E-002   -1.029996055645582E-042
 -1.570000000000000E-002   -3.363436294992095E-043
 -1.560000000000000E-002    8.670004540303823E-043
 -1.550000000000000E-002    2.591628121973790E-042
 -1.540000000000000E-002    4.727348838403961E-042
 -1.530000000000000E-002    7.003184681230632E-042
 -1.520000000000000E-002    8.957760908351725E-042
 -1.510000000000000E-002    9.942625281103056E-042
 -1.500000000000000E-002    9.174918483849717E-042
 -1.490000000000000E-002    5.846533704328804E-042
 -1.480000000000000E-002   -7.008115368977830E-043
 -1.470000000000000E-002   -1.073776386020748E-041
 -1.460000000000000E-002   -2.388396794593120E-041
 -1.450000000000000E-002   -3.884566794447460E-041
 -1.440000000000000E-002   -5.323746993742592E-041
 -1.430000000000000E-002   -6.355489768941279E-041
 -1.420000000000000E-002   -6.539111628455272E-041
 -1.410000000000000E-002   -5.396613454504044E-041
 -1.400000000000000E-002   -2.500173704130540E-041
 -1.390000000000000E-002    2.408376366056097E-041
 -1.380000000000000E-002    9.277809230433234E-041
 -1.370000000000000E-002    1.760818525486380E-040
 -1.360000000000000E-002    2.634387777345140E-040
 -1.350000000000000E-002    3.383706382010561E-040
 -1.340000000000000E-002    3.792237843407924E-040
 -1.330000000000000E-002    3.613863036616085E-040
 -1.320000000000000E-002    2.611424129887469E-040
 -1.310000000000000E-002    6.109107135565433E-041
 -1.300000000000000E-002   -2.433529659508642E-040
 -1.290000000000000E-002   -6.372933034123351E-040
 -1.280000000000000E-002   -1.080851483777631E-039
 -1.270000000000000E-002   -1.506524133391950E-039
 -1.260000000000000E-002   -1.821156905403520E-039
 -1.250000000000000E-002   -1.914087156387571E-039
 -1.240000000000000E-002   -1.672325348634939E-039
 -1.230000000000000E-002   -1.002516179831527E-039
 -1.220000000000000E-002    1.420967107581510E-040
 -1.210000000000000E-002    1.733258703906308E-039
 -1.200000000000000E-002    3.643128188222878E-039
 -1.190000000000000E-002    5.630095309206835E-039
 -1.180000000000000E-002    7.341983525441416E-039
 -1.170000000000000E-002    8.342702000180523E-039
 -1.160000000000000E-002    8.165924267176152E-039
 -1.150000000000000E-002    6.395145686576218E-039
 -1.140000000000000E-002    2.763806488544634E-039
 -1.130000000000000E-002   -2.737262254430138E-039
 -1.120000000000000E-002   -9.764006471417287E-039
 -1.110000000000000E-002   -1.755834519092156E-038
 -1.100000000000000E-002   -2.494707275100320E-038
 -1.090000000000000E-002   -3.042174508987097E-038
 -1.080000000000000E-002   -3.231188169833232E-038
 -1.070000000000000E-002   -2.904904394793589E-038
 -1.060000000000000E-002   -1.950025427195933E-038
 -1.050000000000000E-002   -3.327761027116055E-039
 -1.040000000000000E-002    1.868763260549769E-038
 -1.030000000000000E-002    4.443573471203051E-038
 -1.020000000000000E-002    7.045709980140292E-038
 -1.010000000000000E-002    9.217887828735839E-038
 -1.000000000000000E-002    1.044404679274237E-037
 -9.899999999999999E-003    1.022942653212211E-037
 -9.800000000000000E-003    8.200642150286262E-038
 -9.699999999999999E-003    4.211776240666559E-038
 -9.599999999999999E-003   -1.563141590852370E-038
 -9.500000000000000E-003   -8.573947033994306E-038
 -9.399999999999999E-003   -1.589680430834297E-037
 -9.299999999999999E-003   -2.231203465511414E-037
 -9.200000000000000E-003   -2.646341979559107E-037
 -9.099999999999999E-003   -2.708964844837804E-037
 -8.999999999999999E-003   -2.330033295579117E-037
 -8.900000000000000E-003   -1.485127944528911E-037
 -8.799999999999999E-003   -2.359718429907237E-038
 -8.699999999999999E-003    1.260470973129566E-037
 -8.600000000000000E-003    2.761006158680215E-037
 -8.499999999999999E-003    3.966790175193179E-037
 -8.399999999999999E-003    4.575236134361655E-037
 -8.300000000000000E-003    4.348154891361485E-037
 -8.199999999999999E-003    3.185721999311856E-037
 -8.100000000000000E-003    1.191251037069034E-037
 -8.000000000000000E-003   -1.291265861420742E-037
 -7.899999999999999E-003   -3.684587395386277E-037
 -7.800000000000000E-003   -5.244172772201230E-037
 -7.699999999999999E-003   -5.187593471620885E-037
 -7.599999999999999E-003   -2.879657304544664E-037
 -7.499999999999999E-003    1.949816845259046E-037
 -7.399999999999999E-003    8.993886053625327E-037
 -7.299999999999999E-003    1.721252446610251E-036
 -7.199999999999999E-003    2.478868404647510E-036
 -7.100000000000000E-003    2.924709770110345E-036
 -6.999999999999999E-003    2.776889061493123E-036
 -6.899999999999999E-003    1.770465553362168E-036
 -6.800000000000000E-003   -2.753181336403236E-037
 -6.699999999999999E-003   -3.382454166552041E-036
 -6.599999999999999E-003   -7.345347834628263E-036
 -6.499999999999999E-003   -1.168408716025996E-035
 -6.399999999999999E-003   -1.563716159168789E-035
 -6.299999999999999E-003   -1.820874530470659E-035
 -6.199999999999999E-003   -1.827983682970633E-035
 -6.100000000000000E-003   -1.478291333983017E-035
 -5.999999999999999E-003   -6.927369128583409E-036
 -5.899999999999999E-003    5.550721896271907E-036
 -5.800000000000000E-003    2.215379273344235E-035
 -5.699999999999999E-003    4.145115206994454E-035
 -5.599999999999999E-003    6.102139400212200E-035
 -5.499999999999999E-003    7.755366271066205E-035
 -5.399999999999999E-003    8.713651792866084E-035
 -5.299999999999999E-003    8.573779069139060E-035
 -5.199999999999999E-003    6.984619681637179E-035
 -5.099999999999999E-003    3.720961203619443E-035
 -4.999999999999999E-003   -1.242785802596679E-035
 -4.899999999999999E-003   -7.671207048728562E-035
 -4.799999999999999E-003   -1.503186893001990E-034
 -4.699999999999999E-003   -2.249651037632292E-034
 -4.599999999999999E-003   -2.898794738260898E-034
 -4.499999999999999E-003   -3.327561089884252E-034
 -4.399999999999999E-003   -3.411571682048995E-034
 -4.299999999999999E-003   -3.042446589669535E-034
 -4.199999999999999E-003   -2.146561892658064E-034
 -4.099999999999999E-003   -7.028808961246561E-035
 -3.999999999999999E-003    1.242742240607215E-034
 -3.899999999999999E-003    3.569202382858908E-034
 -3.799999999999999E-003    6.079639254659662E-034
 -3.699999999999999E-003    8.509829959019083E-034
 -3.599999999999999E-003    1.054550087256945E-033
 -3.499999999999999E-003    1.184750300916211E-033
 -3.399999999999999E-003    1.208296166660964E-033
 -3.299999999999999E-003    1.095992603895061E-033
 -3.199999999999999E-003    8.262998812191517E-034
 -3.099999999999999E-003    3.887684759540887E-034
 -2.999999999999999E-003   -2.128257904304855E-034
 -2.899999999999999E-003   -9.577633825799615E-034
 -2.799999999999999E-003   -1.806170628104346E-033
 -2.699999999999999E-003   -2.697465713045144E-033
 -2.599999999999999E-003   -3.549718356438639E-033
 -2.499999999999999E-003   -4.260385575989158E-033
 -2.399999999999999E-003   -4.709132315901414E-033
 -2.299999999999999E-003   -4.763643230632855E-033
 -2.199999999999999E-003   -4.289431636614964E-033
 -2.099999999999999E-003   -3.164491828268680E-033
 -1.999999999999999E-003   -1.299183297202678E-033
 -1.899999999999999E-003    1.339158927001825E-033
 -1.799999999999999E-003    4.698608270459613E-033
 -1.699999999999999E-003    8.615257149272366E-033
 -1.599999999999999E-003    1.279086618911447E-032
 -1.499999999999999E-003    1.678165375964999E-032
 -1.399999999999999E-003    2.000491371696142E-032
 -1.299999999999999E-003    2.176992690382954E-032
 -1.199999999999999E-003    2.133762509914931E-032
 -1.099999999999999E-003    1.801042178879050E-032
 -9.999999999999989E-004    1.124875283857418E-032
 -8.999999999999990E-004    8.051020957596450E-034
 -7.999999999999990E-004   -1.313988539932153E-032
 -6.999999999999989E-004   -2.986003075762710E-032
 -5.999999999999990E-004   -4.800970896032103E-032
 -4.999999999999989E-004   -6.561854101414127E-032
 -3.999999999999989E-004   -8.017664602866559E-032
 -2.999999999999989E-004   -8.882462838562525E-032
 -1.999999999999989E-004   -8.864983112700746E-032
 -9.999999999999892E-005   -7.707457878205432E-032
  1.084202172485504E-018   -5.230448093469884E-032
  1.000000000000011E-004   -1.378748725892811E-032
  2.000000000000011E-004    3.737919837678757E-032
  3.000000000000011E-004    9.816500335109793E-032
  4.000000000000011E-004    1.635122996621037E-031
  5.000000000000011E-004    2.264902828515777E-031
  6.000000000000011E-004    2.787290846225090E-031
  7.000000000000011E-004    3.111354521283044E-031
  8.000000000000011E-004    3.148531072321494E-031
  9.000000000000012E-004    2.823924457749495E-031
  1.000000000000001E-003    2.088180977835576E-031
  1.100000000000001E-003    9.285963883270138E-032
  1.200000000000001E-003   -6.219832359514323E-032
  1.300000000000001E-003   -2.479852857925460E-031
  1.400000000000001E-003   -4.509809255494795E-031
  1.500000000000001E-003   -6.529891253753677E-031
  1.600000000000001E-003   -8.321646402880649E-031
  1.700000000000001E-003   -9.645508673488542E-031
  1.800000000000001E-003   -1.026042839211012E-030
  1.900000000000001E-003   -9.946386172310686E-031
  2.000000000000001E-003   -8.528315439511631E-031
  2.100000000000001E-003   -5.899775164984094E-031
  2.200000000000001E-003   -2.044872826532736E-031
  2.300000000000001E-003    2.942989128174892E-031
  2.400000000000001E-003    8.846764428561345E-031
  2.500000000000001E-003    1.531720961083789E-030
  2.600000000000001E-003    2.187148319969854E-030
  2.700000000000001E-003    2.790088418208020E-030
  2.800000000000001E-003    3.268994161502683E-030
  2.900000000000001E-003    3.544977171856203E-030
  3.000000000000001E-003    3.536832703389723E-030
  3.100000000000001E-003    3.167994707903773E-030
  3.200000000000001E-003    2.375481703361196E-030
  3.300000000000001E-003    1.120658626045722E-030
  3.400000000000001E-003   -5.987628332676856E-031
  3.500000000000001E-003   -2.736502054543253E-030
  3.600000000000001E-003   -5.186824336743927E-030
  3.700000000000001E-003   -7.776970198919463E-030
  3.800000000000001E-003   -1.026525408849607E-029
  3.900000000000001E-003   -1.234717850328629E-029
  4.000000000000001E-003   -1.367165103059450E-029
  4.100000000000001E-003   -1.386858933942160E-029
  4.200000000000001E-003   -1.258801470529013E-029
  4.300000000000001E-003   -9.549040238435375E-030
  4.400000000000001E-003   -4.595207395363078E-030
  4.500000000000001E-003    2.249265575497319E-030
  4.600000000000002E-003    1.072971747527646E-029
  4.700000000000001E-003    2.032629858883048E-029
  4.800000000000001E-003    3.024301706740938E-029
  4.900000000000002E-003    3.942868505749960E-029
  5.000000000000001E-003    4.663554180788591E-029
  5.100000000000001E-003    5.051790022924815E-029
  5.200000000000001E-003    4.976823533732298E-029
  5.300000000000002E-003    4.328286474784015E-029
  5.400000000000001E-003    3.034348115292958E-029
  5.500000000000001E-003    1.079585473151173E-029
  5.600000000000002E-003   -1.479718578260045E-029
  5.700000000000001E-003   -4.505224905440961E-029
  5.800000000000001E-003   -7.773522700648498E-029
  5.900000000000002E-003   -1.098229026957848E-028
  6.000000000000001E-003   -1.376684827543101E-028
  6.100000000000001E-003   -1.572725906191532E-028
  6.200000000000002E-003   -1.646493714651967E-028
  6.300000000000002E-003   -1.562649622641698E-028
  6.400000000000001E-003   -1.295130085197280E-028
  6.500000000000001E-003   -8.318200126200265E-029
  6.600000000000002E-003   -1.786294083871623E-029
  6.700000000000001E-003    6.375635029010866E-029
  6.800000000000001E-003    1.567599329200125E-028
  6.900000000000002E-003    2.540760007459695E-028
  7.000000000000001E-003    3.467788934132422E-028
  7.100000000000001E-003    4.246270134057662E-028
  7.200000000000002E-003    4.768233442432191E-028
  7.300000000000002E-003    4.929598846616471E-028
  7.400000000000001E-003    4.640876344182576E-028
  7.500000000000001E-003    3.838330780167806E-028
  7.600000000000002E-003    2.494695162404143E-028
  7.700000000000001E-003    6.284143012305205E-029
  7.800000000000001E-003   -1.689599914217221E-028
  7.900000000000001E-003   -4.332678141461500E-028
  8.000000000000002E-003   -7.119387249472681E-028
  8.100000000000001E-003   -9.819437847473019E-028
  8.200000000000001E-003   -1.216485973720659E-027
  8.300000000000002E-003   -1.386645461382542E-027
  8.400000000000001E-003   -1.463513658621102E-027
  8.500000000000002E-003   -1.420735594035236E-027
  8.600000000000002E-003   -1.237331902999391E-027
  8.700000000000001E-003   -9.006258067749398E-028
  8.800000000000002E-003   -4.090544547243002E-028
  8.900000000000002E-003    2.253882876064556E-028
  9.000000000000001E-003    9.753745081956241E-028
  9.100000000000002E-003    1.797403089616893E-027
  9.200000000000002E-003    2.632212176544368E-027
  9.300000000000001E-003    3.406653913852207E-027
  9.400000000000002E-003    4.037226181233380E-027
  9.500000000000001E-003    4.435307329732826E-027
  9.600000000000001E-003    4.514020700856227E-027
  9.700000000000002E-003    4.196478071683567E-027
  9.800000000000001E-003    3.424960205734734E-027
  9.900000000000001E-003    2.170412448308866E-027
  1.000000000000000E-002    4.414399776295486E-028
  1.010000000000000E-002   -1.708144917287571E-027
  1.020000000000000E-002   -4.174249964739440E-027
  1.030000000000000E-002   -6.800930986758307E-027
  1.040000000000000E-002   -9.383268300535625E-027
  1.050000000000000E-002   -1.167536804869648E-026
  1.060000000000000E-002   -1.340392816948859E-026
  1.070000000000000E-002   -1.428727233301193E-026
  1.080000000000000E-002   -1.405931063310805E-026
  1.090000000000000E-002   -1.249727674281440E-026
  1.100000000000000E-002   -9.451471428592637E-027
  1.110000000000000E-002   -4.874790951879128E-027
  1.120000000000000E-002    1.150797984888840E-027
  1.130000000000000E-002    8.393767031670686E-027
  1.140000000000000E-002    1.646170577625771E-026
  1.150000000000000E-002    2.480216170688909E-026
  1.160000000000000E-002    3.271796534520586E-026
  1.170000000000000E-002    3.939890189123127E-026
  1.180000000000000E-002    4.397025870276747E-026
  1.190000000000000E-002    4.555756762486273E-026
  1.200000000000000E-002    4.336526547633947E-026
  1.210000000000000E-002    3.676518184608018E-026
  1.220000000000000E-002    2.538934384738068E-026
  1.230000000000000E-002    9.219766342221265E-027
  1.240000000000000E-002   -1.133349154271131E-026
  1.250000000000000E-002   -3.537533333659609E-026
  1.260000000000000E-002   -6.149919134358176E-026
  1.270000000000000E-002   -8.780096104985770E-026
  1.280000000000000E-002   -1.119402780734525E-025
  1.290000000000000E-002   -1.312549798268005E-025
  1.300000000000000E-002   -1.429302711300650E-025
  1.310000000000000E-002   -1.442198996025184E-025
  1.320000000000000E-002   -1.327110006023244E-025
  1.330000000000000E-002   -1.066189364467663E-025
  1.340000000000000E-002   -6.509155780038158E-026
  1.350000000000000E-002   -8.497187930877032E-027
  1.360000000000000E-002    6.133420908509789E-026
  1.370000000000000E-002    1.409504347950363E-025
  1.380000000000000E-002    2.252301861533103E-025
  1.390000000000000E-002    3.074818830419587E-025
  1.400000000000000E-002    3.797118943237350E-025
  1.410000000000000E-002    4.330764166002234E-025
  1.420000000000000E-002    4.585161413977841E-025
  1.430000000000000E-002    4.475556276415282E-025
  1.440000000000000E-002    3.932273252940977E-025
  1.450000000000000E-002    2.910604591376748E-025
  1.460000000000000E-002    1.400538559894801E-025
  1.470000000000000E-002   -5.646525149585057E-026
  1.480000000000000E-002   -2.902048134977493E-025
  1.490000000000000E-002   -5.476052636866102E-025
  1.500000000000000E-002   -8.099725169322579E-025
  1.510000000000000E-002   -1.054131408918125E-024
  1.520000000000000E-002   -1.253646096937042E-024
  1.530000000000000E-002   -1.380613539051378E-024
  1.540000000000000E-002   -1.407977962782901E-024
  1.550000000000000E-002   -1.312251951286244E-024
  1.560000000000000E-002   -1.076470683307019E-024
  1.570000000000000E-002   -6.931380835790401E-025
  1.580000000000000E-002   -1.668888761842652E-025
  1.590000000000000E-002    4.834538989259705E-025
  1.600000000000000E-002    1.223740161234099E-024
  1.610000000000000E-002    2.004560495482501E-024
  1.620000000000000E-002    2.762764127523937E-024
  1.630000000000000E-002    3.424556614785137E-024
  1.640000000000000E-002    3.910204327857245E-024
  1.650000000000000E-002    4.140211814921314E-024
  1.660000000000000E-002    4.042676367466359E-024
  1.670000000000000E-002    3.561370045404866E-024
  1.680000000000000E-002    2.663931677230168E-024
  1.690000000000000E-002    1.349433347577463E-024
  1.700000000000000E-002   -3.454806993519022E-025
  1.710000000000000E-002   -2.342721699616974E-024
  1.720000000000000E-002   -4.521917550643905E-024
  1.730000000000000E-002   -6.723247391797810E-024
  1.740000000000000E-002   -8.754363118820168E-024
  1.750000000000000E-002   -1.040153110933689E-023
  1.760000000000000E-002   -1.144475021559620E-023
  1.770000000000000E-002   -1.167623240567651E-023
  1.780000000000000E-002   -1.092120582419168E-023
  1.790000000000000E-002   -9.059563331977876E-024
  1.800000000000000E-002   -6.046663746852364E-024
  1.810000000000000E-002   -1.931205509534683E-024
  1.820000000000000E-002    3.131867104878215E-024
  1.830000000000000E-002    8.875518090219652E-024
  1.840000000000000E-002    1.492360018660406E-023
  1.850000000000000E-002    2.080394059097540E-023
  1.860000000000000E-002    2.597226350877896E-023
  1.870000000000000E-002    2.984673851505410E-023