 -4.000000000000000E-002    0.000000000000000E+000
 -3.990000000000000E-002    0.000000000000000E+000
 -3.980000000000000E-002    0.000000000000000E+000
 -3.970000000000000E-002    0.000000000000000E+000
 -3.960000000000000E-002    0.000000000000000E+000
 -3.950000000000000E-002    0.000000000000000E+000
 -3.940000000000000E-002    0.000000000000000E+000
 -3.930000000000000E-002    0.000000000000000E+000
 -3.920000000000000E-002    0.000000000000000E+000
 -3.910000000000000E-002    0.000000000000000E+000
 -3.900000000000000E-002    0.000000000000000E+000
 -3.890000000000000E-002    0.000000000000000E+000
 -3.880000000000000E-002    0.000000000000000E+000
 -3.870000000000000E-002    0.000000000000000E+000
 -3.860000000000000E-002    0.000000000000000E+000
 -3.850000000000000E-002    0.000000000000000E+000
 -3.840000000000000E-002    0.000000000000000E+000
 -3.830000000000000E-002    0.000000000000000E+000
 -3.820000000000000E-002    0.000000000000000E+000
 -3.810000000000000E-002    0.000000000000000E+000
 -3.800000000000000E-002    0.000000000000000E+000
 -3.790000000000000E-002    0.000000000000000E+000
 -3.780000000000000E-002    0.000000000000000E+000
 -3.770000000000000E-002    0.000000000000000E+000
 -3.760000000000000E-002    0.000000000000000E+000
 -3.750000000000000E-002    0.000000000000000E+000
 -3.740000000000000E-002    0.000000000000000E+000
 -3.730000000000000E-002    0.000000000000000E+000
 -3.720000000000000E-002    0.000000000000000E+000
 -3.710000000000000E-002    0.000000000000000E+000
 -3.700000000000000E-002    0.000000000000000E+000
 -3.690000000000000E-002    0.000000000000000E+000
 -3.680000000000000E-002    0.000000000000000E+000
 -3.670000000000000E-002    0.000000000000000E+000
 -3.660000000000000E-002    0.000000000000000E+000
 -3.650000000000000E-002    0.000000000000000E+000
 -3.640000000000000E-002    0.000000000000000E+000
 -3.630000000000000E-002    0.000000000000000E+000
 -3.620000000000000E-002    0.000000000000000E+000
 -3.610000000000000E-002    0.000000000000000E+000
 -3.600000000000000E-002    0.000000000000000E+000
 -3.590000000000000E-002    0.000000000000000E+000
 -3.580000000000000E-002    0.000000000000000E+000
 -3.570000000000000E-002    0.000000000000000E+000
 -3.560000000000000E-002    0.000000000000000E+000
 -3.550000000000000E-002    0.000000000000000E+000
 -3.540000000000000E-002    0.000000000000000E+000
 -3.530000000000000E-002    0.000000000000000E+000
 -3.520000000000000E-002    0.000000000000000E+000
 -3.510000000000000E-002    0.000000000000000E+000
 -3.500000000000000E-002    0.000000000000000E+000
 -3.490000000000000E-002    0.000000000000000E+000
 -3.480000000000000E-002    0.000000000000000E+000
 -3.470000000000000E-002    0.000000000000000E+000
 -3.460000000000000E-002    0.000000000000000E+000
 -3.450000000000000E-002    0.000000000000000E+000
 -3.440000000000000E-002    0.000000000000000E+000
 -3.430000000000000E-002    0.000000000000000E+000
 -3.420000000000000E-002    0.000000000000000E+000
 -3.410000000000000E-002    0.000000000000000E+000
 -3.400000000000000E-002    0.000000000000000E+000
 -3.390000000000000E-002    0.000000000000000E+000
 -3.380000000000000E-002    0.000000000000000E+000
 -3.370000000000000E-002    0.000000000000000E+000
 -3.360000000000000E-002    0.000000000000000E+000
 -3.350000000000000E-002    0.000000000000000E+000
 -3.340000000000000E-002    0.000000000000000E+000
 -3.330000000000000E-002    0.000000000000000E+000
 -3.320000000000000E-002    0.000000000000000E+000
 -3.310000000000000E-002    0.000000000000000E+000
 -3.300000000000000E-002    0.000000000000000E+000
 -3.290000000000000E-002    0.000000000000000E+000
 -3.280000000000000E-002    0.000000000000000E+000
 -3.270000000000000E-002    0.000000000000000E+000
 -3.260000000000000E-002    0.000000000000000E+000
 -3.250000000000000E-002    0.000000000000000E+000
 -3.240000000000000E-002    0.000000000000000E+000
 -3.230000000000000E-002    0.000000000000000E+000
 -3.220000000000000E-002    0.000000000000000E+000
 -3.210000000000000E-002    0.000000000000000E+000
 -3.200000000000000E-002    0.000000000000000E+000
 -3.190000000000000E-002    0.000000000000000E+000
 -3.180000000000000E-002    0.000000000000000E+000
 -3.170000000000000E-002    0.000000000000000E+000
 -3.160000000000000E-002    0.000000000000000E+000
 -3.150000000000000E-002    0.000000000000000E+000
 -3.140000000000000E-002    0.000000000000000E+000
 -3.130000000000000E-002    0.000000000000000E+000
 -3.120000000000000E-002    0.000000000000000E+000
 -3.110000000000000E-002    0.000000000000000E+000
 -3.100000000000000E-002    0.000000000000000E+000
 -3.090000000000000E-002    0.000000000000000E+000
 -3.080000000000000E-002    0.000000000000000E+000
 -3.070000000000000E-002    0.000000000000000E+000
 -3.060000000000000E-002    0.000000000000000E+000
 -3.050000000000000E-002    0.000000000000000E+000
 -3.040000000000000E-002    0.000000000000000E+000
 -3.030000000000000E-002    0.000000000000000E+000
 -3.020000000000000E-002    0.000000000000000E+000
 -3.010000000000000E-002    0.000000000000000E+000
 -3.000000000000000E-002    0.000000000000000E+000
 -2.990000000000000E-002    0.000000000000000E+000
 -2.980000000000000E-002    0.000000000000000E+000
 -2.970000000000000E-002    0.000000000000000E+000
 -2.960000000000000E-002    0.000000000000000E+000
 -2.950000000000000E-002    0.000000000000000E+000
 -2.940000000000000E-002    0.000000000000000E+000
 -2.930000000000000E-002    0.000000000000000E+000
 -2.920000000000000E-002    0.000000000000000E+000
 -2.910000000000000E-002    0.000000000000000E+000
 -2.900000000000000E-002    0.000000000000000E+000
 -2.890000000000000E-002    0.000000000000000E+000
 -2.880000000000000E-002    0.000000000000000E+000
 -2.870000000000000E-002    0.000000000000000E+000
 -2.860000000000000E-002    0.000000000000000E+000
 -2.850000000000000E-002    0.000000000000000E+000
 -2.840000000000000E-002    0.000000000000000E+000
 -2.830000000000000E-002    0.000000000000000E+000
 -2.820000000000000E-002    0.000000000000000E+000
 -2.810000000000000E-002    0.000000000000000E+000
 -2.800000000000000E-002    0.000000000000000E+000
 -2.790000000000000E-002    0.000000000000000E+000
 -2.780000000000000E-002    0.000000000000000E+000
 -2.770000000000000E-002    0.000000000000000E+000
 -2.760000000000000E-002    0.000000000000000E+000
 -2.750000000000000E-002    0.000000000000000E+000
 -2.740000000000000E-002    0.000000000000000E+000
 -2.730000000000000E-002    0.000000000000000E+000
 -2.720000000000000E-002    0.000000000000000E+000
 -2.710000000000000E-002    0.000000000000000E+000
 -2.700000000000000E-002    0.000000000000000E+000
 -2.690000000000000E-002    0.000000000000000E+000
 -2.680000000000000E-002    0.000000000000000E+000
 -2.670000000000000E-002    0.000000000000000E+000
 -2.660000000000000E-002    0.000000000000000E+000
 -2.650000000000000E-002    0.000000000000000E+000
 -2.640000000000000E-002    0.000000000000000E+000
 -2.630000000000000E-002    0.000000000000000E+000
 -2.620000000000000E-002    0.000000000000000E+000
 -2.610000000000000E-002    0.000000000000000E+000
 -2.600000000000000E-002    0.000000000000000E+000
 -2.590000000000000E-002    0.000000000000000E+000
 -2.580000000000000E-002    0.000000000000000E+000
 -2.570000000000000E-002    0.000000000000000E+000
 -2.560000000000000E-002    0.000000000000000E+000
 -2.550000000000000E-002    0.000000000000000E+000
 -2.540000000000000E-002    0.000000000000000E+000
 -2.530000000000000E-002    0.000000000000000E+000
 -2.520000000000000E-002    0.000000000000000E+000
 -2.510000000000000E-002    0.000000000000000E+000
 -2.500000000000000E-002    0.000000000000000E+000
 -2.490000000000000E-002    0.000000000000000E+000
 -2.480000000000000E-002    0.000000000000000E+000
 -2.470000000000000E-002    0.000000000000000E+000
 -2.460000000000000E-002    0.000000000000000E+000
 -2.450000000000000E-002    0.000000000000000E+000
 -2.440000000000000E-002    0.000000000000000E+000
 -2.430000000000000E-002    0.000000000000000E+000
 -2.420000000000000E-002    0.000000000000000E+000
 -2.410000000000000E-002    0.000000000000000E+000
 -2.400000000000000E-002    0.000000000000000E+000
 -2.390000000000000E-002    0.000000000000000E+000
 -2.380000000000000E-002    0.000000000000000E+000
 -2.370000000000000E-002    0.000000000000000E+000
 -2.360000000000000E-002    0.000000000000000E+000
 -2.350000000000000E-002    0.000000000000000E+000
 -2.340000000000000E-002    0.000000000000000E+000
 -2.330000000000000E-002    0.000000000000000E+000
 -2.320000000000000E-002    0.000000000000000E+000
 -2.310000000000000E-002    0.000000000000000E+000
 -2.300000000000000E-002    0.000000000000000E+000
 -2.290000000000000E-002    0.000000000000000E+000
 -2.280000000000000E-002    0.000000000000000E+000
 -2.270000000000000E-002    0.000000000000000E+000
 -2.260000000000000E-002    0.000000000000000E+000
 -2.250000000000000E-002    0.000000000000000E+000
 -2.240000000000000E-002    0.000000000000000E+000
 -2.230000000000000E-002    0.000000000000000E+000
 -2.220000000000000E-002    0.000000000000000E+000
 -2.210000000000000E-002    0.000000000000000E+000
 -2.200000000000000E-002    0.000000000000000E+000
 -2.190000000000000E-002    0.000000000000000E+000
 -2.180000000000000E-002    0.000000000000000E+000
 -2.170000000000000E-002    0.000000000000000E+000
 -2.160000000000000E-002    0.000000000000000E+000
 -2.150000000000000E-002    0.000000000000000E+000
 -2.140000000000000E-002    0.000000000000000E+000
 -2.130000000000000E-002    0.000000000000000E+000
 -2.120000000000000E-002    0.000000000000000E+000
 -2.110000000000000E-002    0.000000000000000E+000
 -2.100000000000000E-002    0.000000000000000E+000
 -2.090000000000000E-002    0.000000000000000E+000
 -2.080000000000000E-002    0.000000000000000E+000
 -2.070000000000000E-002    0.000000000000000E+000
 -2.060000000000000E-002    0.000000000000000E+000
 -2.050000000000000E-002    0.000000000000000E+000
 -2.040000000000000E-002    0.000000000000000E+000
 -2.030000000000000E-002    0.000000000000000E+000
 -2.020000000000000E-002    0.000000000000000E+000
 -2.010000000000000E-002    0.000000000000000E+000
 -2.000000000000000E-002    0.000000000000000E+000
 -1.990000000000000E-002    0.000000000000000E+000
 -1.980000000000000E-002    0.000000000000000E+000
 -1.970000000000000E-002    0.000000000000000E+000
 -1.960000000000000E-002    0.000000000000000E+000
 -1.950000000000000E-002    0.000000000000000E+000
 -1.940000000000000E-002    0.000000000000000E+000
 -1.930000000000000E-002    0.000000000000000E+000
 -1.920000000000000E-002    0.000000000000000E+000
 -1.910000000000000E-002    0.000000000000000E+000
 -1.900000000000000E-002    0.000000000000000E+000
 -1.890000000000000E-002    0.000000000000000E+000
 -1.880000000000000E-002    0.000000000000000E+000
 -1.870000000000000E-002    0.000000000000000E+000
 -1.860000000000000E-002    0.000000000000000E+000
 -1.850000000000000E-002    0.000000000000000E+000
 -1.840000000000000E-002    0.000000000000000E+000
 -1.830000000000000E-002    0.000000000000000E+000
 -1.820000000000000E-002    0.000000000000000E+000
 -1.810000000000000E-002    0.000000000000000E+000
 -1.800000000000000E-002    0.000000000000000E+000
 -1.790000000000000E-002    0.000000000000000E+000
 -1.780000000000000E-002    0.000000000000000E+000
 -1.770000000000000E-002    0.000000000000000E+000
 -1.760000000000000E-002    0.000000000000000E+000
 -1.750000000000000E-002    0.000000000000000E+000
 -1.740000000000000E-002    0.000000000000000E+000
 -1.730000000000000E-002    0.000000000000000E+000
 -1.720000000000000E-002    0.000000000000000E+000
 -1.710000000000000E-002    0.000000000000000E+000
 -1.700000000000000E-002    0.000000000000000E+000
 -1.690000000000000E-002    0.000000000000000E+000
 -1.680000000000000E-002    0.000000000000000E+000
 -1.670000000000000E-002    0.000000000000000E+000
 -1.660000000000000E-002    0.000000000000000E+000
 -1.650000000000000E-002    0.000000000000000E+000
 -1.640000000000000E-002    0.000000000000000E+000
 -1.630000000000000E-002    0.000000000000000E+000
 -1.620000000000000E-002    0.000000000000000E+000
 -1.610000000000000E-002    0.000000000000000E+000
 -1.600000000000000E-002    0.000000000000000E+000
 -1.590000000000000E-002    0.000000000000000E+000
 -1.580000000000000E-002    0.000000000000000E+000
 -1.570000000000000E-002    0.000000000000000E+000
 -1.560000000000000E-002    0.000000000000000E+000
 -1.550000000000000E-002    0.000000000000000E+000
 -1.540000000000000E-002    0.000000000000000E+000
 -1.530000000000000E-002    0.000000000000000E+000
 -1.520000000000000E-002    0.000000000000000E+000
 -1.510000000000000E-002    0.000000000000000E+000
 -1.500000000000000E-002    0.000000000000000E+000
 -1.490000000000000E-002    0.000000000000000E+000
 -1.480000000000000E-002    0.000000000000000E+000
 -1.470000000000000E-002    0.000000000000000E+000
 -1.460000000000000E-002    0.000000000000000E+000
 -1.450000000000000E-002    0.000000000000000E+000
 -1.440000000000000E-002    0.000000000000000E+000
 -1.430000000000000E-002    0.000000000000000E+000
 -1.420000000000000E-002    0.000000000000000E+000
 -1.410000000000000E-002    0.000000000000000E+000
 -1.400000000000000E-002    0.000000000000000E+000
 -1.390000000000000E-002    0.000000000000000E+000
 -1.380000000000000E-002    0.000000000000000E+000
 -1.370000000000000E-002    0.000000000000000E+000
 -1.360000000000000E-002    0.000000000000000E+000
 -1.350000000000000E-002    0.000000000000000E+000
 -1.340000000000000E-002    0.000000000000000E+000
 -1.330000000000000E-002    0.000000000000000E+000
 -1.320000000000000E-002    0.000000000000000E+000
 -1.310000000000000E-002    0.000000000000000E+000
 -1.300000000000000E-002    0.000000000000000E+000
 -1.290000000000000E-002    0.000000000000000E+000
 -1.280000000000000E-002    0.000000000000000E+000
 -1.270000000000000E-002    0.000000000000000E+000
 -1.260000000000000E-002    0.000000000000000E+000
 -1.250000000000000E-002    0.000000000000000E+000
 -1.240000000000000E-002    0.000000000000000E+000
 -1.230000000000000E-002    0.000000000000000E+000
 -1.220000000000000E-002    0.000000000000000E+000
 -1.210000000000000E-002    0.000000000000000E+000
 -1.200000000000000E-002    0.000000000000000E+000
 -1.190000000000000E-002    0.000000000000000E+000
 -1.180000000000000E-002    0.000000000000000E+000
 -1.170000000000000E-002    0.000000000000000E+000
 -1.160000000000000E-002    0.000000000000000E+000
 -1.150000000000000E-002    0.000000000000000E+000
 -1.140000000000000E-002    0.000000000000000E+000
 -1.130000000000000E-002    0.000000000000000E+000
 -1.120000000000000E-002    0.000000000000000E+000
 -1.110000000000000E-002    0.000000000000000E+000
 -1.100000000000000E-002    0.000000000000000E+000
 -1.090000000000000E-002    0.000000000000000E+000
 -1.080000000000000E-002    0.000000000000000E+000
 -1.070000000000000E-002    0.000000000000000E+000
 -1.060000000000000E-002    0.000000000000000E+000
 -1.050000000000000E-002    0.000000000000000E+000
 -1.040000000000000E-002    0.000000000000000E+000
 -1.030000000000000E-002    0.000000000000000E+000
 -1.020000000000000E-002    0.000000000000000E+000
 -1.010000000000000E-002    0.000000000000000E+000
 -1.000000000000000E-002    0.000000000000000E+000
 -9.899999999999999E-003    0.000000000000000E+000
 -9.800000000000000E-003    0.000000000000000E+000
 -9.699999999999999E-003    0.000000000000000E+000
 -9.599999999999999E-003    0.000000000000000E+000
 -9.500000000000000E-003    0.000000000000000E+000
 -9.399999999999999E-003    0.000000000000000E+000
 -9.299999999999999E-003    0.000000000000000E+000
 -9.200000000000000E-003    0.000000000000000E+000
 -9.099999999999999E-003    0.000000000000000E+000
 -8.999999999999999E-003    0.000000000000000E+000
 -8.900000000000000E-003    0.000000000000000E+000
 -8.799999999999999E-003    0.000000000000000E+000
 -8.699999999999999E-003    0.000000000000000E+000
 -8.600000000000000E-003    0.000000000000000E+000
 -8.499999999999999E-003    0.000000000000000E+000
 -8.399999999999999E-003    0.000000000000000E+000
 -8.300000000000000E-003    0.000000000000000E+000
 -8.199999999999999E-003    0.000000000000000E+000
 -8.100000000000000E-003    0.000000000000000E+000
 -8.000000000000000E-003    0.000000000000000E+000
 -7.899999999999999E-003    0.000000000000000E+000
 -7.800000000000000E-003    0.000000000000000E+000
 -7.699999999999999E-003    0.000000000000000E+000
 -7.599999999999999E-003    0.000000000000000E+000
 -7.499999999999999E-003    0.000000000000000E+000
 -7.399999999999999E-003    0.000000000000000E+000
 -7.299999999999999E-003    0.000000000000000E+000
 -7.199999999999999E-003    0.000000000000000E+000
 -7.100000000000000E-003    0.000000000000000E+000
 -6.999999999999999E-003    0.000000000000000E+000
 -6.899999999999999E-003    0.000000000000000E+000
 -6.800000000000000E-003    0.000000000000000E+000
 -6.699999999999999E-003    0.000000000000000E+000
 -6.599999999999999E-003    0.000000000000000E+000
 -6.499999999999999E-003    0.000000000000000E+000
 -6.399999999999999E-003    0.000000000000000E+000
 -6.299999999999999E-003    0.000000000000000E+000
 -6.199999999999999E-003    0.000000000000000E+000
 -6.100000000000000E-003    0.000000000000000E+000
 -5.999999999999999E-003    0.000000000000000E+000
 -5.899999999999999E-003    0.000000000000000E+000
 -5.800000000000000E-003    0.000000000000000E+000
 -5.699999999999999E-003    0.000000000000000E+000
 -5.599999999999999E-003    0.000000000000000E+000
 -5.499999999999999E-003    0.000000000000000E+000
 -5.399999999999999E-003    0.000000000000000E+000
 -5.299999999999999E-003    0.000000000000000E+000
 -5.199999999999999E-003    0.000000000000000E+000
 -5.099999999999999E-003    0.000000000000000E+000
 -4.999999999999999E-003    0.000000000000000E+000
 -4.899999999999999E-003    0.000000000000000E+000
 -4.799999999999999E-003    0.000000000000000E+000
 -4.699999999999999E-003    0.000000000000000E+000
 -4.599999999999999E-003    0.000000000000000E+000
 -4.499999999999999E-003    0.000000000000000E+000
 -4.399999999999999E-003    0.000000000000000E+000
 -4.299999999999999E-003    0.000000000000000E+000
 -4.199999999999999E-003    0.000000000000000E+000
 -4.099999999999999E-003    0.000000000000000E+000
 -3.999999999999999E-003    0.000000000000000E+000
 -3.899999999999999E-003    0.000000000000000E+000
 -3.799999999999999E-003    0.000000000000000E+000
 -3.699999999999999E-003    0.000000000000000E+000
 -3.599999999999999E-003    0.000000000000000E+000
 -3.499999999999999E-003    0.000000000000000E+000
 -3.399999999999999E-003    0.000000000000000E+000
 -3.299999999999999E-003    0.000000000000000E+000
 -3.199999999999999E-003    0.000000000000000E+000
 -3.099999999999999E-003    0.000000000000000E+000
 -2.999999999999999E-003    0.000000000000000E+000
 -2.899999999999999E-003    0.000000000000000E+000
 -2.799999999999999E-003    0.000000000000000E+000
 -2.699999999999999E-003    0.000000000000000E+000
 -2.599999999999999E-003    0.000000000000000E+000
 -2.499999999999999E-003   -3.659052880032863E-049
 -2.399999999999999E-003   -7.318105760065726E-049
 -2.299999999999999E-003   -1.097715864009859E-048
 -2.199999999999999E-003   -1.463621152013145E-048
 -2.099999999999999E-003   -1.463621152013145E-048
 -1.999999999999999E-003    6.218941249378575E-049
 -1.899999999999999E-003   -1.406222446924756E-048
 -1.799999999999999E-003   -2.702528442780797E-048
 -1.699999999999999E-003    9.698330868248065E-049
 -1.599999999999999E-003    4.970397586773695E-048
 -1.499999999999999E-003    3.924558076200600E-048
 -1.399999999999999E-003    1.658433304000592E-049
 -1.299999999999999E-003    2.984180260232548E-049
 -1.199999999999999E-003    5.640883570394297E-047
 -1.099999999999999E-003    1.141063755194397E-046
 -9.999999999999989E-004    1.660102808568656E-046
 -8.999999999999990E-004    2.097107879999619E-046
 -7.999999999999990E-004    2.113567644569810E-046
 -6.999999999999989E-004    1.291677566454476E-046
 -5.999999999999990E-004   -1.837869804953141E-046
 -4.999999999999989E-004   -5.839417500578128E-046
 -3.999999999999989E-004   -1.047685608567601E-045
 -2.999999999999989E-004   -1.374154658215920E-045
 -1.999999999999989E-004   -1.648595306752436E-045
 -9.999999999999892E-005   -1.668260183962154E-045
  1.084202172485504E-018   -1.014704717403356E-045
  1.000000000000011E-004   -1.289397535162286E-045
  2.000000000000011E-004   -1.099557765180657E-045
  3.000000000000011E-004   -4.063785975360166E-046
  4.000000000000011E-004    5.428057810734768E-046
  5.000000000000011E-004    1.587684006312574E-045
  6.000000000000011E-004    2.167009581544165E-045
  7.000000000000011E-004    2.940726568231607E-045
  8.000000000000011E-004    2.964074503618186E-045
  9.000000000000012E-004    2.417028639433389E-045
  1.000000000000001E-003    1.807015139102830E-045
  1.100000000000001E-003    1.110335958175453E-046
  1.200000000000001E-003   -2.758584401153828E-045
  1.300000000000001E-003   -6.028304439060590E-045
  1.400000000000001E-003   -9.114911625063168E-045
  1.500000000000001E-003   -1.257231229249598E-044
  1.600000000000001E-003   -1.361958841430797E-044
  1.700000000000001E-003   -1.198809511474355E-044
  1.800000000000001E-003   -6.686251179725009E-045
  1.900000000000001E-003    1.664764516784491E-045
  2.000000000000001E-003    1.395671401413261E-044
  2.100000000000001E-003    2.977920588138001E-044
  2.200000000000001E-003    4.668239295117680E-044
  2.300000000000001E-003    6.066326455689600E-044
  2.400000000000001E-003    6.912588101147265E-044
  2.500000000000001E-003    6.603834778735070E-044
  2.600000000000001E-003    4.881512918987673E-044
  2.700000000000001E-003    1.282582355350468E-044
  2.800000000000001E-003   -4.137278081448658E-044
  2.900000000000001E-003   -1.118998732434266E-043
  3.000000000000001E-003   -1.921020412150539E-043
  3.100000000000001E-003   -2.718073584968173E-043
  3.200000000000001E-003   -3.348137802735623E-043
  3.300000000000001E-003   -3.616604274264851E-043
  3.400000000000001E-003   -3.356337370391803E-043
  3.500000000000001E-003   -2.366105256586247E-043
  3.600000000000001E-003   -5.597404729584672E-044
  3.700000000000001E-003    2.076996820920102E-043
  3.800000000000001E-003    5.406023343238856E-043
  3.900000000000001E-003    9.118505415081027E-043
  4.000000000000001E-003    1.273167338561708E-042
  4.100000000000001E-003    1.558453356408256E-042
  4.200000000000001E-003    1.693538038786295E-042
  4.300000000000001E-003    1.600992125250872E-042
  4.400000000000001E-003    1.214169943074452E-042
  4.500000000000001E-003    4.894868179335607E-043
  4.600000000000002E-003   -5.749255479974570E-043
  4.700000000000001E-003   -1.931455697460052E-042
  4.800000000000001E-003   -3.468277255822101E-042
  4.900000000000002E-003   -5.011862461054965E-042
  5.000000000000001E-003   -6.328785012160472E-042
  5.100000000000001E-003   -7.144289680223235E-042
  5.200000000000001E-003   -7.173297453439375E-042
  5.300000000000002E-003   -6.152565303985761E-042
  5.400000000000001E-003   -3.890337949448074E-042
  5.500000000000001E-003   -3.122620354986919E-043
  5.600000000000002E-003    4.493241835083785E-042
  5.700000000000001E-003    1.023806148746130E-041
  5.800000000000001E-003    1.641967713044406E-041
  5.900000000000002E-003    2.232669622056189E-041
  6.000000000000001E-003    2.707098139803946E-041
  6.100000000000001E-003    2.965412311030250E-041
  6.200000000000002E-003    2.906697842204394E-041
  6.300000000000002E-003    2.441127032099909E-041
  6.400000000000001E-003    1.504132867415731E-041
  6.500000000000001E-003    7.177769100277428E-043
  6.600000000000002E-003   -1.825096637860053E-041
  6.700000000000001E-003   -4.088913683786778E-041
  6.800000000000001E-003   -6.548110181930955E-041
  6.900000000000002E-003   -8.955555888395105E-041
  7.000000000000001E-003   -1.099535851488540E-040
  7.100000000000001E-003   -1.229931890261437E-040
  7.200000000000002E-003   -1.247377845783289E-040
  7.300000000000002E-003   -1.113727706153367E-040
  7.400000000000001E-003   -7.968995664035744E-041
  7.500000000000001E-003   -2.765467899728259E-041
  7.600000000000002E-003    4.497064740603165E-041
  7.700000000000001E-003    1.360118991583320E-040
  7.800000000000001E-003    2.403291081722834E-040
  7.900000000000001E-003    3.494325580211073E-040
  8.000000000000002E-003    4.513670163191046E-040
  8.100000000000001E-003    5.309745783274328E-040
  8.200000000000001E-003    5.706638767856690E-040
  8.300000000000002E-003    5.517577235703545E-040
  8.400000000000001E-003    4.564746961522223E-040
  8.500000000000002E-003    2.705216971932972E-040
  8.600000000000002E-003   -1.382051616527880E-041
  8.700000000000001E-003   -3.943464455294864E-040
  8.800000000000002E-003   -8.556678055178525E-040
  8.900000000000002E-003   -1.366515959884545E-039
  9.000000000000001E-003   -1.878195828113346E-039
  9.100000000000002E-003   -2.324808978701255E-039
  9.200000000000002E-003   -2.625856689138444E-039
  9.300000000000001E-003   -2.691739261703815E-039
  9.400000000000002E-003   -2.432414285323178E-039
  9.500000000000001E-003   -1.769164378900618E-039
  9.600000000000001E-003   -6.489748856863107E-040
  9.700000000000002E-003    9.395342493652460E-040
  9.800000000000001E-003    2.950214191326269E-039
  9.900000000000001E-003    5.265679063694418E-039
  1.000000000000000E-002    7.688380436497180E-039
  1.010000000000000E-002    9.939266284163326E-039
  1.020000000000000E-002    1.166677805488743E-038
  1.030000000000000E-002    1.246847586142362E-038
  1.040000000000000E-002    1.192667332630259E-038
  1.050000000000000E-002    9.658094857958696E-039
  1.060000000000000E-002    5.375694683853174E-039
  1.070000000000000E-002   -1.041394427619119E-039
  1.080000000000000E-002   -9.476260914162359E-039
  1.090000000000000E-002   -1.950978866518633E-038
  1.100000000000000E-002   -3.037425681676349E-038
  1.110000000000000E-002   -4.093707540615801E-038
  1.120000000000000E-002   -4.972689461304636E-038
  1.130000000000000E-002   -5.501286177035183E-038
  1.140000000000000E-002   -5.494444932987681E-038
  1.150000000000000E-002   -4.775380322777168E-038
  1.160000000000000E-002   -3.201492018856115E-038
  1.170000000000000E-002   -6.944525037386311E-039
  1.180000000000000E-002    2.728122926357834E-038
  1.190000000000000E-002    6.923104025855576E-038
  1.200000000000000E-002    1.159901404627511E-037
  1.210000000000000E-002    1.630526187270569E-037
  1.220000000000000E-002    2.043894281805188E-037
  1.230000000000000E-002    2.327418523013008E-037
  1.240000000000000E-002    2.401765526218965E-037
  1.250000000000000E-002    2.189146720886901E-037
  1.260000000000000E-002    1.624141393688725E-037
  1.270000000000000E-002    6.664301379255157E-038
  1.280000000000000E-002   -6.856633023088136E-038
  1.290000000000000E-002   -2.382388597297719E-037
  1.300000000000000E-002   -4.312538747883468E-037
  1.310000000000000E-002   -6.298435931212301E-037
  1.320000000000000E-002   -8.098247152275899E-037
  1.330000000000000E-002   -9.417688678198911E-037
  1.340000000000000E-002   -9.932534808695369E-037
  1.350000000000000E-002   -9.322330354305885E-037
  1.360000000000000E-002   -7.314258668243338E-037
  1.370000000000000E-002   -3.734406624735701E-037
  1.380000000000000E-002    1.438225279643767E-037
  1.390000000000000E-002    8.021470199374265E-037
  1.400000000000000E-002    1.559146146881662E-036
  1.410000000000000E-002    2.346468066157008E-036
  1.420000000000000E-002    3.070928157469082E-036
  1.430000000000000E-002    3.619307048148996E-036
  1.440000000000000E-002    3.867272496405118E-036
  1.450000000000000E-002    3.692458393303448E-036
  1.460000000000000E-002    2.991180782632739E-036
  1.470000000000000E-002    1.697631664044853E-036
  1.480000000000000E-002   -1.963019162253088E-037
  1.490000000000000E-002   -2.623040538249825E-036
  1.500000000000000E-002   -5.426071358766718E-036
  1.510000000000000E-002   -8.354590544768091E-036
  1.520000000000000E-002   -1.106899417694147E-035
  1.530000000000000E-002   -1.315958711823141E-035
  1.540000000000000E-002   -1.417978837209669E-035
  1.550000000000000E-002   -1.369353866879110E-035
  1.560000000000000E-002   -1.133469549514304E-035
  1.570000000000000E-002   -6.873958204893721E-036
  1.580000000000000E-002   -2.866876473292835E-037
  1.590000000000000E-002    8.186933402362803E-036
  1.600000000000000E-002    1.799936461681733E-035
  1.610000000000000E-002    2.828108194734067E-035
  1.620000000000000E-002    3.786336301697245E-035
  1.630000000000000E-002    4.534567084186236E-035
  1.640000000000000E-002    4.921098822052855E-035
  1.650000000000000E-002    4.798719547153834E-035
  1.660000000000000E-002    4.044608826754864E-035
  1.670000000000000E-002    2.582456580357155E-035
  1.680000000000000E-002    4.045772330632000E-036
  1.690000000000000E-002   -2.408825933548277E-035
  1.700000000000000E-002   -5.676436987019858E-035
  1.710000000000000E-002   -9.111917723296087E-035
  1.720000000000000E-002   -1.233225464058011E-034
  1.730000000000000E-002   -1.488050492061107E-034
  1.740000000000000E-002   -1.626380720248584E-034
  1.750000000000000E-002   -1.600581562777832E-034
  1.760000000000000E-002   -1.371064806784567E-034
  1.770000000000000E-002   -9.133243995865259E-035
  1.780000000000000E-002   -2.248886357452577E-035
  1.790000000000000E-002    6.687075508435324E-035
  1.800000000000000E-002    1.709937497223266E-034
  1.810000000000000E-002    2.808291373305664E-034
  1.820000000000000E-002    3.843163739162467E-034
  1.830000000000000E-002    4.671239041893333E-034
  1.840000000000000E-002    5.138579234513991E-034
  1.850000000000000E-002    5.097078197681849E-034
  1.860000000000000E-002    4.424305026555406E-034
  1.870000000000000E-002    3.045093725096499E-034