 -4.000000000000000E-002    0.000000000000000E+000
 -3.990000000000000E-002    0.000000000000000E+000
 -3.980000000000000E-002    0.000000000000000E+000
 -3.970000000000000E-002    0.000000000000000E+000
 -3.960000000000000E-002    0.000000000000000E+000
 -3.950000000000000E-002    0.000000000000000E+000
 -3.940000000000000E-002    0.000000000000000E+000
 -3.930000000000000E-002    0.000000000000000E+000
 -3.920000000000000E-002    0.000000000000000E+000
 -3.910000000000000E-002    0.000000000000000E+000
 -3.900000000000000E-002    0.000000000000000E+000
 -3.890000000000000E-002    0.000000000000000E+000
 -3.880000000000000E-002    0.000000000000000E+000
 -3.870000000000000E-002    0.000000000000000E+000
 -3.860000000000000E-002    0.000000000000000E+000
 -3.850000000000000E-002    0.000000000000000E+000
 -3.840000000000000E-002    0.000000000000000E+000
 -3.830000000000000E-002    0.000000000000000E+000
 -3.820000000000000E-002    0.000000000000000E+000
 -3.810000000000000E-002    0.000000000000000E+000
 -3.800000000000000E-002    0.000000000000000E+000
 -3.790000000000000E-002    0.000000000000000E+000
 -3.780000000000000E-002    0.000000000000000E+000
 -3.770000000000000E-002    0.000000000000000E+000
 -3.760000000000000E-002    0.000000000000000E+000
 -3.750000000000000E-002    0.000000000000000E+000
 -3.740000000000000E-002    0.000000000000000E+000
 -3.730000000000000E-002    0.000000000000000E+000
 -3.720000000000000E-002    0.000000000000000E+000
 -3.710000000000000E-002    0.000000000000000E+000
 -3.700000000000000E-002    0.000000000000000E+000
 -3.690000000000000E-002    0.000000000000000E+000
 -3.680000000000000E-002    0.000000000000000E+000
 -3.670000000000000E-002    0.000000000000000E+000
 -3.660000000000000E-002    0.000000000000000E+000
 -3.650000000000000E-002    0.000000000000000E+000
 -3.640000000000000E-002    0.000000000000000E+000
 -3.630000000000000E-002    0.000000000000000E+000
 -3.620000000000000E-002    0.000000000000000E+000
 -3.610000000000000E-002    0.000000000000000E+000
 -3.600000000000000E-002    0.000000000000000E+000
 -3.590000000000000E-002    0.000000000000000E+000
 -3.580000000000000E-002    0.000000000000000E+000
 -3.570000000000000E-002    0.000000000000000E+000
 -3.560000000000000E-002    0.000000000000000E+000
 -3.550000000000000E-002    0.000000000000000E+000
 -3.540000000000000E-002    0.000000000000000E+000
 -3.530000000000000E-002    0.000000000000000E+000
 -3.520000000000000E-002    0.000000000000000E+000
 -3.510000000000000E-002    0.000000000000000E+000
 -3.500000000000000E-002    0.000000000000000E+000
 -3.490000000000000E-002    0.000000000000000E+000
 -3.480000000000000E-002    0.000000000000000E+000
 -3.470000000000000E-002    0.000000000000000E+000
 -3.460000000000000E-002    0.000000000000000E+000
 -3.450000000000000E-002    0.000000000000000E+000
 -3.440000000000000E-002    0.000000000000000E+000
 -3.430000000000000E-002    0.000000000000000E+000
 -3.420000000000000E-002    0.000000000000000E+000
 -3.410000000000000E-002    0.000000000000000E+000
 -3.400000000000000E-002    0.000000000000000E+000
 -3.390000000000000E-002    0.000000000000000E+000
 -3.380000000000000E-002    0.000000000000000E+000
 -3.370000000000000E-002    0.000000000000000E+000
 -3.360000000000000E-002    0.000000000000000E+000
 -3.350000000000000E-002    0.000000000000000E+000
 -3.340000000000000E-002    0.000000000000000E+000
 -3.330000000000000E-002    0.000000000000000E+000
 -3.320000000000000E-002    0.000000000000000E+000
 -3.310000000000000E-002    0.000000000000000E+000
 -3.300000000000000E-002    0.000000000000000E+000
 -3.290000000000000E-002    0.000000000000000E+000
 -3.280000000000000E-002    0.000000000000000E+000
 -3.270000000000000E-002    0.000000000000000E+000
 -3.260000000000000E-002    0.000000000000000E+000
 -3.250000000000000E-002    0.000000000000000E+000
 -3.240000000000000E-002    0.000000000000000E+000
 -3.230000000000000E-002    0.000000000000000E+000
 -3.220000000000000E-002    0.000000000000000E+000
 -3.210000000000000E-002    0.000000000000000E+000
 -3.200000000000000E-002    0.000000000000000E+000
 -3.190000000000000E-002    0.000000000000000E+000
 -3.180000000000000E-002    0.000000000000000E+000
 -3.170000000000000E-002    0.000000000000000E+000
 -3.160000000000000E-002    0.000000000000000E+000
 -3.150000000000000E-002    0.000000000000000E+000
 -3.140000000000000E-002    0.000000000000000E+000
 -3.130000000000000E-002    0.000000000000000E+000
 -3.120000000000000E-002    0.000000000000000E+000
 -3.110000000000000E-002    0.000000000000000E+000
 -3.100000000000000E-002    0.000000000000000E+000
 -3.090000000000000E-002    0.000000000000000E+000
 -3.080000000000000E-002    0.000000000000000E+000
 -3.070000000000000E-002    0.000000000000000E+000
 -3.060000000000000E-002    0.000000000000000E+000
 -3.050000000000000E-002    0.000000000000000E+000
 -3.040000000000000E-002    0.000000000000000E+000
 -3.030000000000000E-002    0.000000000000000E+000
 -3.020000000000000E-002    0.000000000000000E+000
 -3.010000000000000E-002    0.000000000000000E+000
 -3.000000000000000E-002    0.000000000000000E+000
 -2.990000000000000E-002    0.000000000000000E+000
 -2.980000000000000E-002    0.000000000000000E+000
 -2.970000000000000E-002    0.000000000000000E+000
 -2.960000000000000E-002    0.000000000000000E+000
 -2.950000000000000E-002    0.000000000000000E+000
 -2.940000000000000E-002    0.000000000000000E+000
 -2.930000000000000E-002    0.000000000000000E+000
 -2.920000000000000E-002    0.000000000000000E+000
 -2.910000000000000E-002    0.000000000000000E+000
 -2.900000000000000E-002    0.000000000000000E+000
 -2.890000000000000E-002    0.000000000000000E+000
 -2.880000000000000E-002    0.000000000000000E+000
 -2.870000000000000E-002    0.000000000000000E+000
 -2.860000000000000E-002    0.000000000000000E+000
 -2.850000000000000E-002    0.000000000000000E+000
 -2.840000000000000E-002    0.000000000000000E+000
 -2.830000000000000E-002    0.000000000000000E+000
 -2.820000000000000E-002    0.000000000000000E+000
 -2.810000000000000E-002    0.000000000000000E+000
 -2.800000000000000E-002    0.000000000000000E+000
 -2.790000000000000E-002    0.000000000000000E+000
 -2.780000000000000E-002    0.000000000000000E+000
 -2.770000000000000E-002    0.000000000000000E+000
 -2.760000000000000E-002    0.000000000000000E+000
 -2.750000000000000E-002    0.000000000000000E+000
 -2.740000000000000E-002    0.000000000000000E+000
 -2.730000000000000E-002    0.000000000000000E+000
 -2.720000000000000E-002    0.000000000000000E+000
 -2.710000000000000E-002    0.000000000000000E+000
 -2.700000000000000E-002    0.000000000000000E+000
 -2.690000000000000E-002    0.000000000000000E+000
 -2.680000000000000E-002    0.000000000000000E+000
 -2.670000000000000E-002    0.000000000000000E+000
 -2.660000000000000E-002    0.000000000000000E+000
 -2.650000000000000E-002    0.000000000000000E+000
 -2.640000000000000E-002    0.000000000000000E+000
 -2.630000000000000E-002    0.000000000000000E+000
 -2.620000000000000E-002    0.000000000000000E+000
 -2.610000000000000E-002    0.000000000000000E+000
 -2.600000000000000E-002    0.000000000000000E+000
 -2.590000000000000E-002    0.000000000000000E+000
 -2.580000000000000E-002    0.000000000000000E+000
 -2.570000000000000E-002    0.000000000000000E+000
 -2.560000000000000E-002    0.000000000000000E+000
 -2.550000000000000E-002    0.000000000000000E+000
 -2.540000000000000E-002    0.000000000000000E+000
 -2.530000000000000E-002    0.000000000000000E+000
 -2.520000000000000E-002    0.000000000000000E+000
 -2.510000000000000E-002    0.000000000000000E+000
 -2.500000000000000E-002    0.000000000000000E+000
 -2.490000000000000E-002    0.000000000000000E+000
 -2.480000000000000E-002    0.000000000000000E+000
 -2.470000000000000E-002    0.000000000000000E+000
 -2.460000000000000E-002    0.000000000000000E+000
 -2.450000000000000E-002    0.000000000000000E+000
 -2.440000000000000E-002    0.000000000000000E+000
 -2.430000000000000E-002    0.000000000000000E+000
 -2.420000000000000E-002    0.000000000000000E+000
 -2.410000000000000E-002    0.000000000000000E+000
 -2.400000000000000E-002    0.000000000000000E+000
 -2.390000000000000E-002    0.000000000000000E+000
 -2.380000000000000E-002    0.000000000000000E+000
 -2.370000000000000E-002    0.000000000000000E+000
 -2.360000000000000E-002    0.000000000000000E+000
 -2.350000000000000E-002    0.000000000000000E+000
 -2.340000000000000E-002    0.000000000000000E+000
 -2.330000000000000E-002    0.000000000000000E+000
 -2.320000000000000E-002    0.000000000000000E+000
 -2.310000000000000E-002    0.000000000000000E+000
 -2.300000000000000E-002    0.000000000000000E+000
 -2.290000000000000E-002    0.000000000000000E+000
 -2.280000000000000E-002    0.000000000000000E+000
 -2.270000000000000E-002    0.000000000000000E+000
 -2.260000000000000E-002    0.000000000000000E+000
 -2.250000000000000E-002    0.000000000000000E+000
 -2.240000000000000E-002    0.000000000000000E+000
 -2.230000000000000E-002    0.000000000000000E+000
 -2.220000000000000E-002    0.000000000000000E+000
 -2.210000000000000E-002    0.000000000000000E+000
 -2.200000000000000E-002    0.000000000000000E+000
 -2.190000000000000E-002    0.000000000000000E+000
 -2.180000000000000E-002    0.000000000000000E+000
 -2.170000000000000E-002    0.000000000000000E+000
 -2.160000000000000E-002    0.000000000000000E+000
 -2.150000000000000E-002    0.000000000000000E+000
 -2.140000000000000E-002    0.000000000000000E+000
 -2.130000000000000E-002    0.000000000000000E+000
 -2.120000000000000E-002    0.000000000000000E+000
 -2.110000000000000E-002    0.000000000000000E+000
 -2.100000000000000E-002    0.000000000000000E+000
 -2.090000000000000E-002    0.000000000000000E+000
 -2.080000000000000E-002    0.000000000000000E+000
 -2.070000000000000E-002    0.000000000000000E+000
 -2.060000000000000E-002    0.000000000000000E+000
 -2.050000000000000E-002    0.000000000000000E+000
 -2.040000000000000E-002    0.000000000000000E+000
 -2.030000000000000E-002    0.000000000000000E+000
 -2.020000000000000E-002    0.000000000000000E+000
 -2.010000000000000E-002    0.000000000000000E+000
 -2.000000000000000E-002    0.000000000000000E+000
 -1.990000000000000E-002    0.000000000000000E+000
 -1.980000000000000E-002    0.000000000000000E+000
 -1.970000000000000E-002    0.000000000000000E+000
 -1.960000000000000E-002    0.000000000000000E+000
 -1.950000000000000E-002    0.000000000000000E+000
 -1.940000000000000E-002    0.000000000000000E+000
 -1.930000000000000E-002    0.000000000000000E+000
 -1.920000000000000E-002    0.000000000000000E+000
 -1.910000000000000E-002    0.000000000000000E+000
 -1.900000000000000E-002    0.000000000000000E+000
 -1.890000000000000E-002    0.000000000000000E+000
 -1.880000000000000E-002    0.000000000000000E+000
 -1.870000000000000E-002    0.000000000000000E+000
 -1.860000000000000E-002    0.000000000000000E+000
 -1.850000000000000E-002    0.000000000000000E+000
 -1.840000000000000E-002    0.000000000000000E+000
 -1.830000000000000E-002    0.000000000000000E+000
 -1.820000000000000E-002    0.000000000000000E+000
 -1.810000000000000E-002    0.000000000000000E+000
 -1.800000000000000E-002    0.000000000000000E+000
 -1.790000000000000E-002    0.000000000000000E+000
 -1.780000000000000E-002    0.000000000000000E+000
 -1.770000000000000E-002    0.000000000000000E+000
 -1.760000000000000E-002    0.000000000000000E+000
 -1.750000000000000E-002    0.000000000000000E+000
 -1.740000000000000E-002    0.000000000000000E+000
 -1.730000000000000E-002    0.000000000000000E+000
 -1.720000000000000E-002    0.000000000000000E+000
 -1.710000000000000E-002    0.000000000000000E+000
 -1.700000000000000E-002    0.000000000000000E+000
 -1.690000000000000E-002    0.000000000000000E+000
 -1.680000000000000E-002    0.000000000000000E+000
 -1.670000000000000E-002    0.000000000000000E+000
 -1.660000000000000E-002    0.000000000000000E+000
 -1.650000000000000E-002    0.000000000000000E+000
 -1.640000000000000E-002    0.000000000000000E+000
 -1.630000000000000E-002    0.000000000000000E+000
 -1.620000000000000E-002    0.000000000000000E+000
 -1.610000000000000E-002    0.000000000000000E+000
 -1.600000000000000E-002    0.000000000000000E+000
 -1.590000000000000E-002    0.000000000000000E+000
 -1.580000000000000E-002    0.000000000000000E+000
 -1.570000000000000E-002    0.000000000000000E+000
 -1.560000000000000E-002    0.000000000000000E+000
 -1.550000000000000E-002    0.000000000000000E+000
 -1.540000000000000E-002    0.000000000000000E+000
 -1.530000000000000E-002    0.000000000000000E+000
 -1.520000000000000E-002    1.634961234484166E-048
 -1.510000000000000E-002    3.269922468968332E-048
 -1.500000000000000E-002    3.269922468968332E-048
 -1.490000000000000E-002    3.269922468968332E-048
 -1.480000000000000E-002    1.634961234484166E-048
 -1.470000000000000E-002   -1.634961234484166E-048
 -1.460000000000000E-002   -1.150419519420534E-047
 -1.450000000000000E-002   -1.804404013214200E-047
 -1.440000000000000E-002   -2.621884630456283E-047
 -1.430000000000000E-002   -2.942930222071499E-047
 -1.420000000000000E-002   -3.416572203516308E-047
 -1.410000000000000E-002   -4.602702536943597E-047
 -1.400000000000000E-002   -4.009257633706803E-047
 -1.390000000000000E-002   -2.107843742882676E-047
 -1.380000000000000E-002    2.481974620244346E-047
 -1.370000000000000E-002    1.184697634947512E-046
 -1.360000000000000E-002    1.873193794479017E-046
 -1.350000000000000E-002    2.653099072130549E-046
 -1.340000000000000E-002    4.342648575194942E-046
 -1.330000000000000E-002    5.308928828138364E-046
 -1.320000000000000E-002    5.169110346550719E-046
 -1.310000000000000E-002    4.012786223542553E-046
 -1.300000000000000E-002    1.365746746662515E-046
 -1.290000000000000E-002   -4.253964629029450E-046
 -1.280000000000000E-002   -1.080063739795948E-045
 -1.270000000000000E-002   -2.198738533841715E-045
 -1.260000000000000E-002   -3.257493119836279E-045
 -1.250000000000000E-002   -4.137938446097559E-045
 -1.240000000000000E-002   -4.794763081056391E-045
 -1.230000000000000E-002   -5.239507426358709E-045
 -1.220000000000000E-002   -3.958051182865676E-045
 -1.210000000000000E-002   -1.771712841596786E-045
 -1.200000000000000E-002    2.477887978493536E-045
 -1.190000000000000E-002    8.519119977271995E-045
 -1.180000000000000E-002    1.568097319484310E-044
 -1.170000000000000E-002    2.410774445557390E-044
 -1.160000000000000E-002    3.180921311646242E-044
 -1.150000000000000E-002    3.815058551910893E-044
 -1.140000000000000E-002    3.969517569341103E-044
 -1.130000000000000E-002    3.399965132235790E-044
 -1.120000000000000E-002    1.923247296429600E-044
 -1.110000000000000E-002   -6.969577266091722E-045
 -1.100000000000000E-002   -4.540101584640505E-044
 -1.090000000000000E-002   -9.318586451333146E-044
 -1.080000000000000E-002   -1.452142201817241E-043
 -1.070000000000000E-002   -1.934795072186285E-043
 -1.060000000000000E-002   -2.273282251381533E-043
 -1.050000000000000E-002   -2.324494628682401E-043
 -1.040000000000000E-002   -1.936323728344570E-043
 -1.030000000000000E-002   -9.914533221480192E-044
 -1.020000000000000E-002    5.820979145099524E-044
 -1.010000000000000E-002    2.787158043255873E-043
 -1.000000000000000E-002    5.475268337037713E-043
 -9.899999999999999E-003    8.351701396719021E-043
 -9.800000000000000E-003    1.096878132327533E-042
 -9.699999999999999E-003    1.272068409239092E-042
 -9.599999999999999E-003    1.289202569035945E-042
 -9.500000000000000E-003    1.075852442348476E-042
 -9.399999999999999E-003    5.721735880891676E-043
 -9.299999999999999E-003   -2.530228753121559E-043
 -9.200000000000000E-003   -1.385653450811244E-042
 -9.099999999999999E-003   -2.749223648957544E-042
 -8.999999999999999E-003   -4.195630461797495E-042
 -8.900000000000000E-003   -5.502401734216217E-042
 -8.799999999999999E-003   -6.382345849044853E-042
 -8.699999999999999E-003   -6.510875018575515E-042
 -8.600000000000000E-003   -5.569170257324962E-042
 -8.499999999999999E-003   -3.302401015633785E-042
 -8.399999999999999E-003    4.145879322237196E-043
 -8.300000000000000E-003    5.506563183314060E-042
 -8.199999999999999E-003    1.163909921209066E-041
 -8.100000000000000E-003    1.818343541821012E-041
 -8.000000000000000E-003    2.421932737890489E-041
 -7.899999999999999E-003    2.858597237099800E-041
 -7.800000000000000E-003    2.998990538652949E-041
 -7.699999999999999E-003    2.716994499177711E-041
 -7.599999999999999E-003    1.910487571668662E-041
 -7.499999999999999E-003    5.249649867749892E-042
 -7.399999999999999E-003   -1.423349389532539E-041
 -7.299999999999999E-003   -3.828868854007327E-041
 -7.199999999999999E-003   -6.485664378586058E-041
 -7.100000000000000E-003   -9.088878850011633E-041
 -6.999999999999999E-003   -1.125026671937919E-040
 -6.899999999999999E-003   -1.252936545255307E-040
 -6.800000000000000E-003   -1.247922577800598E-040
 -6.699999999999999E-003   -1.070311091484411E-040
 -6.599999999999999E-003   -6.916989816387321E-041
 -6.499999999999999E-003   -1.011272892285770E-041
 -6.399999999999999E-003    6.896233287942174E-041
 -6.299999999999999E-003    1.642181618308660E-040
 -6.199999999999999E-003    2.689774965712400E-040
 -6.100000000000000E-003    3.737631973400263E-040
 -5.999999999999999E-003    4.665651655293971E-040
 -5.899999999999999E-003    5.333169219237155E-040
 -5.800000000000000E-003    5.585663162058863E-040
 -5.699999999999999E-003    5.263354922886905E-040
 -5.599999999999999E-003    4.212155209240495E-040
 -5.499999999999999E-003    2.297829590115405E-040
 -5.399999999999999E-003   -5.752123432096624E-041
 -5.299999999999999E-003   -4.439011358595992E-040
 -5.199999999999999E-003   -9.229929564113431E-040
 -5.099999999999999E-003   -1.474949514860991E-039
 -4.999999999999999E-003   -2.062085958273585E-039
 -4.899999999999999E-003   -2.624692718949746E-039
 -4.799999999999999E-003   -3.078026998038613E-039
 -4.699999999999999E-003   -3.311932247671457E-039
 -4.599999999999999E-003   -3.194821433526873E-039
 -4.499999999999999E-003   -2.583855529994972E-039
 -4.399999999999999E-003   -1.342843929780063E-039
 -4.299999999999999E-003    6.314451315419394E-040
 -4.199999999999999E-003    3.375228639333760E-039
 -4.099999999999999E-003    6.818557960294661E-039
 -3.999999999999999E-003    1.074602814418736E-038
 -3.899999999999999E-003    1.476473720525690E-038
 -3.799999999999999E-003    1.828892696388239E-038
 -3.699999999999999E-003    2.055181320466403E-038
 -3.599999999999999E-003    2.065463901748606E-038
 -3.499999999999999E-003    1.766034854934660E-038
 -3.399999999999999E-003    1.073418295883768E-038
 -3.299999999999999E-003   -6.741202410761148E-040
 -3.199999999999999E-003   -1.662145784858879E-038
 -3.099999999999999E-003   -3.646144730198128E-038
 -2.999999999999999E-003   -5.866912120660918E-038
 -2.899999999999999E-003   -8.074350517183039E-038
 -2.799999999999999E-003   -9.923380105912094E-038
 -2.699999999999999E-003   -1.099306887908037E-037
 -2.599999999999999E-003   -1.082511116143636E-037
 -2.499999999999999E-003   -8.982252439203999E-038
 -2.399999999999999E-003   -5.124184107408457E-038
 -2.299999999999999E-003    9.052730168790996E-039
 -2.199999999999999E-003    8.989718450640996E-038
 -2.099999999999999E-003    1.866395289737327E-037
 -1.999999999999999E-003    2.906579072378308E-037
 -1.899999999999999E-003    3.893229874524554E-037
 -1.799999999999999E-003    4.665490287506178E-037
 -1.699999999999999E-003    5.040320513190963E-037
 -1.599999999999999E-003    4.831984820161583E-037
 -1.499999999999999E-003    3.877877837539639E-037
 -1.399999999999999E-003    2.068795158839184E-037
 -1.299999999999999E-003   -6.194237455258553E-038
 -1.199999999999999E-003   -4.096965983805782E-037
 -1.099999999999999E-003   -8.138601932986183E-037
 -9.999999999999989E-004   -1.237467792898052E-036
 -8.999999999999990E-004   -1.629904952075933E-036
 -7.999999999999990E-004   -1.929727361864434E-036
 -6.999999999999989E-004   -2.069652560999949E-036
 -5.999999999999990E-004   -1.983622869997803E-036
 -4.999999999999989E-004   -1.615555236636348E-036
 -3.999999999999989E-004   -9.291020905254348E-037
 -2.999999999999989E-004    8.251980346115080E-038
 -1.999999999999989E-004    1.387787123412286E-036
 -9.999999999999892E-005    2.910478763168254E-036
  1.084202172485504E-018    4.526898062224646E-036
  1.000000000000011E-004    6.067846788968837E-036
  2.000000000000011E-004    7.326211676043370E-036
  3.000000000000011E-004    8.070643553108228E-036
  4.000000000000011E-004    8.065303327187846E-036
  5.000000000000011E-004    7.095098946203698E-036
  6.000000000000011E-004    4.995161510614441E-036
  7.000000000000011E-004    1.682699609533242E-036
  8.000000000000011E-004   -2.811317408024935E-036
  9.000000000000012E-004   -8.313796342324701E-036
  1.000000000000001E-003   -1.448818663069743E-035
  1.100000000000001E-003   -2.082427488443129E-035
  1.200000000000001E-003   -2.664341096745318E-035
  1.300000000000001E-003   -3.112330096676392E-035
  1.400000000000001E-003   -3.334591003759631E-035
  1.500000000000001E-003   -3.237074129394333E-035
  1.600000000000001E-003   -2.733378508595900E-035
  1.700000000000001E-003   -1.756956577766561E-035
  1.800000000000001E-003   -2.750086054843160E-036
  1.900000000000001E-003    1.696989460489161E-035
  2.000000000000001E-003    4.081650529983536E-035
  2.100000000000001E-003    6.728896147986039E-035
  2.200000000000001E-003    9.410335894443055E-035
  2.300000000000001E-003    1.182128195353234E-034
  2.400000000000001E-003    1.359272991140815E-034
  2.500000000000001E-003    1.431516132666141E-034
  2.600000000000001E-003    1.357508679681469E-034
  2.700000000000001E-003    1.100389713894777E-034
  2.800000000000001E-003    6.336805318898839E-035
  2.900000000000001E-003   -5.223348762504285E-036
  3.000000000000001E-003   -9.436685819136789E-035
  3.100000000000001E-003   -1.998085156087333E-034
  3.200000000000001E-003   -3.140368882551527E-034
  3.300000000000001E-003   -4.261978776440301E-034
  3.400000000000001E-003   -5.223918851870725E-034
  3.500000000000001E-003   -5.864295590496378E-034
  3.600000000000001E-003   -6.010868003069237E-034
  3.700000000000001E-003   -5.498498975126706E-034
  3.800000000000001E-003   -4.190792811292825E-034
  3.900000000000001E-003   -2.004518934727651E-034
  4.000000000000001E-003    1.065292624583787E-034
  4.100000000000001E-003    4.922332783153665E-034
  4.200000000000001E-003    9.351279924023357E-034
  4.300000000000001E-003    1.400882688549894E-033
  4.400000000000001E-003    1.842680744231265E-033
  4.500000000000001E-003    2.203030545608372E-033
  4.600000000000002E-003    2.417273936577708E-033
  4.700000000000001E-003    2.418854976388497E-033
  4.800000000000001E-003    2.146246211328151E-033
  4.900000000000002E-003    1.551223273126598E-033
  5.000000000000001E-003    6.079615140918203E-034
  5.100000000000001E-003   -6.777988308895842E-034
  5.200000000000001E-003   -2.260479480280940E-033
  5.300000000000002E-003   -4.048412185968013E-033
  5.400000000000001E-003   -5.900837902794091E-033
  5.500000000000001E-003   -7.629399240189599E-033
  5.600000000000002E-003   -9.005250389014154E-033
  5.700000000000001E-003   -9.772643887111943E-033
  5.800000000000001E-003   -9.669422903119315E-033
  5.900000000000002E-003   -8.454220277452018E-033
  6.000000000000001E-003   -5.939380917566582E-033
  6.100000000000001E-003   -2.027672217609758E-033
  6.200000000000002E-003    3.250163688669618E-033
  6.300000000000002E-003    9.701025704428487E-033
  6.400000000000001E-003    1.694309289266341E-032
  6.500000000000001E-003    2.439303833781721E-032
  6.600000000000002E-003    3.127243910564316E-032
  6.700000000000001E-003    3.663859120698246E-032
  6.800000000000001E-003    3.944361191848695E-032
  6.900000000000002E-003    3.862356731452299E-032
  7.000000000000001E-003    3.321623158203904E-032
  7.100000000000001E-003    2.250219960011773E-032
  7.200000000000002E-003    6.159559394052891E-033
  7.300000000000002E-003   -1.558229620886112E-032
  7.400000000000001E-003   -4.180837474949561E-032
  7.500000000000001E-003   -7.082524293189595E-032
  7.600000000000002E-003   -1.001329440033662E-031
  7.700000000000001E-003   -1.264837527327826E-031
  7.800000000000001E-003   -1.460458639795607E-031
  7.900000000000001E-003   -1.546822421728454E-031
  8.000000000000002E-003   -1.483439342136301E-031
  8.100000000000001E-003   -1.235629111944018E-031
  8.200000000000001E-003   -7.801354003825978E-032
  8.300000000000002E-003   -1.109499703889526E-032
  8.400000000000001E-003    7.552816692307946E-032
  8.500000000000002E-003    1.775020362584148E-031
  8.600000000000002E-003    2.875561290577528E-031
  8.700000000000001E-003    3.955511279857092E-031
  8.800000000000002E-003    4.888672556667457E-031
  8.900000000000002E-003    5.531763628576351E-031
  9.000000000000001E-003    5.736073835114144E-031
  9.100000000000002E-003    5.362717609911229E-031
  9.200000000000002E-003    4.300673736557438E-031
  9.300000000000001E-003    2.486273042822533E-031
  9.400000000000002E-003   -7.767987969983392E-033
  9.500000000000001E-003   -3.305353889413000E-031
  9.600000000000001E-003   -7.016361069755285E-031
  9.700000000000002E-003   -1.093170804955068E-030
  9.800000000000001E-003   -1.467948778810262E-030
  9.900000000000001E-003   -1.781201486081352E-030
  1.000000000000000E-002   -1.983528157672297E-030
  1.010000000000000E-002   -2.025055530874569E-030
  1.020000000000000E-002   -1.860653754331674E-030
  1.030000000000000E-002   -1.455911365710068E-030
  1.040000000000000E-002   -7.934181548788212E-031
  1.050000000000000E-002    1.212260398667118E-031
  1.060000000000000E-002    1.254371175158499E-030
  1.070000000000000E-002    2.540996320152712E-030
  1.080000000000000E-002    3.883863376393747E-030
  1.090000000000000E-002    5.155820488548325E-030
  1.100000000000000E-002    6.205773021129957E-030
  1.110000000000000E-002    6.868585257056843E-030
  1.120000000000000E-002    6.978837437261969E-030
  1.130000000000000E-002    6.387956098435400E-030
  1.140000000000000E-002    4.983772180055753E-030
  1.150000000000000E-002    2.711082607422480E-030
  1.160000000000000E-002   -4.086606072552042E-031
  1.170000000000000E-002   -4.260779128775303E-030
  1.180000000000000E-002   -8.626384563551735E-030
  1.190000000000000E-002   -1.317950629772823E-029
  1.200000000000000E-002   -1.749461237785315E-029
  1.210000000000000E-002   -2.106632136420130E-029
  1.220000000000000E-002   -2.334224784672113E-029
  1.230000000000000E-002   -2.376880794314005E-029
  1.240000000000000E-002   -2.184840315734282E-029
  1.250000000000000E-002   -1.720480291284287E-029
  1.260000000000000E-002   -9.651880468070723E-030
  1.270000000000000E-002    7.406578274244778E-031
  1.280000000000000E-002    1.359221578128005E-029
  1.290000000000000E-002    2.817533546069046E-029
  1.300000000000000E-002    4.340721514714518E-029
  1.310000000000000E-002    5.787634761730025E-029
  1.320000000000000E-002    6.990993169100179E-029
  1.330000000000000E-002    7.768482880644772E-029
  1.340000000000000E-002    7.938080206116726E-029
  1.350000000000000E-002    7.337001419466050E-029
  1.360000000000000E-002    5.843152820292116E-029
  1.370000000000000E-002    3.397406646729232E-029
  1.380000000000000E-002    2.456832069135118E-031
  1.390000000000000E-002   -4.149472044566090E-029
  1.400000000000000E-002   -8.887091910530910E-029
  1.410000000000000E-002   -1.383741045493918E-028
  1.420000000000000E-002   -1.854612959794387E-028
  1.430000000000000E-002   -2.247833741843963E-028
  1.440000000000000E-002   -2.505484488874476E-028
  1.450000000000000E-002   -2.570134784801199E-028
  1.460000000000000E-002   -2.390823647624254E-028
  1.470000000000000E-002   -1.929723190006501E-028
  1.480000000000000E-002   -1.168954686232152E-028
  1.490000000000000E-002   -1.168905523187297E-029
  1.500000000000000E-002    1.186817877482267E-028
  1.510000000000000E-002    2.668278623763269E-028
  1.520000000000000E-002    4.219213796214472E-028
  1.530000000000000E-002    5.700259314689952E-028
  1.540000000000000E-002    6.948121540139099E-028
  1.550000000000000E-002    7.786699834276445E-028
  1.560000000000000E-002    8.041898235745447E-028
  1.570000000000000E-002    7.559438733420357E-028
  1.580000000000000E-002    6.224520316750227E-028
  1.590000000000000E-002    3.981757271894378E-028
  1.600000000000000E-002    8.534635957356269E-029
  1.610000000000000E-002   -3.045875221151087E-028
  1.620000000000000E-002   -7.501189605744764E-028
  1.630000000000000E-002   -1.219655927665330E-027
  1.640000000000000E-002   -1.672483620294137E-027
  1.650000000000000E-002   -2.060824510528424E-027
  1.660000000000000E-002   -2.333023174786284E-027
  1.670000000000000E-002   -2.437775812209878E-027
  1.680000000000000E-002   -2.329204057092346E-027
  1.690000000000000E-002   -1.972453927526149E-027
  1.700000000000000E-002   -1.349379990186205E-027
  1.710000000000000E-002   -4.637788687986091E-028
  1.720000000000000E-002    6.544280751382965E-028
  1.730000000000000E-002    1.946681143965540E-027
  1.740000000000000E-002    3.325521755746102E-027
  1.750000000000000E-002    4.677062243424696E-027
  1.760000000000000E-002    5.866503845017825E-027
  1.770000000000000E-002    6.746777393600173E-027
  1.780000000000000E-002    7.170109910972881E-027
  1.790000000000000E-002    7.001985309484362E-027
  1.800000000000000E-002    6.136642258920209E-027
  1.810000000000000E-002    4.512936037518351E-027
  1.820000000000000E-002    2.129114154973163E-027
  1.830000000000000E-002   -9.451041696451650E-028
  1.840000000000000E-002   -4.560829778410444E-027
  1.850000000000000E-002   -8.488276545581790E-027
  1.860000000000000E-002   -1.242232528739414E-026
  1.870000000000000E-002   -1.599627984270617E-026