 -4.000000000000000E-002    0.000000000000000E+000
 -3.990000000000000E-002    0.000000000000000E+000
 -3.980000000000000E-002    0.000000000000000E+000
 -3.970000000000000E-002    0.000000000000000E+000
 -3.960000000000000E-002    0.000000000000000E+000
 -3.950000000000000E-002    0.000000000000000E+000
 -3.940000000000000E-002    0.000000000000000E+000
 -3.930000000000000E-002    0.000000000000000E+000
 -3.920000000000000E-002    0.000000000000000E+000
 -3.910000000000000E-002    0.000000000000000E+000
 -3.900000000000000E-002    0.000000000000000E+000
 -3.890000000000000E-002    0.000000000000000E+000
 -3.880000000000000E-002    0.000000000000000E+000
 -3.870000000000000E-002    0.000000000000000E+000
 -3.860000000000000E-002    0.000000000000000E+000
 -3.850000000000000E-002    0.000000000000000E+000
 -3.840000000000000E-002    0.000000000000000E+000
 -3.830000000000000E-002    0.000000000000000E+000
 -3.820000000000000E-002    0.000000000000000E+000
 -3.810000000000000E-002    0.000000000000000E+000
 -3.800000000000000E-002    1.426988374987514E-048
 -3.790000000000000E-002   -2.945011930765761E-048
 -3.780000000000000E-002   -4.415645147081595E-048
 -3.770000000000000E-002   -1.329119511870783E-047
 -3.760000000000000E-002    1.773617752343102E-047
 -3.750000000000000E-002    4.922612585112193E-046
 -3.740000000000000E-002    1.988140825657022E-045
 -3.730000000000000E-002    5.950214563210787E-045
 -3.720000000000000E-002    1.886258622002007E-044
 -3.710000000000000E-002    5.276612396439209E-044
 -3.700000000000000E-002    1.122586952888558E-043
 -3.690000000000000E-002    1.105769611293310E-043
 -3.680000000000000E-002   -4.768883807631393E-043
 -3.670000000000000E-002   -3.760597613558322E-042
 -3.660000000000000E-002   -1.678953157013143E-041
 -3.650000000000000E-002   -6.037669226798583E-041
 -3.640000000000000E-002   -1.904620538481517E-040
 -3.630000000000000E-002   -5.460375449878922E-040
 -3.620000000000000E-002   -1.449309939393998E-039
 -3.610000000000000E-002   -3.600971715611059E-039
 -3.600000000000000E-002   -8.434434504194688E-039
 -3.590000000000000E-002   -1.870937496516816E-038
 -3.580000000000000E-002   -3.941514483039368E-038
 -3.570000000000000E-002   -7.897325031009897E-038
 -3.560000000000000E-002   -1.504933989289902E-037
 -3.550000000000000E-002   -2.723196748184029E-037
 -3.540000000000000E-002   -4.661204334413484E-037
 -3.530000000000000E-002   -7.491155572797655E-037
 -3.520000000000000E-002   -1.114520273822250E-036
 -3.510000000000000E-002   -1.490920488872047E-036
 -3.500000000000000E-002   -1.667518344961120E-036
 -3.490000000000000E-002   -1.169266621680550E-036
 -3.480000000000000E-002    9.335370377912226E-037
 -3.470000000000000E-002    6.288058040908486E-036
 -3.460000000000000E-002    1.757742297992507E-035
 -3.450000000000000E-002    3.883023886967996E-035
 -3.440000000000000E-002    7.557300359580074E-035
 -3.430000000000000E-002    1.345483568039500E-034
 -3.420000000000000E-002    2.225431104110179E-034
 -3.410000000000000E-002    3.436508163647995E-034
 -3.400000000000000E-002    4.940687129795827E-034
 -3.390000000000000E-002    6.533733194994009E-034
 -3.380000000000000E-002    7.712635396823725E-034
 -3.370000000000000E-002    7.492054949347565E-034
 -3.360000000000000E-002    4.175281454673538E-034
 -3.350000000000000E-002   -4.893625658180501E-034
 -3.340000000000000E-002   -2.353531058531379E-033
 -3.330000000000000E-002   -5.678663087608342E-033
 -3.320000000000000E-002   -1.106203002125395E-032
 -3.310000000000000E-002   -1.910771283145926E-032
 -3.300000000000000E-002   -3.024784760185044E-032
 -3.290000000000000E-002   -4.443330581813728E-032
 -3.280000000000000E-002   -6.065590614852108E-032
 -3.270000000000000E-002   -7.627612290659277E-032
 -3.260000000000000E-002   -8.616001805207132E-032
 -3.250000000000000E-002   -8.168438991757913E-032
 -3.240000000000000E-002   -4.975724873995168E-032
 -3.230000000000000E-002    2.787334333504443E-032
 -3.220000000000000E-002    1.745861067582904E-031
 -3.210000000000000E-002    4.175032772721572E-031
 -3.200000000000000E-002    7.839414172696441E-031
 -3.190000000000000E-002    1.294735484950794E-030
 -3.180000000000000E-002    1.953449239842535E-030
 -3.170000000000000E-002    2.730674313752551E-030
 -3.160000000000000E-002    3.543153931003874E-030
 -3.150000000000000E-002    4.228479789281213E-030
 -3.140000000000000E-002    4.517729849369797E-030
 -3.130000000000000E-002    4.010730902127843E-030
 -3.120000000000000E-002    2.161620025293997E-030
 -3.110000000000000E-002   -1.714137813854340E-030
 -3.100000000000000E-002   -8.396572100009543E-030
 -3.090000000000000E-002   -1.866429546106372E-029
 -3.080000000000000E-002   -3.312523981086014E-029
 -3.070000000000000E-002   -5.195867787446457E-029
 -3.060000000000000E-002   -7.455958217078047E-029
 -3.050000000000000E-002   -9.909084541877474E-029
 -3.040000000000000E-002   -1.219721247156278E-028
 -3.030000000000000E-002   -1.373670128036993E-028
 -3.020000000000000E-002   -1.367723053606543E-028
 -3.010000000000000E-002   -1.088616548092873E-028
 -3.000000000000000E-002   -3.978465272382898E-029
 -2.990000000000000E-002    8.583803118454372E-029
 -2.980000000000000E-002    2.829668509620881E-028
 -2.970000000000000E-002    5.630109969705990E-028
 -2.960000000000000E-002    9.293656693064130E-028
 -2.950000000000000E-002    1.371639781109310E-027
 -2.940000000000000E-002    1.858858213924763E-027
 -2.930000000000000E-002    2.332286242459913E-027
 -2.920000000000000E-002    2.698977953778369E-027
 -2.910000000000000E-002    2.827655895384732E-027
 -2.900000000000000E-002    2.549026152868470E-027
 -2.890000000000000E-002    1.663012684159646E-027
 -2.880000000000000E-002   -4.446348566395701E-029
 -2.870000000000000E-002   -2.772797037829808E-027
 -2.860000000000000E-002   -6.664564244403780E-027
 -2.850000000000000E-002   -1.174992960571001E-026
 -2.840000000000000E-002   -1.787990526381496E-026
 -2.830000000000000E-002   -2.465387868009738E-026
 -2.820000000000000E-002   -3.135053946645586E-026
 -2.810000000000000E-002   -3.687535450525717E-026
 -2.800000000000000E-002   -3.974144058159490E-026
 -2.790000000000000E-002   -3.810337547574521E-026
 -2.780000000000000E-002   -2.986419141722516E-026
 -2.770000000000000E-002   -1.287347574732025E-026
 -2.760000000000000E-002    1.477170229366810E-026
 -2.750000000000000E-002    5.432227819547105E-026
 -2.740000000000000E-002    1.058840951284507E-025
 -2.730000000000000E-002    1.678714854393766E-025
 -2.720000000000000E-002    2.364660603680569E-025
 -2.710000000000000E-002    3.051631502314902E-025
 -2.700000000000000E-002    3.645093140827086E-025
 -2.690000000000000E-002    4.021481389983812E-025
 -2.680000000000000E-002    4.032932044758414E-025
 -2.670000000000000E-002    3.517317715538995E-025
 -2.660000000000000E-002    2.314266338343958E-025
 -2.650000000000000E-002    2.872447776791847E-026
 -2.640000000000000E-002   -2.649022619075426E-025
 -2.630000000000000E-002   -6.497527529653355E-025
 -2.620000000000000E-002   -1.114716271665331E-024
 -2.610000000000000E-002   -1.634400324155708E-024
 -2.600000000000000E-002   -2.167046239191992E-024
 -2.590000000000000E-002   -2.653760837022953E-024
 -2.580000000000000E-002   -3.019590799796219E-024
 -2.570000000000000E-002   -3.176895818715673E-024
 -2.560000000000000E-002   -3.031322242920940E-024
 -2.550000000000000E-002   -2.490449707345962E-024
 -2.540000000000000E-002   -1.474878945230676E-024
 -2.530000000000000E-002    6.882085219871196E-026
 -2.520000000000000E-002    2.154254897789832E-024
 -2.510000000000000E-002    4.741722830434674E-024
 -2.500000000000000E-002    7.726663463831449E-024
 -2.490000000000000E-002    1.093171491597846E-023
 -2.480000000000000E-002    1.410405082607258E-023
 -2.470000000000000E-002    1.691945039680998E-023
 -2.460000000000000E-002    1.899415671945993E-023
 -2.450000000000000E-002    1.990502196445963E-023
 -2.440000000000000E-002    1.921775557810892E-023
 -2.430000000000000E-002    1.652237142417390E-023
 -2.420000000000000E-002    1.147422913642282E-023
 -2.410000000000000E-002    3.838491514707680E-024
 -2.400000000000000E-002   -6.464600921022298E-024
 -2.390000000000000E-002   -1.931645381718616E-023
 -2.380000000000000E-002   -3.436167881419626E-023
 -2.370000000000000E-002   -5.097724774798117E-023
 -2.360000000000000E-002   -6.825187343356469E-023
 -2.350000000000000E-002   -8.497826997086792E-023
 -2.340000000000000E-002   -9.966106755846654E-023
 -2.330000000000000E-002   -1.105437267478901E-022
 -2.320000000000000E-002   -1.156584658207713E-022
 -2.310000000000000E-002   -1.129040571464698E-022
 -2.300000000000000E-002   -1.001570794563693E-022
 -2.290000000000000E-002   -7.542221575650704E-023
 -2.280000000000000E-002   -3.702616960419988E-023
 -2.270000000000000E-002    1.614296172465116E-023
 -2.260000000000000E-002    8.435391037819335E-023
 -2.250000000000000E-002    1.667184198731829E-022
 -2.240000000000000E-002    2.608653412969932E-022
 -2.230000000000000E-002    3.626339659128049E-022
 -2.220000000000000E-002    4.658297309315922E-022
 -2.210000000000000E-002    5.620962464473885E-022
 -2.200000000000000E-002    6.409648968896250E-022
 -2.190000000000000E-002    6.901445640980676E-022
 -2.180000000000000E-002    6.961070958032539E-022
 -2.170000000000000E-002    6.450066890346892E-022
 -2.160000000000000E-002    5.239423277117024E-022
 -2.150000000000000E-002    3.225325435289801E-022
 -2.140000000000000E-002    3.472224880335784E-023
 -2.130000000000000E-002   -3.393125182906831E-022
 -2.120000000000000E-002   -7.913492784066602E-022
 -2.110000000000000E-002   -1.303625242437357E-021
 -2.100000000000000E-002   -1.847923029838663E-021
 -2.090000000000000E-002   -2.385497548838956E-021
 -2.080000000000000E-002   -2.868071742546790E-021
 -2.070000000000000E-002   -3.240064091016041E-021
 -2.060000000000000E-002   -3.442103054564890E-021
 -2.050000000000000E-002   -3.415748369599645E-021
 -2.040000000000000E-002   -3.109179941466397E-021
 -2.030000000000000E-002   -2.483451883237365E-021
 -2.020000000000000E-002   -1.518758944266543E-021
 -2.010000000000000E-002   -2.200509685904929E-022
 -2.000000000000000E-002    1.378721458883388E-021
 -1.990000000000000E-002    3.212419745826429E-021
 -1.980000000000000E-002    5.185163455061880E-021
 -1.970000000000000E-002    7.173775822196039E-021
 -1.960000000000000E-002    9.034301713868387E-021
 -1.950000000000000E-002    1.061132531752307E-020
 -1.940000000000000E-002    1.174944605896141E-020
 -1.930000000000000E-002    1.230592182154052E-020
 -1.920000000000000E-002    1.216322593128809E-020
 -1.910000000000000E-002    1.124012115290577E-020
 -1.900000000000000E-002    9.499884275350653E-021
 -1.890000000000000E-002    6.954529986616935E-021
 -1.880000000000000E-002    3.664314948953302E-021
 -1.870000000000000E-002   -2.676261824189328E-022
 -1.860000000000000E-002   -4.704941014211561E-021
 -1.850000000000000E-002   -9.490731121208265E-021
 -1.840000000000000E-002   -1.446128011740531E-020
 -1.830000000000000E-002   -1.945842668306540E-020
 -1.820000000000000E-002   -2.433801013909502E-020
 -1.810000000000000E-002   -2.897203060530780E-020
 -1.800000000000000E-002   -3.324284593539953E-020
 -1.790000000000000E-002   -3.702881054262220E-020
 -1.780000000000000E-002   -4.018222286022527E-020
 -1.770000000000000E-002   -4.250212722374659E-020
 -1.760000000000000E-002   -4.370621984817823E-020
 -1.750000000000000E-002   -4.340754402949959E-020
 -1.740000000000000E-002   -4.110263411511094E-020
 -1.730000000000000E-002   -3.617794344830795E-020
 -1.720000000000000E-002   -2.794057509049766E-020
 -1.710000000000000E-002   -1.567743656915423E-020
 -1.700000000000000E-002    1.256067999924146E-021
 -1.690000000000000E-002    2.332062789379230E-020
 -1.680000000000000E-002    5.065829280525534E-020
 -1.670000000000000E-002    8.295048288787759E-020
 -1.660000000000000E-002    1.192850304329963E-019
 -1.650000000000000E-002    1.580516666709619E-019
 -1.640000000000000E-002    1.968866414936537E-019
 -1.630000000000000E-002    2.326861543645104E-019
 -1.620000000000000E-002    2.617045990903755E-019
 -1.610000000000000E-002    2.797470481685401E-019
 -1.600000000000000E-002    2.824564512461977E-019
 -1.590000000000000E-002    2.656851209069383E-019
 -1.580000000000000E-002    2.259283310197884E-019
 -1.570000000000000E-002    1.607866289358073E-019
 -1.560000000000000E-002    6.941386259046507E-020
 -1.550000000000000E-002   -4.709780344002488E-020
 -1.540000000000000E-002   -1.854459677324813E-019
 -1.530000000000000E-002   -3.400047175930573E-019
 -1.520000000000000E-002   -5.029051984852285E-019
 -1.510000000000000E-002   -6.643287699668463E-019
 -1.500000000000000E-002   -8.130110195238735E-019
 -1.490000000000000E-002   -9.369317751998555E-019
 -1.480000000000000E-002   -1.024142878710414E-018
 -1.470000000000000E-002   -1.063665333699949E-018
 -1.460000000000000E-002   -1.046373862318225E-018
 -1.450000000000000E-002   -9.657809457113834E-019
 -1.440000000000000E-002   -8.186386524657547E-019
 -1.430000000000000E-002   -6.052922595830897E-019
 -1.420000000000000E-002   -3.297474972057455E-019
 -1.410000000000000E-002    5.520864483919858E-022
 -1.400000000000000E-002    3.752022286877744E-019
 -1.390000000000000E-002    7.814962715069234E-019
 -1.380000000000000E-002    1.205161341994820E-018
 -1.370000000000000E-002    1.631051408059638E-018
 -1.360000000000000E-002    2.043676760662440E-018
 -1.350000000000000E-002    2.427470880837356E-018
 -1.340000000000000E-002    2.766736289430677E-018
 -1.330000000000000E-002    3.045273971346859E-018
 -1.320000000000000E-002    3.245768810134329E-018
 -1.310000000000000E-002    3.349080894518314E-018
 -1.300000000000000E-002    3.333656158172206E-018
 -1.290000000000000E-002    3.175313252728762E-018
 -1.280000000000000E-002    2.847674448119540E-018
 -1.270000000000000E-002    2.323477838876326E-018
 -1.260000000000000E-002    1.576930361880125E-018
 -1.250000000000000E-002    5.871382426080787E-019
 -1.240000000000000E-002   -6.575048558445378E-019
 -1.230000000000000E-002   -2.154272309129563E-018
 -1.220000000000000E-002   -3.880881813064530E-018
 -1.210000000000000E-002   -5.790726693827486E-018
 -1.200000000000000E-002   -7.809300074190816E-018
 -1.190000000000000E-002   -9.832571041872718E-018
 -1.180000000000000E-002   -1.172801356117808E-017
 -1.170000000000000E-002   -1.333881519729222E-017
 -1.160000000000000E-002   -1.449153093759176E-017
 -1.150000000000000E-002   -1.500710240539667E-017
 -1.140000000000000E-002   -1.471476718058636E-017
 -1.130000000000000E-002   -1.346797726909610E-017
 -1.120000000000000E-002   -1.116109111061417E-017
 -1.110000000000000E-002   -7.745325303155214E-018
 -1.100000000000000E-002   -3.242319177447199E-018
 -1.090000000000000E-002    2.246300386493509E-018
 -1.080000000000000E-002    8.534747664157736E-018
 -1.070000000000000E-002    1.535529835402627E-017
 -1.060000000000000E-002    2.236735575037303E-017
 -1.050000000000000E-002    2.917316575212273E-017
 -1.040000000000000E-002    3.533932455554815E-017
 -1.030000000000000E-002    4.042258792767390E-017
 -1.020000000000000E-002    4.399801836597948E-017
 -1.010000000000000E-002    4.568720481299946E-017
 -1.000000000000000E-002    4.518424280479041E-017
 -9.899999999999999E-003    4.227740537776843E-017
 -9.800000000000000E-003    3.686488364027996E-017
 -9.699999999999999E-003    2.896364774040178E-017
 -9.599999999999999E-003    1.871126481289766E-017
 -9.500000000000000E-003    6.361275904457398E-018
 -9.399999999999999E-003   -7.726577405785460E-018
 -9.299999999999999E-003   -2.309953488840889E-017
 -9.200000000000000E-003   -3.922650343754670E-017
 -9.099999999999999E-003   -5.551251556131021E-017
 -8.999999999999999E-003   -7.131173932465846E-017
 -8.900000000000000E-003   -8.593857694744258E-017
 -8.799999999999999E-003   -9.867738432515953E-017
 -8.699999999999999E-003   -1.087922057957497E-016
 -8.600000000000000E-003   -1.155388040694133E-016
 -8.499999999999999E-003   -1.181816270891337E-016
 -8.399999999999999E-003   -1.160184846755528E-016
 -8.300000000000000E-003   -1.084150265039359E-016
 -8.199999999999999E-003   -9.485012636039765E-017
 -8.100000000000000E-003   -7.497162231919111E-017
 -8.000000000000000E-003   -4.865997333994925E-017
 -7.899999999999999E-003   -1.609536072261164E-017
 -7.800000000000000E-003    2.217815232508715E-017
 -7.699999999999999E-003    6.519915793998265E-017
 -7.599999999999999E-003    1.115546863911144E-016
 -7.499999999999999E-003    1.593735567839645E-016
 -7.399999999999999E-003    2.063544854735006E-016
 -7.299999999999999E-003    2.498339340510774E-016
 -7.199999999999999E-003    2.868955735949246E-016
 -7.100000000000000E-003    3.145195981393902E-016
 -6.999999999999999E-003    3.297662902616003E-016
 -6.899999999999999E-003    3.299839046556780E-016
 -6.800000000000000E-003    3.130282584226543E-016
 -6.699999999999999E-003    2.774782079151431E-016
 -6.599999999999999E-003    2.228304322390032E-016
 -6.499999999999999E-003    1.496565674864568E-016
 -6.399999999999999E-003    5.970725201312543E-017
 -6.299999999999999E-003   -4.404984718084443E-017
 -6.199999999999999E-003   -1.574673093949632E-016
 -6.100000000000000E-003   -2.753352659036160E-016
 -5.999999999999999E-003   -3.915789858527597E-016
 -5.899999999999999E-003   -4.995316930735979E-016
 -5.800000000000000E-003   -5.922731440916034E-016
 -5.699999999999999E-003   -6.630199422724968E-016
 -5.599999999999999E-003   -7.055499280970637E-016
 -5.499999999999999E-003   -7.146393495394371E-016
 -5.399999999999999E-003   -6.864893107646993E-016
 -5.299999999999999E-003   -6.191155320410441E-016
 -5.199999999999999E-003   -5.126742164740456E-016
 -5.099999999999999E-003   -3.696966172385850E-016
 -4.999999999999999E-003   -1.952052420569116E-016
 -4.899999999999999E-003    3.312668520567706E-018
 -4.799999999999999E-003    2.160945659405873E-016
 -4.699999999999999E-003    4.314681974133961E-016
 -4.599999999999999E-003    6.363971987930879E-016
 -4.499999999999999E-003    8.171982053343252E-016
 -4.399999999999999E-003    9.604063307287397E-016
 -4.299999999999999E-003    1.053749958071698E-015
 -4.199999999999999E-003    1.087178200455179E-015
 -4.099999999999999E-003    1.053870929397779E-015
 -3.999999999999999E-003    9.511467185413975E-016
 -3.899999999999999E-003    7.811795781057750E-016
 -3.799999999999999E-003    5.514343280784274E-016
 -3.699999999999999E-003    2.747401199959123E-016
 -3.599999999999999E-003   -3.106001725224174E-017
 -3.499999999999999E-003   -3.439171371764375E-016
 -3.399999999999999E-003   -6.388408789523252E-016
 -3.299999999999999E-003   -8.895768327161167E-016
 -3.199999999999999E-003   -1.070610131080125E-015
 -3.099999999999999E-003   -1.159367264817856E-015
 -2.999999999999999E-003   -1.138452967582294E-015
 -2.899999999999999E-003   -9.977352154563186E-016
 -2.799999999999999E-003   -7.360829725642785E-016
 -2.699999999999999E-003   -3.625684941500018E-016
 -2.599999999999999E-003    1.030263429469926E-016
 -2.499999999999999E-003    6.305163429385612E-016
 -2.399999999999999E-003    1.180490624256738E-015
 -2.299999999999999E-003    1.706351399139381E-015
 -2.199999999999999E-003    2.157131037020708E-015
 -2.099999999999999E-003    2.480935685293615E-015
 -1.999999999999999E-003    2.628803199809091E-015
 -1.899999999999999E-003    2.558717284530761E-015
 -1.799999999999999E-003    2.239496537796393E-015
 -1.699999999999999E-003    1.654273309406829E-015
 -1.599999999999999E-003    8.032959433362000E-016
 -1.499999999999999E-003   -2.941690274784100E-016
 -1.399999999999999E-003   -1.599006953666134E-015
 -1.299999999999999E-003   -3.052600306627801E-015
 -1.199999999999999E-003   -4.578384944323747E-015
 -1.099999999999999E-003   -6.084585497343654E-015
 -9.999999999999989E-004   -7.468039597720509E-015
 -8.999999999999990E-004   -8.618972630504638E-015
 -7.999999999999990E-004   -9.426545628137343E-015
 -6.999999999999989E-004   -9.784980591597263E-015
 -5.999999999999990E-004   -9.600040148658864E-015
 -4.999999999999989E-004   -8.795631525707770E-015
 -3.999999999999989E-004   -7.320283664232602E-015
 -2.999999999999989E-004   -5.153226977922487E-015
 -1.999999999999989E-004   -2.309776693072366E-015
 -9.999999999999892E-005    1.154311646260890E-015
  1.084202172485504E-018    5.139882059046142E-015
  1.000000000000011E-004    9.503206166352316E-015
  2.000000000000011E-004    1.405699860615420E-014
  3.000000000000011E-004    1.857399916811828E-014
  4.000000000000011E-004    2.279343900182132E-014
  5.000000000000011E-004    2.643058942178046E-014
  6.000000000000011E-004    2.918942090972224E-014
  7.000000000000011E-004    3.077819680945243E-014
  8.000000000000011E-004    3.092752183397515E-014
  9.000000000000012E-004    2.941012085348093E-014
  1.000000000000001E-003    2.606128256736706E-014
  1.100000000000001E-003    2.079867393484162E-014
  1.200000000000001E-003    1.364001389391389E-014
  1.300000000000001E-003    4.716970220296443E-015
  1.400000000000001E-003   -5.716309071726842E-015
  1.500000000000001E-003   -1.728149872575135E-014
  1.600000000000001E-003   -2.948238195877986E-014
  1.700000000000001E-003   -4.171981388872448E-014
  1.800000000000001E-003   -5.331549905762744E-014
  1.900000000000001E-003   -6.354404340832363E-014
  2.000000000000001E-003   -7.167205014044160E-014
  2.100000000000001E-003   -7.700235393702396E-014
  2.200000000000001E-003   -7.892084762509651E-014
  2.300000000000001E-003   -7.694294972942442E-014
  2.400000000000001E-003   -7.075642986323131E-014
  2.500000000000001E-003   -6.025731461157615E-014
  2.600000000000001E-003   -4.557575798236419E-014
  2.700000000000001E-003   -2.708930768506644E-014
  2.800000000000001E-003   -5.421625562463944E-015
  2.900000000000001E-003    1.857431992326216E-014
  3.000000000000001E-003    4.384856460901712E-014
  3.100000000000001E-003    6.920082188707566E-014
  3.200000000000001E-003    9.333930843583222E-014
  3.300000000000001E-003    1.149485534854782E-013
  3.400000000000001E-003    1.327622372184693E-013
  3.500000000000001E-003    1.456365365998295E-013
  3.600000000000001E-003    1.526193625828224E-013
  3.700000000000001E-003    1.530108028270548E-013
  3.800000000000001E-003    1.464106961467030E-013
  3.900000000000001E-003    1.327499851038953E-013
  4.000000000000001E-003    1.123034234904331E-013
  4.100000000000001E-003    8.568267759659676E-014
  4.200000000000001E-003    5.380995074544657E-014
  4.300000000000001E-003    1.787381477000677E-014
  4.400000000000001E-003   -2.072987637873744E-014
  4.500000000000001E-003   -6.046798328353902E-014
  4.600000000000002E-003   -9.974623890090507E-014
  4.700000000000001E-003   -1.369862325169201E-013
  4.800000000000001E-003   -1.706980055260013E-013
  4.900000000000002E-003   -1.995432496239673E-013
  5.000000000000001E-003   -2.223850015896559E-013
  5.100000000000001E-003   -2.383209319465732E-013
  5.200000000000001E-003   -2.466987077850859E-013
  5.300000000000002E-003   -2.471136880363047E-013
  5.400000000000001E-003   -2.393909099635654E-013
  5.500000000000001E-003   -2.235550059325191E-013
  5.600000000000002E-003   -1.997929646302445E-013
  5.700000000000001E-003   -1.684158933036607E-013
  5.800000000000001E-003   -1.298260480804920E-013
  5.900000000000002E-003   -8.449545252976823E-014
  6.000000000000001E-003   -3.296134234030106E-014
  6.100000000000001E-003    2.415792788738223E-014
  6.200000000000002E-003    8.612508594886515E-014
  6.300000000000002E-003    1.520257101104009E-013
  6.400000000000001E-003    2.206939416250056E-013
  6.500000000000001E-003    2.906298079345313E-013
  6.600000000000002E-003    3.599182956352929E-013
  6.700000000000001E-003    4.261629675020342E-013
  6.800000000000001E-003    4.864477825047341E-013
  6.900000000000002E-003    5.373411808800461E-013
  7.000000000000001E-003    5.749551211331759E-013
  7.100000000000001E-003    5.950689538283114E-013
  7.200000000000002E-003    5.933239636585418E-013
  7.300000000000002E-003    5.654886251518743E-013
  7.400000000000001E-003    5.077881903795928E-013
  7.500000000000001E-003    4.172850298282579E-013
  7.600000000000002E-003    2.922890132903807E-013
  7.700000000000001E-003    1.327699185822842E-013
  7.800000000000001E-003   -5.926068560932319E-014
  7.900000000000001E-003   -2.794355464002359E-013
  8.000000000000002E-003   -5.208236898860974E-013
  8.100000000000001E-003   -7.738653157682536E-013
  8.200000000000001E-003   -1.026481879515687E-012
  8.300000000000002E-003   -1.264385505655077E-012
  8.400000000000001E-003   -1.471601817199164E-012
  8.500000000000002E-003   -1.631205872927044E-012
  8.600000000000002E-003   -1.726255543732777E-012
  8.700000000000001E-003   -1.740890440826505E-012
  8.800000000000002E-003   -1.661546450983323E-012
  8.900000000000002E-003   -1.478220166490940E-012
  9.000000000000001E-003   -1.185704764953344E-012
  9.100000000000002E-003   -7.847071556107497E-013
  9.200000000000002E-003   -2.827512407841580E-013
  9.300000000000001E-003    3.052272793112366E-013
  9.400000000000002E-003    9.566837169330475E-013
  9.500000000000001E-003    1.641738786390873E-012
  9.600000000000001E-003    2.323979153927965E-012
  9.700000000000002E-003    2.961811469767934E-012
  9.800000000000001E-003    3.510361800386647E-012
  9.900000000000001E-003    3.923878230076079E-012
  1.000000000000000E-002    4.158550828728441E-012
  1.010000000000000E-002    4.175624634682547E-012
  1.020000000000000E-002    3.944641477661228E-012
  1.030000000000000E-002    3.446613718301521E-012
  1.040000000000000E-002    2.676909177814441E-012
  1.050000000000000E-002    1.647611649531077E-012
  1.060000000000000E-002    3.891196541456513E-013
  1.070000000000000E-002   -1.049231934786761E-012
  1.080000000000000E-002   -2.599716041394300E-012
  1.090000000000000E-002   -4.178057930478973E-012
  1.100000000000000E-002   -5.686644231386657E-012
  1.110000000000000E-002   -7.019084398701688E-012
  1.120000000000000E-002   -8.066011234413105E-012
  1.130000000000000E-002   -8.721913707436197E-012
  1.140000000000000E-002   -8.892686896751228E-012
  1.150000000000000E-002   -8.503499894951036E-012
  1.160000000000000E-002   -7.506489206844454E-012
  1.170000000000000E-002   -5.887739997879154E-012
  1.180000000000000E-002   -3.672978888426434E-012
  1.190000000000000E-002   -9.314123420331847E-013
  1.200000000000000E-002    2.222811513971115E-012
  1.210000000000000E-002    5.631952876004018E-012
  1.220000000000000E-002    9.099144288484166E-012
  1.230000000000000E-002    1.239610803384105E-011
  1.240000000000000E-002    1.527405474573090E-011
  1.250000000000000E-002    1.747748456625753E-011
  1.260000000000000E-002    1.876036191285379E-011
  1.270000000000000E-002    1.890390840013886E-011
  1.280000000000000E-002    1.773506182520220E-011
  1.290000000000000E-002    1.514446032132044E-011
  1.300000000000000E-002    1.110269364032000E-011
  1.310000000000000E-002    5.673535109955473E-012
  1.320000000000000E-002   -9.771283028993776E-013
  1.330000000000000E-002   -8.577827620708183E-012
  1.340000000000000E-002   -1.675443408480461E-011
  1.350000000000000E-002   -2.504013879370970E-011
  1.360000000000000E-002   -3.289275224911580E-011
  1.370000000000000E-002   -3.971917404339645E-011
  1.380000000000000E-002   -4.490639849419960E-011
  1.390000000000000E-002   -4.785788829944581E-011
  1.400000000000000E-002   -4.803378656098338E-011
  1.410000000000000E-002   -4.499283128743100E-011
  1.420000000000000E-002   -3.843366063853466E-011
  1.430000000000000E-002   -2.823284339891671E-011
  1.440000000000000E-002   -1.447690111816508E-011
  1.450000000000000E-002    2.514356610363730E-012
  1.460000000000000E-002    2.217563943686318E-011
  1.470000000000000E-002    4.369718672851757E-011
  1.480000000000000E-002    6.604050650783527E-011
  1.490000000000000E-002    8.796960456224266E-011
  1.500000000000000E-002    1.080976714941415E-010
  1.510000000000000E-002    1.249482907735334E-010
  1.520000000000000E-002    1.370292954141736E-010
  1.530000000000000E-002    1.429163397355632E-010
  1.540000000000000E-002    1.413426540523517E-010
  1.550000000000000E-002    1.312904850959479E-010
  1.560000000000000E-002    1.120792890884355E-010
  1.570000000000000E-002    8.344545310542923E-011
  1.580000000000000E-002    4.560822308743184E-011
  1.590000000000000E-002   -6.831482078442762E-013
  1.600000000000000E-002   -5.412564557605923E-011
  1.610000000000000E-002   -1.128655993583299E-010
  1.620000000000000E-002   -1.745313037269820E-010
  1.630000000000000E-002   -2.362962927632877E-010
  1.640000000000000E-002   -2.949728375247216E-010
  1.650000000000000E-002   -3.471337240573399E-010
  1.660000000000000E-002   -3.892588167378973E-010
  1.670000000000000E-002   -4.179008471504621E-010
  1.680000000000000E-002   -4.298641977275789E-010
  1.690000000000000E-002   -4.223885205364639E-010
  1.700000000000000E-002   -3.933287709514636E-010
  1.710000000000000E-002   -3.413222969698850E-010
  1.720000000000000E-002   -2.659338927718643E-010
  1.730000000000000E-002   -1.677701822132244E-010
  1.740000000000000E-002   -4.855530254553992E-011
  1.750000000000000E-002    8.883842613629908E-011
  1.760000000000000E-002    2.404097526243629E-010
  1.770000000000000E-002    4.011001415682023E-010
  1.780000000000000E-002    5.649182451472725E-010
  1.790000000000000E-002    7.251149243602121E-010
  1.800000000000000E-002    8.744043155381937E-010
  1.810000000000000E-002    1.005224217558345E-009
  1.820000000000000E-002    1.110026070472259E-009
  1.830000000000000E-002    1.181584684112159E-009
  1.840000000000000E-002    1.213314581426750E-009
  1.850000000000000E-002    1.199580876602636E-009
  1.860000000000000E-002    1.135991297964801E-009
  1.870000000000000E-002    1.019657174049512E-009