 -4.000000000000000E-002    0.000000000000000E+000
 -3.990000000000000E-002    0.000000000000000E+000
 -3.980000000000000E-002    0.000000000000000E+000
 -3.970000000000000E-002    0.000000000000000E+000
 -3.960000000000000E-002    0.000000000000000E+000
 -3.950000000000000E-002    0.000000000000000E+000
 -3.940000000000000E-002    0.000000000000000E+000
 -3.930000000000000E-002    0.000000000000000E+000
 -3.920000000000000E-002    0.000000000000000E+000
 -3.910000000000000E-002    0.000000000000000E+000
 -3.900000000000000E-002    0.000000000000000E+000
 -3.890000000000000E-002    0.000000000000000E+000
 -3.880000000000000E-002    0.000000000000000E+000
 -3.870000000000000E-002    0.000000000000000E+000
 -3.860000000000000E-002    0.000000000000000E+000
 -3.850000000000000E-002    0.000000000000000E+000
 -3.840000000000000E-002    0.000000000000000E+000
 -3.830000000000000E-002    0.000000000000000E+000
 -3.820000000000000E-002    0.000000000000000E+000
 -3.810000000000000E-002    0.000000000000000E+000
 -3.800000000000000E-002    0.000000000000000E+000
 -3.790000000000000E-002    0.000000000000000E+000
 -3.780000000000000E-002    0.000000000000000E+000
 -3.770000000000000E-002    0.000000000000000E+000
 -3.760000000000000E-002    0.000000000000000E+000
 -3.750000000000000E-002    0.000000000000000E+000
 -3.740000000000000E-002    0.000000000000000E+000
 -3.730000000000000E-002    0.000000000000000E+000
 -3.720000000000000E-002    0.000000000000000E+000
 -3.710000000000000E-002    0.000000000000000E+000
 -3.700000000000000E-002    0.000000000000000E+000
 -3.690000000000000E-002    0.000000000000000E+000
 -3.680000000000000E-002    0.000000000000000E+000
 -3.670000000000000E-002    0.000000000000000E+000
 -3.660000000000000E-002    0.000000000000000E+000
 -3.650000000000000E-002    0.000000000000000E+000
 -3.640000000000000E-002    0.000000000000000E+000
 -3.630000000000000E-002    0.000000000000000E+000
 -3.620000000000000E-002    0.000000000000000E+000
 -3.610000000000000E-002    0.000000000000000E+000
 -3.600000000000000E-002    0.000000000000000E+000
 -3.590000000000000E-002    0.000000000000000E+000
 -3.580000000000000E-002    0.000000000000000E+000
 -3.570000000000000E-002    0.000000000000000E+000
 -3.560000000000000E-002    0.000000000000000E+000
 -3.550000000000000E-002    0.000000000000000E+000
 -3.540000000000000E-002    0.000000000000000E+000
 -3.530000000000000E-002    0.000000000000000E+000
 -3.520000000000000E-002    0.000000000000000E+000
 -3.510000000000000E-002    0.000000000000000E+000
 -3.500000000000000E-002    0.000000000000000E+000
 -3.490000000000000E-002    0.000000000000000E+000
 -3.480000000000000E-002    0.000000000000000E+000
 -3.470000000000000E-002    0.000000000000000E+000
 -3.460000000000000E-002    0.000000000000000E+000
 -3.450000000000000E-002    0.000000000000000E+000
 -3.440000000000000E-002    0.000000000000000E+000
 -3.430000000000000E-002    0.000000000000000E+000
 -3.420000000000000E-002    0.000000000000000E+000
 -3.410000000000000E-002    0.000000000000000E+000
 -3.400000000000000E-002    0.000000000000000E+000
 -3.390000000000000E-002    0.000000000000000E+000
 -3.380000000000000E-002    0.000000000000000E+000
 -3.370000000000000E-002    0.000000000000000E+000
 -3.360000000000000E-002    0.000000000000000E+000
 -3.350000000000000E-002    0.000000000000000E+000
 -3.340000000000000E-002    0.000000000000000E+000
 -3.330000000000000E-002    0.000000000000000E+000
 -3.320000000000000E-002    0.000000000000000E+000
 -3.310000000000000E-002    0.000000000000000E+000
 -3.300000000000000E-002    0.000000000000000E+000
 -3.290000000000000E-002    0.000000000000000E+000
 -3.280000000000000E-002    0.000000000000000E+000
 -3.270000000000000E-002    0.000000000000000E+000
 -3.260000000000000E-002    0.000000000000000E+000
 -3.250000000000000E-002    0.000000000000000E+000
 -3.240000000000000E-002    0.000000000000000E+000
 -3.230000000000000E-002    0.000000000000000E+000
 -3.220000000000000E-002    0.000000000000000E+000
 -3.210000000000000E-002    0.000000000000000E+000
 -3.200000000000000E-002    0.000000000000000E+000
 -3.190000000000000E-002    0.000000000000000E+000
 -3.180000000000000E-002    0.000000000000000E+000
 -3.170000000000000E-002    0.000000000000000E+000
 -3.160000000000000E-002    0.000000000000000E+000
 -3.150000000000000E-002    0.000000000000000E+000
 -3.140000000000000E-002    0.000000000000000E+000
 -3.130000000000000E-002    0.000000000000000E+000
 -3.120000000000000E-002    0.000000000000000E+000
 -3.110000000000000E-002    0.000000000000000E+000
 -3.100000000000000E-002    0.000000000000000E+000
 -3.090000000000000E-002    0.000000000000000E+000
 -3.080000000000000E-002    0.000000000000000E+000
 -3.070000000000000E-002    0.000000000000000E+000
 -3.060000000000000E-002    0.000000000000000E+000
 -3.050000000000000E-002    0.000000000000000E+000
 -3.040000000000000E-002    0.000000000000000E+000
 -3.030000000000000E-002    0.000000000000000E+000
 -3.020000000000000E-002    0.000000000000000E+000
 -3.010000000000000E-002    0.000000000000000E+000
 -3.000000000000000E-002    0.000000000000000E+000
 -2.990000000000000E-002    0.000000000000000E+000
 -2.980000000000000E-002    0.000000000000000E+000
 -2.970000000000000E-002    0.000000000000000E+000
 -2.960000000000000E-002    0.000000000000000E+000
 -2.950000000000000E-002    0.000000000000000E+000
 -2.940000000000000E-002    0.000000000000000E+000
 -2.930000000000000E-002    0.000000000000000E+000
 -2.920000000000000E-002    0.000000000000000E+000
 -2.910000000000000E-002    0.000000000000000E+000
 -2.900000000000000E-002    0.000000000000000E+000
 -2.890000000000000E-002    0.000000000000000E+000
 -2.880000000000000E-002    0.000000000000000E+000
 -2.870000000000000E-002    0.000000000000000E+000
 -2.860000000000000E-002    0.000000000000000E+000
 -2.850000000000000E-002    0.000000000000000E+000
 -2.840000000000000E-002    0.000000000000000E+000
 -2.830000000000000E-002    0.000000000000000E+000
 -2.820000000000000E-002    0.000000000000000E+000
 -2.810000000000000E-002    0.000000000000000E+000
 -2.800000000000000E-002    0.000000000000000E+000
 -2.790000000000000E-002    0.000000000000000E+000
 -2.780000000000000E-002    0.000000000000000E+000
 -2.770000000000000E-002    0.000000000000000E+000
 -2.760000000000000E-002    0.000000000000000E+000
 -2.750000000000000E-002    0.000000000000000E+000
 -2.740000000000000E-002    0.000000000000000E+000
 -2.730000000000000E-002    0.000000000000000E+000
 -2.720000000000000E-002    0.000000000000000E+000
 -2.710000000000000E-002    0.000000000000000E+000
 -2.700000000000000E-002    0.000000000000000E+000
 -2.690000000000000E-002    0.000000000000000E+000
 -2.680000000000000E-002    0.000000000000000E+000
 -2.670000000000000E-002    0.000000000000000E+000
 -2.660000000000000E-002    0.000000000000000E+000
 -2.650000000000000E-002    0.000000000000000E+000
 -2.640000000000000E-002    0.000000000000000E+000
 -2.630000000000000E-002    0.000000000000000E+000
 -2.620000000000000E-002    0.000000000000000E+000
 -2.610000000000000E-002    0.000000000000000E+000
 -2.600000000000000E-002    0.000000000000000E+000
 -2.590000000000000E-002    0.000000000000000E+000
 -2.580000000000000E-002    0.000000000000000E+000
 -2.570000000000000E-002    0.000000000000000E+000
 -2.560000000000000E-002    0.000000000000000E+000
 -2.550000000000000E-002    0.000000000000000E+000
 -2.540000000000000E-002    0.000000000000000E+000
 -2.530000000000000E-002    0.000000000000000E+000
 -2.520000000000000E-002    0.000000000000000E+000
 -2.510000000000000E-002    0.000000000000000E+000
 -2.500000000000000E-002    0.000000000000000E+000
 -2.490000000000000E-002    0.000000000000000E+000
 -2.480000000000000E-002    0.000000000000000E+000
 -2.470000000000000E-002    0.000000000000000E+000
 -2.460000000000000E-002    0.000000000000000E+000
 -2.450000000000000E-002    0.000000000000000E+000
 -2.440000000000000E-002    0.000000000000000E+000
 -2.430000000000000E-002    0.000000000000000E+000
 -2.420000000000000E-002    0.000000000000000E+000
 -2.410000000000000E-002    0.000000000000000E+000
 -2.400000000000000E-002    0.000000000000000E+000
 -2.390000000000000E-002    0.000000000000000E+000
 -2.380000000000000E-002    0.000000000000000E+000
 -2.370000000000000E-002    0.000000000000000E+000
 -2.360000000000000E-002    0.000000000000000E+000
 -2.350000000000000E-002    0.000000000000000E+000
 -2.340000000000000E-002    0.000000000000000E+000
 -2.330000000000000E-002    0.000000000000000E+000
 -2.320000000000000E-002    0.000000000000000E+000
 -2.310000000000000E-002    0.000000000000000E+000
 -2.300000000000000E-002    0.000000000000000E+000
 -2.290000000000000E-002    0.000000000000000E+000
 -2.280000000000000E-002    0.000000000000000E+000
 -2.270000000000000E-002    0.000000000000000E+000
 -2.260000000000000E-002    0.000000000000000E+000
 -2.250000000000000E-002    0.000000000000000E+000
 -2.240000000000000E-002    0.000000000000000E+000
 -2.230000000000000E-002    0.000000000000000E+000
 -2.220000000000000E-002    0.000000000000000E+000
 -2.210000000000000E-002    0.000000000000000E+000
 -2.200000000000000E-002    0.000000000000000E+000
 -2.190000000000000E-002    0.000000000000000E+000
 -2.180000000000000E-002    0.000000000000000E+000
 -2.170000000000000E-002    0.000000000000000E+000
 -2.160000000000000E-002    0.000000000000000E+000
 -2.150000000000000E-002    0.000000000000000E+000
 -2.140000000000000E-002    0.000000000000000E+000
 -2.130000000000000E-002    0.000000000000000E+000
 -2.120000000000000E-002    0.000000000000000E+000
 -2.110000000000000E-002    0.000000000000000E+000
 -2.100000000000000E-002    0.000000000000000E+000
 -2.090000000000000E-002    0.000000000000000E+000
 -2.080000000000000E-002    0.000000000000000E+000
 -2.070000000000000E-002    0.000000000000000E+000
 -2.060000000000000E-002    0.000000000000000E+000
 -2.050000000000000E-002    0.000000000000000E+000
 -2.040000000000000E-002    0.000000000000000E+000
 -2.030000000000000E-002    0.000000000000000E+000
 -2.020000000000000E-002    0.000000000000000E+000
 -2.010000000000000E-002    0.000000000000000E+000
 -2.000000000000000E-002    0.000000000000000E+000
 -1.990000000000000E-002    0.000000000000000E+000
 -1.980000000000000E-002    0.000000000000000E+000
 -1.970000000000000E-002    0.000000000000000E+000
 -1.960000000000000E-002    0.000000000000000E+000
 -1.950000000000000E-002    0.000000000000000E+000
 -1.940000000000000E-002    0.000000000000000E+000
 -1.930000000000000E-002    0.000000000000000E+000
 -1.920000000000000E-002    0.000000000000000E+000
 -1.910000000000000E-002    0.000000000000000E+000
 -1.900000000000000E-002    0.000000000000000E+000
 -1.890000000000000E-002    0.000000000000000E+000
 -1.880000000000000E-002    0.000000000000000E+000
 -1.870000000000000E-002    0.000000000000000E+000
 -1.860000000000000E-002    0.000000000000000E+000
 -1.850000000000000E-002    0.000000000000000E+000
 -1.840000000000000E-002    0.000000000000000E+000
 -1.830000000000000E-002    0.000000000000000E+000
 -1.820000000000000E-002    0.000000000000000E+000
 -1.810000000000000E-002    0.000000000000000E+000
 -1.800000000000000E-002    0.000000000000000E+000
 -1.790000000000000E-002    0.000000000000000E+000
 -1.780000000000000E-002    0.000000000000000E+000
 -1.770000000000000E-002    0.000000000000000E+000
 -1.760000000000000E-002    0.000000000000000E+000
 -1.750000000000000E-002    0.000000000000000E+000
 -1.740000000000000E-002    0.000000000000000E+000
 -1.730000000000000E-002    0.000000000000000E+000
 -1.720000000000000E-002    0.000000000000000E+000
 -1.710000000000000E-002    0.000000000000000E+000
 -1.700000000000000E-002    0.000000000000000E+000
 -1.690000000000000E-002    0.000000000000000E+000
 -1.680000000000000E-002    0.000000000000000E+000
 -1.670000000000000E-002    0.000000000000000E+000
 -1.660000000000000E-002    0.000000000000000E+000
 -1.650000000000000E-002    0.000000000000000E+000
 -1.640000000000000E-002    0.000000000000000E+000
 -1.630000000000000E-002    0.000000000000000E+000
 -1.620000000000000E-002    0.000000000000000E+000
 -1.610000000000000E-002    0.000000000000000E+000
 -1.600000000000000E-002    0.000000000000000E+000
 -1.590000000000000E-002    0.000000000000000E+000
 -1.580000000000000E-002    0.000000000000000E+000
 -1.570000000000000E-002    0.000000000000000E+000
 -1.560000000000000E-002    0.000000000000000E+000
 -1.550000000000000E-002    0.000000000000000E+000
 -1.540000000000000E-002    0.000000000000000E+000
 -1.530000000000000E-002    0.000000000000000E+000
 -1.520000000000000E-002    0.000000000000000E+000
 -1.510000000000000E-002    0.000000000000000E+000
 -1.500000000000000E-002    0.000000000000000E+000
 -1.490000000000000E-002    0.000000000000000E+000
 -1.480000000000000E-002    0.000000000000000E+000
 -1.470000000000000E-002    0.000000000000000E+000
 -1.460000000000000E-002    0.000000000000000E+000
 -1.450000000000000E-002    0.000000000000000E+000
 -1.440000000000000E-002    0.000000000000000E+000
 -1.430000000000000E-002    0.000000000000000E+000
 -1.420000000000000E-002    0.000000000000000E+000
 -1.410000000000000E-002    0.000000000000000E+000
 -1.400000000000000E-002    0.000000000000000E+000
 -1.390000000000000E-002    0.000000000000000E+000
 -1.380000000000000E-002    0.000000000000000E+000
 -1.370000000000000E-002    0.000000000000000E+000
 -1.360000000000000E-002    0.000000000000000E+000
 -1.350000000000000E-002    0.000000000000000E+000
 -1.340000000000000E-002    0.000000000000000E+000
 -1.330000000000000E-002    0.000000000000000E+000
 -1.320000000000000E-002    0.000000000000000E+000
 -1.310000000000000E-002    0.000000000000000E+000
 -1.300000000000000E-002    0.000000000000000E+000
 -1.290000000000000E-002    0.000000000000000E+000
 -1.280000000000000E-002    0.000000000000000E+000
 -1.270000000000000E-002    0.000000000000000E+000
 -1.260000000000000E-002    0.000000000000000E+000
 -1.250000000000000E-002    0.000000000000000E+000
 -1.240000000000000E-002    0.000000000000000E+000
 -1.230000000000000E-002    0.000000000000000E+000
 -1.220000000000000E-002    0.000000000000000E+000
 -1.210000000000000E-002    0.000000000000000E+000
 -1.200000000000000E-002    0.000000000000000E+000
 -1.190000000000000E-002    0.000000000000000E+000
 -1.180000000000000E-002    0.000000000000000E+000
 -1.170000000000000E-002    0.000000000000000E+000
 -1.160000000000000E-002    0.000000000000000E+000
 -1.150000000000000E-002    0.000000000000000E+000
 -1.140000000000000E-002    0.000000000000000E+000
 -1.130000000000000E-002    0.000000000000000E+000
 -1.120000000000000E-002    0.000000000000000E+000
 -1.110000000000000E-002    0.000000000000000E+000
 -1.100000000000000E-002    0.000000000000000E+000
 -1.090000000000000E-002    0.000000000000000E+000
 -1.080000000000000E-002    0.000000000000000E+000
 -1.070000000000000E-002    0.000000000000000E+000
 -1.060000000000000E-002    0.000000000000000E+000
 -1.050000000000000E-002    0.000000000000000E+000
 -1.040000000000000E-002    0.000000000000000E+000
 -1.030000000000000E-002    0.000000000000000E+000
 -1.020000000000000E-002    0.000000000000000E+000
 -1.010000000000000E-002    0.000000000000000E+000
 -1.000000000000000E-002    0.000000000000000E+000
 -9.899999999999999E-003    0.000000000000000E+000
 -9.800000000000000E-003    0.000000000000000E+000
 -9.699999999999999E-003    0.000000000000000E+000
 -9.599999999999999E-003    0.000000000000000E+000
 -9.500000000000000E-003    0.000000000000000E+000
 -9.399999999999999E-003    0.000000000000000E+000
 -9.299999999999999E-003    0.000000000000000E+000
 -9.200000000000000E-003    0.000000000000000E+000
 -9.099999999999999E-003    0.000000000000000E+000
 -8.999999999999999E-003    0.000000000000000E+000
 -8.900000000000000E-003    0.000000000000000E+000
 -8.799999999999999E-003    0.000000000000000E+000
 -8.699999999999999E-003    0.000000000000000E+000
 -8.600000000000000E-003    0.000000000000000E+000
 -8.499999999999999E-003    0.000000000000000E+000
 -8.399999999999999E-003    0.000000000000000E+000
 -8.300000000000000E-003    0.000000000000000E+000
 -8.199999999999999E-003    0.000000000000000E+000
 -8.100000000000000E-003    0.000000000000000E+000
 -8.000000000000000E-003    0.000000000000000E+000
 -7.899999999999999E-003    0.000000000000000E+000
 -7.800000000000000E-003    0.000000000000000E+000
 -7.699999999999999E-003    0.000000000000000E+000
 -7.599999999999999E-003    0.000000000000000E+000
 -7.499999999999999E-003    0.000000000000000E+000
 -7.399999999999999E-003    0.000000000000000E+000
 -7.299999999999999E-003    0.000000000000000E+000
 -7.199999999999999E-003    0.000000000000000E+000
 -7.100000000000000E-003    0.000000000000000E+000
 -6.999999999999999E-003    0.000000000000000E+000
 -6.899999999999999E-003    0.000000000000000E+000
 -6.800000000000000E-003    0.000000000000000E+000
 -6.699999999999999E-003    0.000000000000000E+000
 -6.599999999999999E-003    0.000000000000000E+000
 -6.499999999999999E-003    0.000000000000000E+000
 -6.399999999999999E-003    0.000000000000000E+000
 -6.299999999999999E-003    0.000000000000000E+000
 -6.199999999999999E-003    0.000000000000000E+000
 -6.100000000000000E-003    0.000000000000000E+000
 -5.999999999999999E-003    0.000000000000000E+000
 -5.899999999999999E-003    0.000000000000000E+000
 -5.800000000000000E-003    0.000000000000000E+000
 -5.699999999999999E-003    0.000000000000000E+000
 -5.599999999999999E-003    0.000000000000000E+000
 -5.499999999999999E-003    0.000000000000000E+000
 -5.399999999999999E-003    0.000000000000000E+000
 -5.299999999999999E-003    0.000000000000000E+000
 -5.199999999999999E-003    0.000000000000000E+000
 -5.099999999999999E-003    0.000000000000000E+000
 -4.999999999999999E-003    0.000000000000000E+000
 -4.899999999999999E-003    0.000000000000000E+000
 -4.799999999999999E-003    0.000000000000000E+000
 -4.699999999999999E-003    0.000000000000000E+000
 -4.599999999999999E-003    0.000000000000000E+000
 -4.499999999999999E-003    0.000000000000000E+000
 -4.399999999999999E-003    0.000000000000000E+000
 -4.299999999999999E-003    0.000000000000000E+000
 -4.199999999999999E-003    0.000000000000000E+000
 -4.099999999999999E-003    0.000000000000000E+000
 -3.999999999999999E-003    0.000000000000000E+000
 -3.899999999999999E-003    0.000000000000000E+000
 -3.799999999999999E-003    0.000000000000000E+000
 -3.699999999999999E-003    0.000000000000000E+000
 -3.599999999999999E-003    0.000000000000000E+000
 -3.499999999999999E-003    0.000000000000000E+000
 -3.399999999999999E-003    0.000000000000000E+000
 -3.299999999999999E-003    0.000000000000000E+000
 -3.199999999999999E-003    0.000000000000000E+000
 -3.099999999999999E-003    0.000000000000000E+000
 -2.999999999999999E-003    0.000000000000000E+000
 -2.899999999999999E-003    0.000000000000000E+000
 -2.799999999999999E-003    0.000000000000000E+000
 -2.699999999999999E-003    0.000000000000000E+000
 -2.599999999999999E-003    0.000000000000000E+000
 -2.499999999999999E-003    0.000000000000000E+000
 -2.399999999999999E-003    0.000000000000000E+000
 -2.299999999999999E-003    0.000000000000000E+000
 -2.199999999999999E-003    0.000000000000000E+000
 -2.099999999999999E-003    0.000000000000000E+000
 -1.999999999999999E-003    0.000000000000000E+000
 -1.899999999999999E-003    0.000000000000000E+000
 -1.799999999999999E-003    0.000000000000000E+000
 -1.699999999999999E-003    0.000000000000000E+000
 -1.599999999999999E-003    0.000000000000000E+000
 -1.499999999999999E-003    0.000000000000000E+000
 -1.399999999999999E-003    0.000000000000000E+000
 -1.299999999999999E-003    0.000000000000000E+000
 -1.199999999999999E-003    0.000000000000000E+000
 -1.099999999999999E-003    0.000000000000000E+000
 -9.999999999999989E-004    0.000000000000000E+000
 -8.999999999999990E-004    0.000000000000000E+000
 -7.999999999999990E-004    0.000000000000000E+000
 -6.999999999999989E-004    0.000000000000000E+000
 -5.999999999999990E-004    0.000000000000000E+000
 -4.999999999999989E-004    0.000000000000000E+000
 -3.999999999999989E-004    0.000000000000000E+000
 -2.999999999999989E-004    0.000000000000000E+000
 -1.999999999999989E-004    0.000000000000000E+000
 -9.999999999999892E-005    0.000000000000000E+000
  1.084202172485504E-018    0.000000000000000E+000
  1.000000000000011E-004    0.000000000000000E+000
  2.000000000000011E-004    0.000000000000000E+000
  3.000000000000011E-004    0.000000000000000E+000
  4.000000000000011E-004    0.000000000000000E+000
  5.000000000000011E-004    0.000000000000000E+000
  6.000000000000011E-004    5.729748743698578E-047
  7.000000000000011E-004    1.145949748739716E-046
  8.000000000000011E-004    1.718924623109574E-046
  9.000000000000012E-004    2.291899497479431E-046
  1.000000000000001E-003    2.864874371849289E-046
  1.100000000000001E-003    2.864874371849289E-046
  1.200000000000001E-003   -2.084015199284348E-048
  1.300000000000001E-003   -2.371778098581810E-046
  1.400000000000001E-003   -5.868665793910492E-046
  1.500000000000001E-003   -1.161925468960191E-045
  1.600000000000001E-003   -1.563007881019092E-045
  1.700000000000001E-003   -1.900888960730053E-045
  1.800000000000001E-003   -1.597325104526499E-045
  1.900000000000001E-003   -2.055698802373019E-045
  2.000000000000001E-003   -2.164383730686671E-045
  2.100000000000001E-003   -1.472639649394906E-045
  2.200000000000001E-003   -3.225156686072556E-046
  2.300000000000001E-003    1.333562024490645E-045
  2.400000000000001E-003    4.019252475292538E-045
  2.500000000000001E-003    7.274091769103253E-045
  2.600000000000001E-003    9.885395910150803E-045
  2.700000000000001E-003    1.192163495997984E-044
  2.800000000000001E-003    1.217602876772934E-044
  2.900000000000001E-003    9.383870781036407E-045
  3.000000000000001E-003    3.852544685816263E-045
  3.100000000000001E-003   -4.987098360939913E-045
  3.200000000000001E-003   -1.666549968397920E-044
  3.300000000000001E-003   -2.996996908588024E-044
  3.400000000000001E-003   -4.329755833058354E-044
  3.500000000000001E-003   -5.395348840837884E-044
  3.600000000000001E-003   -5.886036193034106E-044
  3.700000000000001E-003   -5.597602359843147E-044
  3.800000000000001E-003   -4.049473324596825E-044
  3.900000000000001E-003   -1.181940663772875E-044
  4.000000000000001E-003    2.977687115893110E-044
  4.100000000000001E-003    8.198503813525622E-044
  4.200000000000001E-003    1.392814140570992E-043
  4.300000000000001E-003    1.934128804580573E-043
  4.400000000000001E-003    2.340988139784710E-043
  4.500000000000001E-003    2.475002067136145E-043
  4.600000000000002E-003    2.233985199425518E-043
  4.700000000000001E-003    1.513345965137106E-043
  4.800000000000001E-003    2.840278212842717E-044
  4.900000000000002E-003   -1.437000650191593E-043
  5.000000000000001E-003   -3.537916298573083E-043
  5.100000000000001E-003   -5.795519011782393E-043
  5.200000000000001E-003   -7.879470895880881E-043
  5.300000000000002E-003   -9.389974302038964E-043
  5.400000000000001E-003   -9.900139836535889E-043
  5.500000000000001E-003   -8.993440447841486E-043
  5.600000000000002E-003   -6.341335068857107E-043
  5.700000000000001E-003   -1.791973069212554E-043
  5.800000000000001E-003    4.541138469863266E-043
  5.900000000000002E-003    1.226290366518240E-042
  6.000000000000001E-003    2.061827627712826E-042
  6.100000000000001E-003    2.852854165901028E-042
  6.200000000000002E-003    3.468515143087889E-042
  6.300000000000002E-003    3.763567697506753E-042
  6.400000000000001E-003    3.595391379886685E-042
  6.500000000000001E-003    2.848481760502567E-042
  6.600000000000002E-003    1.457509398696168E-042
  6.700000000000001E-003   -5.712693227266060E-043
  6.800000000000001E-003   -3.141036405924034E-042
  6.900000000000002E-003   -6.053558645004795E-042
  7.000000000000001E-003   -9.005211063107230E-042
  7.100000000000001E-003   -1.160703466263765E-041
  7.200000000000002E-003   -1.340830491406578E-041
  7.300000000000002E-003   -1.393862293686721E-041
  7.400000000000001E-003   -1.276522655477009E-041
  7.500000000000001E-003   -9.551844885944114E-042
  7.600000000000002E-003   -4.130977325712173E-042
  7.700000000000001E-003    3.437532526169361E-042
  7.800000000000001E-003    1.281589436632935E-041
  7.900000000000001E-003    2.335377094735964E-041
  8.000000000000002E-003    3.408123942568174E-041
  8.100000000000001E-003    4.373602196124203E-041
  8.200000000000001E-003    5.083185068930985E-041
  8.300000000000002E-003    5.375741503447903E-041
  8.400000000000001E-003    5.092070519150505E-041
  8.500000000000002E-003    4.093339890954347E-041
  8.600000000000002E-003    2.282104078843291E-041
  8.700000000000001E-003   -3.746944301363228E-042
  8.800000000000002E-003   -3.822268771831297E-041
  8.900000000000002E-003   -7.896882280102543E-041
  9.000000000000001E-003   -1.230935069894942E-040
  9.100000000000002E-003   -1.663719058013653E-040
  9.200000000000002E-003   -2.032900747826394E-040
  9.300000000000001E-003   -2.272588739537572E-040
  9.400000000000002E-003   -2.310190085772251E-040
  9.500000000000001E-003   -2.072960005491335E-040
  9.600000000000001E-003   -1.496787916981858E-040
  9.700000000000002E-003   -5.373091210038432E-041
  9.800000000000001E-003    8.173734905111994E-041
  9.900000000000001E-003    2.533397892344691E-040
  1.000000000000000E-002    4.518814020469651E-040
  1.010000000000000E-002    6.614197681522492E-040
  1.020000000000000E-002    8.588852115129998E-040
  1.030000000000000E-002    1.014499296358861E-039
  1.040000000000000E-002    1.093261459075879E-039
  1.050000000000000E-002    1.057698195449114E-039
  1.060000000000000E-002    8.719656473622564E-040
  1.070000000000000E-002    5.072553253987840E-040
  1.080000000000000E-002   -5.177375595684519E-041
  1.090000000000000E-002   -8.000330902353819E-040
  1.100000000000000E-002   -1.705300397752330E-039
  1.110000000000000E-002   -2.702790540369053E-039
  1.120000000000000E-002   -3.692227697547887E-039
  1.130000000000000E-002   -4.538731575766357E-039
  1.140000000000000E-002   -5.078783423061333E-039
  1.150000000000000E-002   -5.132283238729455E-039
  1.160000000000000E-002   -4.521207166487039E-039
  1.170000000000000E-002   -3.094663985192704E-039
  1.180000000000000E-002   -7.591413225909499E-040
  1.190000000000000E-002    2.488401681179742E-039
  1.200000000000000E-002    6.528179177938579E-039
  1.210000000000000E-002    1.109075316556820E-038
  1.220000000000000E-002    1.574143652200675E-038
  1.230000000000000E-002    1.988208637480982E-038
  1.240000000000000E-002    2.277620515943378E-038
  1.250000000000000E-002    2.360206629204197E-038
  1.260000000000000E-002    2.153629238175993E-038
  1.270000000000000E-002    1.586685926585064E-038
  1.280000000000000E-002    6.129956037481492E-039
  1.290000000000000E-002   -7.740233863372518E-039
  1.300000000000000E-002   -2.526544306059226E-038
  1.310000000000000E-002   -4.530282319420313E-038
  1.320000000000000E-002   -6.597597032755707E-038
  1.330000000000000E-002   -8.468499200860068E-038
  1.340000000000000E-002   -9.822138161438644E-038
  1.350000000000000E-002   -1.030073252526278E-037
  1.360000000000000E-002   -9.546791650087852E-038
  1.370000000000000E-002   -7.252867038789926E-038
  1.380000000000000E-002   -3.220990510983300E-038
  1.390000000000000E-002    2.573357431023884E-038
  1.400000000000000E-002    9.920332357967562E-038
  1.410000000000000E-002    1.832751174509829E-037
  1.420000000000000E-002    2.699543309218523E-037
  1.430000000000000E-002    3.482817069195346E-037
  1.440000000000000E-002    4.048891766545262E-037
  1.450000000000000E-002    4.250736020045544E-037
  1.460000000000000E-002    3.944042733749283E-037
  1.470000000000000E-002    3.008083966171188E-037
  1.480000000000000E-002    1.369934909976623E-037
  1.490000000000000E-002   -9.702807321246550E-038
  1.500000000000000E-002   -3.916351708288529E-037
  1.510000000000000E-002   -7.259080338013651E-037
  1.520000000000000E-002   -1.066981464937541E-036
  1.530000000000000E-002   -1.370855042557528E-036
  1.540000000000000E-002   -1.584997306001886E-036
  1.550000000000000E-002   -1.652929940087269E-036
  1.560000000000000E-002   -1.520756917592013E-036
  1.570000000000000E-002   -1.145320136277868E-036
  1.580000000000000E-002   -5.033397543313964E-037
  1.590000000000000E-002    3.994330092176930E-037
  1.600000000000000E-002    1.520311008080675E-036
  1.610000000000000E-002    2.774475607921455E-036
  1.620000000000000E-002    4.034002205282498E-036
  1.630000000000000E-002    5.132477913464007E-036
  1.640000000000000E-002    5.876206795991034E-036
  1.650000000000000E-002    6.062377933494274E-036
  1.660000000000000E-002    5.503723561226514E-036
  1.670000000000000E-002    4.058168297484870E-036
  1.680000000000000E-002    1.660864704173326E-036
  1.690000000000000E-002   -1.645054230654548E-036
  1.700000000000000E-002   -5.683524621088961E-036
  1.710000000000000E-002   -1.013140729115750E-035
  1.720000000000000E-002   -1.452007196635870E-035
  1.730000000000000E-002   -1.825687080276824E-035
  1.740000000000000E-002   -2.066912885475352E-035
  1.750000000000000E-002   -2.107096057144522E-035
  1.760000000000000E-002   -1.885024861813687E-035
  1.770000000000000E-002   -1.356968403777958E-035
  1.780000000000000E-002   -5.072239810566196E-036
  1.790000000000000E-002    6.421730586605412E-036
  1.800000000000000E-002    2.024090585733822E-035
  1.810000000000000E-002    3.522895454989525E-035
  1.820000000000000E-002    4.976511127950704E-035
  1.830000000000000E-002    6.185115210372996E-035
  1.840000000000000E-002    6.927092651442234E-035
  1.850000000000000E-002    6.982058953477324E-035
  1.860000000000000E-002    6.159791900430048E-035
  1.870000000000000E-002    4.332827801032377E-035