 -4.000000000000000E-002    0.000000000000000E+000
 -3.990000000000000E-002    0.000000000000000E+000
 -3.980000000000000E-002    0.000000000000000E+000
 -3.970000000000000E-002    0.000000000000000E+000
 -3.960000000000000E-002    0.000000000000000E+000
 -3.950000000000000E-002    0.000000000000000E+000
 -3.940000000000000E-002    0.000000000000000E+000
 -3.930000000000000E-002    0.000000000000000E+000
 -3.920000000000000E-002    0.000000000000000E+000
 -3.910000000000000E-002    0.000000000000000E+000
 -3.900000000000000E-002    0.000000000000000E+000
 -3.890000000000000E-002    0.000000000000000E+000
 -3.880000000000000E-002    0.000000000000000E+000
 -3.870000000000000E-002    0.000000000000000E+000
 -3.860000000000000E-002    0.000000000000000E+000
 -3.850000000000000E-002    0.000000000000000E+000
 -3.840000000000000E-002    0.000000000000000E+000
 -3.830000000000000E-002    0.000000000000000E+000
 -3.820000000000000E-002    0.000000000000000E+000
 -3.810000000000000E-002    0.000000000000000E+000
 -3.800000000000000E-002    0.000000000000000E+000
 -3.790000000000000E-002    0.000000000000000E+000
 -3.780000000000000E-002    0.000000000000000E+000
 -3.770000000000000E-002    0.000000000000000E+000
 -3.760000000000000E-002    0.000000000000000E+000
 -3.750000000000000E-002    0.000000000000000E+000
 -3.740000000000000E-002    0.000000000000000E+000
 -3.730000000000000E-002    0.000000000000000E+000
 -3.720000000000000E-002    0.000000000000000E+000
 -3.710000000000000E-002    0.000000000000000E+000
 -3.700000000000000E-002    0.000000000000000E+000
 -3.690000000000000E-002    0.000000000000000E+000
 -3.680000000000000E-002    0.000000000000000E+000
 -3.670000000000000E-002    0.000000000000000E+000
 -3.660000000000000E-002    0.000000000000000E+000
 -3.650000000000000E-002    0.000000000000000E+000
 -3.640000000000000E-002    0.000000000000000E+000
 -3.630000000000000E-002    0.000000000000000E+000
 -3.620000000000000E-002    0.000000000000000E+000
 -3.610000000000000E-002    0.000000000000000E+000
 -3.600000000000000E-002    0.000000000000000E+000
 -3.590000000000000E-002    0.000000000000000E+000
 -3.580000000000000E-002    0.000000000000000E+000
 -3.570000000000000E-002    0.000000000000000E+000
 -3.560000000000000E-002    0.000000000000000E+000
 -3.550000000000000E-002    0.000000000000000E+000
 -3.540000000000000E-002    0.000000000000000E+000
 -3.530000000000000E-002    0.000000000000000E+000
 -3.520000000000000E-002    0.000000000000000E+000
 -3.510000000000000E-002    0.000000000000000E+000
 -3.500000000000000E-002    0.000000000000000E+000
 -3.490000000000000E-002    0.000000000000000E+000
 -3.480000000000000E-002    0.000000000000000E+000
 -3.470000000000000E-002    0.000000000000000E+000
 -3.460000000000000E-002    0.000000000000000E+000
 -3.450000000000000E-002    0.000000000000000E+000
 -3.440000000000000E-002    0.000000000000000E+000
 -3.430000000000000E-002    0.000000000000000E+000
 -3.420000000000000E-002    0.000000000000000E+000
 -3.410000000000000E-002    0.000000000000000E+000
 -3.400000000000000E-002    0.000000000000000E+000
 -3.390000000000000E-002    0.000000000000000E+000
 -3.380000000000000E-002    0.000000000000000E+000
 -3.370000000000000E-002    0.000000000000000E+000
 -3.360000000000000E-002    0.000000000000000E+000
 -3.350000000000000E-002    0.000000000000000E+000
 -3.340000000000000E-002    0.000000000000000E+000
 -3.330000000000000E-002    0.000000000000000E+000
 -3.320000000000000E-002    0.000000000000000E+000
 -3.310000000000000E-002    0.000000000000000E+000
 -3.300000000000000E-002    0.000000000000000E+000
 -3.290000000000000E-002    0.000000000000000E+000
 -3.280000000000000E-002    0.000000000000000E+000
 -3.270000000000000E-002    0.000000000000000E+000
 -3.260000000000000E-002    0.000000000000000E+000
 -3.250000000000000E-002    0.000000000000000E+000
 -3.240000000000000E-002    0.000000000000000E+000
 -3.230000000000000E-002    0.000000000000000E+000
 -3.220000000000000E-002    0.000000000000000E+000
 -3.210000000000000E-002    0.000000000000000E+000
 -3.200000000000000E-002    0.000000000000000E+000
 -3.190000000000000E-002    0.000000000000000E+000
 -3.180000000000000E-002    0.000000000000000E+000
 -3.170000000000000E-002    0.000000000000000E+000
 -3.160000000000000E-002    0.000000000000000E+000
 -3.150000000000000E-002    0.000000000000000E+000
 -3.140000000000000E-002    0.000000000000000E+000
 -3.130000000000000E-002    0.000000000000000E+000
 -3.120000000000000E-002    0.000000000000000E+000
 -3.110000000000000E-002    0.000000000000000E+000
 -3.100000000000000E-002    0.000000000000000E+000
 -3.090000000000000E-002    0.000000000000000E+000
 -3.080000000000000E-002    0.000000000000000E+000
 -3.070000000000000E-002    0.000000000000000E+000
 -3.060000000000000E-002    0.000000000000000E+000
 -3.050000000000000E-002    0.000000000000000E+000
 -3.040000000000000E-002    0.000000000000000E+000
 -3.030000000000000E-002    0.000000000000000E+000
 -3.020000000000000E-002    0.000000000000000E+000
 -3.010000000000000E-002    0.000000000000000E+000
 -3.000000000000000E-002    0.000000000000000E+000
 -2.990000000000000E-002    0.000000000000000E+000
 -2.980000000000000E-002    0.000000000000000E+000
 -2.970000000000000E-002    0.000000000000000E+000
 -2.960000000000000E-002    0.000000000000000E+000
 -2.950000000000000E-002    0.000000000000000E+000
 -2.940000000000000E-002    0.000000000000000E+000
 -2.930000000000000E-002    0.000000000000000E+000
 -2.920000000000000E-002    0.000000000000000E+000
 -2.910000000000000E-002    0.000000000000000E+000
 -2.900000000000000E-002    0.000000000000000E+000
 -2.890000000000000E-002    0.000000000000000E+000
 -2.880000000000000E-002    0.000000000000000E+000
 -2.870000000000000E-002    0.000000000000000E+000
 -2.860000000000000E-002    0.000000000000000E+000
 -2.850000000000000E-002    0.000000000000000E+000
 -2.840000000000000E-002    0.000000000000000E+000
 -2.830000000000000E-002    0.000000000000000E+000
 -2.820000000000000E-002    0.000000000000000E+000
 -2.810000000000000E-002    0.000000000000000E+000
 -2.800000000000000E-002    0.000000000000000E+000
 -2.790000000000000E-002    0.000000000000000E+000
 -2.780000000000000E-002    4.574688429245891E-048
 -2.770000000000000E-002    9.149376858491783E-048
 -2.760000000000000E-002    1.247409015771570E-046
 -2.750000000000000E-002    2.167333445598561E-046
 -2.740000000000000E-002    2.902606439776917E-046
 -2.730000000000000E-002    4.101218781192741E-046
 -2.720000000000000E-002    4.975557239695495E-046
 -2.710000000000000E-002    5.111572913956605E-046
 -2.700000000000000E-002    4.013477354004882E-046
 -2.690000000000000E-002   -2.548435987578416E-046
 -2.680000000000000E-002   -1.205886356619931E-045
 -2.670000000000000E-002   -2.650453308467359E-045
 -2.660000000000000E-002   -4.453401469126527E-045
 -2.650000000000000E-002   -6.655146599610378E-045
 -2.640000000000000E-002   -8.997775336876456E-045
 -2.630000000000000E-002   -1.131675737719040E-044
 -2.620000000000000E-002   -1.273409265460752E-044
 -2.610000000000000E-002   -1.341030622246421E-044
 -2.600000000000000E-002   -1.122766864884886E-044
 -2.590000000000000E-002   -5.271170320956731E-045
 -2.580000000000000E-002    6.634752555698711E-045
 -2.570000000000000E-002    2.521356715712761E-044
 -2.560000000000000E-002    5.204472765424931E-044
 -2.550000000000000E-002    8.771662904960757E-044
 -2.540000000000000E-002    1.305513111154791E-043
 -2.530000000000000E-002    1.770169820762259E-043
 -2.520000000000000E-002    2.199416525560044E-043
 -2.510000000000000E-002    2.488670549085678E-043
 -2.500000000000000E-002    2.464127288537416E-043
 -2.490000000000000E-002    1.927916016154937E-043
 -2.480000000000000E-002    6.263684772785725E-044
 -2.470000000000000E-002   -1.668126161180954E-043
 -2.460000000000000E-002   -5.190026609901365E-043
 -2.450000000000000E-002   -1.003400470629640E-042
 -2.440000000000000E-002   -1.615610519150551E-042
 -2.430000000000000E-002   -2.320164820577017E-042
 -2.420000000000000E-002   -3.045221231819523E-042
 -2.410000000000000E-002   -3.672125600129427E-042
 -2.400000000000000E-002   -4.027875881633291E-042
 -2.390000000000000E-002   -3.886384696386479E-042
 -2.380000000000000E-002   -2.975686268378957E-042
 -2.370000000000000E-002   -9.979775602789495E-043
 -2.360000000000000E-002    2.331325201066142E-042
 -2.350000000000000E-002    7.231086617126656E-042
 -2.340000000000000E-002    1.378120169639944E-041
 -2.330000000000000E-002    2.183957001135917E-041
 -2.320000000000000E-002    3.094057406962398E-041
 -2.310000000000000E-002    4.020862523226973E-041
 -2.300000000000000E-002    4.828020726422612E-041
 -2.290000000000000E-002    5.326729831271016E-041
 -2.280000000000000E-002    5.278698316670718E-041
 -2.270000000000000E-002    4.406521789983587E-041
 -2.260000000000000E-002    2.415009327852504E-041
 -2.250000000000000E-002   -9.756109694914228E-042
 -2.240000000000000E-002   -5.985989515737923E-041
 -2.230000000000000E-002   -1.272258663381917E-040
 -2.220000000000000E-002   -2.111633219344185E-040
 -2.210000000000000E-002   -3.085827328530048E-040
 -2.200000000000000E-002   -4.133797931852702E-040
 -2.190000000000000E-002   -5.159084829738712E-040
 -2.180000000000000E-002   -6.025803939088513E-040
 -2.170000000000000E-002   -6.556249707852428E-040
 -2.160000000000000E-002   -6.530341539873123E-040
 -2.150000000000000E-002   -5.686933877597387E-040
 -2.140000000000000E-002   -3.727586271958707E-040
 -2.130000000000000E-002   -3.241257695602953E-041
 -2.120000000000000E-002    4.867104324513530E-040
 -2.110000000000000E-002    1.217889199284106E-039
 -2.100000000000000E-002    2.188664033322306E-039
 -2.090000000000000E-002    3.413073281716171E-039
 -2.080000000000000E-002    4.879548134679302E-039
 -2.070000000000000E-002    6.533377834619361E-039
 -2.060000000000000E-002    8.253317624634779E-039
 -2.050000000000000E-002    9.823256994262114E-039
 -2.040000000000000E-002    1.090208247975197E-038
 -2.030000000000000E-002    1.099795241445962E-038
 -2.020000000000000E-002    9.456905725123041E-039
 -2.010000000000000E-002    5.479499675052713E-039
 -2.000000000000000E-002   -1.817938085434907E-039
 -1.990000000000000E-002   -1.328029438381548E-038
 -1.980000000000000E-002   -2.951509965850734E-038
 -1.970000000000000E-002   -5.061353003095775E-038
 -1.960000000000000E-002   -7.580203415839580E-038
 -1.950000000000000E-002   -1.030586309404466E-037
 -1.940000000000000E-002   -1.287568843455669E-037
 -1.930000000000000E-002   -1.474318455782833E-037
 -1.920000000000000E-002   -1.517897961227604E-037
 -1.910000000000000E-002   -1.330987107626590E-037
 -1.900000000000000E-002   -8.208849405251089E-038
 -1.890000000000000E-002    9.550973242551927E-039
 -1.880000000000000E-002    1.470691686248567E-037
 -1.870000000000000E-002    3.300743928041810E-037
 -1.860000000000000E-002    5.497623546292468E-037
 -1.850000000000000E-002    7.864288599385015E-037
 -1.840000000000000E-002    1.007916048084643E-036
 -1.830000000000000E-002    1.169757974242645E-036
 -1.820000000000000E-002    1.217796970222358E-036
 -1.810000000000000E-002    1.093879793725098E-036
 -1.800000000000000E-002    7.448747006923037E-037
 -1.790000000000000E-002    1.346549990653133E-037
 -1.780000000000000E-002   -7.420884666824220E-037
 -1.770000000000000E-002   -1.846236008546901E-036
 -1.760000000000000E-002   -3.083700211888551E-036
 -1.750000000000000E-002   -4.301414658074225E-036
 -1.740000000000000E-002   -5.293387624862347E-036
 -1.730000000000000E-002   -5.819688526161187E-036
 -1.720000000000000E-002   -5.639657069047119E-036
 -1.710000000000000E-002   -4.558073082275557E-036
 -1.700000000000000E-002   -2.479683832240310E-036
 -1.690000000000000E-002    5.362589245982132E-037
 -1.680000000000000E-002    4.233243270262312E-036
 -1.670000000000000E-002    8.140567693276448E-036
 -1.660000000000000E-002    1.159634123898323E-035
 -1.650000000000000E-002    1.382140707119489E-035
 -1.640000000000000E-002    1.404831061267830E-035
 -1.630000000000000E-002    1.169877780337778E-035
 -1.620000000000000E-002    6.589533345605152E-036
 -1.610000000000000E-002   -8.685126475793640E-037
 -1.600000000000000E-002   -9.525667903473945E-036
 -1.590000000000000E-002   -1.745919833574200E-035
 -1.580000000000000E-002   -2.210355594989044E-035
 -1.570000000000000E-002   -2.058508314534719E-035
 -1.560000000000000E-002   -1.027237101281054E-035
 -1.550000000000000E-002    1.048948415471540E-035
 -1.540000000000000E-002    4.154579172104888E-035
 -1.530000000000000E-002    8.014158870815277E-035
 -1.520000000000000E-002    1.203623858621913E-034
 -1.510000000000000E-002    1.530218274888540E-034
 -1.500000000000000E-002    1.662022664667936E-034
 -1.490000000000000E-002    1.465984970789204E-034
 -1.480000000000000E-002    8.170572310619596E-035
 -1.470000000000000E-002   -3.726443908136672E-035
 -1.460000000000000E-002   -2.120479882720832E-034
 -1.450000000000000E-002   -4.340785122537118E-034
 -1.440000000000000E-002   -6.819957737700168E-034
 -1.430000000000000E-002   -9.206733649330846E-034
 -1.420000000000000E-002   -1.102495460897440E-033
 -1.410000000000000E-002   -1.171424700447219E-033
 -1.400000000000000E-002   -1.070048816863194E-033
 -1.390000000000000E-002   -7.492847698417073E-034
 -1.380000000000000E-002   -1.798202831043707E-034
 -1.370000000000000E-002    6.362486804777740E-034
 -1.360000000000000E-002    1.655620113416767E-033
 -1.350000000000000E-002    2.788130247261663E-033
 -1.340000000000000E-002    3.897438050531897E-033
 -1.330000000000000E-002    4.809701945552518E-033
 -1.320000000000000E-002    5.330884855294927E-033
 -1.310000000000000E-002    5.271938343140950E-033
 -1.300000000000000E-002    4.479483189215347E-033
 -1.290000000000000E-002    2.868056067490355E-033
 -1.280000000000000E-002    4.487701204152577E-034
 -1.270000000000000E-002   -2.651247458949382E-033
 -1.260000000000000E-002   -6.183850422868833E-033
 -1.250000000000000E-002   -9.792918575849999E-033
 -1.240000000000000E-002   -1.304651480883664E-032
 -1.230000000000000E-002   -1.548589155025547E-032
 -1.220000000000000E-002   -1.668552123635955E-032
 -1.210000000000000E-002   -1.631535599618247E-032
 -1.200000000000000E-002   -1.419466871006167E-032
 -1.190000000000000E-002   -1.032696615730325E-032
 -1.180000000000000E-002   -4.907907822156673E-033
 -1.170000000000000E-002    1.697245802814791E-033
 -1.160000000000000E-002    9.003846109233683E-033
 -1.150000000000000E-002    1.647611421554498E-032
 -1.140000000000000E-002    2.359810244702469E-032
 -1.130000000000000E-002    2.992900040815317E-032
 -1.120000000000000E-002    3.512568755003195E-032
 -1.110000000000000E-002    3.892171306141913E-032
 -1.100000000000000E-002    4.106294769630818E-032
 -1.090000000000000E-002    4.121460098766542E-032
 -1.080000000000000E-002    3.886916049316146E-032
 -1.070000000000000E-002    3.329597187021068E-032
 -1.060000000000000E-002    2.357675424138172E-032
 -1.050000000000000E-002    8.763471049236613E-033
 -1.040000000000000E-002   -1.182697115700804E-032
 -1.030000000000000E-002   -3.820074112460721E-032
 -1.020000000000000E-002   -6.922021559226433E-032
 -1.010000000000000E-002   -1.021889856877567E-031
 -1.000000000000000E-002   -1.326273674130807E-031
 -9.899999999999999E-003   -1.543890684895162E-031
 -9.800000000000000E-003   -1.602468703511557E-031
 -9.699999999999999E-003   -1.430114201839506E-031
 -9.599999999999999E-003   -9.714471434438726E-032
 -9.500000000000000E-003   -2.069727963100599E-032
 -9.399999999999999E-003    8.274625136191063E-032
 -9.299999999999999E-003    2.025507786018961E-031
 -9.200000000000000E-003    3.204507444220685E-031
 -9.099999999999999E-003    4.113937785688818E-031
 -8.999999999999999E-003    4.461600463215776E-031
 -8.900000000000000E-003    3.958535806753710E-031
 -8.799999999999999E-003    2.379951177117484E-031
 -8.699999999999999E-003   -3.648450675617113E-032
 -8.600000000000000E-003   -4.164715911552767E-031
 -8.499999999999999E-003   -8.655649079338169E-031
 -8.399999999999999E-003   -1.320216802691292E-030
 -8.300000000000000E-003   -1.692539667275099E-030
 -8.199999999999999E-003   -1.878714350251864E-030
 -8.100000000000000E-003   -1.773114896096996E-030
 -8.000000000000000E-003   -1.287188260411950E-030
 -7.899999999999999E-003   -3.709298355731507E-031
 -7.800000000000000E-003    9.662976620883720E-031
 -7.699999999999999E-003    2.639621973415389E-030
 -7.599999999999999E-003    4.481397507817297E-030
 -7.499999999999999E-003    6.246438955889537E-030
 -7.399999999999999E-003    7.631957900289973E-030
 -7.299999999999999E-003    8.312221341248158E-030
 -7.199999999999999E-003    7.985253767501851E-030
 -7.100000000000000E-003    6.426088094351625E-030
 -6.999999999999999E-003    3.538714105717574E-030
 -6.899999999999999E-003   -6.025477333532426E-031
 -6.800000000000000E-003   -5.731355250571339E-030
 -6.699999999999999E-003   -1.139460316892524E-029
 -6.599999999999999E-003   -1.698813274227913E-029
 -6.499999999999999E-003   -2.182133329839704E-029
 -6.399999999999999E-003   -2.520330090946720E-029
 -6.299999999999999E-003   -2.653782566112670E-029
 -6.199999999999999E-003   -2.541082789091139E-029
 -6.100000000000000E-003   -2.165296961215460E-029
 -5.999999999999999E-003   -1.536279645655039E-029
 -5.899999999999999E-003   -6.882418586976738E-030
 -5.800000000000000E-003    3.272752324122434E-030
 -5.699999999999999E-003    1.451702607304998E-029
 -5.599999999999999E-003    2.630632575295140E-029
 -5.499999999999999E-003    3.822722010419819E-029
 -5.399999999999999E-003    5.002978513642513E-029
 -5.299999999999999E-003    6.157707550721347E-029
 -5.199999999999999E-003    7.269910255922877E-029
 -5.099999999999999E-003    8.296221221978424E-029
 -4.999999999999999E-003    9.139247124372949E-029
 -4.899999999999999E-003    9.621918288778620E-029
 -4.799999999999999E-003    9.472575300627110E-029
 -4.699999999999999E-003    8.330268159141493E-029
 -4.599999999999999E-003    5.778511845242777E-029
 -4.499999999999999E-003    1.412283488987725E-029
 -4.399999999999999E-003   -5.062824256615630E-029
 -4.299999999999999E-003   -1.370785427955949E-028
 -4.199999999999999E-003   -2.422114355848516E-028
 -4.099999999999999E-003   -3.582685186612826E-028
 -3.999999999999999E-003   -4.721097730792473E-028
 -3.899999999999999E-003   -5.653534257439418E-028
 -3.799999999999999E-003   -6.155509666550132E-028
 -3.699999999999999E-003   -5.985410163595614E-028
 -3.599999999999999E-003   -4.919515606929309E-028
 -3.499999999999999E-003   -2.796020458511258E-028
 -3.399999999999999E-003    4.368294830125600E-029
 -3.299999999999999E-003    4.675511991457378E-028
 -3.199999999999999E-003    9.627501851024438E-028
 -3.099999999999999E-003    1.479806184424315E-027
 -2.999999999999999E-003    1.950562364383583E-027
 -2.899999999999999E-003    2.293123195467927E-027
 -2.799999999999999E-003    2.420342460394132E-027
 -2.699999999999999E-003    2.251451136545303E-027
 -2.599999999999999E-003    1.725828182311482E-027
 -2.499999999999999E-003    8.173368190872816E-028
 -2.399999999999999E-003   -4.528061895732513E-028
 -2.299999999999999E-003   -2.006902501432426E-027
 -2.199999999999999E-003   -3.707600943326849E-027
 -2.099999999999999E-003   -5.362489506886118E-027
 -1.999999999999999E-003   -6.737503848106846E-027
 -1.899999999999999E-003   -7.579141476540486E-027
 -1.799999999999999E-003   -7.644215679522766E-027
 -1.699999999999999E-003   -6.734582245190378E-027
 -1.599999999999999E-003   -4.733121120423601E-027
 -1.499999999999999E-003   -1.636409347831924E-027
 -1.399999999999999E-003    2.420812692530016E-027
 -1.299999999999999E-003    7.154000545138425E-027
 -1.199999999999999E-003    1.213369589039982E-026
 -1.099999999999999E-003    1.680912648231038E-026
 -9.999999999999989E-004    2.055066429864100E-026
 -8.999999999999990E-004    2.270903690061867E-026
 -7.999999999999990E-004    2.268694202509868E-026
 -6.999999999999989E-004    2.001667953761374E-026
 -5.999999999999990E-004    1.443606749919621E-026
 -4.999999999999989E-004    5.954132864211716E-027
 -3.999999999999989E-004   -5.101641906961812E-027
 -2.999999999999989E-004   -1.806375204937549E-026
 -1.999999999999989E-004   -3.193423679541216E-026
 -9.999999999999892E-005   -4.542819549366740E-026
  1.084202172485504E-018   -5.705162043024918E-026
  1.000000000000011E-004   -6.521079307737491E-026
  2.000000000000011E-004   -6.834792177483459E-026
  3.000000000000011E-004   -6.509509733939801E-026
  4.000000000000011E-004   -5.443683139947049E-026
  5.000000000000011E-004   -3.586947247370934E-026
  6.000000000000011E-004   -9.544888990437309E-027
  7.000000000000011E-004    2.361542565498550E-026
  8.000000000000011E-004    6.184984709318704E-026
  9.000000000000012E-004    1.025440299582082E-025
  1.000000000000001E-003    1.422893013399600E-025
  1.100000000000001E-003    1.770235319427946E-025
  1.200000000000001E-003    2.022618552894032E-025
  1.300000000000001E-003    2.134196516235944E-025
  1.400000000000001E-003    2.062214056378792E-025
  1.500000000000001E-003    1.771796806084261E-025
  1.600000000000001E-003    1.241166201783035E-025
  1.700000000000001E-003    4.668624526064905E-026
  1.800000000000001E-003   -5.315433619977369E-026
  1.900000000000001E-003   -1.707884765336052E-025
  2.000000000000001E-003   -2.987652664053374E-025
  2.100000000000001E-003   -4.268729526120366E-025
  2.200000000000001E-003   -5.425161934382706E-025
  2.300000000000001E-003   -6.314334973018708E-025
  2.400000000000001E-003   -6.787595483639266E-025
  2.500000000000001E-003   -6.704031911656309E-025
  2.600000000000001E-003   -5.946628132927822E-025
  2.700000000000001E-003   -4.439624053986587E-025
  2.800000000000001E-003   -2.165448626968941E-025
  2.900000000000001E-003    8.206770701798075E-026
  3.000000000000001E-003    4.380548137750078E-025
  3.100000000000001E-003    8.289215476092080E-025
  3.200000000000001E-003    1.223938160924591E-024
  3.300000000000001E-003    1.585514049592930E-024
  3.400000000000001E-003    1.871547133103118E-024
  3.500000000000001E-003    2.038693449746051E-024
  3.600000000000001E-003    2.046395390559925E-024
  3.700000000000001E-003    1.861397534503314E-024
  3.800000000000001E-003    1.462387128860094E-024
  3.900000000000001E-003    8.443193772923899E-025
  4.000000000000001E-003    2.194724810679292E-026
  4.100000000000001E-003   -9.679148835667594E-025
  4.200000000000001E-003   -2.065820616452052E-024
  4.300000000000001E-003   -3.191137461582632E-024
  4.400000000000001E-003   -4.245696290420418E-024
  4.500000000000001E-003   -5.119639327494315E-024
  4.600000000000002E-003   -5.699287980805774E-024
  4.700000000000001E-003   -5.876626494605136E-024
  4.800000000000001E-003   -5.559821488677203E-024
  4.900000000000002E-003   -4.684021260870823E-024
  5.000000000000001E-003   -3.221593836684562E-024
  5.100000000000001E-003   -1.190863094909388E-024
  5.200000000000001E-003    1.337560177091520E-024
  5.300000000000002E-003    4.237690733927027E-024
  5.400000000000001E-003    7.329053212968707E-024
  5.500000000000001E-003    1.038202834360046E-023
  5.600000000000002E-003    1.312797191354902E-023
  5.700000000000001E-003    1.527407863391912E-023
  5.800000000000001E-003    1.652269969665161E-023
  5.900000000000002E-003    1.659442248399692E-023
  6.000000000000001E-003    1.525399050202662E-023
  6.100000000000001E-003    1.233761480178875E-023
  6.200000000000002E-003    7.780050418675256E-024
  6.300000000000002E-003    1.639322319174752E-024
  6.400000000000001E-003   -5.883190505981871E-024
  6.500000000000001E-003   -1.442987669801420E-023
  6.600000000000002E-003   -2.348383413068835E-023
  6.700000000000001E-003   -3.237813062490190E-023
  6.800000000000001E-003   -4.031955354876304E-023
  6.900000000000002E-003   -4.642830676461597E-023
  7.000000000000001E-003   -4.979412738532055E-023
  7.100000000000001E-003   -4.954803322225110E-023
  7.200000000000002E-003   -4.494700148024245E-023
  7.300000000000002E-003   -3.546718459778742E-023
  7.400000000000001E-003   -2.089923691804087E-023
  7.500000000000001E-003   -1.437142903980254E-024
  7.600000000000002E-003    2.224911347805211E-023
  7.700000000000001E-003    4.896810055876403E-023
  7.800000000000001E-003    7.699945965706512E-023
  7.900000000000001E-003    1.041339762727151E-022
  8.000000000000002E-003    1.277686114955126E-022
  8.100000000000001E-003    1.450594687146314E-022
  8.200000000000001E-003    1.531314074675587E-022
  8.300000000000002E-003    1.493358523750202E-022
  8.400000000000001E-003    1.315429478600788E-022
  8.500000000000002E-003    9.844669633022997E-023
  8.600000000000002E-003    4.985658583385695E-023
  8.700000000000001E-003   -1.305531721346402E-023
  8.800000000000002E-003   -8.758411693792474E-023
  8.900000000000002E-003   -1.694307291698891E-022
  9.000000000000001E-003   -2.527763704569054E-022
  9.100000000000002E-003   -3.305119195880271E-022
  9.200000000000002E-003   -3.946309389703369E-022
  9.300000000000001E-003   -4.367796316538251E-022
  9.400000000000002E-003   -4.489429765626534E-022
  9.500000000000001E-003   -4.242281678101095E-022
  9.600000000000001E-003   -3.576928798487714E-022
  9.700000000000002E-003   -2.471505754389237E-022
  9.800000000000001E-003   -9.387740326317953E-023
  9.900000000000001E-003    9.686014496815400E-023
  1.000000000000000E-002    3.155342997437326E-022
  1.010000000000000E-002    5.484109762139701E-022
  1.020000000000000E-002    7.779818212620768E-022
  1.030000000000000E-002    9.838021425169683E-022
  1.040000000000000E-002    1.143731618032071E-021
  1.050000000000000E-002    1.235543143915637E-021
  1.060000000000000E-002    1.238823085366094E-021
  1.070000000000000E-002    1.137054143328714E-021
  1.080000000000000E-002    9.197325624654327E-022
  1.090000000000000E-002    5.843469470288783E-022
  1.100000000000000E-002    1.380237376016769E-022
  1.110000000000000E-002   -4.013584362351423E-022
  1.120000000000000E-002   -1.004775978144037E-021
  1.130000000000000E-002   -1.632552244052264E-021
  1.140000000000000E-002   -2.235847313537793E-021
  1.150000000000000E-002   -2.759199154383994E-021
  1.160000000000000E-002   -3.144084947876270E-021
  1.170000000000000E-002   -3.333375429998869E-021
  1.180000000000000E-002   -3.276458580310298E-021
  1.190000000000000E-002   -2.934708374118441E-021
  1.200000000000000E-002   -2.286881207292941E-021
  1.210000000000000E-002   -1.333961506785725E-021
  1.220000000000000E-002   -1.029344682917375E-022
  1.230000000000000E-002    1.351029426514307E-021
  1.240000000000000E-002    2.944439357756051E-021
  1.250000000000000E-002    4.567768174317592E-021
  1.260000000000000E-002    6.090362067840205E-021
  1.270000000000000E-002    7.367986057218856E-021
  1.280000000000000E-002    8.252795575706222E-021
  1.290000000000000E-002    8.605252728269244E-021
  1.300000000000000E-002    8.307282133334091E-021
  1.310000000000000E-002    7.275721760769860E-021
  1.320000000000000E-002    5.474953280113852E-021
  1.330000000000000E-002    2.927507463376156E-021
  1.340000000000000E-002   -2.785756334643332E-022
  1.350000000000000E-002   -3.986756825186333E-021
  1.360000000000000E-002   -7.974288965038849E-021
  1.370000000000000E-002   -1.196037220763374E-020
  1.380000000000000E-002   -1.562037290526869E-020
  1.390000000000000E-002   -1.860578292648561E-020
  1.400000000000000E-002   -2.056910229417903E-020
  1.410000000000000E-002   -2.119230171550603E-020
  1.420000000000000E-002   -2.021703305123392E-020
  1.430000000000000E-002   -1.747437266113246E-020
  1.440000000000000E-002   -1.291161825870835E-020
  1.450000000000000E-002   -6.613582534554205E-021
  1.460000000000000E-002    1.184092800186406E-021
  1.470000000000000E-002    1.009175692356948E-020
  1.480000000000000E-002    1.957432987084029E-020
  1.490000000000000E-002    2.897259186474210E-020
  1.500000000000000E-002    3.753719502357381E-020
  1.510000000000000E-002    4.447450079236848E-020
  1.520000000000000E-002    4.900223143530576E-020
  1.530000000000000E-002    5.041195655508036E-020
  1.540000000000000E-002    4.813447890502302E-020
  1.550000000000000E-002    4.180346620790957E-020
  1.560000000000000E-002    3.131219579238268E-020
  1.570000000000000E-002    1.685811766179927E-020
  1.580000000000000E-002   -1.029759797686891E-021
  1.590000000000000E-002   -2.148508718673457E-020
  1.600000000000000E-002   -4.332328718415365E-020
  1.610000000000000E-002   -6.508744104134485E-020
  1.620000000000000E-002   -8.512082168721499E-020
  1.630000000000000E-002   -1.016644222201438E-019
  1.640000000000000E-002   -1.129750429105992E-019
  1.650000000000000E-002   -1.174580608065713E-019
  1.660000000000000E-002   -1.138065444758289E-019
  1.670000000000000E-002   -1.011375905690805E-019
  1.680000000000000E-002   -7.911495891044252E-020
  1.690000000000000E-002   -4.804764192003063E-020
  1.700000000000000E-002   -8.953885225329477E-021
  1.710000000000000E-002    3.641837342475225E-020
  1.720000000000000E-002    8.562125330797783E-020
  1.730000000000000E-002    1.355914978314032E-019
  1.740000000000000E-002    1.827899651437338E-019
  1.750000000000000E-002    2.233935324961872E-019
  1.760000000000000E-002    2.535317456384445E-019
  1.770000000000000E-002    2.695573262429582E-019
  1.780000000000000E-002    2.683361938663144E-019
  1.790000000000000E-002    2.475383524508964E-019
  1.800000000000000E-002    2.059110007927275E-019
  1.810000000000000E-002    1.435114814475554E-019
  1.820000000000000E-002    6.188010024622658E-020
  1.830000000000000E-002   -3.586724938800106E-020
  1.840000000000000E-002   -1.450425777554637E-019
  1.850000000000000E-002   -2.594985813571088E-019
  1.860000000000000E-002   -3.718566140783612E-019
  1.870000000000000E-002   -4.738505247657139E-019