 -4.000000000000000E-002    0.000000000000000E+000
 -3.990000000000000E-002    0.000000000000000E+000
 -3.980000000000000E-002    0.000000000000000E+000
 -3.970000000000000E-002    0.000000000000000E+000
 -3.960000000000000E-002    0.000000000000000E+000
 -3.950000000000000E-002    0.000000000000000E+000
 -3.940000000000000E-002    0.000000000000000E+000
 -3.930000000000000E-002    0.000000000000000E+000
 -3.920000000000000E-002    0.000000000000000E+000
 -3.910000000000000E-002    0.000000000000000E+000
 -3.900000000000000E-002    0.000000000000000E+000
 -3.890000000000000E-002    0.000000000000000E+000
 -3.880000000000000E-002    0.000000000000000E+000
 -3.870000000000000E-002    0.000000000000000E+000
 -3.860000000000000E-002    0.000000000000000E+000
 -3.850000000000000E-002    0.000000000000000E+000
 -3.840000000000000E-002    0.000000000000000E+000
 -3.830000000000000E-002    0.000000000000000E+000
 -3.820000000000000E-002    0.000000000000000E+000
 -3.810000000000000E-002    0.000000000000000E+000
 -3.800000000000000E-002    0.000000000000000E+000
 -3.790000000000000E-002    0.000000000000000E+000
 -3.780000000000000E-002    0.000000000000000E+000
 -3.770000000000000E-002    0.000000000000000E+000
 -3.760000000000000E-002    0.000000000000000E+000
 -3.750000000000000E-002    0.000000000000000E+000
 -3.740000000000000E-002    0.000000000000000E+000
 -3.730000000000000E-002    0.000000000000000E+000
 -3.720000000000000E-002    0.000000000000000E+000
 -3.710000000000000E-002    0.000000000000000E+000
 -3.700000000000000E-002    0.000000000000000E+000
 -3.690000000000000E-002    0.000000000000000E+000
 -3.680000000000000E-002    0.000000000000000E+000
 -3.670000000000000E-002    0.000000000000000E+000
 -3.660000000000000E-002    0.000000000000000E+000
 -3.650000000000000E-002    0.000000000000000E+000
 -3.640000000000000E-002    0.000000000000000E+000
 -3.630000000000000E-002    0.000000000000000E+000
 -3.620000000000000E-002    0.000000000000000E+000
 -3.610000000000000E-002    0.000000000000000E+000
 -3.600000000000000E-002    0.000000000000000E+000
 -3.590000000000000E-002    0.000000000000000E+000
 -3.580000000000000E-002    0.000000000000000E+000
 -3.570000000000000E-002    0.000000000000000E+000
 -3.560000000000000E-002    0.000000000000000E+000
 -3.550000000000000E-002    0.000000000000000E+000
 -3.540000000000000E-002    0.000000000000000E+000
 -3.530000000000000E-002    0.000000000000000E+000
 -3.520000000000000E-002    0.000000000000000E+000
 -3.510000000000000E-002    0.000000000000000E+000
 -3.500000000000000E-002    0.000000000000000E+000
 -3.490000000000000E-002    0.000000000000000E+000
 -3.480000000000000E-002    0.000000000000000E+000
 -3.470000000000000E-002    0.000000000000000E+000
 -3.460000000000000E-002    0.000000000000000E+000
 -3.450000000000000E-002    0.000000000000000E+000
 -3.440000000000000E-002    0.000000000000000E+000
 -3.430000000000000E-002    0.000000000000000E+000
 -3.420000000000000E-002    0.000000000000000E+000
 -3.410000000000000E-002    0.000000000000000E+000
 -3.400000000000000E-002    0.000000000000000E+000
 -3.390000000000000E-002    0.000000000000000E+000
 -3.380000000000000E-002    0.000000000000000E+000
 -3.370000000000000E-002    0.000000000000000E+000
 -3.360000000000000E-002    0.000000000000000E+000
 -3.350000000000000E-002    0.000000000000000E+000
 -3.340000000000000E-002    0.000000000000000E+000
 -3.330000000000000E-002    0.000000000000000E+000
 -3.320000000000000E-002    0.000000000000000E+000
 -3.310000000000000E-002    0.000000000000000E+000
 -3.300000000000000E-002    0.000000000000000E+000
 -3.290000000000000E-002    0.000000000000000E+000
 -3.280000000000000E-002    0.000000000000000E+000
 -3.270000000000000E-002    0.000000000000000E+000
 -3.260000000000000E-002    0.000000000000000E+000
 -3.250000000000000E-002    0.000000000000000E+000
 -3.240000000000000E-002    0.000000000000000E+000
 -3.230000000000000E-002    0.000000000000000E+000
 -3.220000000000000E-002    0.000000000000000E+000
 -3.210000000000000E-002    0.000000000000000E+000
 -3.200000000000000E-002    0.000000000000000E+000
 -3.190000000000000E-002    0.000000000000000E+000
 -3.180000000000000E-002    0.000000000000000E+000
 -3.170000000000000E-002    0.000000000000000E+000
 -3.160000000000000E-002    0.000000000000000E+000
 -3.150000000000000E-002    0.000000000000000E+000
 -3.140000000000000E-002    0.000000000000000E+000
 -3.130000000000000E-002    0.000000000000000E+000
 -3.120000000000000E-002    0.000000000000000E+000
 -3.110000000000000E-002    0.000000000000000E+000
 -3.100000000000000E-002    0.000000000000000E+000
 -3.090000000000000E-002    0.000000000000000E+000
 -3.080000000000000E-002    0.000000000000000E+000
 -3.070000000000000E-002    0.000000000000000E+000
 -3.060000000000000E-002    0.000000000000000E+000
 -3.050000000000000E-002    0.000000000000000E+000
 -3.040000000000000E-002    0.000000000000000E+000
 -3.030000000000000E-002    0.000000000000000E+000
 -3.020000000000000E-002    0.000000000000000E+000
 -3.010000000000000E-002    0.000000000000000E+000
 -3.000000000000000E-002    0.000000000000000E+000
 -2.990000000000000E-002    0.000000000000000E+000
 -2.980000000000000E-002    0.000000000000000E+000
 -2.970000000000000E-002    0.000000000000000E+000
 -2.960000000000000E-002    0.000000000000000E+000
 -2.950000000000000E-002    0.000000000000000E+000
 -2.940000000000000E-002    0.000000000000000E+000
 -2.930000000000000E-002    0.000000000000000E+000
 -2.920000000000000E-002    0.000000000000000E+000
 -2.910000000000000E-002    0.000000000000000E+000
 -2.900000000000000E-002    0.000000000000000E+000
 -2.890000000000000E-002    0.000000000000000E+000
 -2.880000000000000E-002    0.000000000000000E+000
 -2.870000000000000E-002    0.000000000000000E+000
 -2.860000000000000E-002    0.000000000000000E+000
 -2.850000000000000E-002    0.000000000000000E+000
 -2.840000000000000E-002    0.000000000000000E+000
 -2.830000000000000E-002    0.000000000000000E+000
 -2.820000000000000E-002    0.000000000000000E+000
 -2.810000000000000E-002    0.000000000000000E+000
 -2.800000000000000E-002    0.000000000000000E+000
 -2.790000000000000E-002    0.000000000000000E+000
 -2.780000000000000E-002    0.000000000000000E+000
 -2.770000000000000E-002    0.000000000000000E+000
 -2.760000000000000E-002    0.000000000000000E+000
 -2.750000000000000E-002    0.000000000000000E+000
 -2.740000000000000E-002    0.000000000000000E+000
 -2.730000000000000E-002    0.000000000000000E+000
 -2.720000000000000E-002    0.000000000000000E+000
 -2.710000000000000E-002    0.000000000000000E+000
 -2.700000000000000E-002    0.000000000000000E+000
 -2.690000000000000E-002    0.000000000000000E+000
 -2.680000000000000E-002    0.000000000000000E+000
 -2.670000000000000E-002    0.000000000000000E+000
 -2.660000000000000E-002    0.000000000000000E+000
 -2.650000000000000E-002    0.000000000000000E+000
 -2.640000000000000E-002    0.000000000000000E+000
 -2.630000000000000E-002    0.000000000000000E+000
 -2.620000000000000E-002    0.000000000000000E+000
 -2.610000000000000E-002    0.000000000000000E+000
 -2.600000000000000E-002    0.000000000000000E+000
 -2.590000000000000E-002    0.000000000000000E+000
 -2.580000000000000E-002    0.000000000000000E+000
 -2.570000000000000E-002    0.000000000000000E+000
 -2.560000000000000E-002    0.000000000000000E+000
 -2.550000000000000E-002    0.000000000000000E+000
 -2.540000000000000E-002    0.000000000000000E+000
 -2.530000000000000E-002    0.000000000000000E+000
 -2.520000000000000E-002    0.000000000000000E+000
 -2.510000000000000E-002    0.000000000000000E+000
 -2.500000000000000E-002    0.000000000000000E+000
 -2.490000000000000E-002    0.000000000000000E+000
 -2.480000000000000E-002    0.000000000000000E+000
 -2.470000000000000E-002    0.000000000000000E+000
 -2.460000000000000E-002    0.000000000000000E+000
 -2.450000000000000E-002    0.000000000000000E+000
 -2.440000000000000E-002    0.000000000000000E+000
 -2.430000000000000E-002    0.000000000000000E+000
 -2.420000000000000E-002    0.000000000000000E+000
 -2.410000000000000E-002    0.000000000000000E+000
 -2.400000000000000E-002    0.000000000000000E+000
 -2.390000000000000E-002    0.000000000000000E+000
 -2.380000000000000E-002    0.000000000000000E+000
 -2.370000000000000E-002    0.000000000000000E+000
 -2.360000000000000E-002    0.000000000000000E+000
 -2.350000000000000E-002    0.000000000000000E+000
 -2.340000000000000E-002    0.000000000000000E+000
 -2.330000000000000E-002    0.000000000000000E+000
 -2.320000000000000E-002    0.000000000000000E+000
 -2.310000000000000E-002    0.000000000000000E+000
 -2.300000000000000E-002    0.000000000000000E+000
 -2.290000000000000E-002    0.000000000000000E+000
 -2.280000000000000E-002    0.000000000000000E+000
 -2.270000000000000E-002    0.000000000000000E+000
 -2.260000000000000E-002    0.000000000000000E+000
 -2.250000000000000E-002    0.000000000000000E+000
 -2.240000000000000E-002    0.000000000000000E+000
 -2.230000000000000E-002    0.000000000000000E+000
 -2.220000000000000E-002    0.000000000000000E+000
 -2.210000000000000E-002    0.000000000000000E+000
 -2.200000000000000E-002    0.000000000000000E+000
 -2.190000000000000E-002    0.000000000000000E+000
 -2.180000000000000E-002    0.000000000000000E+000
 -2.170000000000000E-002    0.000000000000000E+000
 -2.160000000000000E-002    0.000000000000000E+000
 -2.150000000000000E-002    0.000000000000000E+000
 -2.140000000000000E-002    0.000000000000000E+000
 -2.130000000000000E-002    0.000000000000000E+000
 -2.120000000000000E-002    0.000000000000000E+000
 -2.110000000000000E-002    0.000000000000000E+000
 -2.100000000000000E-002    0.000000000000000E+000
 -2.090000000000000E-002    0.000000000000000E+000
 -2.080000000000000E-002    0.000000000000000E+000
 -2.070000000000000E-002    0.000000000000000E+000
 -2.060000000000000E-002    0.000000000000000E+000
 -2.050000000000000E-002    0.000000000000000E+000
 -2.040000000000000E-002    0.000000000000000E+000
 -2.030000000000000E-002    0.000000000000000E+000
 -2.020000000000000E-002    0.000000000000000E+000
 -2.010000000000000E-002    0.000000000000000E+000
 -2.000000000000000E-002    0.000000000000000E+000
 -1.990000000000000E-002    0.000000000000000E+000
 -1.980000000000000E-002    0.000000000000000E+000
 -1.970000000000000E-002    0.000000000000000E+000
 -1.960000000000000E-002    0.000000000000000E+000
 -1.950000000000000E-002    0.000000000000000E+000
 -1.940000000000000E-002    0.000000000000000E+000
 -1.930000000000000E-002    0.000000000000000E+000
 -1.920000000000000E-002    0.000000000000000E+000
 -1.910000000000000E-002    0.000000000000000E+000
 -1.900000000000000E-002    0.000000000000000E+000
 -1.890000000000000E-002    0.000000000000000E+000
 -1.880000000000000E-002    0.000000000000000E+000
 -1.870000000000000E-002    0.000000000000000E+000
 -1.860000000000000E-002    0.000000000000000E+000
 -1.850000000000000E-002    0.000000000000000E+000
 -1.840000000000000E-002    0.000000000000000E+000
 -1.830000000000000E-002    0.000000000000000E+000
 -1.820000000000000E-002    0.000000000000000E+000
 -1.810000000000000E-002    0.000000000000000E+000
 -1.800000000000000E-002    0.000000000000000E+000
 -1.790000000000000E-002    0.000000000000000E+000
 -1.780000000000000E-002    0.000000000000000E+000
 -1.770000000000000E-002    0.000000000000000E+000
 -1.760000000000000E-002    0.000000000000000E+000
 -1.750000000000000E-002    0.000000000000000E+000
 -1.740000000000000E-002    0.000000000000000E+000
 -1.730000000000000E-002    0.000000000000000E+000
 -1.720000000000000E-002    0.000000000000000E+000
 -1.710000000000000E-002    0.000000000000000E+000
 -1.700000000000000E-002    0.000000000000000E+000
 -1.690000000000000E-002    0.000000000000000E+000
 -1.680000000000000E-002    0.000000000000000E+000
 -1.670000000000000E-002    0.000000000000000E+000
 -1.660000000000000E-002    0.000000000000000E+000
 -1.650000000000000E-002    0.000000000000000E+000
 -1.640000000000000E-002    0.000000000000000E+000
 -1.630000000000000E-002    0.000000000000000E+000
 -1.620000000000000E-002    0.000000000000000E+000
 -1.610000000000000E-002    0.000000000000000E+000
 -1.600000000000000E-002    0.000000000000000E+000
 -1.590000000000000E-002    0.000000000000000E+000
 -1.580000000000000E-002    0.000000000000000E+000
 -1.570000000000000E-002    0.000000000000000E+000
 -1.560000000000000E-002    0.000000000000000E+000
 -1.550000000000000E-002    0.000000000000000E+000
 -1.540000000000000E-002    0.000000000000000E+000
 -1.530000000000000E-002    0.000000000000000E+000
 -1.520000000000000E-002    0.000000000000000E+000
 -1.510000000000000E-002    0.000000000000000E+000
 -1.500000000000000E-002    0.000000000000000E+000
 -1.490000000000000E-002    0.000000000000000E+000
 -1.480000000000000E-002    0.000000000000000E+000
 -1.470000000000000E-002    0.000000000000000E+000
 -1.460000000000000E-002    0.000000000000000E+000
 -1.450000000000000E-002    0.000000000000000E+000
 -1.440000000000000E-002    0.000000000000000E+000
 -1.430000000000000E-002    0.000000000000000E+000
 -1.420000000000000E-002    0.000000000000000E+000
 -1.410000000000000E-002    0.000000000000000E+000
 -1.400000000000000E-002    0.000000000000000E+000
 -1.390000000000000E-002    0.000000000000000E+000
 -1.380000000000000E-002    0.000000000000000E+000
 -1.370000000000000E-002   -1.522147052291724E-048
 -1.360000000000000E-002   -1.522147052291724E-048
 -1.350000000000000E-002   -1.522147052291724E-048
 -1.340000000000000E-002    0.000000000000000E+000
 -1.330000000000000E-002    1.522147052291724E-048
 -1.320000000000000E-002    4.566441156875172E-048
 -1.310000000000000E-002    1.375468676375439E-047
 -1.300000000000000E-002    1.984327497292129E-047
 -1.290000000000000E-002    2.887468089048117E-047
 -1.280000000000000E-002    3.023998825345356E-047
 -1.270000000000000E-002    5.770174425529038E-048
 -1.260000000000000E-002   -2.478822761156238E-047
 -1.250000000000000E-002   -4.109234774950313E-047
 -1.240000000000000E-002   -7.099431496187893E-047
 -1.230000000000000E-002   -1.375937365575738E-046
 -1.220000000000000E-002   -2.087379926205903E-046
 -1.210000000000000E-002   -2.745828529847209E-046
 -1.200000000000000E-002   -3.305739776165060E-046
 -1.190000000000000E-002   -3.397640678021826E-046
 -1.180000000000000E-002   -2.326186844838140E-046
 -1.170000000000000E-002   -3.125612677525518E-047
 -1.160000000000000E-002    3.361236374385880E-046
 -1.150000000000000E-002    8.485139799522269E-046
 -1.140000000000000E-002    1.503130526523163E-045
 -1.130000000000000E-002    2.210050527685994E-045
 -1.120000000000000E-002    2.693044684031190E-045
 -1.110000000000000E-002    2.992104152222573E-045
 -1.100000000000000E-002    2.937263083130291E-045
 -1.090000000000000E-002    1.924714795392829E-045
 -1.080000000000000E-002   -5.248624926684763E-047
 -1.070000000000000E-002   -3.422768652827499E-045
 -1.060000000000000E-002   -7.473552101936830E-045
 -1.050000000000000E-002   -1.190883810433404E-044
 -1.040000000000000E-002   -1.641362934190651E-044
 -1.030000000000000E-002   -2.029483440245231E-044
 -1.020000000000000E-002   -2.262467761882571E-044
 -1.010000000000000E-002   -2.132510800737874E-044
 -1.000000000000000E-002   -1.500195272458075E-044
 -9.899999999999999E-003   -3.043709408139484E-045
 -9.800000000000000E-003    1.592863878054705E-044
 -9.699999999999999E-003    3.965431179469072E-044
 -9.599999999999999E-003    6.851304545256112E-044
 -9.500000000000000E-003    9.653721273396382E-044
 -9.399999999999999E-003    1.187090784133738E-043
 -9.299999999999999E-003    1.276467467921051E-043
 -9.200000000000000E-003    1.157105545430969E-043
 -9.099999999999999E-003    7.586500019336824E-044
 -8.999999999999999E-003    3.498063396193271E-045
 -8.900000000000000E-003   -1.028195769529238E-043
 -8.799999999999999E-003   -2.383452150228997E-043
 -8.699999999999999E-003   -3.894297919552049E-043
 -8.600000000000000E-003   -5.337278891737097E-043
 -8.499999999999999E-003   -6.414139224867082E-043
 -8.399999999999999E-003   -6.775994350298278E-043
 -8.300000000000000E-003   -6.039529612692706E-043
 -8.199999999999999E-003   -3.891189011932013E-043
 -8.100000000000000E-003   -1.416448738884958E-044
 -8.000000000000000E-003    5.197088186238447E-043
 -7.899999999999999E-003    1.178222348206026E-042
 -7.800000000000000E-003    1.894526548951411E-042
 -7.699999999999999E-003    2.563379207763277E-042
 -7.599999999999999E-003    3.048252115008499E-042
 -7.499999999999999E-003    3.192959655163718E-042
 -7.399999999999999E-003    2.844120441162332E-042
 -7.299999999999999E-003    1.876164272548967E-042
 -7.199999999999999E-003    2.254129328667617E-043
 -7.100000000000000E-003   -2.075328550038412E-042
 -6.999999999999999E-003   -4.873314707630503E-042
 -6.899999999999999E-003   -7.878981381631506E-042
 -6.800000000000000E-003   -1.067010623931783E-041
 -6.699999999999999E-003   -1.271929410619427E-041
 -6.599999999999999E-003   -1.344675292730526E-041
 -6.499999999999999E-003   -1.230234625458109E-041
 -6.399999999999999E-003   -8.861391404752671E-042
 -6.299999999999999E-003   -2.931533566600279E-042
 -6.199999999999999E-003    5.353247821232634E-042
 -6.100000000000000E-003    1.546191085979843E-041
 -5.999999999999999E-003    2.644162122821765E-041
 -5.899999999999999E-003    3.695705884405859E-041
 -5.800000000000000E-003    4.539088131486271E-041
 -5.699999999999999E-003    5.001468162682906E-041
 -5.599999999999999E-003    4.920835387453459E-041
 -5.499999999999999E-003    4.169899751308687E-041
 -5.399999999999999E-003    2.679561038336411E-041
 -5.299999999999999E-003    4.566791416954646E-042
 -5.199999999999999E-003   -2.406196677779058E-041
 -5.099999999999999E-003   -5.731943180656113E-041
 -4.999999999999999E-003   -9.270088088344130E-041
 -4.899999999999999E-003   -1.271660050015527E-040
 -4.799999999999999E-003   -1.573727747438591E-040
 -4.699999999999999E-003   -1.798779324752755E-040
 -4.599999999999999E-003   -1.912496825019002E-040
 -4.499999999999999E-003   -1.880455478634726E-040
 -4.399999999999999E-003   -1.666596738192924E-040
 -4.299999999999999E-003   -1.231081694698475E-040
 -4.199999999999999E-003   -5.288662958921808E-041
 -4.099999999999999E-003    4.887313486184018E-041
 -3.999999999999999E-003    1.867256126437724E-040
 -3.899999999999999E-003    3.634581045778618E-040
 -3.799999999999999E-003    5.777594685393430E-040
 -3.699999999999999E-003    8.210506831499709E-040
 -3.599999999999999E-003    1.073830920379590E-039
 -3.499999999999999E-003    1.302211992465849E-039
 -3.399999999999999E-003    1.455668036837150E-039
 -3.299999999999999E-003    1.467280932410926E-039
 -3.199999999999999E-003    1.257876429292168E-039
 -3.099999999999999E-003    7.452456964310169E-040
 -2.999999999999999E-003   -1.408971879033298E-040
 -2.899999999999999E-003   -1.438504991798244E-039
 -2.799999999999999E-003   -3.128952142994225E-039
 -2.699999999999999E-003   -5.112123268927605E-039
 -2.599999999999999E-003   -7.185609539857095E-039
 -2.499999999999999E-003   -9.034068607980589E-039
 -2.399999999999999E-003   -1.023541825598492E-038
 -2.299999999999999E-003   -1.029006809209599E-038
 -2.199999999999999E-003   -8.677500435489358E-039
 -2.099999999999999E-003   -4.941021943745415E-039
 -1.999999999999999E-003    1.203496003870572E-039
 -1.899999999999999E-003    9.745228274406931E-039
 -1.799999999999999E-003    2.025925925931669E-038
 -1.699999999999999E-003    3.181344538676237E-038
 -1.599999999999999E-003    4.292784767175678E-038
 -1.499999999999999E-003    5.161369313070736E-038
 -1.399999999999999E-003    5.551443921301478E-038
 -1.299999999999999E-003    5.216169554782101E-038
 -1.199999999999999E-003    3.934310865238380E-038
 -1.099999999999999E-003    1.555919326915742E-038
 -9.999999999999989E-004   -1.947698455314718E-038
 -8.999999999999990E-004   -6.436593082789069E-038
 -7.999999999999990E-004   -1.156603871432050E-037
 -6.999999999999989E-004   -1.677125799587634E-037
 -5.999999999999990E-004   -2.128221809309455E-037
 -4.999999999999989E-004   -2.417567124875936E-037
 -3.999999999999989E-004   -2.446782060426525E-037
 -2.999999999999989E-004   -2.124551662825230E-037
 -1.999999999999989E-004   -1.382718282535740E-037
 -9.999999999999892E-005   -1.937490856831904E-038
  1.084202172485504E-018    1.412685785234833E-037
  1.000000000000011E-004    3.336781858209309E-037
  2.000000000000011E-004    5.402272292502462E-037
  3.000000000000011E-004    7.359462021238713E-037
  4.000000000000011E-004    8.899718870113678E-037
  5.000000000000011E-004    9.682370310502641E-037
  6.000000000000011E-004    9.373415726593796E-037
  7.000000000000011E-004    7.693616448600287E-037
  8.000000000000011E-004    4.471634431452164E-037
  9.000000000000012E-004   -3.038252771819851E-038
  1.000000000000001E-003   -6.440157096887162E-037
  1.100000000000001E-003   -1.351307771359004E-036
  1.200000000000001E-003   -2.086229176370133E-036
  1.300000000000001E-003   -2.761646112568037E-036
  1.400000000000001E-003   -3.275084068029559E-036
  1.500000000000001E-003   -3.517750025350377E-036
  1.600000000000001E-003   -3.386409931702615E-036
  1.700000000000001E-003   -2.797299142624231E-036
  1.800000000000001E-003   -1.700857386355626E-036
  1.900000000000001E-003   -9.576714271528825E-038
  2.000000000000001E-003    1.959415388158328E-036
  2.100000000000001E-003    4.338788817240724E-036
  2.200000000000001E-003    6.847419557937772E-036
  2.300000000000001E-003    9.226768027510195E-036
  2.400000000000001E-003    1.116810091092661E-035
  2.500000000000001E-003    1.233417412956862E-035
  2.600000000000001E-003    1.238878606479793E-035
  2.700000000000001E-003    1.103303067743357E-035
  2.800000000000001E-003    8.046277187698810E-036
  2.900000000000001E-003    3.329090262706300E-036
  3.000000000000001E-003   -3.055508413859512E-036
  3.100000000000001E-003   -1.084675677551700E-035
  3.200000000000001E-003   -1.956178353197103E-035
  3.300000000000001E-003   -2.848746757036513E-035
  3.400000000000001E-003   -3.669385339621262E-035
  3.500000000000001E-003   -4.307396207846470E-035
  3.600000000000001E-003   -4.641363698787595E-035
  3.700000000000001E-003   -4.549300978113445E-035
  3.800000000000001E-003   -3.921818405645592E-035
  3.900000000000001E-003   -2.677778647792292E-035
  4.000000000000001E-003   -7.814350765386884E-036
  4.100000000000001E-003    1.740460010732301E-035
  4.200000000000001E-003    4.783580043032773E-035
  4.300000000000001E-003    8.155375041483519E-035
  4.400000000000001E-003    1.157145147895635E-034
  4.500000000000001E-003    1.466150707962922E-034
  4.600000000000002E-003    1.698692606980772E-034
  4.700000000000001E-003    1.807130880523517E-034
  4.800000000000001E-003    1.744397446684544E-034
  4.900000000000002E-003    1.469489844108903E-034
  5.000000000000001E-003    9.537740745718448E-035
  5.100000000000001E-003    1.875785499792666E-035
  5.200000000000001E-003   -8.136056271486691E-035
  5.300000000000002E-003   -2.004123816520079E-034
  5.400000000000001E-003   -3.305211477997553E-034
  5.500000000000001E-003   -4.604928359204833E-034
  5.600000000000002E-003   -5.761657865110094E-034
  5.700000000000001E-003   -6.611624026514907E-034
  5.800000000000001E-003   -6.980556437687333E-034
  5.900000000000002E-003   -6.699241122429326E-034
  6.000000000000001E-003   -5.622271492124910E-034
  6.100000000000001E-003   -3.648891994928757E-034
  6.200000000000002E-003   -7.444352969728349E-035
  6.300000000000002E-003    3.039468554335636E-034
  6.400000000000001E-003    7.547966606242900E-034
  6.500000000000001E-003    1.251154332079849E-033
  6.600000000000002E-003    1.754231006509373E-033
  6.700000000000001E-003    2.214018764590136E-033
  6.800000000000001E-003    2.571098795273039E-033
  6.900000000000002E-003    2.759804264904997E-033
  7.000000000000001E-003    2.712852821226613E-033
  7.100000000000001E-003    2.367481545198956E-033
  7.200000000000002E-003    1.673002245331327E-033
  7.300000000000002E-003    5.995332345009055E-034
  7.400000000000001E-003   -8.525477772955069E-034
  7.500000000000001E-003   -2.643144435189994E-033
  7.600000000000002E-003   -4.683984397841725E-033
  7.700000000000001E-003   -6.832474125838060E-033
  7.800000000000001E-003   -8.889433244523603E-033
  7.900000000000001E-003   -1.060243247610766E-032
  8.000000000000002E-003   -1.167644664538331E-032
  8.100000000000001E-003   -1.179324536074822E-032
  8.200000000000001E-003   -1.064036154230488E-032
  8.300000000000002E-003   -7.949498392610008E-033
  8.400000000000001E-003   -3.542916028078239E-033
  8.500000000000002E-003    2.615301378793065E-033
  8.600000000000002E-003    1.036800092412152E-032
  8.700000000000001E-003    1.932040912816950E-032
  8.800000000000002E-003    2.881037147543733E-032
  8.900000000000002E-003    3.790230656239511E-032
  9.000000000000001E-003    4.541357264200438E-032
  9.100000000000002E-003    4.998049064813380E-032
  9.200000000000002E-003    5.016827988895609E-032
  9.300000000000001E-003    4.462464407284330E-032
  9.400000000000002E-003    3.227083998304821E-032
  9.500000000000001E-003    1.251721286835722E-032
  9.600000000000001E-003   -1.451707107420746E-032
  9.700000000000002E-003   -4.780686388150395E-032
  9.800000000000001E-003   -8.527819830217104E-032
  9.900000000000001E-003   -1.237536635124715E-031
  1.000000000000000E-002   -1.590181264317073E-031
  1.010000000000000E-002   -1.860305864927753E-031
  1.020000000000000E-002   -1.992965265169400E-031
  1.030000000000000E-002   -1.933988943817319E-031
  1.040000000000000E-002   -1.636654730165393E-031
  1.050000000000000E-002   -1.069277848692710E-031
  1.060000000000000E-002   -2.230361412103913E-032
  1.070000000000000E-002    8.808465681297884E-032
  1.080000000000000E-002    2.185586041740849E-031
  1.090000000000000E-002    3.596070951807678E-031
  1.100000000000000E-002    4.979865151519268E-031
  1.110000000000000E-002    6.172802462956481E-031
  1.120000000000000E-002    6.989661866628881E-031
  1.130000000000000E-002    7.239936248858402E-031
  1.140000000000000E-002    6.748128325407782E-031
  1.150000000000000E-002    5.377355354594445E-031
  1.160000000000000E-002    3.054389667656968E-031
  1.170000000000000E-002   -2.063311577809518E-032
  1.180000000000000E-002   -4.282649677394244E-031
  1.190000000000000E-002   -8.931735345791446E-031
  1.200000000000000E-002   -1.378732534528077E-030
  1.210000000000000E-002   -1.836984781921810E-030
  1.220000000000000E-002   -2.211131924722842E-030
  1.230000000000000E-002   -2.439576269249261E-030
  1.240000000000000E-002   -2.461440457528288E-030
  1.250000000000000E-002   -2.223314818616964E-030
  1.260000000000000E-002   -1.686799136506698E-030
  1.270000000000000E-002   -8.362196843802323E-031
  1.280000000000000E-002    3.142544464793202E-031
  1.290000000000000E-002    1.714987929324997E-030
  1.300000000000000E-002    3.277689953008215E-030
  1.310000000000000E-002    4.875563009345096E-030
  1.320000000000000E-002    6.347554106498607E-030
  1.330000000000000E-002    7.507227058987540E-030
  1.340000000000000E-002    8.156408037069788E-030
  1.350000000000000E-002    8.103299347961147E-030
  1.360000000000000E-002    7.184215642600942E-030
  1.370000000000000E-002    5.287514248436593E-030
  1.380000000000000E-002    2.377732146899145E-030
  1.390000000000000E-002   -1.482567139956114E-030
  1.400000000000000E-002   -6.116076280065857E-030
  1.410000000000000E-002   -1.122213530926289E-029
  1.420000000000000E-002   -1.637907221382073E-029
  1.430000000000000E-002   -2.105984157329512E-029
  1.440000000000000E-002   -2.466246991125087E-029
  1.450000000000000E-002   -2.655559253967877E-029
  1.460000000000000E-002   -2.613782782555957E-029
  1.470000000000000E-002   -2.290796557516330E-029
  1.480000000000000E-002   -1.654105868615841E-029
  1.490000000000000E-002   -6.963737390465684E-030
  1.500000000000000E-002    5.579449491878005E-030
  1.510000000000000E-002    2.047780606375195E-029
  1.520000000000000E-002    3.673369218145332E-029
  1.530000000000000E-002    5.297772033294289E-029
  1.540000000000000E-002    6.752661478726851E-029
  1.550000000000000E-002    7.848733137752046E-029
  1.560000000000000E-002    8.390695460445473E-029
  1.570000000000000E-002    8.196283618513211E-029
  1.580000000000000E-002    7.118190136162849E-029
  1.590000000000000E-002    5.067247932664565E-029
  1.600000000000000E-002    2.034699021743327E-029
  1.610000000000000E-002   -1.889003399801324E-029
  1.620000000000000E-002   -6.501595522604169E-029
  1.630000000000000E-002   -1.148528130968491E-028
  1.640000000000000E-002   -1.641420874971340E-028
  1.650000000000000E-002   -2.077476634954402E-028
  1.660000000000000E-002   -2.399933969722319E-028
  1.670000000000000E-002   -2.551287047135596E-028
  1.680000000000000E-002   -2.479010210867008E-028
  1.690000000000000E-002   -2.141982690768144E-028
  1.700000000000000E-002   -1.517097681117503E-028
  1.710000000000000E-002   -6.054126437437256E-029
  1.720000000000000E-002    5.628830310158502E-029
  1.730000000000000E-002    1.925434121834040E-028
  1.740000000000000E-002    3.387322654921557E-028
  1.750000000000000E-002    4.823881941910957E-028
  1.760000000000000E-002    6.087081851900133E-028
  1.770000000000000E-002    7.015555925549429E-028
  1.780000000000000E-002    7.447982929935235E-028
  1.790000000000000E-002    7.239144948708706E-028
  1.800000000000000E-002    6.277578648270247E-028
  1.810000000000000E-002    4.503373934854373E-028
  1.820000000000000E-002    1.924372708136746E-028
  1.830000000000000E-002   -1.371143618904463E-028
  1.840000000000000E-002   -5.207212755633191E-028
  1.850000000000000E-002   -9.320150225302156E-028
  1.860000000000000E-002   -1.336708874103134E-027
  1.870000000000000E-002   -1.694389290291437E-027