 -4.000000000000000E-002    0.000000000000000E+000
 -3.990000000000000E-002    0.000000000000000E+000
 -3.980000000000000E-002    0.000000000000000E+000
 -3.970000000000000E-002    0.000000000000000E+000
 -3.960000000000000E-002    0.000000000000000E+000
 -3.950000000000000E-002    0.000000000000000E+000
 -3.940000000000000E-002    0.000000000000000E+000
 -3.930000000000000E-002    0.000000000000000E+000
 -3.920000000000000E-002    0.000000000000000E+000
 -3.910000000000000E-002    0.000000000000000E+000
 -3.900000000000000E-002    0.000000000000000E+000
 -3.890000000000000E-002    0.000000000000000E+000
 -3.880000000000000E-002    0.000000000000000E+000
 -3.870000000000000E-002    0.000000000000000E+000
 -3.860000000000000E-002    0.000000000000000E+000
 -3.850000000000000E-002    0.000000000000000E+000
 -3.840000000000000E-002    0.000000000000000E+000
 -3.830000000000000E-002    0.000000000000000E+000
 -3.820000000000000E-002    0.000000000000000E+000
 -3.810000000000000E-002    0.000000000000000E+000
 -3.800000000000000E-002    0.000000000000000E+000
 -3.790000000000000E-002    0.000000000000000E+000
 -3.780000000000000E-002    0.000000000000000E+000
 -3.770000000000000E-002    0.000000000000000E+000
 -3.760000000000000E-002    0.000000000000000E+000
 -3.750000000000000E-002    0.000000000000000E+000
 -3.740000000000000E-002    0.000000000000000E+000
 -3.730000000000000E-002    0.000000000000000E+000
 -3.720000000000000E-002    0.000000000000000E+000
 -3.710000000000000E-002    0.000000000000000E+000
 -3.700000000000000E-002    0.000000000000000E+000
 -3.690000000000000E-002    0.000000000000000E+000
 -3.680000000000000E-002    0.000000000000000E+000
 -3.670000000000000E-002    0.000000000000000E+000
 -3.660000000000000E-002    0.000000000000000E+000
 -3.650000000000000E-002    0.000000000000000E+000
 -3.640000000000000E-002    0.000000000000000E+000
 -3.630000000000000E-002    0.000000000000000E+000
 -3.620000000000000E-002    0.000000000000000E+000
 -3.610000000000000E-002    0.000000000000000E+000
 -3.600000000000000E-002    0.000000000000000E+000
 -3.590000000000000E-002    0.000000000000000E+000
 -3.580000000000000E-002    0.000000000000000E+000
 -3.570000000000000E-002    0.000000000000000E+000
 -3.560000000000000E-002    0.000000000000000E+000
 -3.550000000000000E-002    0.000000000000000E+000
 -3.540000000000000E-002    0.000000000000000E+000
 -3.530000000000000E-002    0.000000000000000E+000
 -3.520000000000000E-002    0.000000000000000E+000
 -3.510000000000000E-002    0.000000000000000E+000
 -3.500000000000000E-002    0.000000000000000E+000
 -3.490000000000000E-002    0.000000000000000E+000
 -3.480000000000000E-002    0.000000000000000E+000
 -3.470000000000000E-002    0.000000000000000E+000
 -3.460000000000000E-002    0.000000000000000E+000
 -3.450000000000000E-002    0.000000000000000E+000
 -3.440000000000000E-002    0.000000000000000E+000
 -3.430000000000000E-002    0.000000000000000E+000
 -3.420000000000000E-002    0.000000000000000E+000
 -3.410000000000000E-002    0.000000000000000E+000
 -3.400000000000000E-002    0.000000000000000E+000
 -3.390000000000000E-002    0.000000000000000E+000
 -3.380000000000000E-002    0.000000000000000E+000
 -3.370000000000000E-002    0.000000000000000E+000
 -3.360000000000000E-002    0.000000000000000E+000
 -3.350000000000000E-002    0.000000000000000E+000
 -3.340000000000000E-002    0.000000000000000E+000
 -3.330000000000000E-002    0.000000000000000E+000
 -3.320000000000000E-002    0.000000000000000E+000
 -3.310000000000000E-002    0.000000000000000E+000
 -3.300000000000000E-002    0.000000000000000E+000
 -3.290000000000000E-002    0.000000000000000E+000
 -3.280000000000000E-002    0.000000000000000E+000
 -3.270000000000000E-002    0.000000000000000E+000
 -3.260000000000000E-002    0.000000000000000E+000
 -3.250000000000000E-002    0.000000000000000E+000
 -3.240000000000000E-002    0.000000000000000E+000
 -3.230000000000000E-002    0.000000000000000E+000
 -3.220000000000000E-002    0.000000000000000E+000
 -3.210000000000000E-002    0.000000000000000E+000
 -3.200000000000000E-002    0.000000000000000E+000
 -3.190000000000000E-002    0.000000000000000E+000
 -3.180000000000000E-002    0.000000000000000E+000
 -3.170000000000000E-002    0.000000000000000E+000
 -3.160000000000000E-002    0.000000000000000E+000
 -3.150000000000000E-002    0.000000000000000E+000
 -3.140000000000000E-002    0.000000000000000E+000
 -3.130000000000000E-002    0.000000000000000E+000
 -3.120000000000000E-002    0.000000000000000E+000
 -3.110000000000000E-002    0.000000000000000E+000
 -3.100000000000000E-002    0.000000000000000E+000
 -3.090000000000000E-002    0.000000000000000E+000
 -3.080000000000000E-002    0.000000000000000E+000
 -3.070000000000000E-002    0.000000000000000E+000
 -3.060000000000000E-002    0.000000000000000E+000
 -3.050000000000000E-002    0.000000000000000E+000
 -3.040000000000000E-002    0.000000000000000E+000
 -3.030000000000000E-002    0.000000000000000E+000
 -3.020000000000000E-002    0.000000000000000E+000
 -3.010000000000000E-002    0.000000000000000E+000
 -3.000000000000000E-002    0.000000000000000E+000
 -2.990000000000000E-002    0.000000000000000E+000
 -2.980000000000000E-002    0.000000000000000E+000
 -2.970000000000000E-002    0.000000000000000E+000
 -2.960000000000000E-002    0.000000000000000E+000
 -2.950000000000000E-002    0.000000000000000E+000
 -2.940000000000000E-002    0.000000000000000E+000
 -2.930000000000000E-002    0.000000000000000E+000
 -2.920000000000000E-002    0.000000000000000E+000
 -2.910000000000000E-002    0.000000000000000E+000
 -2.900000000000000E-002    0.000000000000000E+000
 -2.890000000000000E-002    0.000000000000000E+000
 -2.880000000000000E-002    0.000000000000000E+000
 -2.870000000000000E-002    0.000000000000000E+000
 -2.860000000000000E-002    0.000000000000000E+000
 -2.850000000000000E-002    0.000000000000000E+000
 -2.840000000000000E-002    0.000000000000000E+000
 -2.830000000000000E-002    0.000000000000000E+000
 -2.820000000000000E-002    0.000000000000000E+000
 -2.810000000000000E-002    0.000000000000000E+000
 -2.800000000000000E-002    0.000000000000000E+000
 -2.790000000000000E-002    0.000000000000000E+000
 -2.780000000000000E-002    0.000000000000000E+000
 -2.770000000000000E-002    0.000000000000000E+000
 -2.760000000000000E-002    0.000000000000000E+000
 -2.750000000000000E-002    0.000000000000000E+000
 -2.740000000000000E-002    0.000000000000000E+000
 -2.730000000000000E-002    0.000000000000000E+000
 -2.720000000000000E-002    0.000000000000000E+000
 -2.710000000000000E-002    0.000000000000000E+000
 -2.700000000000000E-002    0.000000000000000E+000
 -2.690000000000000E-002    0.000000000000000E+000
 -2.680000000000000E-002    0.000000000000000E+000
 -2.670000000000000E-002    0.000000000000000E+000
 -2.660000000000000E-002    0.000000000000000E+000
 -2.650000000000000E-002    0.000000000000000E+000
 -2.640000000000000E-002    0.000000000000000E+000
 -2.630000000000000E-002    0.000000000000000E+000
 -2.620000000000000E-002    0.000000000000000E+000
 -2.610000000000000E-002    0.000000000000000E+000
 -2.600000000000000E-002    0.000000000000000E+000
 -2.590000000000000E-002    0.000000000000000E+000
 -2.580000000000000E-002    0.000000000000000E+000
 -2.570000000000000E-002    0.000000000000000E+000
 -2.560000000000000E-002    0.000000000000000E+000
 -2.550000000000000E-002    0.000000000000000E+000
 -2.540000000000000E-002    0.000000000000000E+000
 -2.530000000000000E-002    0.000000000000000E+000
 -2.520000000000000E-002    0.000000000000000E+000
 -2.510000000000000E-002    0.000000000000000E+000
 -2.500000000000000E-002    0.000000000000000E+000
 -2.490000000000000E-002    0.000000000000000E+000
 -2.480000000000000E-002    0.000000000000000E+000
 -2.470000000000000E-002    0.000000000000000E+000
 -2.460000000000000E-002    0.000000000000000E+000
 -2.450000000000000E-002    0.000000000000000E+000
 -2.440000000000000E-002    0.000000000000000E+000
 -2.430000000000000E-002    0.000000000000000E+000
 -2.420000000000000E-002    0.000000000000000E+000
 -2.410000000000000E-002    0.000000000000000E+000
 -2.400000000000000E-002    0.000000000000000E+000
 -2.390000000000000E-002    0.000000000000000E+000
 -2.380000000000000E-002    0.000000000000000E+000
 -2.370000000000000E-002    0.000000000000000E+000
 -2.360000000000000E-002    0.000000000000000E+000
 -2.350000000000000E-002    0.000000000000000E+000
 -2.340000000000000E-002    0.000000000000000E+000
 -2.330000000000000E-002    0.000000000000000E+000
 -2.320000000000000E-002    0.000000000000000E+000
 -2.310000000000000E-002    0.000000000000000E+000
 -2.300000000000000E-002    0.000000000000000E+000
 -2.290000000000000E-002    0.000000000000000E+000
 -2.280000000000000E-002    0.000000000000000E+000
 -2.270000000000000E-002    0.000000000000000E+000
 -2.260000000000000E-002    0.000000000000000E+000
 -2.250000000000000E-002    0.000000000000000E+000
 -2.240000000000000E-002    0.000000000000000E+000
 -2.230000000000000E-002    0.000000000000000E+000
 -2.220000000000000E-002    0.000000000000000E+000
 -2.210000000000000E-002    0.000000000000000E+000
 -2.200000000000000E-002    0.000000000000000E+000
 -2.190000000000000E-002    0.000000000000000E+000
 -2.180000000000000E-002    0.000000000000000E+000
 -2.170000000000000E-002    0.000000000000000E+000
 -2.160000000000000E-002    0.000000000000000E+000
 -2.150000000000000E-002    0.000000000000000E+000
 -2.140000000000000E-002    0.000000000000000E+000
 -2.130000000000000E-002    0.000000000000000E+000
 -2.120000000000000E-002    0.000000000000000E+000
 -2.110000000000000E-002    0.000000000000000E+000
 -2.100000000000000E-002    0.000000000000000E+000
 -2.090000000000000E-002    0.000000000000000E+000
 -2.080000000000000E-002    0.000000000000000E+000
 -2.070000000000000E-002    0.000000000000000E+000
 -2.060000000000000E-002    0.000000000000000E+000
 -2.050000000000000E-002    0.000000000000000E+000
 -2.040000000000000E-002    0.000000000000000E+000
 -2.030000000000000E-002    0.000000000000000E+000
 -2.020000000000000E-002    0.000000000000000E+000
 -2.010000000000000E-002    0.000000000000000E+000
 -2.000000000000000E-002    0.000000000000000E+000
 -1.990000000000000E-002    0.000000000000000E+000
 -1.980000000000000E-002    0.000000000000000E+000
 -1.970000000000000E-002    0.000000000000000E+000
 -1.960000000000000E-002    3.264376616938309E-048
 -1.950000000000000E-002    2.176249491772641E-049
 -1.940000000000000E-002    6.746378183053882E-048
 -1.930000000000000E-002   -1.262578665522888E-047
 -1.920000000000000E-002    7.748033714266653E-048
 -1.910000000000000E-002   -7.905020095333978E-048
 -1.900000000000000E-002   -5.315508840655665E-047
 -1.890000000000000E-002   -1.739011924759537E-046
 -1.880000000000000E-002   -2.590863114199906E-046
 -1.870000000000000E-002   -4.488909856223261E-046
 -1.860000000000000E-002   -5.763550585684478E-046
 -1.850000000000000E-002   -6.155195455995439E-046
 -1.840000000000000E-002   -4.550688135061750E-046
 -1.830000000000000E-002    3.333758739805801E-047
 -1.820000000000000E-002    1.376184618779995E-045
 -1.810000000000000E-002    4.433845128931878E-045
 -1.800000000000000E-002    7.447875654695775E-045
 -1.790000000000000E-002    1.191370251304247E-044
 -1.780000000000000E-002    1.694813735885627E-044
 -1.770000000000000E-002    2.138918015920693E-044
 -1.760000000000000E-002    2.189152344213312E-044
 -1.750000000000000E-002    1.662423845207177E-044
 -1.740000000000000E-002    2.141510939265936E-045
 -1.730000000000000E-002   -2.443364005505728E-044
 -1.720000000000000E-002   -6.463656268856057E-044
 -1.710000000000000E-002   -1.171934585452329E-043
 -1.700000000000000E-002   -1.751189981964249E-043
 -1.690000000000000E-002   -2.283912283890486E-043
 -1.680000000000000E-002   -2.564881005669325E-043
 -1.670000000000000E-002   -2.355418169486519E-043
 -1.660000000000000E-002   -1.367138107909072E-043
 -1.650000000000000E-002    6.745187355842941E-044
 -1.640000000000000E-002    3.934591719202998E-043
 -1.630000000000000E-002    8.385708329988172E-043
 -1.620000000000000E-002    1.366025341888479E-042
 -1.610000000000000E-002    1.892535887827335E-042
 -1.600000000000000E-002    2.283790406328074E-042
 -1.590000000000000E-002    2.355110794787620E-042
 -1.580000000000000E-002    1.888383107933591E-042
 -1.570000000000000E-002    6.653045561284977E-043
 -1.560000000000000E-002   -1.475884259713278E-042
 -1.550000000000000E-002   -4.569598692861667E-042
 -1.540000000000000E-002   -8.436176198741762E-042
 -1.530000000000000E-002   -1.260380719275459E-041
 -1.520000000000000E-002   -1.625308124395442E-041
 -1.510000000000000E-002   -1.821581387568387E-041
 -1.500000000000000E-002   -1.705805493276378E-041
 -1.490000000000000E-002   -1.127268005458582E-041
 -1.480000000000000E-002    4.047456387753536E-043
 -1.470000000000000E-002    1.856311443569321E-041
 -1.460000000000000E-002    4.261574128855156E-041
 -1.450000000000000E-002    7.029630223930241E-041
 -1.440000000000000E-002    9.728993205139467E-041
 -1.430000000000000E-002    1.171310825936619E-040
 -1.420000000000000E-002    1.215579599093923E-040
 -1.410000000000000E-002    1.014439404078494E-040
 -1.400000000000000E-002    4.840973667921774E-041
 -1.390000000000000E-002   -4.291476224810982E-041
 -1.380000000000000E-002   -1.721763138076002E-040
 -1.370000000000000E-002   -3.305089863413721E-040
 -1.360000000000000E-002   -4.982567285934029E-040
 -1.350000000000000E-002   -6.439737808884710E-040
 -1.340000000000000E-002   -7.255257141912611E-040
 -1.330000000000000E-002   -6.940514674851843E-040
 -1.320000000000000E-002   -5.012706720495224E-040
 -1.310000000000000E-002   -1.100980207889160E-040
 -1.300000000000000E-002    4.921940158999548E-040
 -1.290000000000000E-002    1.279952119048743E-039
 -1.280000000000000E-002    2.176859542950431E-039
 -1.270000000000000E-002    3.048813134068276E-039
 -1.260000000000000E-002    3.705761868127344E-039
 -1.250000000000000E-002    3.916077633266916E-039
 -1.240000000000000E-002    3.435909793765184E-039
 -1.230000000000000E-002    2.053861221700694E-039
 -1.220000000000000E-002   -3.517512278587432E-040
 -1.210000000000000E-002   -3.749590706242350E-039
 -1.200000000000000E-002   -7.896480905148533E-039
 -1.190000000000000E-002   -1.229700103226743E-038
 -1.180000000000000E-002   -1.619736806307134E-038
 -1.170000000000000E-002   -1.862878959586913E-038
 -1.160000000000000E-002   -1.851146628075408E-038
 -1.150000000000000E-002   -1.482244237586652E-038
 -1.140000000000000E-002   -6.818774889906040E-039
 -1.130000000000000E-002    5.707035120878417E-039
 -1.120000000000000E-002    2.217778607931980E-038
 -1.110000000000000E-002    4.104033447155789E-038
 -1.100000000000000E-002    5.969207546376472E-038
 -1.090000000000000E-002    7.458360373107737E-038
 -1.080000000000000E-002    8.154241167726336E-038
 -1.070000000000000E-002    7.633498881460227E-038
 -1.060000000000000E-002    5.544372657358686E-038
 -1.050000000000000E-002    1.698423457651372E-038
 -1.040000000000000E-002   -3.836513268848688E-038
 -1.030000000000000E-002   -1.065968612814974E-037
 -1.020000000000000E-002   -1.799744599578460E-037
 -1.010000000000000E-002   -2.472005479202504E-037
 -1.000000000000000E-002   -2.943102797249673E-037
 -9.899999999999999E-003   -3.063593078339346E-037
 -9.800000000000000E-003   -2.698428637508080E-037
 -9.699999999999999E-003   -1.756194318313174E-037
 -9.599999999999999E-003   -2.194259298464849E-038
 -9.500000000000000E-003    1.829429986570057E-037
 -9.399999999999999E-003    4.192705021763146E-037
 -9.299999999999999E-003    6.559018676016726E-037
 -9.200000000000000E-003    8.526388365033339E-037
 -9.099999999999999E-003    9.648955170118118E-037
 -8.999999999999999E-003    9.505320686610958E-037
 -8.900000000000000E-003    7.781645114826486E-037
 -8.799999999999999E-003    4.357755512720600E-037
 -8.699999999999999E-003   -6.195650968127085E-038
 -8.600000000000000E-003   -6.693945033282665E-037
 -8.499999999999999E-003   -1.310435682799239E-036
 -8.399999999999999E-003   -1.884982396391555E-036
 -8.300000000000000E-003   -2.281752044549237E-036
 -8.199999999999999E-003   -2.396606513203522E-036
 -8.100000000000000E-003   -2.154211125094323E-036
 -8.000000000000000E-003   -1.529517067743129E-036
 -7.899999999999999E-003   -5.645849536394181E-037
 -7.800000000000000E-003    6.240599326999783E-037
 -7.699999999999999E-003    1.851762415090744E-036
 -7.599999999999999E-003    2.888322410084200E-036
 -7.499999999999999E-003    3.496678470631607E-036
 -7.399999999999999E-003    3.484020172203228E-036
 -7.299999999999999E-003    2.757848845925113E-036
 -7.199999999999999E-003    1.376091472769562E-036
 -7.100000000000000E-003   -4.217879331266606E-037
 -6.999999999999999E-003   -2.215750774002890E-036
 -6.899999999999999E-003   -3.448579124393923E-036
 -6.800000000000000E-003   -3.516201575507778E-036
 -6.699999999999999E-003   -1.900789518196321E-036
 -6.599999999999999E-003    1.668169775180794E-036
 -6.499999999999999E-003    7.050589778343391E-036
 -6.399999999999999E-003    1.356524220595436E-035
 -6.299999999999999E-003    1.993186035869998E-035
 -6.199999999999999E-003    2.432415638033692E-035
 -6.100000000000000E-003    2.456210067808183E-035
 -5.999999999999999E-003    1.845294448302120E-035
 -5.899999999999999E-003    4.263648369531424E-036
 -5.800000000000000E-003   -1.872457475464483E-035
 -5.699999999999999E-003   -4.966145554447530E-035
 -5.599999999999999E-003   -8.568130181794496E-035
 -5.499999999999999E-003   -1.216886280581883E-034
 -5.399999999999999E-003   -1.504953034946380E-034
 -5.299999999999999E-003   -1.634014264756050E-034
 -5.199999999999999E-003   -1.512599127478136E-034
 -5.099999999999999E-003   -1.059901791241379E-034
 -4.999999999999999E-003   -2.241546355787952E-035
 -4.899999999999999E-003    9.979497829594021E-035
 -4.799999999999999E-003    2.543806990628982E-034
 -4.699999999999999E-003    4.272978419955569E-034
 -4.599999999999999E-003    5.964442386177958E-034
 -4.499999999999999E-003    7.326186230575459E-034
 -4.399999999999999E-003    8.019187063507519E-034
 -4.299999999999999E-003    7.696107461399352E-034
 -4.199999999999999E-003    6.052843124920513E-034
 -4.099999999999999E-003    2.888637977890727E-034
 -3.999999999999999E-003   -1.831878085275080E-034
 -3.899999999999999E-003   -7.923264253526100E-034
 -3.799999999999999E-003   -1.494012678684228E-033
 -3.699999999999999E-003   -2.216392108952598E-033
 -3.599999999999999E-003   -2.862412182504124E-033
 -3.499999999999999E-003   -3.315953011678216E-033
 -3.399999999999999E-003   -3.452168966528233E-033
 -3.299999999999999E-003   -3.151754773602570E-033
 -3.199999999999999E-003   -2.318321726055911E-033
 -3.099999999999999E-003   -8.975223965519253E-034
 -2.999999999999999E-003    1.103926129875369E-033
 -2.899999999999999E-003    3.601576030396548E-033
 -2.799999999999999E-003    6.421457129511435E-033
 -2.699999999999999E-003    9.295754994911338E-033
 -2.599999999999999E-003    1.186843818799333E-032
 -2.499999999999999E-003    1.371293961409657E-032
 -2.399999999999999E-003    1.436333905789469E-032
 -2.299999999999999E-003    1.335953276963021E-032
 -2.199999999999999E-003    1.030553806027691E-032
 -2.099999999999999E-003    4.938382132475529E-033
 -1.999999999999999E-003   -2.797059003036247E-033
 -1.899999999999999E-003   -1.267421903594941E-032
 -1.799999999999999E-003   -2.412140193133270E-032
 -1.699999999999999E-003   -3.618037146287427E-032
 -1.599999999999999E-003   -4.750011619711757E-032
 -1.499999999999999E-003   -5.637934375421876E-032
 -1.399999999999999E-003   -6.086970134188788E-032
 -1.299999999999999E-003   -5.894794093049495E-032
 -1.199999999999999E-003   -4.875835618401343E-032
 -1.099999999999999E-003   -2.891731742598392E-032
 -9.999999999999989E-004    1.140650074269019E-033
 -8.999999999999990E-004    4.080951089088103E-032
 -7.999999999999990E-004    8.799912658197599E-032
 -6.999999999999989E-004    1.389227920190264E-031
 -5.999999999999990E-004    1.880505056773035E-031
 -4.999999999999989E-004    2.282917000807739E-031
 -3.999999999999989E-004    2.514588435854082E-031
 -2.999999999999989E-004    2.490385593145128E-031
 -1.999999999999989E-004    2.132598533160487E-031
 -9.999999999999892E-005    1.384012316670928E-031
  1.084202172485504E-018    2.222392241954351E-032
  1.000000000000011E-004   -1.326354779174748E-031
  2.000000000000011E-004   -3.175262275692413E-031
  3.000000000000011E-004   -5.171389510191211E-031
  4.000000000000011E-004   -7.095958136294190E-031
  5.000000000000011E-004   -8.674800902650021E-031
  6.000000000000011E-004   -9.599317903938367E-031
  7.000000000000011E-004   -9.558203396700712E-031
  8.000000000000011E-004   -8.278523615352998E-031
  9.000000000000012E-004   -5.573022596728722E-031
  1.000000000000001E-003   -1.388811318563851E-031
  1.100000000000001E-003    4.148886165462204E-031
  1.200000000000001E-003    1.070518511075014E-030
  1.300000000000001E-003    1.772361175971772E-030
  1.400000000000001E-003    2.444039091695056E-030
  1.500000000000001E-003    2.992954924422868E-030
  1.600000000000001E-003    3.318042909819645E-030
  1.700000000000001E-003    3.320519455725648E-030
  1.800000000000001E-003    2.916945240888188E-030
  1.900000000000001E-003    2.053444439756064E-030
  2.000000000000001E-003    7.195275241201194E-031
  2.100000000000001E-003   -1.040322104313984E-030
  2.200000000000001E-003   -3.119240812516702E-030
  2.300000000000001E-003   -5.346577222795896E-030
  2.400000000000001E-003   -7.493922962941833E-030
  2.500000000000001E-003   -9.289389370138962E-030
  2.600000000000001E-003   -1.044009027270821E-029
  2.700000000000001E-003   -1.066180157991633E-029
  2.800000000000001E-003   -9.713722810298322E-030
  2.900000000000001E-003   -7.435299238866324E-030
  3.000000000000001E-003   -3.781291408162786E-030
  3.100000000000001E-003    1.149177971442112E-030
  3.200000000000001E-003    7.093918717491894E-030
  3.300000000000001E-003    1.362320166379700E-029
  3.400000000000001E-003    2.015250301804010E-029
  3.500000000000001E-003    2.597413088777566E-029
  3.600000000000001E-003    3.030763775647740E-029
  3.700000000000001E-003    3.236712012033363E-029
  3.800000000000001E-003    3.144141961485148E-029
  3.900000000000001E-003    2.698154375580541E-029
  4.000000000000001E-003    1.868799241217896E-029
  4.100000000000001E-003    6.589698589086232E-030
  4.200000000000001E-003   -8.894203491581873E-030
  4.300000000000001E-003   -2.691840578957190E-029
  4.400000000000001E-003   -4.620889495955363E-029
  4.500000000000001E-003   -6.509997154090789E-029
  4.600000000000002E-003   -8.161457738063536E-029
  4.700000000000001E-003   -9.358888812612368E-029
  4.800000000000001E-003   -9.883864544638216E-029
  4.900000000000002E-003   -9.536092759638383E-029
  5.000000000000001E-003   -8.156105555081411E-029
  5.100000000000001E-003   -5.649007971130013E-029
  5.200000000000001E-003   -2.007450536460514E-029
  5.300000000000002E-003    2.668378590031408E-029
  5.400000000000001E-003    8.156170683135880E-029
  5.500000000000001E-003    1.410488039760247E-028
  5.600000000000002E-003    2.003857769037040E-028
  5.700000000000001E-003    2.537289923679787E-028
  5.800000000000001E-003    2.944565210185611E-028
  5.900000000000002E-003    3.156216963872600E-028
  6.000000000000001E-003    3.105475604355959E-028
  6.100000000000001E-003    2.735399634733194E-028
  6.200000000000002E-003    2.006796497931737E-028
  6.300000000000002E-003    9.063478083729441E-029
  6.400000000000001E-003   -5.458144132793084E-029
  6.500000000000001E-003   -2.289980294276525E-028
  6.600000000000002E-003   -4.223167468641381E-028
  6.700000000000001E-003   -6.198844111123773E-028
  6.800000000000001E-003   -8.030954438718561E-028
  6.900000000000002E-003   -9.502912464046581E-028
  7.000000000000001E-003   -1.038187424370867E-027
  7.100000000000001E-003   -1.043814056122828E-027
  7.200000000000002E-003   -9.468965612425554E-028
  7.300000000000002E-003   -7.325411342513078E-028
  7.400000000000001E-003   -3.940256726770584E-028
  7.500000000000001E-003    6.456368120813214E-029
  7.600000000000002E-003    6.261550767831383E-028
  7.700000000000001E-003    1.259302891728764E-027
  7.800000000000001E-003    1.917918729989069E-027
  7.900000000000001E-003    2.542412784030474E-027
  8.000000000000002E-003    3.062462805870080E-027
  8.100000000000001E-003    3.401514218533387E-027
  8.200000000000001E-003    3.482967413565128E-027
  8.300000000000002E-003    3.237822806845951E-027
  8.400000000000001E-003    2.613358950038098E-027
  8.500000000000002E-003    1.582219638527833E-027
  8.600000000000002E-003    1.510955075536449E-028
  8.700000000000001E-003   -1.631961599454981E-027
  8.800000000000002E-003   -3.672634952040240E-027
  8.900000000000002E-003   -5.828903719956919E-027
  9.000000000000001E-003   -7.914018566797024E-027
  9.100000000000002E-003   -9.704621167064360E-027
  9.200000000000002E-003   -1.095440727956695E-026
  9.300000000000001E-003   -1.141326149286310E-026
  9.400000000000002E-003   -1.085124264511568E-026
  9.500000000000001E-003   -9.086154350058480E-027
  9.600000000000001E-003   -6.012800449980128E-027
  9.700000000000002E-003   -1.631386473423514E-027
  9.800000000000001E-003    3.927964552853035E-027
  9.900000000000001E-003    1.038795494460611E-026
  1.000000000000000E-002    1.731754718044858E-026
  1.010000000000000E-002    2.413925632559411E-026
  1.020000000000000E-002    3.015280058979341E-026
  1.030000000000000E-002    3.457658119675631E-026
  1.040000000000000E-002    3.660695302411726E-026
  1.050000000000000E-002    3.549345576933463E-026
  1.060000000000000E-002    3.062611159873548E-026
  1.070000000000000E-002    2.162874292214087E-026
  1.080000000000000E-002    8.450239435919841E-027
  1.090000000000000E-002   -8.555961607809068E-027
  1.100000000000000E-002   -2.857501251685808E-026
  1.110000000000000E-002   -5.030736488069893E-026
  1.120000000000000E-002   -7.198913377554050E-026
  1.130000000000000E-002   -9.146396501832967E-026
  1.140000000000000E-002   -1.063108236321485E-025
  1.150000000000000E-002   -1.140272488508873E-025
  1.160000000000000E-002   -1.122619227006406E-025
  1.170000000000000E-002   -9.908381368759325E-026
  1.180000000000000E-002   -7.326864930105731E-026
  1.190000000000000E-002   -3.457731695631276E-026
  1.200000000000000E-002    1.600386521595592E-026
  1.210000000000000E-002    7.609391881829496E-026
  1.220000000000000E-002    1.418515362752255E-025
  1.230000000000000E-002    2.080421516961018E-025
  1.240000000000000E-002    2.682594388179012E-025
  1.250000000000000E-002    3.153117773645978E-025
  1.260000000000000E-002    3.417695748247960E-025
  1.270000000000000E-002    3.406522005887032E-025
  1.280000000000000E-002    3.062146002022217E-025
  1.290000000000000E-002    2.347749032297187E-025
  1.300000000000000E-002    1.255089004615685E-025
  1.310000000000000E-002   -1.887527304540752E-026
  1.320000000000000E-002   -1.916742520901719E-025
  1.330000000000000E-002   -3.820272260502963E-025
  1.340000000000000E-002   -5.751311929816109E-025
  1.350000000000000E-002   -7.528882506259536E-025
  1.360000000000000E-002   -8.950067965575039E-025
  1.370000000000000E-002   -9.805374965558961E-025
  1.380000000000000E-002   -9.897790808233749E-025
  1.390000000000000E-002   -9.064385039452731E-025
  1.400000000000000E-002   -7.198838346161485E-025
  1.410000000000000E-002   -4.272877933516979E-025
  1.420000000000000E-002   -3.543157509604170E-026
  1.430000000000000E-002    4.380703901511600E-025
  1.440000000000000E-002    9.643553646620853E-025
  1.450000000000000E-002    1.503899237273628E-024
  1.460000000000000E-002    2.008238686567386E-024
  1.470000000000000E-002    2.422877298927912E-024
  1.480000000000000E-002    2.691316464183034E-024
  1.490000000000000E-002    2.760036509216407E-024
  1.500000000000000E-002    2.584129866838244E-024
  1.510000000000000E-002    2.133167303395946E-024
  1.520000000000000E-002    1.396784605094436E-024
  1.530000000000000E-002    3.894104665724629E-025
  1.540000000000000E-002   -8.464735854723974E-025
  1.550000000000000E-002   -2.239111865691330E-024
  1.560000000000000E-002   -3.688779018785606E-024
  1.570000000000000E-002   -5.071943109496872E-024
  1.580000000000000E-002   -6.248412407029359E-024
  1.590000000000000E-002   -7.071329805810645E-024
  1.600000000000000E-002   -7.399590834663248E-024
  1.610000000000000E-002   -7.111952564993442E-024
  1.620000000000000E-002   -6.121826152174377E-024
  1.630000000000000E-002   -4.391484094667334E-024
  1.640000000000000E-002   -1.944272559751450E-024
  1.650000000000000E-002    1.126664186407439E-024
  1.660000000000000E-002    4.654556587260888E-024
  1.670000000000000E-002    8.401289874988431E-024
  1.680000000000000E-002    1.206663409169961E-023
  1.690000000000000E-002    1.530476616814730E-023
  1.700000000000000E-002    1.774781759911454E-023
  1.710000000000000E-002    1.903547585123132E-023
  1.720000000000000E-002    1.884895613840192E-023
  1.730000000000000E-002    1.694696862982915E-023
  1.740000000000000E-002    1.320073842956600E-023
  1.750000000000000E-002    7.624708955220698E-024
  1.760000000000000E-002    3.994593713012666E-025
  1.770000000000000E-002   -8.116567017038711E-024
  1.780000000000000E-002   -1.738938342867591E-023
  1.790000000000000E-002   -2.672792196204357E-023
  1.800000000000000E-002   -3.531957443527986E-023
  1.810000000000000E-002   -4.228235268130227E-023
  1.820000000000000E-002   -4.673166711157033E-023
  1.830000000000000E-002   -4.785804255842652E-023
  1.840000000000000E-002   -4.501057357472616E-023
  1.850000000000000E-002   -3.777963951582287E-023
  1.860000000000000E-002   -2.607137113006966E-023
  1.870000000000000E-002   -1.016608333189143E-023