 -4.000000000000000E-002    0.000000000000000E+000
 -3.990000000000000E-002    0.000000000000000E+000
 -3.980000000000000E-002    0.000000000000000E+000
 -3.970000000000000E-002    0.000000000000000E+000
 -3.960000000000000E-002    0.000000000000000E+000
 -3.950000000000000E-002    0.000000000000000E+000
 -3.940000000000000E-002    0.000000000000000E+000
 -3.930000000000000E-002    0.000000000000000E+000
 -3.920000000000000E-002    0.000000000000000E+000
 -3.910000000000000E-002    0.000000000000000E+000
 -3.900000000000000E-002    0.000000000000000E+000
 -3.890000000000000E-002    0.000000000000000E+000
 -3.880000000000000E-002    0.000000000000000E+000
 -3.870000000000000E-002   -5.859423381545351E-044
 -3.860000000000000E-002   -1.401555855809421E-042
 -3.850000000000000E-002   -1.735653939735365E-041
 -3.840000000000000E-002   -1.482606456905372E-040
 -3.830000000000000E-002   -9.847957240607154E-040
 -3.820000000000000E-002   -5.437360687296340E-039
 -3.810000000000000E-002   -2.605320960167173E-038
 -3.800000000000000E-002   -1.116484080855465E-037
 -3.790000000000000E-002   -4.373479430910627E-037
 -3.780000000000000E-002   -1.590767579614628E-036
 -3.770000000000000E-002   -5.431823526767986E-036
 -3.760000000000000E-002   -1.753802371484112E-035
 -3.750000000000000E-002   -5.378372381499808E-035
 -3.740000000000000E-002   -1.570668183650231E-034
 -3.730000000000000E-002   -4.374420817463564E-034
 -3.720000000000000E-002   -1.162895907842540E-033
 -3.710000000000000E-002   -2.952633910376048E-033
 -3.700000000000000E-002   -7.163775411174808E-033
 -3.690000000000000E-002   -1.661576840128441E-032
 -3.680000000000000E-002   -3.685359359173158E-032
 -3.670000000000000E-002   -7.817559702130449E-032
 -3.660000000000000E-002   -1.585657844633331E-031
 -3.650000000000000E-002   -3.073267854251835E-031
 -3.640000000000000E-002   -5.683735846376209E-031
 -3.630000000000000E-002   -1.000493758093920E-030
 -3.620000000000000E-002   -1.669035938292277E-030
 -3.610000000000000E-002   -2.619168625236040E-030
 -3.600000000000000E-002   -3.815112634039625E-030
 -3.590000000000000E-002   -5.023419678682693E-030
 -3.580000000000000E-002   -5.613629473592282E-030
 -3.570000000000000E-002   -4.250724617039327E-030
 -3.560000000000000E-002    1.532419418055218E-030
 -3.550000000000000E-002    1.585823257655009E-029
 -3.540000000000000E-002    4.502864560458256E-029
 -3.530000000000000E-002    9.783985484553047E-029
 -3.520000000000000E-002    1.853093647960072E-028
 -3.510000000000000E-002    3.192226466745200E-028
 -3.500000000000000E-002    5.086737883936942E-028
 -3.490000000000000E-002    7.535842412605521E-028
 -3.480000000000000E-002    1.034140966358394E-027
 -3.470000000000000E-002    1.295356839921270E-027
 -3.460000000000000E-002    1.426721098099852E-027
 -3.450000000000000E-002    1.238400330716094E-027
 -3.440000000000000E-002    4.378679080404858E-028
 -3.430000000000000E-002   -1.385723548268411E-027
 -3.420000000000000E-002   -4.757766822022346E-027
 -3.410000000000000E-002   -1.027855981988988E-026
 -3.400000000000000E-002   -1.852702126497453E-026
 -3.390000000000000E-002   -2.988462510306911E-026
 -3.380000000000000E-002   -4.425817536326958E-026
 -3.370000000000000E-002   -6.068848792189315E-026
 -3.360000000000000E-002   -7.685012740320468E-026
 -3.350000000000000E-002   -8.847746796781494E-026
 -3.340000000000000E-002   -8.879619893819072E-026
 -3.330000000000000E-002   -6.809607220108556E-026
 -3.320000000000000E-002   -1.364663820939109E-026
 -3.310000000000000E-002    8.977594520828592E-026
 -3.300000000000000E-002    2.584298062187370E-025
 -3.290000000000000E-002    5.068737198842360E-025
 -3.280000000000000E-002    8.436541559901807E-025
 -3.270000000000000E-002    1.265229992136022E-024
 -3.260000000000000E-002    1.748187356414204E-024
 -3.250000000000000E-002    2.240165833465139E-024
 -3.240000000000000E-002    2.650429575612930E-024
 -3.230000000000000E-002    2.841658487179734E-024
 -3.220000000000000E-002    2.625259097141056E-024
 -3.210000000000000E-002    1.763221556913481E-024
 -3.200000000000000E-002   -1.985263138570859E-026
 -3.190000000000000E-002   -3.010638202141463E-024
 -3.180000000000000E-002   -7.463203932285110E-024
 -3.170000000000000E-002   -1.353467069794223E-023
 -3.160000000000000E-002   -2.119971875936257E-023
 -3.150000000000000E-002   -3.014645207491894E-023
 -3.140000000000000E-002   -3.966062323326107E-023
 -3.130000000000000E-002   -4.851093991319049E-023
 -3.120000000000000E-002   -5.485485167571544E-023
 -3.110000000000000E-002   -5.619119297068505E-023
 -3.100000000000000E-002   -4.939240658659386E-023
 -3.090000000000000E-002   -3.085349268553260E-023
 -3.080000000000000E-002    3.204486917860697E-024
 -3.070000000000000E-002    5.624340070030320E-023
 -3.060000000000000E-002    1.307091209038506E-022
 -3.050000000000000E-002    2.271262629800352E-022
 -3.040000000000000E-002    3.430206824968357E-022
 -3.030000000000000E-002    4.717471277210017E-022
 -3.020000000000000E-002    6.013514391457378E-022
 -3.010000000000000E-002    7.136546052900511E-022
 -3.000000000000000E-002    7.838015558671720E-022
 -2.990000000000000E-002    7.805633589117319E-022
 -2.980000000000000E-002    6.677050187085708E-022
 -2.970000000000000E-002    4.067169719830650E-022
 -2.960000000000000E-002   -3.885472366128534E-023
 -2.950000000000000E-002   -6.973734112904681E-022
 -2.940000000000000E-002   -1.581465787744255E-021
 -2.930000000000000E-002   -2.679133666627785E-021
 -2.920000000000000E-002   -3.944330747397221E-021
 -2.910000000000000E-002   -5.288092096367439E-021
 -2.900000000000000E-002   -6.571687020956208E-021
 -2.890000000000000E-002   -7.603590822984243E-021
 -2.880000000000000E-002   -8.142276611990488E-021
 -2.870000000000000E-002   -7.906822463356815E-021
 -2.860000000000000E-002   -6.597047701353952E-021
 -2.850000000000000E-002   -3.924248194644027E-021
 -2.840000000000000E-002    3.474324489075949E-022
 -2.830000000000000E-002    6.350395842666897E-021
 -2.820000000000000E-002    1.405689533679734E-020
 -2.810000000000000E-002    2.322139866130348E-020
 -2.800000000000000E-002    3.332911135974747E-020
 -2.790000000000000E-002    4.355947357820584E-020
 -2.780000000000000E-002    5.277452982612425E-020
 -2.770000000000000E-002    5.954223077834835E-020
 -2.760000000000000E-002    6.220354261212985E-020
 -2.750000000000000E-002    5.898958834831427E-020
 -2.740000000000000E-002    4.819061284644143E-020
 -2.730000000000000E-002    2.837265605219450E-020
 -2.720000000000000E-002   -1.369439086155636E-021
 -2.710000000000000E-002   -4.114201621940801E-020
 -2.700000000000000E-002   -8.999258890927037E-020
 -2.690000000000000E-002   -1.456934516290358E-019
 -2.680000000000000E-002   -2.046065235447414E-019
 -2.670000000000000E-002   -2.616675466785619E-019
 -2.660000000000000E-002   -3.105237453809387E-019
 -2.650000000000000E-002   -3.438492409640243E-019
 -2.640000000000000E-002   -3.538485154776577E-019
 -2.630000000000000E-002   -3.329379424535681E-019
 -2.620000000000000E-002   -2.745731029381820E-019
 -2.610000000000000E-002   -1.741655024764172E-019
 -2.600000000000000E-002   -3.000968670921136E-020
 -2.590000000000000E-002    1.558760359026748E-019
 -2.580000000000000E-002    3.771015793436589E-019
 -2.570000000000000E-002    6.225557104562051E-019
 -2.560000000000000E-002    8.764478828125390E-019
 -2.550000000000000E-002    1.118806673396743E-018
 -2.540000000000000E-002    1.326462479407446E-018
 -2.530000000000000E-002    1.474494091873843E-018
 -2.520000000000000E-002    1.538066235844668E-018
 -2.510000000000000E-002    1.494534687869505E-018
 -2.500000000000000E-002    1.325652816821340E-018
 -2.490000000000000E-002    1.019685935537435E-018
 -2.480000000000000E-002    5.732316584329452E-019
 -2.470000000000000E-002   -7.438982197810809E-021
 -2.460000000000000E-002   -7.056658777701305E-019
 -2.450000000000000E-002   -1.494394242721081E-018
 -2.440000000000000E-002   -2.336890402196634E-018
 -2.430000000000000E-002   -3.188113691195776E-018
 -2.420000000000000E-002   -3.996605870973593E-018
 -2.410000000000000E-002   -4.706715039653593E-018
 -2.400000000000000E-002   -5.260951343443302E-018
 -2.390000000000000E-002   -5.602291027780088E-018
 -2.380000000000000E-002   -5.676307879779746E-018
 -2.370000000000000E-002   -5.433101375217590E-018
 -2.360000000000000E-002   -4.829105441371298E-018
 -2.350000000000000E-002   -3.828969227807249E-018
 -2.340000000000000E-002   -2.407793855869298E-018
 -2.330000000000000E-002   -5.540334557540452E-019
 -2.320000000000000E-002    1.726665153161161E-018
 -2.310000000000000E-002    4.406547040516074E-018
 -2.300000000000000E-002    7.429844659586242E-018
 -2.290000000000000E-002    1.070627315563489E-017
 -2.280000000000000E-002    1.410467810023925E-017
 -2.270000000000000E-002    1.744792656377754E-017
 -2.260000000000000E-002    2.051044389459750E-017
 -2.250000000000000E-002    2.301994082687788E-017
 -2.240000000000000E-002    2.466486960830037E-017
 -2.230000000000000E-002    2.510884307073050E-017
 -2.220000000000000E-002    2.401272198469523E-017
 -2.210000000000000E-002    2.106423460225315E-017
 -2.200000000000000E-002    1.601398573676636E-017
 -2.190000000000000E-002    8.715518181298190E-018
 -2.180000000000000E-002   -8.340204873593647E-019
 -2.170000000000000E-002   -1.245706966074701E-017
 -2.160000000000000E-002   -2.576778202099277E-017
 -2.150000000000000E-002   -4.015828776160851E-017
 -2.140000000000000E-002   -5.480382849554716E-017
 -2.130000000000000E-002   -6.869022448826853E-017
 -2.120000000000000E-002   -8.066532304598514E-017
 -2.110000000000000E-002   -8.951356509857832E-017
 -2.100000000000000E-002   -9.405000163369707E-017
 -2.090000000000000E-002   -9.322716435817329E-017
 -2.080000000000000E-002   -8.624566741040902E-017
 -2.070000000000000E-002   -7.265741685778171E-017
 -2.060000000000000E-002   -5.244949001716941E-017
 -2.050000000000000E-002   -2.609713146796564E-017
 -2.040000000000000E-002    5.423669101777573E-018
 -2.030000000000000E-002    4.067017634057675E-017
 -2.020000000000000E-002    7.781491746039486E-017
 -2.010000000000000E-002    1.147716349344472E-016
 -2.000000000000000E-002    1.493551504335647E-016
 -1.990000000000000E-002    1.794599186054138E-016
 -1.980000000000000E-002    2.032377010863706E-016
 -1.970000000000000E-002    2.192527791385746E-016
 -1.960000000000000E-002    2.265934007323069E-016
 -1.950000000000000E-002    2.249215798724865E-016
 -1.940000000000000E-002    2.144494600044785E-016
 -1.930000000000000E-002    1.958393122209562E-016
 -1.920000000000000E-002    1.700348154488056E-016
 -1.910000000000000E-002    1.380423159681276E-016
 -1.900000000000000E-002    1.006912255819587E-016
 -1.890000000000000E-002    5.841054805784175E-017
 -1.880000000000000E-002    1.106286234854022E-017
 -1.870000000000000E-002   -4.212408605406265E-017
 -1.860000000000000E-002   -1.024946069015401E-016
 -1.850000000000000E-002   -1.717505594476928E-016
 -1.840000000000000E-002   -2.515825025830027E-016
 -1.830000000000000E-002   -3.431657533761220E-016
 -1.820000000000000E-002   -4.465646528816205E-016
 -1.810000000000000E-002   -5.601101035827677E-016
 -1.800000000000000E-002   -6.798344416699356E-016
 -1.790000000000000E-002   -7.990574162497016E-016
 -1.780000000000000E-002   -9.082189005205090E-016
 -1.770000000000000E-002   -9.950409636343038E-016
 -1.760000000000000E-002   -1.045079271405374E-015
 -1.750000000000000E-002   -1.042686210335156E-015
 -1.740000000000000E-002   -9.723644516287781E-016
 -1.730000000000000E-002   -8.204354059067909E-016
 -1.720000000000000E-002   -5.768994518199752E-016
 -1.710000000000000E-002   -2.373158842765370E-016
 -1.700000000000000E-002    1.955002221291240E-016
 -1.690000000000000E-002    7.101825921895260E-016
 -1.680000000000000E-002    1.286130226853496E-015
 -1.670000000000000E-002    1.893611149471163E-015
 -1.660000000000000E-002    2.494771804240146E-015
 -1.650000000000000E-002    3.045586860973876E-015
 -1.640000000000000E-002    3.498689486779531E-015
 -1.630000000000000E-002    3.806916894265369E-015
 -1.620000000000000E-002    3.927310299565316E-015
 -1.610000000000000E-002    3.825222397097407E-015
 -1.600000000000000E-002    3.478135615781985E-015
 -1.590000000000000E-002    2.878781689327736E-015
 -1.580000000000000E-002    2.037179198246489E-015
 -1.570000000000000E-002    9.812880208396819E-016
 -1.560000000000000E-002   -2.439004287386776E-016
 -1.550000000000000E-002   -1.578865235102357E-015
 -1.540000000000000E-002   -2.953500112436961E-015
 -1.530000000000000E-002   -4.292181143815604E-015
 -1.520000000000000E-002   -5.519482864379657E-015
 -1.510000000000000E-002   -6.565963283848131E-015
 -1.500000000000000E-002   -7.373383069019407E-015
 -1.490000000000000E-002   -7.898758562875571E-015
 -1.480000000000000E-002   -8.116745248207061E-015
 -1.470000000000000E-002   -8.020035674870019E-015
 -1.460000000000000E-002   -7.617682568210893E-015
 -1.450000000000000E-002   -6.931543427911264E-015
 -1.440000000000000E-002   -5.991304585353487E-015
 -1.430000000000000E-002   -4.828793032257366E-015
 -1.420000000000000E-002   -3.472446038495698E-015
 -1.410000000000000E-002   -1.942886290458900E-015
 -1.400000000000000E-002   -2.504774681198593E-016
 -1.390000000000000E-002    1.604441531402801E-015
 -1.380000000000000E-002    3.628266094514168E-015
 -1.370000000000000E-002    5.827818327263353E-015
 -1.360000000000000E-002    8.201522096860900E-015
 -1.350000000000000E-002    1.072903554755954E-014
 -1.340000000000000E-002    1.336071732244044E-014
 -1.330000000000000E-002    1.600857186032696E-014
 -1.320000000000000E-002    1.854042888962114E-014
 -1.310000000000000E-002    2.077896228870340E-014
 -1.300000000000000E-002    2.250680124705224E-014
 -1.290000000000000E-002    2.347841426491106E-014
 -1.280000000000000E-002    2.343864073466941E-014
 -1.270000000000000E-002    2.214694512863565E-014
 -1.260000000000000E-002    1.940554343286885E-014
 -1.250000000000000E-002    1.508880213991186E-014
 -1.240000000000000E-002    9.170769251435111E-015
 -1.230000000000000E-002    1.747422940369260E-015
 -1.220000000000000E-002   -6.949638947907307E-015
 -1.210000000000000E-002   -1.655080322094793E-014
 -1.200000000000000E-002   -2.655918772044777E-014
 -1.190000000000000E-002   -3.637509554622916E-014
 -1.180000000000000E-002   -4.533334623293079E-014
 -1.170000000000000E-002   -5.275114341657785E-014
 -1.160000000000000E-002   -5.798272519001014E-014
 -1.150000000000000E-002   -6.047605061187659E-014
 -1.140000000000000E-002   -5.982602320157745E-014
 -1.130000000000000E-002   -5.581878186806282E-014
 -1.120000000000000E-002   -4.846203707055024E-014
 -1.110000000000000E-002   -3.799762150520788E-014
 -1.100000000000000E-002   -2.489405112831975E-014
 -1.090000000000000E-002   -9.818838090907520E-015
 -1.080000000000000E-002    6.407530362970226E-015
 -1.070000000000000E-002    2.287206473215501E-014
 -1.060000000000000E-002    3.863859722392921E-014
 -1.050000000000000E-002    5.281934471145543E-014
 -1.040000000000000E-002    6.464163713126863E-014
 -1.030000000000000E-002    7.350326871670584E-014
 -1.020000000000000E-002    7.901101197252675E-014
 -1.010000000000000E-002    8.099880565724725E-014
 -1.000000000000000E-002    7.952443127265656E-014
 -9.899999999999999E-003    7.484587349016983E-014
 -9.800000000000000E-003    6.738100277594678E-014
 -9.699999999999999E-003    5.765613301611193E-014
 -9.599999999999999E-003    4.625009408458201E-014
 -9.500000000000000E-003    3.374091613240469E-014
 -9.399999999999999E-003    2.066150838898060E-014
 -9.299999999999999E-003    7.469342554769303E-015
 -9.200000000000000E-003   -5.467127607370651E-015
 -9.099999999999999E-003   -1.786507226395520E-014
 -8.999999999999999E-003   -2.950931317930689E-014
 -8.900000000000000E-003   -4.022453829700248E-014
 -8.799999999999999E-003   -4.984392279889513E-014
 -8.699999999999999E-003   -5.818125684824985E-014
 -8.600000000000000E-003   -6.501307265860200E-014
 -8.499999999999999E-003   -7.007600567612518E-014
 -8.399999999999999E-003   -7.308203993092098E-014
 -8.300000000000000E-003   -7.375151551870646E-014
 -8.199999999999999E-003   -7.186041704161144E-014
 -8.100000000000000E-003   -6.729577283048978E-014
 -8.000000000000000E-003   -6.011064805608592E-014
 -7.899999999999999E-003   -5.056937508911658E-014
 -7.800000000000000E-003   -3.917365344114313E-014
 -7.699999999999999E-003   -2.666220448216675E-014
 -7.599999999999999E-003   -1.397916422873290E-014
 -7.499999999999999E-003   -2.210630910013467E-015
 -7.399999999999999E-003    7.507333769748902E-015
 -7.299999999999999E-003    1.410129472967949E-014
 -7.199999999999999E-003    1.668296069239907E-014
 -7.100000000000000E-003    1.466793183307686E-014
 -6.999999999999999E-003    7.877148406620372E-015
 -6.899999999999999E-003   -3.391865958741530E-015
 -6.800000000000000E-003   -1.833379074237633E-014
 -6.699999999999999E-003   -3.565010789348395E-014
 -6.599999999999999E-003   -5.361047328460980E-014
 -6.499999999999999E-003   -7.015647608897709E-014
 -6.399999999999999E-003   -8.303924450868882E-014
 -6.299999999999999E-003   -8.997874623210595E-014
 -6.199999999999999E-003   -8.883122678698672E-014
 -6.100000000000000E-003   -7.775130292930438E-014
 -5.999999999999999E-003   -5.533701181308081E-014
 -5.899999999999999E-003   -2.075003161494458E-014
 -5.800000000000000E-003    2.619314481948994E-014
 -5.699999999999999E-003    8.495892283295007E-014
 -5.599999999999999E-003    1.542595098429870E-013
 -5.499999999999999E-003    2.320359709937678E-013
 -5.399999999999999E-003    3.154564431017641E-013
 -5.299999999999999E-003    4.009262449125322E-013
 -5.199999999999999E-003    4.841120418094587E-013
 -5.099999999999999E-003    5.599862210787077E-013
 -4.999999999999999E-003    6.229036984096472E-013
 -4.899999999999999E-003    6.667276148303421E-013
 -4.799999999999999E-003    6.850221031325005E-013
 -4.699999999999999E-003    6.713286645161943E-013
 -4.599999999999999E-003    6.195375412575958E-013
 -4.499999999999999E-003    5.243547449047379E-013
 -4.399999999999999E-003    3.818531677374733E-013
 -4.299999999999999E-003    1.900786900337864E-013
 -4.199999999999999E-003   -5.033217265800331E-014
 -4.099999999999999E-003   -3.355822017503184E-013
 -3.999999999999999E-003   -6.582606957555474E-013
 -3.899999999999999E-003   -1.007079719486470E-012
 -3.799999999999999E-003   -1.366868764758387E-012
 -3.699999999999999E-003   -1.718882478388161E-012
 -3.599999999999999E-003   -2.041452993745709E-012
 -3.499999999999999E-003   -2.310991446134247E-012
 -3.399999999999999E-003   -2.503304991097313E-012
 -3.299999999999999E-003   -2.595163492922666E-012
 -3.199999999999999E-003   -2.566012742101289E-012
 -3.099999999999999E-003   -2.399708389331292E-012
 -2.999999999999999E-003   -2.086126998665400E-012
 -2.899999999999999E-003   -1.622508380004925E-012
 -2.799999999999999E-003   -1.014398313894153E-012
 -2.699999999999999E-003   -2.760859641720169E-013
 -2.599999999999999E-003    5.695278803699520E-013
 -2.499999999999999E-003    1.491646407913162E-012
 -2.399999999999999E-003    2.452837599154514E-012
 -2.299999999999999E-003    3.410752661562309E-012
 -2.199999999999999E-003    4.320167714930640E-012
 -2.099999999999999E-003    5.135190599573414E-012
 -1.999999999999999E-003    5.811455861174796E-012
 -1.899999999999999E-003    6.308151885502375E-012
 -1.799999999999999E-003    6.589733316449831E-012
 -1.699999999999999E-003    6.627236230846680E-012
 -1.599999999999999E-003    6.399153030099093E-012
 -1.499999999999999E-003    5.891890046323524E-012
 -1.399999999999999E-003    5.099890434184202E-012
 -1.299999999999999E-003    4.025537967176648E-012
 -1.199999999999999E-003    2.678996074946185E-012
 -1.099999999999999E-003    1.078128974479926E-012
 -9.999999999999989E-004   -7.513703634166809E-013
 -8.999999999999990E-004   -2.775561365483979E-012
 -7.999999999999990E-004   -4.951540858462400E-012
 -6.999999999999989E-004   -7.226495733735213E-012
 -5.999999999999990E-004   -9.536682697162096E-012
 -4.999999999999989E-004   -1.180654665453713E-011
 -3.999999999999989E-004   -1.394826843487104E-011
 -2.999999999999989E-004   -1.586203855449026E-011
 -1.999999999999989E-004   -1.743734888494225E-011
 -9.999999999999892E-005   -1.855554082907754E-011
  1.084202172485504E-018   -1.909377064162225E-011
  1.000000000000011E-004   -1.893042031574393E-011
  2.000000000000011E-004   -1.795185044736010E-011
  3.000000000000011E-004   -1.606024384585762E-011
  4.000000000000011E-004   -1.318214390738552E-011
  5.000000000000011E-004   -9.277178630104008E-012
  6.000000000000011E-004   -4.346361608557884E-012
  7.000000000000011E-004    1.560645870387371E-012
  8.000000000000011E-004    8.339959492920999E-012
  9.000000000000012E-004    1.583012403793496E-011
  1.000000000000001E-003    2.381145461039260E-011
  1.100000000000001E-003    3.200835324221697E-011
  1.200000000000001E-003    4.009474391504492E-011
  1.300000000000001E-003    4.770256316159165E-011
  1.400000000000001E-003    5.443308297678843E-011
  1.500000000000001E-003    5.987067218453643E-011
  1.600000000000001E-003    6.359854368057379E-011
  1.700000000000001E-003    6.521585205906840E-011
  1.800000000000001E-003    6.435559278265802E-011
  1.900000000000001E-003    6.070264671749319E-011
  2.000000000000001E-003    5.401142999381032E-011
  2.100000000000001E-003    4.412261933416364E-011
  2.200000000000001E-003    3.097847406837864E-011
  2.300000000000001E-003    1.463634184326936E-011
  2.400000000000001E-003   -4.720033833197249E-012
  2.500000000000001E-003   -2.677180643176150E-011
  2.600000000000001E-003   -5.105931132784087E-011
  2.700000000000001E-003   -7.697985578295434E-011
  2.800000000000001E-003   -1.037894338729796E-010
  2.900000000000001E-003   -1.306090661306499E-010
  3.000000000000001E-003   -1.564361932994771E-010
  3.100000000000001E-003   -1.801619118166551E-010
  3.200000000000001E-003   -2.005943679091552E-010
  3.300000000000001E-003   -2.164888514579191E-010
  3.400000000000001E-003   -2.265845711787461E-010
  3.500000000000001E-003   -2.296480321704001E-010
  3.600000000000001E-003   -2.245224720333690E-010
  3.700000000000001E-003   -2.101822677641438E-010
  3.800000000000001E-003   -1.857910246547292E-010
  3.900000000000001E-003   -1.507613273414588E-010
  4.000000000000001E-003   -1.048138373066029E-010
  4.100000000000001E-003   -4.803317978582595E-011
  4.200000000000001E-003    1.908235385545095E-011
  4.300000000000001E-003    9.558017853740593E-011
  4.400000000000001E-003    1.800249102723404E-010
  4.500000000000001E-003    2.704846301411318E-010
  4.600000000000002E-003    3.645342209699768E-010
  4.700000000000001E-003    4.592777314396131E-010
  4.800000000000001E-003    5.513911317215639E-010
  4.900000000000002E-003    6.371853542918462E-010
  5.000000000000001E-003    7.126905907478994E-010
  5.100000000000001E-003    7.737595244391579E-010
  5.200000000000001E-003    8.161887165702329E-010
  5.300000000000002E-003    8.358552873117825E-010
  5.400000000000001E-003    8.288661179082320E-010
  5.500000000000001E-003    7.917156522501972E-010
  5.600000000000002E-003    7.214486413515314E-010
  5.700000000000001E-003    6.158233847043706E-010
  5.800000000000001E-003    4.734707692077087E-010
  5.900000000000002E-003    2.940443779771721E-010
  6.000000000000001E-003    7.835732745448962E-011
  6.100000000000001E-003   -1.714998835541534E-010
  6.200000000000002E-003   -4.520643074382625E-010
  6.300000000000002E-003   -7.584339151300999E-010
  6.400000000000001E-003   -1.084233599611915E-009
  6.500000000000001E-003   -1.421617558872143E-009
  6.600000000000002E-003   -1.761313701550251E-009
  6.700000000000001E-003   -2.092711973249235E-009
  6.800000000000001E-003   -2.404000493695369E-009
  6.900000000000002E-003   -2.682352653408492E-009
  7.000000000000001E-003   -2.914164521194634E-009
  7.100000000000001E-003   -3.085344535389622E-009
  7.200000000000002E-003   -3.181654828586526E-009
  7.300000000000002E-003   -3.189098578719148E-009
  7.400000000000001E-003   -3.094353299150705E-009
  7.500000000000001E-003   -2.885240929768359E-009
  7.600000000000002E-003   -2.551228049454219E-009
  7.700000000000001E-003   -2.083945898832222E-009
  7.800000000000001E-003   -1.477719336709228E-009
  7.900000000000001E-003   -7.300910045045120E-010
  8.000000000000002E-003    1.576733422444142E-010
  8.100000000000001E-003    1.180115289835141E-009
  8.200000000000001E-003    2.327164432897357E-009
  8.300000000000002E-003    3.583787059952168E-009
  8.400000000000001E-003    4.929723025111773E-009
  8.500000000000002E-003    6.339320933261019E-009
  8.600000000000002E-003    7.781495877000888E-009
  8.700000000000001E-003    9.219818393622693E-009
  8.800000000000002E-003    1.061275602443873E-008
  8.900000000000002E-003    1.191407398539782E-008
  9.000000000000001E-003    1.307341557033390E-008
  9.100000000000002E-003    1.403706761815017E-008
  9.200000000000002E-003    1.474892455689967E-008
  9.300000000000001E-003    1.515165419856442E-008
  9.400000000000002E-003    1.518808300011411E-008
  9.500000000000001E-003    1.480278980754146E-008
  9.600000000000001E-003    1.394392684478613E-008
  9.700000000000002E-003    1.256525576983179E-008
  9.800000000000001E-003    1.062840005434857E-008
  9.900000000000001E-003    8.105299430237102E-009
  1.000000000000000E-002    4.980865057899465E-009
  1.010000000000000E-002    1.255802339370599E-009
  1.020000000000000E-002   -3.050412279483506E-009
  1.030000000000000E-002   -7.896437407496221E-009
  1.040000000000000E-002   -1.321588005464836E-008
  1.050000000000000E-002   -1.891408281962310E-008
  1.060000000000000E-002   -2.486490407783616E-008
  1.070000000000000E-002   -3.090755934838946E-008
  1.080000000000000E-002   -3.684357336639867E-008
  1.090000000000000E-002   -4.243388610917047E-008
  1.100000000000000E-002   -4.739618523614184E-008
  1.110000000000000E-002   -5.140249708457462E-008
  1.120000000000000E-002   -5.407709359149626E-008
  1.130000000000000E-002   -5.499471981663433E-008
  1.140000000000000E-002   -5.367922779945861E-008
  1.150000000000000E-002   -4.960257448839641E-008
  1.160000000000000E-002   -4.218421538633029E-008
  1.170000000000000E-002   -3.079092028665488E-008
  1.180000000000000E-002   -1.473695647028703E-008
  1.190000000000000E-002    6.715415688122531E-009
  1.200000000000000E-002    3.435501767298425E-008
  1.210000000000000E-002    6.902061137446056E-008
  1.220000000000000E-002    1.115995067282246E-007
  1.230000000000000E-002    1.630258198133167E-007
  1.240000000000000E-002    2.242787251065730E-007
  1.250000000000000E-002    2.963804684226330E-007
  1.260000000000000E-002    3.803942312861255E-007
  1.270000000000000E-002    4.774220093447449E-007
  1.280000000000000E-002    5.886023201504582E-007
  1.290000000000000E-002    7.151082028538033E-007
  1.300000000000000E-002    8.581449065265839E-007
  1.310000000000000E-002    1.018947480594587E-006
  1.320000000000000E-002    1.198779093291258E-006
  1.330000000000000E-002    1.398928917826826E-006
  1.340000000000000E-002    1.620710183025327E-006
  1.350000000000000E-002    1.865458994118971E-006
  1.360000000000000E-002    2.134532856177485E-006
  1.370000000000000E-002    2.429309637862466E-006
  1.380000000000000E-002    2.751187161946982E-006
  1.390000000000000E-002    3.101583695090599E-006
  1.400000000000000E-002    3.481937575787499E-006
  1.410000000000000E-002    3.893708866700111E-006
  1.420000000000000E-002    4.338381931760379E-006
  1.430000000000000E-002    4.817467086363954E-006
  1.440000000000000E-002    5.332505245109026E-006
  1.450000000000000E-002    5.885070918044648E-006
  1.460000000000000E-002    6.476778409246457E-006
  1.470000000000000E-002    7.109288396640923E-006
  1.480000000000000E-002    7.784314852950085E-006
  1.490000000000000E-002    8.503632063738222E-006
  1.500000000000000E-002    9.269084860428765E-006
  1.510000000000000E-002    1.008259747774027E-005
  1.520000000000000E-002    1.094618384769982E-005
  1.530000000000000E-002    1.186196141165905E-005
  1.540000000000000E-002    1.283216106845197E-005
  1.550000000000000E-002    1.385914257261285E-005
  1.560000000000000E-002    1.494540438299221E-005
  1.570000000000000E-002    1.609360430272749E-005
  1.580000000000000E-002    1.730656902177613E-005
  1.590000000000000E-002    1.858731517657513E-005
  1.600000000000000E-002    1.993906120247912E-005
  1.610000000000000E-002    2.136524697839273E-005
  1.620000000000000E-002    2.286955014112462E-005
  1.630000000000000E-002    2.445590872511846E-005
  1.640000000000000E-002    2.612852999766509E-005
  1.650000000000000E-002    2.789191976745314E-005
  1.660000000000000E-002    2.975089397888789E-005
  1.670000000000000E-002    3.171059520793348E-005
  1.680000000000000E-002    3.377651907462382E-005
  1.690000000000000E-002    3.595452024553594E-005
  1.700000000000000E-002    3.825083989055451E-005
  1.710000000000000E-002    4.067211501634319E-005
  1.720000000000000E-002    4.322539654670172E-005
  1.730000000000000E-002    4.591816331243328E-005
  1.740000000000000E-002    4.875833603766367E-005
  1.750000000000000E-002    5.175428594839068E-005
  1.760000000000000E-002    5.491485571361478E-005
  1.770000000000000E-002    5.824936169264682E-005
  1.780000000000000E-002    6.176761602694727E-005
  1.790000000000000E-002    6.547992607310590E-005
  1.800000000000000E-002    6.939711666748348E-005
  1.810000000000000E-002    7.353053019699266E-005
  1.820000000000000E-002    7.789205406355468E-005
  1.830000000000000E-002    8.249411426318786E-005
  1.840000000000000E-002    8.734970557197286E-005
  1.850000000000000E-002    9.247241056649345E-005
  1.860000000000000E-002    9.787640827986484E-005
  1.870000000000000E-002    1.035764804184412E-004