 -4.000000000000000E-002    0.000000000000000E+000
 -3.990000000000000E-002    0.000000000000000E+000
 -3.980000000000000E-002    0.000000000000000E+000
 -3.970000000000000E-002    0.000000000000000E+000
 -3.960000000000000E-002    0.000000000000000E+000
 -3.950000000000000E-002    0.000000000000000E+000
 -3.940000000000000E-002    0.000000000000000E+000
 -3.930000000000000E-002    0.000000000000000E+000
 -3.920000000000000E-002   -8.738729048814274E-030
 -3.910000000000000E-002   -1.359340575411637E-028
 -3.900000000000000E-002   -1.106324440041502E-027
 -3.890000000000000E-002   -6.258177604745574E-027
 -3.880000000000000E-002   -2.758373810917969E-026
 -3.870000000000000E-002   -1.007034314102683E-025
 -3.860000000000000E-002   -3.161317718071722E-025
 -3.850000000000000E-002   -8.746397250860948E-025
 -3.840000000000000E-002   -2.168899973144741E-024
 -3.830000000000000E-002   -4.876291103524762E-024
 -3.820000000000000E-002   -1.001317650680060E-023
 -3.810000000000000E-002   -1.884702797614590E-023
 -3.800000000000000E-002   -3.249541050238703E-023
 -3.790000000000000E-002   -5.097907629725828E-023
 -3.780000000000000E-002   -7.147520926577334E-023
 -3.770000000000000E-002   -8.558531112981820E-023
 -3.760000000000000E-002   -7.564431615838491E-023
 -3.750000000000000E-002   -1.049568447797935E-023
 -3.740000000000000E-002    1.582548334560898E-022
 -3.730000000000000E-002    4.977740305130409E-022
 -3.720000000000000E-002    1.090883267662158E-021
 -3.710000000000000E-002    2.025382089122163E-021
 -3.700000000000000E-002    3.372982042037846E-021
 -3.690000000000000E-002    5.155943535707696E-021
 -3.680000000000000E-002    7.301506821820086E-021
 -3.670000000000000E-002    9.587334201170114E-021
 -3.660000000000000E-002    1.158516485728776E-020
 -3.650000000000000E-002    1.261416034768165E-020
 -3.640000000000000E-002    1.171897509013999E-020
 -3.630000000000000E-002    7.689273533617275E-021
 -3.620000000000000E-002   -8.640437029531699E-022
 -3.610000000000000E-002   -1.536618574324733E-020
 -3.600000000000000E-002   -3.706943772964161E-020
 -3.590000000000000E-002   -6.679126324768486E-020
 -3.580000000000000E-002   -1.046276766885288E-019
 -3.570000000000000E-002   -1.496833202508282E-019
 -3.560000000000000E-002   -1.998662094824617E-019
 -3.550000000000000E-002   -2.517920946227961E-019
 -3.540000000000000E-002   -3.008252899443484E-019
 -3.530000000000000E-002   -3.412509946279507E-019
 -3.520000000000000E-002   -3.665275232632361E-019
 -3.510000000000000E-002   -3.695155257590464E-019
 -3.500000000000000E-002   -3.425327067166406E-019
 -3.490000000000000E-002   -2.770585321167995E-019
 -3.480000000000000E-002   -1.629211923202333E-019
 -3.470000000000000E-002    1.312665507053357E-020
 -3.460000000000000E-002    2.694059355360508E-019
 -3.450000000000000E-002    6.316273014779113E-019
 -3.440000000000000E-002    1.135004924885979E-018
 -3.430000000000000E-002    1.825329033381153E-018
 -3.420000000000000E-002    2.757879049543562E-018
 -3.410000000000000E-002    3.992814065740593E-018
 -3.400000000000000E-002    5.585665441321684E-018
 -3.390000000000000E-002    7.571690491113216E-018
 -3.380000000000000E-002    9.943408884511972E-018
 -3.370000000000000E-002    1.262149366386226E-017
 -3.360000000000000E-002    1.542050337628720E-017
 -3.350000000000000E-002    1.801255186564116E-017
 -3.340000000000000E-002    1.989389417723103E-017
 -3.330000000000000E-002    2.036127135184883E-017
 -3.320000000000000E-002    1.850654115488355E-017
 -3.310000000000000E-002    1.323904975349730E-017
 -3.300000000000000E-002    3.345351549498515E-018
 -3.290000000000000E-002   -1.240547362728469E-017
 -3.280000000000000E-002   -3.510601982285998E-017
 -3.270000000000000E-002   -6.550371990209818E-017
 -3.260000000000000E-002   -1.037500579431424E-016
 -3.250000000000000E-002   -1.491205489967342E-016
 -3.240000000000000E-002   -1.997299755930313E-016
 -3.230000000000000E-002   -2.522766925087607E-016
 -3.220000000000000E-002   -3.018575552891200E-016
 -3.210000000000000E-002   -3.419002234436292E-016
 -3.200000000000000E-002   -3.642606427321139E-016
 -3.190000000000000E-002   -3.595281216855433E-016
 -3.180000000000000E-002   -3.175684710723688E-016
 -3.170000000000000E-002   -2.283178789134687E-016
 -3.160000000000000E-002   -8.281195946534199E-017
 -3.150000000000000E-002    1.255913755376313E-016
 -3.140000000000000E-002    3.998760051198169E-016
 -3.130000000000000E-002    7.380211003414752E-016
 -3.120000000000000E-002    1.131778885868143E-015
 -3.110000000000000E-002    1.565719895545482E-015
 -3.100000000000000E-002    2.016687686037024E-015
 -3.090000000000000E-002    2.453788362787904E-015
 -3.080000000000000E-002    2.839000847741891E-015
 -3.070000000000000E-002    3.128439446319895E-015
 -3.060000000000000E-002    3.274243214505635E-015
 -3.050000000000000E-002    3.226994234133451E-015
 -3.040000000000000E-002    2.938522169469495E-015
 -3.030000000000000E-002    2.364908769797752E-015
 -3.020000000000000E-002    1.469504930489850E-015
 -3.010000000000000E-002    2.258131787094594E-016
 -3.000000000000000E-002   -1.379857934758227E-015
 -2.990000000000000E-002   -3.345934455733758E-015
 -2.980000000000000E-002   -5.653195260409337E-015
 -2.970000000000000E-002   -8.262223082093239E-015
 -2.960000000000000E-002   -1.111037905120509E-014
 -2.950000000000000E-002   -1.410802069676601E-014
 -2.940000000000000E-002   -1.713379189997202E-014
 -2.930000000000000E-002   -2.002901613885996E-014
 -2.920000000000000E-002   -2.259165664022367E-014
 -2.910000000000000E-002   -2.457074009485027E-014
 -2.900000000000000E-002   -2.566263692767350E-014
 -2.890000000000000E-002   -2.551121137872601E-014
 -2.880000000000000E-002   -2.371412642854519E-014
 -2.870000000000000E-002   -1.983785826001556E-014
 -2.860000000000000E-002   -1.344369207198515E-014
 -2.850000000000000E-002   -4.126413238287355E-015
 -2.840000000000000E-002    8.433740409443533E-015
 -2.830000000000000E-002    2.440699216748742E-014
 -2.820000000000000E-002    4.374096836966059E-014
 -2.810000000000000E-002    6.608409637658138E-014
 -2.800000000000000E-002    9.071328626922260E-014
 -2.790000000000000E-002    1.164757903420403E-013
 -2.780000000000000E-002    1.417562118160042E-013
 -2.770000000000000E-002    1.644803615800708E-013
 -2.760000000000000E-002    1.821659886359836E-013
 -2.750000000000000E-002    1.920285152768766E-013
 -2.740000000000000E-002    1.911451166901806E-013
 -2.730000000000000E-002    1.766750796741766E-013
 -2.720000000000000E-002    1.461276586363638E-013
 -2.710000000000000E-002    9.766146773109223E-014
 -2.700000000000000E-002    3.039271726407397E-014
 -2.690000000000000E-002   -5.531607786424557E-014
 -2.680000000000000E-002   -1.576188029933619E-013
 -2.670000000000000E-002   -2.730317524441667E-013
 -2.660000000000000E-002   -3.963928756916093E-013
 -2.650000000000000E-002   -5.209561639077024E-013
 -2.640000000000000E-002   -6.386340565896103E-013
 -2.630000000000000E-002   -7.403872631409953E-013
 -2.620000000000000E-002   -8.167460437924300E-013
 -2.610000000000000E-002   -8.584339736319714E-013
 -2.600000000000000E-002   -8.570494547802387E-013
 -2.590000000000000E-002   -8.057526816120244E-013
 -2.580000000000000E-002   -6.998994883412465E-013
 -2.570000000000000E-002   -5.375641691052972E-013
 -2.560000000000000E-002   -3.199028123274742E-013
 -2.550000000000000E-002   -5.131895535871316E-014
 -2.540000000000000E-002    2.605839815933661E-013
 -2.530000000000000E-002    6.052617314923759E-013
 -2.520000000000000E-002    9.696722327063780E-013
 -2.510000000000000E-002    1.338859258308529E-012
 -2.500000000000000E-002    1.696616045283625E-012
 -2.490000000000000E-002    2.026165591280360E-012
 -2.480000000000000E-002    2.310793379574134E-012
 -2.470000000000000E-002    2.534382832512394E-012
 -2.460000000000000E-002    2.681826491457840E-012
 -2.450000000000000E-002    2.739307386206741E-012
 -2.440000000000000E-002    2.694480289345731E-012
 -2.430000000000000E-002    2.536604515698721E-012
 -2.420000000000000E-002    2.256703819234278E-012
 -2.410000000000000E-002    1.847834126178210E-012
 -2.400000000000000E-002    1.305536614856207E-012
 -2.390000000000000E-002    6.285306012263445E-013
 -2.380000000000000E-002   -1.803348178284105E-013
 -2.370000000000000E-002   -1.112902684824843E-012
 -2.360000000000000E-002   -2.154389031714046E-012
 -2.350000000000000E-002   -3.282064822226268E-012
 -2.340000000000000E-002   -4.464127766462810E-012
 -2.330000000000000E-002   -5.658980489431264E-012
 -2.320000000000000E-002   -6.815137843078226E-012
 -2.310000000000000E-002   -7.871968452467906E-012
 -2.300000000000000E-002   -8.761405438706816E-012
 -2.290000000000000E-002   -9.410707345485365E-012
 -2.280000000000000E-002   -9.746218465330927E-012
 -2.270000000000000E-002   -9.697979254313300E-012
 -2.260000000000000E-002   -9.204924924487848E-012
 -2.250000000000000E-002   -8.220302396378227E-012
 -2.240000000000000E-002   -6.716865178242969E-012
 -2.230000000000000E-002   -4.691382690224965E-012
 -2.220000000000000E-002   -2.168012230555701E-012
 -2.210000000000000E-002    7.998640476824774E-013
 -2.200000000000000E-002    4.129603646663452E-012
 -2.190000000000000E-002    7.711205179149382E-012
 -2.180000000000000E-002    1.141110893648740E-011
 -2.170000000000000E-002    1.507768166135724E-011
 -2.160000000000000E-002    1.854802160798442E-011
 -2.150000000000000E-002    2.165559991946894E-011
 -2.140000000000000E-002    2.423817198517224E-011
 -2.130000000000000E-002    2.614539232596495E-011
 -2.120000000000000E-002    2.724562341472539E-011
 -2.110000000000000E-002    2.743153077330419E-011
 -2.100000000000000E-002    2.662419198985027E-011
 -2.090000000000000E-002    2.477567161813674E-011
 -2.080000000000000E-002    2.187012064729698E-011
 -2.070000000000000E-002    1.792370411925865E-011
 -2.060000000000000E-002    1.298367657237612E-011
 -2.050000000000000E-002    7.127041493256255E-012
 -2.040000000000000E-002    4.591636867761574E-013
 -2.030000000000000E-002   -6.887324707840321E-012
 -2.020000000000000E-002   -1.475321166337400E-011
 -2.010000000000000E-002   -2.295298384606359E-011
 -2.000000000000000E-002   -3.127492536169884E-011
 -1.990000000000000E-002   -3.948143908671347E-011
 -1.980000000000000E-002   -4.731010929967214E-011
 -1.970000000000000E-002   -5.447610718162366E-011
 -1.960000000000000E-002   -6.067651209200775E-011
 -1.950000000000000E-002   -6.559695628506190E-011
 -1.940000000000000E-002   -6.892097815585441E-011
 -1.930000000000000E-002   -7.034194153991609E-011
 -1.920000000000000E-002   -6.957737658702953E-011
 -1.910000000000000E-002   -6.638508695219022E-011
 -1.900000000000000E-002   -6.058024572969641E-011
 -1.890000000000000E-002   -5.205236823932370E-011
 -1.880000000000000E-002   -4.078110560097022E-011
 -1.870000000000000E-002   -2.684955611333384E-011
 -1.860000000000000E-002   -1.045410719064124E-011
 -1.850000000000000E-002    8.090208753263044E-012
 -1.840000000000000E-002    2.834950569413002E-011
 -1.830000000000000E-002    4.977640360849994E-011
 -1.820000000000000E-002    7.172110291221149E-011
 -1.810000000000000E-002    9.344793495842363E-011
 -1.800000000000000E-002    1.141570358566827E-010
 -1.790000000000000E-002    1.330104723579016E-010
 -1.780000000000000E-002    1.491619383955611E-010
 -1.770000000000000E-002    1.617891829109123E-010
 -1.760000000000000E-002    1.701279379706013E-010
 -1.750000000000000E-002    1.735063753556568E-010
 -1.740000000000000E-002    1.713786770805376E-010
 -1.730000000000000E-002    1.633563811483340E-010
 -1.720000000000000E-002    1.492362263391635E-010
 -1.710000000000000E-002    1.290227169112425E-010
 -1.700000000000000E-002    1.029441938409494E-010
 -1.690000000000000E-002    7.146064153141373E-011
 -1.680000000000000E-002    3.526225082996710E-011
 -1.670000000000000E-002   -4.742382691240786E-012
 -1.660000000000000E-002   -4.744885662761657E-011
 -1.650000000000000E-002   -9.159018027989214E-011
 -1.640000000000000E-002   -1.357797223671511E-010
 -1.630000000000000E-002   -1.785622168489571E-010
 -1.620000000000000E-002   -2.184703822636006E-010
 -1.610000000000000E-002   -2.540840358612580E-010
 -1.600000000000000E-002   -2.840882209287570E-010
 -1.590000000000000E-002   -3.073265889674305E-010
 -1.580000000000000E-002   -3.228465539017495E-010
 -1.570000000000000E-002   -3.299334194163780E-010
 -1.560000000000000E-002   -3.281312816315557E-010
 -1.550000000000000E-002   -3.172500185018591E-010
 -1.540000000000000E-002   -2.973587647215385E-010
 -1.530000000000000E-002   -2.687677435932876E-010
 -1.520000000000000E-002   -2.320013979562365E-010
 -1.510000000000000E-002   -1.877666716994795E-010
 -1.500000000000000E-002   -1.369205491426552E-010
 -1.490000000000000E-002   -8.044093541449246E-011
 -1.480000000000000E-002   -1.940412430834061E-011
 -1.470000000000000E-002    4.502926611586685E-011
 -1.460000000000000E-002    1.116192739597276E-010
 -1.450000000000000E-002    1.790441349009917E-010
 -1.440000000000000E-002    2.458934338877247E-010
 -1.430000000000000E-002    3.106615256982276E-010
 -1.420000000000000E-002    3.717465413367776E-010
 -1.410000000000000E-002    4.274607453567490E-010
 -1.400000000000000E-002    4.760569020563371E-010
 -1.390000000000000E-002    5.157739437071560E-010
 -1.380000000000000E-002    5.449030940119523E-010
 -1.370000000000000E-002    5.618723026578631E-010
 -1.360000000000000E-002    5.653446393099227E-010
 -1.350000000000000E-002    5.543226681559128E-010
 -1.340000000000000E-002    5.282494765974567E-010
 -1.330000000000000E-002    4.870952446523906E-010
 -1.320000000000000E-002    4.314182925405055E-010
 -1.310000000000000E-002    3.623908558703794E-010
 -1.300000000000000E-002    2.817827088451705E-010
 -1.290000000000000E-002    1.918987101305467E-010
 -1.280000000000000E-002    9.547160543532615E-011
 -1.270000000000000E-002   -4.484534389334965E-012
 -1.260000000000000E-002   -1.048494758965963E-010
 -1.250000000000000E-002   -2.025869166696813E-010
 -1.240000000000000E-002   -2.949325886089104E-010
 -1.230000000000000E-002   -3.795630573711442E-010
 -1.220000000000000E-002   -4.547285391441624E-010
 -1.210000000000000E-002   -5.193358372540541E-010
 -1.200000000000000E-002   -5.729722646165078E-010
 -1.190000000000000E-002   -6.158665848516922E-010
 -1.180000000000000E-002   -6.487897503092055E-010
 -1.170000000000000E-002   -6.729042129027675E-010
 -1.160000000000000E-002   -6.895760854171177E-010
 -1.150000000000000E-002   -7.001692809143030E-010
 -1.140000000000000E-002   -7.058419287126232E-010
 -1.130000000000000E-002   -7.073670124639617E-010
 -1.120000000000000E-002   -7.049957507145037E-010
 -1.110000000000000E-002   -6.983788733166560E-010
 -1.100000000000000E-002   -6.865550054735013E-010
 -1.090000000000000E-002   -6.680077899292607E-010
 -1.080000000000000E-002   -6.407870273118187E-010
 -1.070000000000000E-002   -6.026814128351569E-010
 -1.060000000000000E-002   -5.514259098959044E-010
 -1.050000000000000E-002   -4.849210165027265E-010
 -1.040000000000000E-002   -4.014415602748562E-010
 -1.030000000000000E-002   -2.998130490452328E-010
 -1.020000000000000E-002   -1.795356869863305E-010
 -1.010000000000000E-002   -4.084308910914915E-011
 -1.000000000000000E-002    1.153108202226721E-010
 -9.899999999999999E-003    2.873357577716831E-010
 -9.800000000000000E-003    4.731505576427379E-010
 -9.699999999999999E-003    6.703737593509322E-010
 -9.599999999999999E-003    8.765372010551682E-010
 -9.500000000000000E-003    1.089296547047903E-009
 -9.399999999999999E-003    1.306611842432406E-009
 -9.299999999999999E-003    1.526872402910298E-009
 -9.200000000000000E-003    1.748944553533006E-009
 -9.099999999999999E-003    1.972126822621535E-009
 -8.999999999999999E-003    2.196006040332492E-009
 -8.900000000000000E-003    2.420216752587121E-009
 -8.799999999999999E-003    2.644116774631886E-009
 -8.699999999999999E-003    2.866401017175801E-009
 -8.600000000000000E-003    3.084685041710724E-009
 -8.499999999999999E-003    3.295095638428321E-009
 -8.399999999999999E-003    3.491910870832055E-009
 -8.300000000000000E-003    3.667293171660934E-009
 -8.199999999999999E-003    3.811158332703830E-009
 -8.100000000000000E-003    3.911216365077215E-009
 -8.000000000000000E-003    3.953212686186810E-009
 -7.899999999999999E-003    3.921392328835128E-009
 -7.800000000000000E-003    3.799187134569350E-009
 -7.699999999999999E-003    3.570122565060067E-009
 -7.599999999999999E-003    3.218916876692674E-009
 -7.499999999999999E-003    2.732737115220654E-009
 -7.399999999999999E-003    2.102565826908069E-009
 -7.299999999999999E-003    1.324615119482784E-009
 -7.199999999999999E-003    4.017260959557215E-010
 -7.100000000000000E-003   -6.553132627749017E-010
 -6.999999999999999E-003   -1.826589658326710E-009
 -6.899999999999999E-003   -3.082085352652972E-009
 -6.800000000000000E-003   -4.380931120680509E-009
 -6.699999999999999E-003   -5.670920307764634E-009
 -6.599999999999999E-003   -6.888286342555658E-009
 -6.499999999999999E-003   -7.957725443853511E-009
 -6.399999999999999E-003   -8.792630282092823E-009
 -6.299999999999999E-003   -9.295479948907306E-009
 -6.199999999999999E-003   -9.358320949746109E-009
 -6.100000000000000E-003   -8.863263816350301E-009
 -5.999999999999999E-003   -7.682926472919677E-009
 -5.899999999999999E-003   -5.680747576707034E-009
 -5.800000000000000E-003   -2.711111817265308E-009
 -5.699999999999999E-003    1.380726959661593E-009
 -5.599999999999999E-003    6.758981455081963E-009
 -5.499999999999999E-003    1.359784611355069E-008
 -5.399999999999999E-003    2.208223550130433E-008
 -5.299999999999999E-003    3.240863246709157E-008
 -5.199999999999999E-003    4.478597651229776E-008
 -5.099999999999999E-003    5.943649068443059E-008
 -4.999999999999999E-003    7.659640938940083E-008
 -4.899999999999999E-003    9.651643673316753E-008
 -4.799999999999999E-003    1.194619238718423E-007
 -4.699999999999999E-003    1.457127035997876E-007
 -4.599999999999999E-003    1.755625305506977E-007
 -4.499999999999999E-003    2.093181662498755E-007
 -4.399999999999999E-003    2.472981665802940E-007
 -4.299999999999999E-003    2.898313563370844E-007
 -4.199999999999999E-003    3.372552886144831E-007
 -4.099999999999999E-003    3.899144835331049E-007
 -3.999999999999999E-003    4.481590163255599E-007
 -3.899999999999999E-003    5.123432340451648E-007
 -3.799999999999999E-003    5.828248006552566E-007
 -3.699999999999999E-003    6.599644333593409E-007
 -3.599999999999999E-003    7.441260989284387E-007
 -3.499999999999999E-003    8.356776898852976E-007
 -3.399999999999999E-003    9.349927643123787E-007
 -3.299999999999999E-003    1.042452459510528E-006
 -3.199999999999999E-003    1.158448274075647E-006
 -3.099999999999999E-003    1.283385208290470E-006
 -2.999999999999999E-003    1.417685110389045E-006
 -2.899999999999999E-003    1.561790261725316E-006
 -2.799999999999999E-003    1.716167142979065E-006
 -2.699999999999999E-003    1.881309574660948E-006
 -2.599999999999999E-003    2.057741845850707E-006
 -2.499999999999999E-003    2.246021610328009E-006
 -2.399999999999999E-003    2.446741455119457E-006
 -2.299999999999999E-003    2.660530418699656E-006
 -2.199999999999999E-003    2.888054935728912E-006
 -2.099999999999999E-003    3.130018983869660E-006
 -1.999999999999999E-003    3.387164304210540E-006
 -1.899999999999999E-003    3.660269319766538E-006
 -1.799999999999999E-003    3.950149353014138E-006
 -1.699999999999999E-003    4.257655494585417E-006
 -1.599999999999999E-003    4.583676988304725E-006
 -1.499999999999999E-003    4.929139534750602E-006
 -1.399999999999999E-003    5.295010610520263E-006
 -1.299999999999999E-003    5.682300215736647E-006
 -1.199999999999999E-003    6.092066873934359E-006
 -1.099999999999999E-003    6.525424163179242E-006
 -9.999999999999989E-004    6.983547740532156E-006
 -8.999999999999990E-004    7.467683882352502E-006
 -7.999999999999990E-004    7.979159451160711E-006
 -6.999999999999989E-004    8.519391830587210E-006
 -5.999999999999990E-004    9.089899908756423E-006
 -4.999999999999989E-004    9.692313334453933E-006
 -3.999999999999989E-004    1.032838168090330E-005
 -2.999999999999989E-004    1.099998232527257E-005
 -1.999999999999989E-004    1.170912884636247E-005
 -9.999999999999892E-005    1.245797206862999E-005
  1.084202172485504E-018    1.324880576191782E-005
  1.000000000000011E-004    1.408406417704025E-005
  2.000000000000011E-004    1.496632395224755E-005
  3.000000000000011E-004    1.589830033962135E-005
  4.000000000000011E-004    1.688284446695039E-005
  5.000000000000011E-004    1.792293533886952E-005
  6.000000000000011E-004    1.902168301788213E-005
  7.000000000000011E-004    2.018232340317840E-005
  8.000000000000011E-004    2.140821613431608E-005
  9.000000000000012E-004    2.270285169550427E-005
  1.000000000000001E-003    2.406984804520499E-005
  1.100000000000001E-003    2.551296329110933E-005
  1.200000000000001E-003    2.703610372308489E-005
  1.300000000000001E-003    2.864333741195115E-005
  1.400000000000001E-003    3.033890868089640E-005
  1.500000000000001E-003    3.212725340393641E-005
  1.600000000000001E-003    3.401301914372635E-005
  1.700000000000001E-003    3.600107924535433E-005
  1.800000000000001E-003    3.809655326844820E-005
  1.900000000000001E-003    4.030482220925761E-005
  2.000000000000001E-003    4.263153244602940E-005
  2.100000000000001E-003    4.508262509877401E-005
  2.200000000000001E-003    4.766433217159550E-005
  2.300000000000001E-003    5.038318704426611E-005
  2.400000000000001E-003    5.324602572754307E-005
  2.500000000000001E-003    5.625999644689928E-005
  2.600000000000001E-003    5.943255596984981E-005
  2.700000000000001E-003    6.277147374424686E-005
  2.800000000000001E-003    6.628483856440409E-005
  2.900000000000001E-003    6.998105709243692E-005
  3.000000000000001E-003    7.386886915435819E-005
  3.100000000000001E-003    7.795736429702739E-005
  3.200000000000001E-003    8.225597381009671E-005
  3.300000000000001E-003    8.677452090713692E-005
  3.400000000000001E-003    9.152322124553278E-005
  3.500000000000001E-003    9.651272839069926E-005
  3.600000000000001E-003    1.017541410560960E-004
  3.700000000000001E-003    1.072590498320052E-004
  3.800000000000001E-003    1.130395639329246E-004
  3.900000000000001E-003    1.191083377288677E-004
  4.000000000000001E-003    1.254786087104408E-004
  4.100000000000001E-003    1.321641870478728E-004
  4.200000000000001E-003    1.391795178261884E-004
  4.300000000000001E-003    1.465396864630329E-004
  4.400000000000001E-003    1.542604026371656E-004
  4.500000000000001E-003    1.623580385218374E-004
  4.600000000000002E-003    1.708495787734476E-004
  4.700000000000001E-003    1.797526714319029E-004
  4.800000000000001E-003    1.890856109790524E-004
  4.900000000000002E-003    1.988673235305661E-004
  5.000000000000001E-003    2.091173402402963E-004
  5.100000000000001E-003    2.198558590539851E-004
  5.200000000000001E-003    2.311036691949886E-004
  5.300000000000002E-003    2.428822512264166E-004
  5.400000000000001E-003    2.552137142887753E-004
  5.500000000000001E-003    2.681208739774475E-004
  5.600000000000002E-003    2.816272554344472E-004
  5.700000000000001E-003    2.957571208764590E-004
  5.800000000000001E-003    3.105355670439682E-004
  5.900000000000002E-003    3.259885385762782E-004
  6.000000000000001E-003    3.421428559051298E-004
  6.100000000000001E-003    3.590262788885044E-004
  6.200000000000002E-003    3.766675388990138E-004
  6.300000000000002E-003    3.950964263838224E-004
  6.400000000000001E-003    4.143437675412929E-004
  6.500000000000001E-003    4.344415375288355E-004
  6.600000000000002E-003    4.554227683402624E-004
  6.700000000000001E-003    4.773216362270418E-004
  6.800000000000001E-003    5.001735336976015E-004
  6.900000000000002E-003    5.240149365909429E-004
  7.000000000000001E-003    5.488834863496253E-004
  7.100000000000001E-003    5.748179630800790E-004
  7.200000000000002E-003    6.018583630814812E-004
  7.300000000000002E-003    6.300457972911105E-004
  7.400000000000001E-003    6.594225606004436E-004
  7.500000000000001E-003    6.900321411417390E-004
  7.600000000000002E-003    7.219192072010794E-004
  7.700000000000001E-003    7.551296797047610E-004
  7.800000000000001E-003    7.897106963739959E-004
  7.900000000000001E-003    8.257107701762795E-004
  8.000000000000002E-003    8.631796869184292E-004
  8.100000000000001E-003    9.021687737782163E-004
  8.200000000000001E-003    9.427306572425888E-004
  8.300000000000002E-003    9.849195612077993E-004
  8.400000000000001E-003    1.028791179052874E-003
  8.500000000000002E-003    1.074402928562524E-003
  8.600000000000002E-003    1.121813797534603E-003
  8.700000000000001E-003    1.171084328435868E-003
  8.800000000000002E-003    1.222276926218586E-003
  8.900000000000002E-003    1.275455652926963E-003
  9.000000000000001E-003    1.330686068644688E-003
  9.100000000000002E-003    1.388035694997906E-003
  9.200000000000002E-003    1.447573479404307E-003
  9.300000000000001E-003    1.509370163971091E-003
  9.400000000000002E-003    1.573497992128004E-003
  9.500000000000001E-003    1.640030954433139E-003
  9.600000000000001E-003    1.709044491091918E-003
  9.700000000000002E-003    1.780615579178214E-003
  9.800000000000001E-003    1.854822926428887E-003
  9.900000000000001E-003    1.931746667977987E-003
  1.000000000000000E-002    2.011468393546875E-003
  1.010000000000000E-002    2.094071288471167E-003
  1.020000000000000E-002    2.179640350198198E-003
  1.030000000000000E-002    2.268261856252645E-003
  1.040000000000000E-002    2.360023733978333E-003
  1.050000000000000E-002    2.455015591120793E-003
  1.060000000000000E-002    2.553328797439232E-003
  1.070000000000000E-002    2.655056159337144E-003
  1.080000000000000E-002    2.760292109531427E-003
  1.090000000000000E-002    2.869132633959588E-003
  1.100000000000000E-002    2.981675448375482E-003
  1.110000000000000E-002    3.098019717336664E-003
  1.120000000000000E-002    3.218266149529797E-003
  1.130000000000000E-002    3.342516840337179E-003
  1.140000000000000E-002    3.470875073298189E-003
  1.150000000000000E-002    3.603445438121369E-003
  1.160000000000000E-002    3.740334082239061E-003
  1.170000000000000E-002    3.881647469433924E-003
  1.180000000000000E-002    4.027493895434945E-003
  1.190000000000000E-002    4.177981813892581E-003
  1.200000000000000E-002    4.333221179574508E-003
  1.210000000000000E-002    4.493322268609189E-003
  1.220000000000000E-002    4.658396525637928E-003
  1.230000000000000E-002    4.828555541461923E-003
  1.240000000000000E-002    5.003911662404400E-003
  1.250000000000000E-002    5.184577838990214E-003
  1.260000000000000E-002    5.370667610937913E-003
  1.270000000000000E-002    5.562295210406808E-003
  1.280000000000000E-002    5.759575266033799E-003
  1.290000000000000E-002    5.962622680684519E-003
  1.300000000000000E-002    6.171552773807517E-003
  1.310000000000000E-002    6.386481405290773E-003
  1.320000000000000E-002    6.607524464742144E-003
  1.330000000000000E-002    6.834798330764879E-003
  1.340000000000000E-002    7.068418735957997E-003
  1.350000000000000E-002    7.308502370603625E-003
  1.360000000000000E-002    7.555165008297424E-003
  1.370000000000000E-002    7.808522602554365E-003
  1.380000000000000E-002    8.068690637685061E-003
  1.390000000000000E-002    8.335783439237713E-003
  1.400000000000000E-002    8.609914423243594E-003
  1.410000000000000E-002    8.891197296045521E-003
  1.420000000000000E-002    9.179744114665911E-003
  1.430000000000000E-002    9.475665304349462E-003
  1.440000000000000E-002    9.779070504658592E-003
  1.450000000000000E-002    1.009006782358229E-002
  1.460000000000000E-002    1.040876319146871E-002
  1.470000000000000E-002    1.073526160250278E-002
  1.480000000000000E-002    1.106966634876921E-002
  1.490000000000000E-002    1.141207755886421E-002
  1.500000000000000E-002    1.176259430627694E-002
  1.510000000000000E-002    1.212131283381353E-002
  1.520000000000000E-002    1.248832674154651E-002
  1.530000000000000E-002    1.286372802673932E-002
  1.540000000000000E-002    1.324760385911559E-002
  1.550000000000000E-002    1.364004027399068E-002
  1.560000000000000E-002    1.404112003452959E-002
  1.570000000000000E-002    1.445092088783971E-002
  1.580000000000000E-002    1.486951806619920E-002
  1.590000000000000E-002    1.529698289180815E-002
  1.600000000000000E-002    1.573338256218232E-002
  1.610000000000000E-002    1.617877890964068E-002
  1.620000000000000E-002    1.663322884098892E-002
  1.630000000000000E-002    1.709678724296889E-002
  1.640000000000000E-002    1.756950108506243E-002
  1.650000000000000E-002    1.805141350362315E-002
  1.660000000000000E-002    1.854256137669695E-002
  1.670000000000000E-002    1.904297531766199E-002
  1.680000000000000E-002    1.955267971257937E-002
  1.690000000000000E-002    2.007169307317763E-002
  1.700000000000000E-002    2.060002879344505E-002
  1.710000000000000E-002    2.113769038658505E-002
  1.720000000000000E-002    2.168467676596810E-002
  1.730000000000000E-002    2.224097937930533E-002
  1.740000000000000E-002    2.280658160211302E-002
  1.750000000000000E-002    2.338145757929739E-002
  1.760000000000000E-002    2.396557785373970E-002
  1.770000000000000E-002    2.455889950297914E-002
  1.780000000000000E-002    2.516137436319241E-002
  1.790000000000000E-002    2.577294375919982E-002
  1.800000000000000E-002    2.639354206016278E-002
  1.810000000000000E-002    2.702309423000440E-002
  1.820000000000000E-002    2.766151396267404E-002
  1.830000000000000E-002    2.830870647803030E-002
  1.840000000000000E-002    2.896456713239142E-002
  1.850000000000000E-002    2.962898330071177E-002
  1.860000000000000E-002    3.030182902862555E-002
  1.870000000000000E-002    3.098297016573139E-002