 -4.000000000000000E-002    0.000000000000000E+000
 -3.990000000000000E-002    0.000000000000000E+000
 -3.980000000000000E-002    0.000000000000000E+000
 -3.970000000000000E-002    0.000000000000000E+000
 -3.960000000000000E-002    0.000000000000000E+000
 -3.950000000000000E-002    0.000000000000000E+000
 -3.940000000000000E-002    0.000000000000000E+000
 -3.930000000000000E-002    0.000000000000000E+000
 -3.920000000000000E-002    0.000000000000000E+000
 -3.910000000000000E-002    0.000000000000000E+000
 -3.900000000000000E-002    0.000000000000000E+000
 -3.890000000000000E-002    0.000000000000000E+000
 -3.880000000000000E-002    0.000000000000000E+000
 -3.870000000000000E-002    0.000000000000000E+000
 -3.860000000000000E-002    0.000000000000000E+000
 -3.850000000000000E-002    0.000000000000000E+000
 -3.840000000000000E-002    0.000000000000000E+000
 -3.830000000000000E-002    0.000000000000000E+000
 -3.820000000000000E-002    0.000000000000000E+000
 -3.810000000000000E-002    0.000000000000000E+000
 -3.800000000000000E-002    0.000000000000000E+000
 -3.790000000000000E-002    0.000000000000000E+000
 -3.780000000000000E-002    0.000000000000000E+000
 -3.770000000000000E-002    0.000000000000000E+000
 -3.760000000000000E-002    0.000000000000000E+000
 -3.750000000000000E-002    0.000000000000000E+000
 -3.740000000000000E-002    0.000000000000000E+000
 -3.730000000000000E-002    0.000000000000000E+000
 -3.720000000000000E-002    0.000000000000000E+000
 -3.710000000000000E-002    0.000000000000000E+000
 -3.700000000000000E-002    0.000000000000000E+000
 -3.690000000000000E-002    0.000000000000000E+000
 -3.680000000000000E-002    0.000000000000000E+000
 -3.670000000000000E-002    0.000000000000000E+000
 -3.660000000000000E-002    0.000000000000000E+000
 -3.650000000000000E-002    0.000000000000000E+000
 -3.640000000000000E-002    0.000000000000000E+000
 -3.630000000000000E-002    0.000000000000000E+000
 -3.620000000000000E-002    0.000000000000000E+000
 -3.610000000000000E-002    0.000000000000000E+000
 -3.600000000000000E-002    0.000000000000000E+000
 -3.590000000000000E-002    0.000000000000000E+000
 -3.580000000000000E-002    0.000000000000000E+000
 -3.570000000000000E-002    0.000000000000000E+000
 -3.560000000000000E-002    0.000000000000000E+000
 -3.550000000000000E-002    0.000000000000000E+000
 -3.540000000000000E-002    0.000000000000000E+000
 -3.530000000000000E-002    0.000000000000000E+000
 -3.520000000000000E-002    0.000000000000000E+000
 -3.510000000000000E-002    0.000000000000000E+000
 -3.500000000000000E-002    0.000000000000000E+000
 -3.490000000000000E-002    0.000000000000000E+000
 -3.480000000000000E-002    0.000000000000000E+000
 -3.470000000000000E-002    0.000000000000000E+000
 -3.460000000000000E-002    0.000000000000000E+000
 -3.450000000000000E-002    0.000000000000000E+000
 -3.440000000000000E-002    0.000000000000000E+000
 -3.430000000000000E-002    0.000000000000000E+000
 -3.420000000000000E-002    0.000000000000000E+000
 -3.410000000000000E-002    0.000000000000000E+000
 -3.400000000000000E-002    0.000000000000000E+000
 -3.390000000000000E-002    0.000000000000000E+000
 -3.380000000000000E-002    0.000000000000000E+000
 -3.370000000000000E-002    0.000000000000000E+000
 -3.360000000000000E-002    0.000000000000000E+000
 -3.350000000000000E-002    0.000000000000000E+000
 -3.340000000000000E-002    0.000000000000000E+000
 -3.330000000000000E-002    0.000000000000000E+000
 -3.320000000000000E-002    0.000000000000000E+000
 -3.310000000000000E-002    0.000000000000000E+000
 -3.300000000000000E-002    0.000000000000000E+000
 -3.290000000000000E-002    0.000000000000000E+000
 -3.280000000000000E-002    0.000000000000000E+000
 -3.270000000000000E-002    0.000000000000000E+000
 -3.260000000000000E-002    0.000000000000000E+000
 -3.250000000000000E-002    0.000000000000000E+000
 -3.240000000000000E-002    0.000000000000000E+000
 -3.230000000000000E-002    0.000000000000000E+000
 -3.220000000000000E-002    0.000000000000000E+000
 -3.210000000000000E-002    0.000000000000000E+000
 -3.200000000000000E-002    0.000000000000000E+000
 -3.190000000000000E-002    0.000000000000000E+000
 -3.180000000000000E-002    0.000000000000000E+000
 -3.170000000000000E-002    0.000000000000000E+000
 -3.160000000000000E-002    0.000000000000000E+000
 -3.150000000000000E-002    0.000000000000000E+000
 -3.140000000000000E-002    0.000000000000000E+000
 -3.130000000000000E-002    0.000000000000000E+000
 -3.120000000000000E-002    0.000000000000000E+000
 -3.110000000000000E-002    0.000000000000000E+000
 -3.100000000000000E-002    0.000000000000000E+000
 -3.090000000000000E-002    0.000000000000000E+000
 -3.080000000000000E-002    0.000000000000000E+000
 -3.070000000000000E-002    0.000000000000000E+000
 -3.060000000000000E-002    0.000000000000000E+000
 -3.050000000000000E-002    0.000000000000000E+000
 -3.040000000000000E-002    0.000000000000000E+000
 -3.030000000000000E-002    0.000000000000000E+000
 -3.020000000000000E-002    0.000000000000000E+000
 -3.010000000000000E-002    0.000000000000000E+000
 -3.000000000000000E-002    0.000000000000000E+000
 -2.990000000000000E-002    0.000000000000000E+000
 -2.980000000000000E-002    0.000000000000000E+000
 -2.970000000000000E-002    0.000000000000000E+000
 -2.960000000000000E-002    0.000000000000000E+000
 -2.950000000000000E-002    0.000000000000000E+000
 -2.940000000000000E-002    0.000000000000000E+000
 -2.930000000000000E-002    0.000000000000000E+000
 -2.920000000000000E-002    0.000000000000000E+000
 -2.910000000000000E-002    0.000000000000000E+000
 -2.900000000000000E-002    0.000000000000000E+000
 -2.890000000000000E-002    0.000000000000000E+000
 -2.880000000000000E-002    0.000000000000000E+000
 -2.870000000000000E-002    0.000000000000000E+000
 -2.860000000000000E-002    0.000000000000000E+000
 -2.850000000000000E-002    0.000000000000000E+000
 -2.840000000000000E-002    0.000000000000000E+000
 -2.830000000000000E-002    0.000000000000000E+000
 -2.820000000000000E-002    0.000000000000000E+000
 -2.810000000000000E-002    0.000000000000000E+000
 -2.800000000000000E-002    0.000000000000000E+000
 -2.790000000000000E-002    0.000000000000000E+000
 -2.780000000000000E-002    0.000000000000000E+000
 -2.770000000000000E-002    0.000000000000000E+000
 -2.760000000000000E-002    0.000000000000000E+000
 -2.750000000000000E-002    0.000000000000000E+000
 -2.740000000000000E-002    0.000000000000000E+000
 -2.730000000000000E-002    0.000000000000000E+000
 -2.720000000000000E-002    0.000000000000000E+000
 -2.710000000000000E-002    0.000000000000000E+000
 -2.700000000000000E-002    0.000000000000000E+000
 -2.690000000000000E-002    0.000000000000000E+000
 -2.680000000000000E-002    0.000000000000000E+000
 -2.670000000000000E-002    0.000000000000000E+000
 -2.660000000000000E-002    0.000000000000000E+000
 -2.650000000000000E-002    0.000000000000000E+000
 -2.640000000000000E-002    0.000000000000000E+000
 -2.630000000000000E-002    0.000000000000000E+000
 -2.620000000000000E-002    0.000000000000000E+000
 -2.610000000000000E-002    0.000000000000000E+000
 -2.600000000000000E-002    0.000000000000000E+000
 -2.590000000000000E-002    0.000000000000000E+000
 -2.580000000000000E-002    0.000000000000000E+000
 -2.570000000000000E-002    0.000000000000000E+000
 -2.560000000000000E-002    0.000000000000000E+000
 -2.550000000000000E-002    0.000000000000000E+000
 -2.540000000000000E-002    0.000000000000000E+000
 -2.530000000000000E-002    0.000000000000000E+000
 -2.520000000000000E-002    0.000000000000000E+000
 -2.510000000000000E-002    0.000000000000000E+000
 -2.500000000000000E-002    0.000000000000000E+000
 -2.490000000000000E-002    0.000000000000000E+000
 -2.480000000000000E-002    0.000000000000000E+000
 -2.470000000000000E-002    0.000000000000000E+000
 -2.460000000000000E-002    0.000000000000000E+000
 -2.450000000000000E-002    0.000000000000000E+000
 -2.440000000000000E-002    0.000000000000000E+000
 -2.430000000000000E-002    0.000000000000000E+000
 -2.420000000000000E-002    0.000000000000000E+000
 -2.410000000000000E-002    0.000000000000000E+000
 -2.400000000000000E-002    0.000000000000000E+000
 -2.390000000000000E-002    0.000000000000000E+000
 -2.380000000000000E-002    0.000000000000000E+000
 -2.370000000000000E-002    0.000000000000000E+000
 -2.360000000000000E-002    0.000000000000000E+000
 -2.350000000000000E-002    0.000000000000000E+000
 -2.340000000000000E-002    0.000000000000000E+000
 -2.330000000000000E-002    0.000000000000000E+000
 -2.320000000000000E-002    0.000000000000000E+000
 -2.310000000000000E-002    0.000000000000000E+000
 -2.300000000000000E-002    0.000000000000000E+000
 -2.290000000000000E-002    0.000000000000000E+000
 -2.280000000000000E-002    0.000000000000000E+000
 -2.270000000000000E-002    0.000000000000000E+000
 -2.260000000000000E-002    0.000000000000000E+000
 -2.250000000000000E-002    0.000000000000000E+000
 -2.240000000000000E-002    0.000000000000000E+000
 -2.230000000000000E-002    0.000000000000000E+000
 -2.220000000000000E-002    0.000000000000000E+000
 -2.210000000000000E-002    0.000000000000000E+000
 -2.200000000000000E-002    0.000000000000000E+000
 -2.190000000000000E-002    0.000000000000000E+000
 -2.180000000000000E-002    0.000000000000000E+000
 -2.170000000000000E-002    0.000000000000000E+000
 -2.160000000000000E-002    0.000000000000000E+000
 -2.150000000000000E-002    0.000000000000000E+000
 -2.140000000000000E-002    0.000000000000000E+000
 -2.130000000000000E-002    0.000000000000000E+000
 -2.120000000000000E-002    0.000000000000000E+000
 -2.110000000000000E-002    0.000000000000000E+000
 -2.100000000000000E-002    0.000000000000000E+000
 -2.090000000000000E-002    0.000000000000000E+000
 -2.080000000000000E-002    0.000000000000000E+000
 -2.070000000000000E-002    0.000000000000000E+000
 -2.060000000000000E-002    0.000000000000000E+000
 -2.050000000000000E-002    0.000000000000000E+000
 -2.040000000000000E-002    0.000000000000000E+000
 -2.030000000000000E-002    0.000000000000000E+000
 -2.020000000000000E-002    0.000000000000000E+000
 -2.010000000000000E-002    0.000000000000000E+000
 -2.000000000000000E-002    0.000000000000000E+000
 -1.990000000000000E-002    0.000000000000000E+000
 -1.980000000000000E-002    0.000000000000000E+000
 -1.970000000000000E-002    0.000000000000000E+000
 -1.960000000000000E-002    0.000000000000000E+000
 -1.950000000000000E-002    0.000000000000000E+000
 -1.940000000000000E-002    0.000000000000000E+000
 -1.930000000000000E-002    0.000000000000000E+000
 -1.920000000000000E-002    0.000000000000000E+000
 -1.910000000000000E-002    0.000000000000000E+000
 -1.900000000000000E-002    0.000000000000000E+000
 -1.890000000000000E-002    0.000000000000000E+000
 -1.880000000000000E-002    0.000000000000000E+000
 -1.870000000000000E-002    0.000000000000000E+000
 -1.860000000000000E-002    0.000000000000000E+000
 -1.850000000000000E-002    0.000000000000000E+000
 -1.840000000000000E-002    0.000000000000000E+000
 -1.830000000000000E-002    0.000000000000000E+000
 -1.820000000000000E-002    0.000000000000000E+000
 -1.810000000000000E-002    0.000000000000000E+000
 -1.800000000000000E-002    0.000000000000000E+000
 -1.790000000000000E-002    0.000000000000000E+000
 -1.780000000000000E-002    0.000000000000000E+000
 -1.770000000000000E-002    0.000000000000000E+000
 -1.760000000000000E-002    0.000000000000000E+000
 -1.750000000000000E-002    0.000000000000000E+000
 -1.740000000000000E-002    0.000000000000000E+000
 -1.730000000000000E-002    0.000000000000000E+000
 -1.720000000000000E-002    0.000000000000000E+000
 -1.710000000000000E-002    0.000000000000000E+000
 -1.700000000000000E-002    0.000000000000000E+000
 -1.690000000000000E-002    0.000000000000000E+000
 -1.680000000000000E-002    0.000000000000000E+000
 -1.670000000000000E-002    0.000000000000000E+000
 -1.660000000000000E-002    1.725055395824490E-048
 -1.650000000000000E-002    3.450110791648981E-048
 -1.640000000000000E-002    3.450110791648981E-048
 -1.630000000000000E-002    3.450110791648981E-048
 -1.620000000000000E-002    1.725055395824490E-048
 -1.610000000000000E-002   -1.725055395824490E-048
 -1.600000000000000E-002   -1.213813121425069E-047
 -1.590000000000000E-002   -1.903835279754865E-047
 -1.580000000000000E-002   -2.766362977667110E-047
 -1.570000000000000E-002   -3.801396215161804E-047
 -1.560000000000000E-002   -4.646149207802807E-047
 -1.550000000000000E-002   -2.561729596686849E-047
 -1.540000000000000E-002   -2.279317159035693E-047
 -1.530000000000000E-002   -1.071275566541257E-048
 -1.520000000000000E-002    2.705451797653548E-047
 -1.510000000000000E-002    1.118559905669999E-046
 -1.500000000000000E-002    2.670042991384201E-046
 -1.490000000000000E-002    3.581852332252418E-046
 -1.480000000000000E-002    5.769358992586743E-046
 -1.470000000000000E-002    7.059305787049979E-046
 -1.460000000000000E-002    7.589828811428318E-046
 -1.450000000000000E-002    4.519671036785874E-046
 -1.440000000000000E-002    6.484557901402864E-047
 -1.430000000000000E-002   -7.721286983945326E-046
 -1.420000000000000E-002   -1.730599037192828E-045
 -1.410000000000000E-002   -2.624343394504615E-045
 -1.400000000000000E-002   -4.276574006340286E-045
 -1.390000000000000E-002   -6.159476633573765E-045
 -1.380000000000000E-002   -7.334981097134469E-045
 -1.370000000000000E-002   -8.382918319867233E-045
 -1.360000000000000E-002   -7.059903876767122E-045
 -1.350000000000000E-002   -4.151939237822691E-045
 -1.340000000000000E-002    1.930668303639808E-045
 -1.330000000000000E-002    1.100620670521300E-044
 -1.320000000000000E-002    2.365374720165134E-044
 -1.310000000000000E-002    3.765227840686169E-044
 -1.300000000000000E-002    5.137508850212149E-044
 -1.290000000000000E-002    6.217829654840671E-044
 -1.280000000000000E-002    6.583559184742498E-044
 -1.270000000000000E-002    5.671303659149112E-044
 -1.260000000000000E-002    3.051524807354852E-044
 -1.250000000000000E-002   -1.617862617229643E-044
 -1.240000000000000E-002   -8.489710699272724E-044
 -1.230000000000000E-002   -1.716979207496932E-043
 -1.220000000000000E-002   -2.684414807319472E-043
 -1.210000000000000E-002   -3.597511820868487E-043
 -1.200000000000000E-002   -4.224901110558839E-043
 -1.190000000000000E-002   -4.306606686912070E-043
 -1.180000000000000E-002   -3.532064144124309E-043
 -1.170000000000000E-002   -1.642923454998096E-043
 -1.160000000000000E-002    1.544525580866833E-043
 -1.150000000000000E-002    6.024327853879555E-043
 -1.140000000000000E-002    1.151477363769862E-042
 -1.130000000000000E-002    1.741080891472879E-042
 -1.120000000000000E-002    2.270509877344939E-042
 -1.110000000000000E-002    2.605065390004239E-042
 -1.100000000000000E-002    2.586238667131893E-042
 -1.090000000000000E-002    2.049155444568518E-042
 -1.080000000000000E-002    8.580620895286922E-043
 -1.070000000000000E-002   -1.059187097741590E-042
 -1.060000000000000E-002   -3.661883011177509E-042
 -1.050000000000000E-002   -6.759403928309286E-042
 -1.040000000000000E-002   -9.978485625238197E-042
 -1.030000000000000E-002   -1.275804740953052E-041
 -1.020000000000000E-002   -1.437475451666581E-041
 -1.010000000000000E-002   -1.401145270271181E-041
 -1.000000000000000E-002   -1.087787068271782E-041
 -9.899999999999999E-003   -4.365916746368315E-042
 -9.800000000000000E-003    5.753173903850794E-042
 -9.699999999999999E-003    1.913587694762868E-041
 -9.599999999999999E-003    3.469359018321937E-041
 -9.500000000000000E-003    5.049603077185859E-041
 -9.399999999999999E-003    6.379104218457016E-041
 -9.299999999999999E-003    7.118786786106236E-041
 -9.200000000000000E-003    6.902104302995671E-041
 -9.099999999999999E-003    5.390625352973992E-041
 -8.999999999999999E-003    2.345368606318943E-041
 -8.900000000000000E-003   -2.294103420008728E-041
 -8.799999999999999E-003   -8.333511249892405E-041
 -8.699999999999999E-003   -1.526557379058379E-040
 -8.600000000000000E-003   -2.224668571026683E-040
 -8.499999999999999E-003   -2.812360983880059E-040
 -8.399999999999999E-003   -3.152308469999618E-040
 -8.300000000000000E-003   -3.100866314594785E-040
 -8.199999999999999E-003   -2.529892665771259E-040
 -8.100000000000000E-003   -1.352972917563275E-040
 -8.000000000000000E-003    4.471852163818289E-041
 -7.899999999999999E-003    2.794380146795690E-040
 -7.800000000000000E-003    5.502518107074576E-040
 -7.699999999999999E-003    8.272129246833541E-040
 -7.599999999999999E-003    1.070390818673128E-039
 -7.499999999999999E-003    1.233149143568476E-039
 -7.399999999999999E-003    1.267310375310934E-039
 -7.299999999999999E-003    1.129848787775696E-039
 -7.199999999999999E-003    7.904093733602054E-040
 -7.100000000000000E-003    2.386901005492194E-040
 -6.999999999999999E-003   -5.094562404815211E-040
 -6.899999999999999E-003   -1.408334946028815E-039
 -6.800000000000000E-003   -2.382066330605427E-039
 -6.699999999999999E-003   -3.328103732291502E-039
 -6.599999999999999E-003   -4.124573120208364E-039
 -6.499999999999999E-003   -4.640761572231566E-039
 -6.399999999999999E-003   -4.749556247527868E-039
 -6.299999999999999E-003   -4.340243317630296E-039
 -6.199999999999999E-003   -3.330123611688435E-039
 -6.100000000000000E-003   -1.673777981476578E-039
 -5.999999999999999E-003    6.303920324317673E-040
 -5.899999999999999E-003    3.535646011103115E-039
 -5.800000000000000E-003    6.942665299717168E-039
 -5.699999999999999E-003    1.069314452828943E-038
 -5.599999999999999E-003    1.455881683216691E-038
 -5.499999999999999E-003    1.822467077091104E-038
 -5.399999999999999E-003    2.126755574563466E-038
 -5.299999999999999E-003    2.313500772996292E-038
 -5.199999999999999E-003    2.313350890127584E-038
 -5.099999999999999E-003    2.043960793173764E-038
 -4.999999999999999E-003    1.415011720687709E-038
 -4.899999999999999E-003    3.387611713095445E-039
 -4.799999999999999E-003   -1.252702711147588E-038
 -4.699999999999999E-003   -3.383296140660412E-038
 -4.599999999999999E-003   -6.003202889375151E-038
 -4.499999999999999E-003   -8.956917806600963E-038
 -4.399999999999999E-003   -1.195466128017998E-037
 -4.299999999999999E-003   -1.455484876981858E-037
 -4.199999999999999E-003   -1.616671619020798E-037
 -4.099999999999999E-003   -1.608235192109006E-037
 -3.999999999999999E-003   -1.354571910049095E-037
 -3.899999999999999E-003   -7.862380954946482E-038
 -3.799999999999999E-003    1.452612941444808E-038
 -3.699999999999999E-003    1.449944984161506E-037
 -3.599999999999999E-003    3.081118266480607E-037
 -3.499999999999999E-003    4.919392101221096E-037
 -3.399999999999999E-003    6.762671689149546E-037
 -3.299999999999999E-003    8.326187721330999E-037
 -3.199999999999999E-003    9.256393131143652E-037
 -3.099999999999999E-003    9.161552354610064E-037
 -2.999999999999999E-003    7.660014380495175E-037
 -2.899999999999999E-003    4.444538664803536E-037
 -2.799999999999999E-003   -6.421870983742640E-038
 -2.699999999999999E-003   -7.529145339793491E-037
 -2.599999999999999E-003   -1.584718543536291E-036
 -2.499999999999999E-003   -2.488165547590641E-036
 -2.399999999999999E-003   -3.356205367052107E-036
 -2.299999999999999E-003   -4.050210413475302E-036
 -2.199999999999999E-003   -4.409988187131968E-036
 -2.099999999999999E-003   -4.270150675277391E-036
 -1.999999999999999E-003   -3.482337630387425E-036
 -1.899999999999999E-003   -1.941796081855740E-036
 -1.799999999999999E-003    3.842223322059120E-037
 -1.699999999999999E-003    3.429742711247002E-036
 -1.599999999999999E-003    7.009197376121360E-036
 -1.499999999999999E-003    1.080688281534105E-035
 -1.399999999999999E-003    1.438094265719342E-035
 -1.299999999999999E-003    1.718521836295637E-035
 -1.199999999999999E-003    1.861081959076293E-035
 -1.099999999999999E-003    1.804717822406039E-035
 -9.999999999999989E-004    1.495988658859077E-035
 -8.999999999999990E-004    8.979967498702398E-036
 -7.999999999999990E-004   -3.407730524431592E-039
 -6.999999999999989E-004   -1.175694255311118E-035
 -5.999999999999990E-004   -2.563570165839960E-035
 -4.999999999999989E-004   -4.054648225220109E-035
 -3.999999999999989E-004   -5.495389055969804E-035
 -2.999999999999989E-004   -6.693925237189118E-035
 -1.999999999999989E-004   -7.431934993922559E-035
 -9.999999999999892E-005   -7.482747949634126E-035
  1.084202172485504E-018   -6.635376765463595E-035
  1.000000000000011E-004   -4.723473032311932E-035
  2.000000000000011E-004   -1.657456702339425E-035
  3.000000000000011E-004    2.542765361703291E-035
  4.000000000000011E-004    7.717860814825415E-035
  5.000000000000011E-004    1.354603251095524E-034
  6.000000000000011E-004    1.953154121941981E-034
  7.000000000000011E-004    2.500966371411516E-034
  8.000000000000011E-004    2.917273430990954E-034
  9.000000000000012E-004    3.112103391722268E-034
  1.000000000000001E-003    2.994060120872394E-034
  1.100000000000001E-003    2.480755767165402E-034
  1.200000000000001E-003    1.511501547864036E-034
  1.300000000000001E-003    6.145092852783613E-036
  1.400000000000001E-003   -1.844079833079693E-034
  1.500000000000001E-003   -4.116851945937476E-034
  1.600000000000001E-003   -6.596636425567224E-034
  1.700000000000001E-003   -9.048199939005530E-034
  1.800000000000001E-003   -1.116670835931565E-033
  1.900000000000001E-003   -1.259357094818300E-033
  2.000000000000001E-003   -1.294401904156578E-033
  2.100000000000001E-003   -1.184658351944314E-033
  2.200000000000001E-003   -8.993090484398717E-034
  2.300000000000001E-003   -4.196009039348155E-034
  2.400000000000001E-003    2.551998815295920E-034
  2.500000000000001E-003    1.102323729183544E-033
  2.600000000000001E-003    2.071322823750186E-033
  2.700000000000001E-003    3.082113545500491E-033
  2.800000000000001E-003    4.026117175226540E-033
  2.900000000000001E-003    4.771225476305253E-033
  3.000000000000001E-003    5.171040766835156E-033
  3.100000000000001E-003    5.078423389628288E-033
  3.200000000000001E-003    4.362850537581657E-033
  3.300000000000001E-003    2.930507761703813E-033
  3.400000000000001E-003    7.454296739920217E-034
  3.500000000000001E-003   -2.150535972990461E-033
  3.600000000000001E-003   -5.621569726441611E-033
  3.700000000000001E-003   -9.428344977403431E-033
  3.800000000000001E-003   -1.322784641962942E-032
  3.900000000000001E-003   -1.658486131662169E-032
  4.000000000000001E-003   -1.899671527270253E-032
  4.100000000000001E-003   -1.993175580974351E-032
  4.200000000000001E-003   -1.888072821066567E-032
  4.300000000000001E-003   -1.541866590424788E-032
  4.400000000000001E-003   -9.273304331561496E-033
  4.500000000000001E-003   -3.944378924666343E-034
  4.600000000000002E-003    1.098269082207390E-032
  4.700000000000001E-003    2.428791916782754E-032
  4.800000000000001E-003    3.858909505504351E-032
  4.900000000000002E-003    5.259574669494664E-032
  5.000000000000001E-003    6.470092299526394E-032
  5.100000000000001E-003    7.306692567860070E-032
  5.200000000000001E-003    7.575782729126486E-032
  5.300000000000002E-003    7.091796382823170E-032
  5.400000000000001E-003    5.699077578646420E-032
  5.500000000000001E-003    3.296688984303806E-032
  5.600000000000002E-003   -1.356003078424552E-033
  5.700000000000001E-003   -4.512529460819965E-032
  5.800000000000001E-003   -9.622725486242502E-032
  5.900000000000002E-003   -1.511569083478712E-031
  6.000000000000001E-003   -2.050009192278014E-031
  6.100000000000001E-003   -2.515691803194520E-031
  6.200000000000002E-003   -2.837056837762903E-031
  6.300000000000002E-003   -2.937982236210370E-031
  6.400000000000001E-003   -2.744897853623720E-031
  6.500000000000001E-003   -2.195718493688070E-031
  6.600000000000002E-003   -1.250120815203148E-031
  6.700000000000001E-003    9.961747590111265E-033
  6.800000000000001E-003    1.818311548916741E-031
  6.900000000000002E-003    3.819456906836660E-031
  7.000000000000001E-003    5.960264516937035E-031
  7.100000000000001E-003    8.041747248162805E-031
  7.200000000000002E-003    9.815327122411777E-031
  7.300000000000002E-003    1.099707446150250E-030
  7.400000000000001E-003    1.129010147159441E-030
  7.500000000000001E-003    1.041478624313377E-030
  7.600000000000002E-003    8.145475565322146E-031
  7.700000000000001E-003    4.351162223569988E-031
  7.800000000000001E-003   -9.635468864057273E-032
  7.900000000000001E-003   -7.621885416320987E-031
  8.000000000000002E-003   -1.524826506667280E-030
  8.100000000000001E-003   -2.325724577431140E-030
  8.200000000000001E-003   -3.086355296767561E-030
  8.300000000000002E-003   -3.711751646553180E-030
  8.400000000000001E-003   -4.096844461151701E-030
  8.500000000000002E-003   -4.135589734200594E-030
  8.600000000000002E-003   -3.732556662986030E-030
  8.700000000000001E-003   -2.816287452355077E-030
  8.800000000000002E-003   -1.353368957843609E-030
  8.900000000000002E-003    6.381804932528305E-031
  9.000000000000001E-003    3.077869646855825E-030
  9.100000000000002E-003    5.815829541487686E-030
  9.200000000000002E-003    8.631808128343732E-030
  9.300000000000001E-003    1.124159971094066E-029
  9.400000000000002E-003    1.331199062535670E-029
  9.500000000000001E-003    1.448463020280154E-029
  9.600000000000001E-003    1.440838406037302E-029
  9.700000000000002E-003    1.277870783924501E-029
  9.800000000000001E-003    9.381501067589823E-030
  9.900000000000001E-003    4.137853650183512E-030
  1.000000000000000E-002   -2.854841990462394E-030
  1.010000000000000E-002   -1.129055802858269E-029
  1.020000000000000E-002   -2.063654826629053E-029
  1.030000000000000E-002   -3.013471001005240E-029
  1.040000000000000E-002   -3.882680519087011E-029
  1.050000000000000E-002   -4.560650861789350E-029
  1.060000000000000E-002   -4.929919846373784E-029
  1.070000000000000E-002   -4.876773044965537E-029
  1.080000000000000E-002   -4.303944592593256E-029
  1.090000000000000E-002   -3.144627819362583E-029
  1.100000000000000E-002   -1.376669685015652E-029
  1.110000000000000E-002    9.644680981857982E-030
  1.120000000000000E-002    3.775607113987048E-029
  1.130000000000000E-002    6.880320455896963E-029
  1.140000000000000E-002    1.002962327019181E-028
  1.150000000000000E-002    1.291029418241580E-028
  1.160000000000000E-002    1.516178013913333E-028
  1.170000000000000E-002    1.640200089910279E-028
  1.180000000000000E-002    1.626148883890902E-028
  1.190000000000000E-002    1.442435323098245E-028
  1.200000000000000E-002    1.067344983780228E-028
  1.210000000000000E-002    4.936106973569439E-029
  1.220000000000000E-002   -2.674193986609850E-029
  1.230000000000000E-002   -1.182544031961856E-028
  1.240000000000000E-002   -2.194956448626564E-028
  1.250000000000000E-002   -3.224508042327701E-028
  1.260000000000000E-002   -4.170438344767985E-028
  1.270000000000000E-002   -4.916863056122051E-028
  1.280000000000000E-002   -5.341103187674908E-028
  1.290000000000000E-002   -5.324650587053910E-028
  1.300000000000000E-002   -4.766254293597996E-028
  1.310000000000000E-002   -3.596263778857717E-028
  1.320000000000000E-002   -1.791035883803605E-028
  1.330000000000000E-002    6.140611881175727E-029
  1.340000000000000E-002    3.514709890321050E-028
  1.350000000000000E-002    6.732494374459862E-028
  1.360000000000000E-002    1.001614532549375E-027
  1.370000000000000E-002    1.305050523341919E-027
  1.380000000000000E-002    1.547401225760490E-027
  1.390000000000000E-002    1.690482881182680E-027
  1.400000000000000E-002    1.697485971245876E-027
  1.410000000000000E-002    1.536994549769628E-027
  1.420000000000000E-002    1.187349919578746E-027
  1.430000000000000E-002    6.409913559284669E-028
  1.440000000000000E-002   -9.167013327526759E-029
  1.450000000000000E-002   -9.793387704021579E-028
  1.460000000000000E-002   -1.968381197317385E-027
  1.470000000000000E-002   -2.983297028827624E-027
  1.480000000000000E-002   -3.929475403517178E-027
  1.490000000000000E-002   -4.698451376039202E-027
  1.500000000000000E-002   -5.175668929215226E-027
  1.510000000000000E-002   -5.250507092161048E-027
  1.520000000000000E-002   -4.828052229030142E-027
  1.530000000000000E-002   -3.841815376244216E-027
  1.540000000000000E-002   -2.266333873263243E-027
  1.550000000000000E-002   -1.283910962371889E-028
  1.560000000000000E-002    2.484543850079020E-027
  1.570000000000000E-002    5.420057179415360E-027
  1.580000000000000E-002    8.462001730106414E-027
  1.590000000000000E-002    1.133818916166189E-026
  1.600000000000000E-002    1.373514050572781E-026
  1.610000000000000E-002    1.531990929089183E-026
  1.620000000000000E-002    1.576830433965393E-026
  1.630000000000000E-002    1.479807483471114E-026
  1.640000000000000E-002    1.220484008850589E-026
  1.650000000000000E-002    7.897853405317640E-027
  1.660000000000000E-002    1.932101681720079E-027
  1.670000000000000E-002   -5.467089964704029E-027
  1.680000000000000E-002   -1.389085845695445E-026
  1.690000000000000E-002   -2.274853233586040E-026
  1.700000000000000E-002   -3.128714342191535E-026
  1.710000000000000E-002   -3.863040670132154E-026
  1.720000000000000E-002   -4.383729998663049E-026
  1.730000000000000E-002   -4.597855043357720E-026
  1.740000000000000E-002   -4.422725641745178E-026
  1.750000000000000E-002   -3.795780555526488E-026
  1.760000000000000E-002   -2.684530873400237E-026
  1.770000000000000E-002   -1.095617745351255E-026
  1.780000000000000E-002    9.180484929859254E-027
  1.790000000000000E-002    3.253117447891631E-026
  1.800000000000000E-002    5.755571534200781E-026
  1.810000000000000E-002    8.225222391434583E-026
  1.820000000000000E-002    1.042542568333014E-025
  1.830000000000000E-002    1.209809777733894E-025
  1.840000000000000E-002    1.298364354963187E-025
  1.850000000000000E-002    1.284485641801219E-025
  1.860000000000000E-002    1.149331889913962E-025
  1.870000000000000E-002    8.816299311114592E-026