 -4.000000000000000E-002    0.000000000000000E+000
 -3.990000000000000E-002    0.000000000000000E+000
 -3.980000000000000E-002    0.000000000000000E+000
 -3.970000000000000E-002    0.000000000000000E+000
 -3.960000000000000E-002    0.000000000000000E+000
 -3.950000000000000E-002    0.000000000000000E+000
 -3.940000000000000E-002    0.000000000000000E+000
 -3.930000000000000E-002    0.000000000000000E+000
 -3.920000000000000E-002    0.000000000000000E+000
 -3.910000000000000E-002    0.000000000000000E+000
 -3.900000000000000E-002    0.000000000000000E+000
 -3.890000000000000E-002    0.000000000000000E+000
 -3.880000000000000E-002    0.000000000000000E+000
 -3.870000000000000E-002    0.000000000000000E+000
 -3.860000000000000E-002    0.000000000000000E+000
 -3.850000000000000E-002    0.000000000000000E+000
 -3.840000000000000E-002    0.000000000000000E+000
 -3.830000000000000E-002    0.000000000000000E+000
 -3.820000000000000E-002    0.000000000000000E+000
 -3.810000000000000E-002    0.000000000000000E+000
 -3.800000000000000E-002    0.000000000000000E+000
 -3.790000000000000E-002    0.000000000000000E+000
 -3.780000000000000E-002    0.000000000000000E+000
 -3.770000000000000E-002    0.000000000000000E+000
 -3.760000000000000E-002    0.000000000000000E+000
 -3.750000000000000E-002    0.000000000000000E+000
 -3.740000000000000E-002    0.000000000000000E+000
 -3.730000000000000E-002    0.000000000000000E+000
 -3.720000000000000E-002    0.000000000000000E+000
 -3.710000000000000E-002    0.000000000000000E+000
 -3.700000000000000E-002    0.000000000000000E+000
 -3.690000000000000E-002    0.000000000000000E+000
 -3.680000000000000E-002    0.000000000000000E+000
 -3.670000000000000E-002    0.000000000000000E+000
 -3.660000000000000E-002    0.000000000000000E+000
 -3.650000000000000E-002    0.000000000000000E+000
 -3.640000000000000E-002    0.000000000000000E+000
 -3.630000000000000E-002    0.000000000000000E+000
 -3.620000000000000E-002    0.000000000000000E+000
 -3.610000000000000E-002    0.000000000000000E+000
 -3.600000000000000E-002    0.000000000000000E+000
 -3.590000000000000E-002    0.000000000000000E+000
 -3.580000000000000E-002    0.000000000000000E+000
 -3.570000000000000E-002    0.000000000000000E+000
 -3.560000000000000E-002    0.000000000000000E+000
 -3.550000000000000E-002    4.141811925917972E-048
 -3.540000000000000E-002    1.038962988984530E-047
 -3.530000000000000E-002    4.202430531753850E-047
 -3.520000000000000E-002    1.382568623467551E-046
 -3.510000000000000E-002    3.588093539218449E-046
 -3.500000000000000E-002    7.815015415114689E-046
 -3.490000000000000E-002    1.566394771029399E-045
 -3.480000000000000E-002    2.915299945660233E-045
 -3.470000000000000E-002    4.863017792956291E-045
 -3.460000000000000E-002    7.711864608719239E-045
 -3.450000000000000E-002    1.099907196082557E-044
 -3.440000000000000E-002    1.250065916083522E-044
 -3.430000000000000E-002    1.029694100861803E-044
 -3.420000000000000E-002   -1.353219692289203E-045
 -3.410000000000000E-002   -3.351389357015373E-044
 -3.400000000000000E-002   -1.000332867320816E-043
 -3.390000000000000E-002   -2.248910581190397E-043
 -3.380000000000000E-002   -4.338970034766072E-043
 -3.370000000000000E-002   -7.557221892088755E-043
 -3.360000000000000E-002   -1.206659990098597E-042
 -3.350000000000000E-002   -1.773373611814757E-042
 -3.340000000000000E-002   -2.382043665570875E-042
 -3.330000000000000E-002   -2.854926853926553E-042
 -3.320000000000000E-002   -2.861867970011529E-042
 -3.310000000000000E-002   -1.873149699493635E-042
 -3.300000000000000E-002    8.586297250492483E-043
 -3.290000000000000E-002    6.273873526909839E-042
 -3.280000000000000E-002    1.538594512859399E-041
 -3.270000000000000E-002    2.903993335117156E-041
 -3.260000000000000E-002    4.753414706193863E-041
 -3.250000000000000E-002    7.011552012715747E-041
 -3.240000000000000E-002    9.444238685590980E-041
 -3.230000000000000E-002    1.161933499116427E-040
 -3.220000000000000E-002    1.290756649620057E-040
 -3.210000000000000E-002    1.255939532643994E-040
 -3.200000000000000E-002    9.889300662551832E-041
 -3.190000000000000E-002    4.584039229742605E-041
 -3.180000000000000E-002   -2.885510112715213E-041
 -3.170000000000000E-002   -1.083495183854701E-040
 -3.160000000000000E-002   -1.608843637611876E-040
 -3.150000000000000E-002   -1.411798798012064E-040
 -3.140000000000000E-002    5.746194161372142E-043
 -3.130000000000000E-002    2.985306426343726E-040
 -3.120000000000000E-002    7.369652645112318E-040
 -3.110000000000000E-002    1.201332030128279E-039
 -3.100000000000000E-002    1.417220400296139E-039
 -3.090000000000000E-002    8.838049390822851E-040
 -3.080000000000000E-002   -1.188585240055230E-039
 -3.070000000000000E-002   -5.926983257135811E-039
 -3.060000000000000E-002   -1.482528935136552E-038
 -3.050000000000000E-002   -2.975965541613958E-038
 -3.040000000000000E-002   -5.300661570849290E-038
 -3.030000000000000E-002   -8.728375352643171E-038
 -3.020000000000000E-002   -1.358087997778276E-037
 -3.010000000000000E-002   -2.022896887644583E-037
 -3.000000000000000E-002   -2.905837418847073E-037
 -2.990000000000000E-002   -4.034618063682171E-037
 -2.980000000000000E-002   -5.394834230096618E-037
 -2.970000000000000E-002   -6.864807244874229E-037
 -2.960000000000000E-002   -8.097114145926448E-037
 -2.950000000000000E-002   -8.326898175882462E-037
 -2.940000000000000E-002   -6.094643569151865E-037
 -2.930000000000000E-002    1.106062470720412E-037
 -2.920000000000000E-002    1.720150957782081E-036
 -2.910000000000000E-002    4.780450554807748E-036
 -2.900000000000000E-002    1.001472601120668E-035
 -2.890000000000000E-002    1.823293193993961E-035
 -2.880000000000000E-002    3.014080232755856E-035
 -2.870000000000000E-002    4.597818598233019E-035
 -2.860000000000000E-002    6.493502644851298E-035
 -2.850000000000000E-002    8.431726728539057E-035
 -2.840000000000000E-002    9.848960347531108E-035
 -2.830000000000000E-002    9.771705945612650E-035
 -2.820000000000000E-002    6.716936914831135E-035
 -2.810000000000000E-002   -1.346496120561092E-035
 -2.800000000000000E-002   -1.691021907764148E-034
 -2.790000000000000E-002   -4.262854100919806E-034
 -2.780000000000000E-002   -8.071699814720124E-034
 -2.770000000000000E-002   -1.319624323584127E-033
 -2.760000000000000E-002   -1.942991006379674E-033
 -2.750000000000000E-002   -2.609866299723104E-033
 -2.740000000000000E-002   -3.185589429910110E-033
 -2.730000000000000E-002   -3.449006320108495E-033
 -2.720000000000000E-002   -3.080383128547132E-033
 -2.710000000000000E-002   -1.664810709302695E-033
 -2.700000000000000E-002    1.278467887423965E-033
 -2.690000000000000E-002    6.229420900231812E-033
 -2.680000000000000E-002    1.355308078417975E-032
 -2.670000000000000E-002    2.333212575243779E-032
 -2.660000000000000E-002    3.514915817397119E-032
 -2.650000000000000E-002    4.783532969929278E-032
 -2.640000000000000E-002    5.922042520214231E-032
 -2.630000000000000E-002    6.594151133162714E-032
 -2.620000000000000E-002    6.338978851982439E-032
 -2.610000000000000E-002    4.589357309912604E-032
 -2.600000000000000E-002    7.242876245366507E-033
 -2.590000000000000E-002   -5.835029012450000E-032
 -2.580000000000000E-002   -1.547997765095234E-031
 -2.570000000000000E-002   -2.822173372041972E-031
 -2.560000000000000E-002   -4.346329479685626E-031
 -2.550000000000000E-002   -5.976302618479754E-031
 -2.540000000000000E-002   -7.463266701116551E-031
 -2.530000000000000E-002   -8.442894167558624E-031
 -2.520000000000000E-002   -8.441044728433300E-031
 -2.510000000000000E-002   -6.903589967095086E-031
 -2.500000000000000E-002   -3.257136317774347E-031
 -2.490000000000000E-002    2.995220887333677E-031
 -2.480000000000000E-002    1.214369857380538E-030
 -2.470000000000000E-002    2.411462822981596E-030
 -2.460000000000000E-002    3.830241929419294E-030
 -2.450000000000000E-002    5.341638563959371E-030
 -2.440000000000000E-002    6.737727880764611E-030
 -2.430000000000000E-002    7.730483704264774E-030
 -2.420000000000000E-002    7.963933539292049E-030
 -2.410000000000000E-002    7.043437589770373E-030
 -2.400000000000000E-002    4.584309724558754E-030
 -2.390000000000000E-002    2.794539013036364E-031
 -2.380000000000000E-002   -6.017837378516178E-030
 -2.370000000000000E-002   -1.420401341790993E-029
 -2.360000000000000E-002   -2.384082797114792E-029
 -2.350000000000000E-002   -3.409270767963797E-029
 -2.340000000000000E-002   -4.370461422499736E-029
 -2.330000000000000E-002   -5.103892730658536E-029
 -2.320000000000000E-002   -5.418625294469514E-029
 -2.310000000000000E-002   -5.115745306282620E-029
 -2.300000000000000E-002   -4.015261533955561E-029
 -2.290000000000000E-002   -1.988786874556939E-029
 -2.280000000000000E-002    1.005536484814928E-029
 -2.270000000000000E-002    4.890929533550519E-029
 -2.260000000000000E-002    9.448829727536929E-029
 -2.250000000000000E-002    1.431112887026275E-028
 -2.240000000000000E-002    1.897337867112073E-028
 -2.230000000000000E-002    2.283235373799535E-028
 -2.220000000000000E-002    2.524784865063692E-028
 -2.210000000000000E-002    2.562394626025123E-028
 -2.200000000000000E-002    2.349988414110506E-028
 -2.190000000000000E-002    1.863588396537318E-028
 -2.180000000000000E-002    1.107609695613847E-028
 -2.170000000000000E-002    1.170273919617848E-029
 -2.160000000000000E-002   -1.046088859961389E-028
 -2.150000000000000E-002   -2.302406780964890E-028
 -2.140000000000000E-002   -3.571045181977376E-028
 -2.130000000000000E-002   -4.789134774565064E-028
 -2.120000000000000E-002   -5.931505292705669E-028
 -2.110000000000000E-002   -7.025308469415793E-028
 -2.100000000000000E-002   -8.153489674744228E-028
 -2.090000000000000E-002   -9.441156055597285E-028
 -2.080000000000000E-002   -1.102043858929498E-027
 -2.070000000000000E-002   -1.297256317825938E-027
 -2.060000000000000E-002   -1.525061206523254E-027
 -2.050000000000000E-002   -1.759238843532727E-027
 -2.040000000000000E-002   -1.943920495887908E-027
 -2.030000000000000E-002   -1.988216559538617E-027
 -2.020000000000000E-002   -1.766107790576320E-027
 -2.010000000000000E-002   -1.124116753370451E-027
 -2.000000000000000E-002    1.012399550233304E-028
 -1.990000000000000E-002    2.055308687854418E-027
 -1.980000000000000E-002    4.827268658042125E-027
 -1.970000000000000E-002    8.405219235400426E-027
 -1.960000000000000E-002    1.262986512246322E-026
 -1.950000000000000E-002    1.715465019628617E-026
 -1.940000000000000E-002    2.142200224953501E-026
 -1.930000000000000E-002    2.466607064506673E-026
 -1.920000000000000E-002    2.595145556120495E-026
 -1.910000000000000E-002    2.425461232099764E-026
 -1.900000000000000E-002    1.858965822572767E-026
 -1.890000000000000E-002    8.173476871051806E-027
 -1.880000000000000E-002   -7.383179120824854E-027
 -1.870000000000000E-002   -2.788036958261778E-026
 -1.860000000000000E-002   -5.235873667888608E-026
 -1.850000000000000E-002   -7.898854755783550E-026
 -1.840000000000000E-002   -1.050529249399644E-025
 -1.830000000000000E-002   -1.270555042848392E-025
 -1.820000000000000E-002   -1.409717111147221E-025
 -1.810000000000000E-002   -1.426459382122029E-025
 -1.800000000000000E-002   -1.283149719608386E-025
 -1.790000000000000E-002   -9.521344284999244E-026
 -1.780000000000000E-002   -4.219360013976725E-026
 -1.770000000000000E-002    2.972728060619012E-026
 -1.760000000000000E-002    1.169880221074154E-025
 -1.750000000000000E-002    2.133660897644027E-025
 -1.740000000000000E-002    3.101957524806492E-025
 -1.730000000000000E-002    3.969612626390940E-025
 -1.720000000000000E-002    4.622559984439998E-025
 -1.710000000000000E-002    4.950410190438731E-025
 -1.700000000000000E-002    4.860776250926666E-025
 -1.690000000000000E-002    4.293576221576251E-025
 -1.680000000000000E-002    3.233225868447362E-025
 -1.670000000000000E-002    1.716579713169860E-025
 -1.660000000000000E-002   -1.652341205148032E-026
 -1.650000000000000E-002   -2.272289260279459E-025
 -1.640000000000000E-002   -4.428888831274414E-025
 -1.630000000000000E-002   -6.443199716420302E-025
 -1.620000000000000E-002   -8.131301169497821E-025
 -1.610000000000000E-002   -9.342368154582601E-025
 -1.600000000000000E-002   -9.980972712202302E-025
 -1.590000000000000E-002   -1.002233872747162E-024
 -1.580000000000000E-002   -9.516924358834507E-025
 -1.570000000000000E-002   -8.582009190722357E-025
 -1.560000000000000E-002   -7.379903941688283E-025
 -1.550000000000000E-002   -6.084778121566548E-025
 -1.540000000000000E-002   -4.842572196750744E-025
 -1.530000000000000E-002   -3.730538120523466E-025
 -1.520000000000000E-002   -2.724243351207328E-025
 -1.510000000000000E-002   -1.679924393560653E-025
 -1.500000000000000E-002   -3.386857198299194E-026
 -1.490000000000000E-002    1.643878730045068E-025
 -1.480000000000000E-002    4.643191865711578E-025
 -1.470000000000000E-002    8.991696017706665E-025
 -1.460000000000000E-002    1.489545782229602E-024
 -1.450000000000000E-002    2.235517192277325E-024
 -1.440000000000000E-002    3.110703736501949E-024
 -1.430000000000000E-002    4.059802622077884E-024
 -1.420000000000000E-002    5.000593566285384E-024
 -1.410000000000000E-002    5.830763195448616E-024
 -1.400000000000000E-002    6.438983014646498E-024
 -1.390000000000000E-002    6.718697138982588E-024
 -1.380000000000000E-002    6.582217796345135E-024
 -1.370000000000000E-002    5.972206238923508E-024
 -1.360000000000000E-002    4.867612560991154E-024
 -1.350000000000000E-002    3.281810910530385E-024
 -1.340000000000000E-002    1.252003130908991E-024
 -1.330000000000000E-002   -1.179104762854174E-024
 -1.320000000000000E-002   -3.986099341499499E-024
 -1.310000000000000E-002   -7.182679941527112E-024
 -1.300000000000000E-002   -1.083545434292857E-023
 -1.290000000000000E-002   -1.506206243353698E-023
 -1.280000000000000E-002   -2.000698240245579E-023
 -1.270000000000000E-002   -2.579112105752265E-023
 -1.260000000000000E-002   -3.243578657781767E-023
 -1.250000000000000E-002   -3.976765763609094E-023
 -1.240000000000000E-002   -4.731791279556844E-023
 -1.230000000000000E-002   -5.423497397533850E-023
 -1.220000000000000E-002   -5.923474742233891E-023
 -1.210000000000000E-002   -6.061369239214762E-023
 -1.200000000000000E-002   -5.634708780765437E-023
 -1.190000000000000E-002   -4.428697198036753E-023
 -1.180000000000000E-002   -2.246122619005211E-023
 -1.170000000000000E-002    1.054199848681734E-023
 -1.160000000000000E-002    5.513981109572304E-023
 -1.150000000000000E-002    1.103248428871048E-022
 -1.140000000000000E-002    1.733103950782367E-022
 -1.130000000000000E-002    2.393290455299347E-022
 -1.120000000000000E-002    3.016609738350868E-022
 -1.110000000000000E-002    3.519530103817323E-022
 -1.100000000000000E-002    3.808605506919686E-022
 -1.090000000000000E-002    3.790034315321698E-022
 -1.080000000000000E-002    3.381768265143920E-022
 -1.070000000000000E-002    2.527059062360540E-022
 -1.060000000000000E-002    1.207850562336251E-022
 -1.050000000000000E-002   -5.439124833677332E-023
 -1.040000000000000E-002   -2.639114416745882E-022
 -1.030000000000000E-002   -4.930326999234859E-022
 -1.020000000000000E-002   -7.218106057001217E-022
 -1.010000000000000E-002   -9.265342925491447E-022
 -1.000000000000000E-002   -1.081924406516546E-021
 -9.899999999999999E-003   -1.163932592269188E-021
 -9.800000000000000E-003   -1.152864927007056E-021
 -9.699999999999999E-003   -1.036453520833651E-021
 -9.599999999999999E-003   -8.124429343018228E-022
 -9.500000000000000E-003   -4.902526668513544E-022
 -9.399999999999999E-003   -9.133846898086267E-023
 -9.299999999999999E-003    3.519974534577671E-022
 -9.200000000000000E-003    7.994093406843889E-022
 -9.099999999999999E-003    1.206759306504063E-021
 -8.999999999999999E-003    1.531410971013961E-021
 -8.900000000000000E-003    1.737944247465550E-021
 -8.799999999999999E-003    1.803512790413497E-021
 -8.699999999999999E-003    1.722004196913206E-021
 -8.600000000000000E-003    1.506225215249181E-021
 -8.499999999999999E-003    1.187520946814334E-021
 -8.399999999999999E-003    8.125491745280875E-022
 -8.300000000000000E-003    4.373351519514742E-022
 -8.199999999999999E-003    1.191743721384033E-022
 -8.100000000000000E-003   -9.262672285418473E-023
 -8.000000000000000E-003   -1.658562244988546E-022
 -7.899999999999999E-003   -9.286666852238558E-023
 -7.800000000000000E-003    1.050216764791927E-022
 -7.699999999999999E-003    3.773262412100789E-022
 -7.599999999999999E-003    6.490362027303672E-022
 -7.499999999999999E-003    8.299954467277781E-022
 -7.399999999999999E-003    8.281533522952758E-022
 -7.299999999999999E-003    5.650399103879196E-022
 -7.199999999999999E-003   -8.809056926438172E-024
 -7.100000000000000E-003   -9.010669794397768E-022
 -6.999999999999999E-003   -2.070014734294875E-021
 -6.899999999999999E-003   -3.424155565771049E-021
 -6.800000000000000E-003   -4.830152775909757E-021
 -6.699999999999999E-003   -6.128903844532416E-021
 -6.599999999999999E-003   -7.158112906806653E-021
 -6.499999999999999E-003   -7.778271741843622E-021
 -6.399999999999999E-003   -7.897825695635483E-021
 -6.299999999999999E-003   -7.492699794153184E-021
 -6.199999999999999E-003   -6.615492730337653E-021
 -6.100000000000000E-003   -5.390671131796578E-021
 -5.999999999999999E-003   -3.993958056679201E-021
 -5.899999999999999E-003   -2.616694069022841E-021
 -5.800000000000000E-003   -1.418929071048296E-021
 -5.699999999999999E-003   -4.779466668384455E-022
 -5.599999999999999E-003    2.586389997122354E-022
 -5.499999999999999E-003    1.004750523994166E-021
 -5.399999999999999E-003    2.142345662255449E-021
 -5.299999999999999E-003    4.194213148427645E-021
 -5.199999999999999E-003    7.758552171021820E-021
 -5.099999999999999E-003    1.340632197408792E-020
 -4.999999999999999E-003    2.154890816825399E-020
 -4.899999999999999E-003    3.229055347977390E-020
 -4.799999999999999E-003    4.528609993650358E-020
 -4.699999999999999E-003    5.962884448617919E-020
 -4.599999999999999E-003    7.379473330325009E-020
 -4.499999999999999E-003    8.566672699319129E-020
 -4.399999999999999E-003    9.265672166405094E-020
 -4.299999999999999E-003    9.193204907497857E-020
 -4.199999999999999E-003    8.073990666540821E-020
 -4.099999999999999E-003    5.680757231445645E-020
 -3.999999999999999E-003    1.878075176379389E-020
 -3.899999999999999E-003   -3.335086204271154E-020
 -3.799999999999999E-003   -9.790057959128850E-020
 -3.699999999999999E-003   -1.712663926302004E-019
 -3.599999999999999E-003   -2.479038376870208E-019
 -3.499999999999999E-003   -3.205324978867994E-019
 -3.399999999999999E-003   -3.805962777648320E-019
 -3.299999999999999E-003   -4.189692225213069E-019
 -3.199999999999999E-003   -4.268662916156630E-019
 -3.099999999999999E-003   -3.968863245301489E-019
 -2.999999999999999E-003   -3.240865240440809E-019
 -2.899999999999999E-003   -2.069679425576513E-019
 -2.799999999999999E-003   -4.824408155306555E-020
 -2.699999999999999E-003    1.447285638929328E-019
 -2.599999999999999E-003    3.599564264041754E-019
 -2.499999999999999E-003    5.813124821643285E-019
 -2.399999999999999E-003    7.895494428436964E-019
 -2.299999999999999E-003    9.637782446197301E-019
 -2.199999999999999E-003    1.083309833425464E-018
 -2.099999999999999E-003    1.129706526348330E-018
 -1.999999999999999E-003    1.088849770592004E-018
 -1.899999999999999E-003    9.528102606841744E-019
 -1.799999999999999E-003    7.213074407644960E-019
 -1.699999999999999E-003    4.025712422046996E-019
 -1.599999999999999E-003    1.346630054506986E-020
 -1.499999999999999E-003   -4.211935037219324E-019
 -1.399999999999999E-003   -8.701340108277136E-019
 -1.299999999999999E-003   -1.297824576740974E-018
 -1.199999999999999E-003   -1.667230887098043E-018
 -1.099999999999999E-003   -1.942890382661765E-018
 -9.999999999999989E-004   -2.094042386503950E-018
 -8.999999999999990E-004   -2.097534932835952E-018
 -7.999999999999990E-004   -1.940244546101331E-018
 -6.999999999999989E-004   -1.620790263008656E-018
 -5.999999999999990E-004   -1.150386153719262E-018
 -4.999999999999989E-004   -5.527554516009739E-019
 -3.999999999999989E-004    1.368900887472951E-019
 -2.999999999999989E-004    8.737273781218904E-019
 -1.999999999999989E-004    1.605917181583981E-018
 -9.999999999999892E-005    2.277740213123790E-018
  1.084202172485504E-018    2.833081503271162E-018
  1.000000000000011E-004    3.219074227752768E-018
  2.000000000000011E-004    3.389735768177017E-018
  3.000000000000011E-004    3.309456546794665E-018
  4.000000000000011E-004    2.956224293663735E-018
  5.000000000000011E-004    2.324481347127445E-018
  6.000000000000011E-004    1.427502302697820E-018
  7.000000000000011E-004    2.991549727367892E-019
  8.000000000000011E-004   -1.005139583095930E-018
  9.000000000000012E-004   -2.408486405544971E-018
  1.000000000000001E-003   -3.813916905565261E-018
  1.100000000000001E-003   -5.107417863674936E-018
  1.200000000000001E-003   -6.162870241957467E-018
  1.300000000000001E-003   -6.849097908870873E-018
  1.400000000000001E-003   -7.039072418071524E-018
  1.500000000000001E-003   -6.621093578656190E-018
  1.600000000000001E-003   -5.511480021218295E-018
  1.700000000000001E-003   -3.667980938219563E-018
  1.800000000000001E-003   -1.102791111248437E-018
  1.900000000000001E-003    2.106224749713789E-018
  2.000000000000001E-003    5.807690530555254E-018
  2.100000000000001E-003    9.773896025856607E-018
  2.200000000000001E-003    1.370450181558542E-017
  2.300000000000001E-003    1.723794967721981E-017
  2.400000000000001E-003    1.997120121187392E-017
  2.500000000000001E-003    2.148771033254473E-017
  2.600000000000001E-003    2.139264514026354E-017
  2.700000000000001E-003    1.935343469595517E-017
  2.800000000000001E-003    1.514279472317425E-017
  2.900000000000001E-003    8.680579513516703E-018
  3.000000000000001E-003    7.025110490717831E-020
  3.100000000000001E-003   -1.037450439352567E-017
  3.200000000000001E-003   -2.211729462016958E-017
  3.300000000000001E-003   -3.440436291884784E-017
  3.400000000000001E-003   -4.629038276594231E-017
  3.500000000000001E-003   -5.668584958462868E-017
  3.600000000000001E-003   -6.442543726570471E-017
  3.700000000000001E-003   -6.835469386087414E-017
  3.800000000000001E-003   -6.743041068434270E-017
  3.900000000000001E-003   -6.082812463486508E-017
  4.000000000000001E-003   -4.804864792475426E-017
  4.100000000000001E-003   -2.901445728436216E-017
  4.200000000000001E-003   -4.146333633360821E-018
  4.300000000000001E-003    2.558900562854862E-017
  4.400000000000001E-003    5.866845989332919E-017
  4.500000000000001E-003    9.304551001346529E-017
  4.600000000000002E-003    1.262302162652708E-016
  4.700000000000001E-003    1.554166383034208E-016
  4.800000000000001E-003    1.776544231596196E-016
  4.900000000000002E-003    1.900574928043727E-016
  5.000000000000001E-003    1.900389822760550E-016
  5.100000000000001E-003    1.755581824680839E-016
  5.200000000000001E-003    1.453624797944676E-016
  5.300000000000002E-003    9.920518842971360E-017
  5.400000000000001E-003    3.801964286324208E-017
  5.500000000000001E-003   -3.596991714315783E-017
  5.600000000000002E-003   -1.192180206670766E-016
  5.700000000000001E-003   -2.069221882200419E-016
  5.800000000000001E-003   -2.931910264149310E-016
  5.900000000000002E-003   -3.713190106545131E-016
  6.000000000000001E-003   -4.341638793123588E-016
  6.100000000000001E-003   -4.746140335428201E-016
  6.200000000000002E-003   -4.861252779175437E-016
  6.300000000000002E-003   -4.632979010142879E-016
  6.400000000000001E-003   -4.024574522395883E-016
  6.500000000000001E-003   -3.021971447636228E-016
  6.600000000000002E-003   -1.638352929082523E-016
  6.700000000000001E-003    8.258983895014388E-018
  6.800000000000001E-003    2.065168603028414E-016
  6.900000000000002E-003    4.202363077763875E-016
  7.000000000000001E-003    6.358927926317227E-016
  7.100000000000001E-003    8.377090595601113E-016
  7.200000000000002E-003    1.008482158767907E-015
  7.300000000000002E-003    1.130645571389165E-015
  7.400000000000001E-003    1.187523663407588E-015
  7.500000000000001E-003    1.164714263975153E-015
  7.600000000000002E-003    1.051515257558676E-015
  7.700000000000001E-003    8.422952331509902E-016
  7.800000000000001E-003    5.376967026891169E-016
  7.900000000000001E-003    1.455557802028455E-016
  8.000000000000002E-003   -3.185732985462545E-016
  8.100000000000001E-003   -8.313883457004528E-016
  8.200000000000001E-003   -1.362380940956010E-015
  8.300000000000002E-003   -1.874995262062478E-015
  8.400000000000001E-003   -2.328410128489931E-015
  8.500000000000002E-003   -2.679904408569128E-015
  8.600000000000002E-003   -2.887718061702871E-015
  8.700000000000001E-003   -2.914269735919201E-015
  8.800000000000002E-003   -2.729546936929589E-015
  8.900000000000002E-003   -2.314445236998557E-015
  9.000000000000001E-003   -1.663804188930015E-015
  9.100000000000002E-003   -7.888749791074953E-016
  9.200000000000002E-003    2.810418825049789E-016
  9.300000000000001E-003    1.498027114757451E-015
  9.400000000000002E-003    2.796237104919575E-015
  9.500000000000001E-003    4.093991841489838E-015
  9.600000000000001E-003    5.297307790024058E-015
  9.700000000000002E-003    6.304826689938762E-015
  9.800000000000001E-003    7.013990886250251E-015
  9.900000000000001E-003    7.328199025665348E-015
  1.000000000000000E-002    7.164577335254766E-015
  1.010000000000000E-002    6.461900376437422E-015
  1.020000000000000E-002    5.188124550334107E-015
  1.030000000000000E-002    3.346947691255077E-015
  1.040000000000000E-002    9.827939684783719E-016
  1.050000000000000E-002   -1.816348152607778E-015
  1.060000000000000E-002   -4.918742071939745E-015
  1.070000000000000E-002   -8.151759154699745E-015
  1.080000000000000E-002   -1.130801092642338E-014
  1.090000000000000E-002   -1.415479628294721E-014
  1.100000000000000E-002   -1.644666833408538E-014
  1.110000000000000E-002   -1.794070190413146E-014
  1.120000000000000E-002   -1.841376984053523E-014
  1.130000000000000E-002   -1.768092861810808E-014
  1.140000000000000E-002   -1.561378044663033E-014
  1.150000000000000E-002   -1.215754377388083E-014
  1.160000000000000E-002   -7.345462651133230E-015
  1.170000000000000E-002   -1.309182683942516E-015
  1.180000000000000E-002    5.716197596921594E-015
  1.190000000000000E-002    1.339350147894384E-014
  1.200000000000000E-002    2.129208190582314E-014
  1.210000000000000E-002    2.890409311508874E-014
  1.220000000000000E-002    3.566837872585757E-014
  1.230000000000000E-002    4.100139105961448E-014
  1.240000000000000E-002    4.433400877432747E-014
  1.250000000000000E-002    4.515252857937308E-014
  1.260000000000000E-002    4.304159233492604E-014
  1.270000000000000E-002    3.772637261060332E-014
  1.280000000000000E-002    2.911101013795382E-014
  1.290000000000000E-002    1.731013762035055E-014
  1.300000000000000E-002    2.670373793373882E-015
  1.310000000000000E-002   -1.422105668444884E-014
  1.320000000000000E-002   -3.254295603768798E-014
  1.330000000000000E-002   -5.126365355222774E-014
  1.340000000000000E-002   -6.918207940132004E-014
  1.350000000000000E-002   -8.498597742670527E-014
  1.360000000000000E-002   -9.732561579148596E-014
  1.370000000000000E-002   -1.049000347301779E-013
  1.380000000000000E-002   -1.065516306116402E-013
  1.390000000000000E-002   -1.013637330286970E-013
  1.400000000000000E-002   -8.875492015771062E-014
  1.410000000000000E-002   -6.856320312094873E-014
  1.420000000000000E-002   -4.111296313519960E-014
  1.430000000000000E-002   -7.257814138314794E-015
  1.440000000000000E-002    3.160671925147514E-014
  1.450000000000000E-002    7.356553107446526E-014
  1.460000000000000E-002    1.162443649343284E-013
  1.470000000000000E-002    1.569091983437732E-013
  1.480000000000000E-002    1.926028643943029E-013
  1.490000000000000E-002    2.203144673372674E-013
  1.500000000000000E-002    2.371742950656699E-013
  1.510000000000000E-002    2.406642608323780E-013
  1.520000000000000E-002    2.288315663395346E-013
  1.530000000000000E-002    2.004914752035974E-013
  1.540000000000000E-002    1.554041098958104E-013
  1.550000000000000E-002    9.440995539612042E-014
  1.560000000000000E-002    1.950974877893009E-014
  1.570000000000000E-002   -6.612359178844224E-014
  1.580000000000000E-002   -1.582102603027051E-013
  1.590000000000000E-002   -2.515112105046937E-013
  1.600000000000000E-002   -3.400582388954922E-013
  1.610000000000000E-002   -4.174611026922427E-013
  1.620000000000000E-002   -4.772803188777342E-013
  1.630000000000000E-002   -5.134484380612918E-013
  1.640000000000000E-002   -5.207172568911925E-013
  1.650000000000000E-002   -4.951040816055624E-013
  1.660000000000000E-002   -4.343069245844420E-013
  1.670000000000000E-002   -3.380570046069133E-013
  1.680000000000000E-002   -2.083778135441125E-013
  1.690000000000000E-002   -4.972225959022822E-014
  1.700000000000000E-002    1.310353516872004E-013
  1.710000000000000E-002    3.247687018407656E-013
  1.720000000000000E-002    5.204375546179734E-013
  1.730000000000000E-002    7.055912295222488E-013
  1.740000000000000E-002    8.670229662574313E-013
  1.750000000000000E-002    9.915485978836262E-013
  1.760000000000000E-002    1.066871922243172E-012
  1.770000000000000E-002    1.082489487477609E-012
  1.780000000000000E-002    1.030578622398142E-012
  1.790000000000000E-002    9.068090179907417E-013
  1.800000000000000E-002    7.110150827457601E-013
  1.810000000000000E-002    4.476701907106686E-013
  1.820000000000000E-002    1.261093747765304E-013
  1.830000000000000E-002   -2.395412474424657E-013
  1.840000000000000E-002   -6.307555518683908E-013
  1.850000000000000E-002   -1.025327693550956E-012
  1.860000000000000E-002   -1.398410030625344E-012
  1.870000000000000E-002   -1.723834461751073E-012