 -4.000000000000000E-002    0.000000000000000E+000
 -3.990000000000000E-002    0.000000000000000E+000
 -3.980000000000000E-002    0.000000000000000E+000
 -3.970000000000000E-002    0.000000000000000E+000
 -3.960000000000000E-002    0.000000000000000E+000
 -3.950000000000000E-002    0.000000000000000E+000
 -3.940000000000000E-002    0.000000000000000E+000
 -3.930000000000000E-002    0.000000000000000E+000
 -3.920000000000000E-002    0.000000000000000E+000
 -3.910000000000000E-002    0.000000000000000E+000
 -3.900000000000000E-002    0.000000000000000E+000
 -3.890000000000000E-002    0.000000000000000E+000
 -3.880000000000000E-002    0.000000000000000E+000
 -3.870000000000000E-002    0.000000000000000E+000
 -3.860000000000000E-002    0.000000000000000E+000
 -3.850000000000000E-002    0.000000000000000E+000
 -3.840000000000000E-002    0.000000000000000E+000
 -3.830000000000000E-002    0.000000000000000E+000
 -3.820000000000000E-002    0.000000000000000E+000
 -3.810000000000000E-002    0.000000000000000E+000
 -3.800000000000000E-002    0.000000000000000E+000
 -3.790000000000000E-002    0.000000000000000E+000
 -3.780000000000000E-002    0.000000000000000E+000
 -3.770000000000000E-002    0.000000000000000E+000
 -3.760000000000000E-002    0.000000000000000E+000
 -3.750000000000000E-002    0.000000000000000E+000
 -3.740000000000000E-002    0.000000000000000E+000
 -3.730000000000000E-002    0.000000000000000E+000
 -3.720000000000000E-002    0.000000000000000E+000
 -3.710000000000000E-002    0.000000000000000E+000
 -3.700000000000000E-002    0.000000000000000E+000
 -3.690000000000000E-002    0.000000000000000E+000
 -3.680000000000000E-002    0.000000000000000E+000
 -3.670000000000000E-002    0.000000000000000E+000
 -3.660000000000000E-002    0.000000000000000E+000
 -3.650000000000000E-002    0.000000000000000E+000
 -3.640000000000000E-002    0.000000000000000E+000
 -3.630000000000000E-002    0.000000000000000E+000
 -3.620000000000000E-002    0.000000000000000E+000
 -3.610000000000000E-002    0.000000000000000E+000
 -3.600000000000000E-002    0.000000000000000E+000
 -3.590000000000000E-002    0.000000000000000E+000
 -3.580000000000000E-002    0.000000000000000E+000
 -3.570000000000000E-002    0.000000000000000E+000
 -3.560000000000000E-002    0.000000000000000E+000
 -3.550000000000000E-002    0.000000000000000E+000
 -3.540000000000000E-002    0.000000000000000E+000
 -3.530000000000000E-002    0.000000000000000E+000
 -3.520000000000000E-002    0.000000000000000E+000
 -3.510000000000000E-002    0.000000000000000E+000
 -3.500000000000000E-002    0.000000000000000E+000
 -3.490000000000000E-002    0.000000000000000E+000
 -3.480000000000000E-002    0.000000000000000E+000
 -3.470000000000000E-002    0.000000000000000E+000
 -3.460000000000000E-002    0.000000000000000E+000
 -3.450000000000000E-002    0.000000000000000E+000
 -3.440000000000000E-002    0.000000000000000E+000
 -3.430000000000000E-002    0.000000000000000E+000
 -3.420000000000000E-002    0.000000000000000E+000
 -3.410000000000000E-002    0.000000000000000E+000
 -3.400000000000000E-002    0.000000000000000E+000
 -3.390000000000000E-002    0.000000000000000E+000
 -3.380000000000000E-002    0.000000000000000E+000
 -3.370000000000000E-002    0.000000000000000E+000
 -3.360000000000000E-002    0.000000000000000E+000
 -3.350000000000000E-002    0.000000000000000E+000
 -3.340000000000000E-002    0.000000000000000E+000
 -3.330000000000000E-002    0.000000000000000E+000
 -3.320000000000000E-002    0.000000000000000E+000
 -3.310000000000000E-002    0.000000000000000E+000
 -3.300000000000000E-002    0.000000000000000E+000
 -3.290000000000000E-002    0.000000000000000E+000
 -3.280000000000000E-002    0.000000000000000E+000
 -3.270000000000000E-002    1.624932229848407E-047
 -3.260000000000000E-002    3.249864459696815E-047
 -3.250000000000000E-002    1.724697201782456E-046
 -3.240000000000000E-002    2.781233776890142E-046
 -3.230000000000000E-002    5.292876523819626E-046
 -3.220000000000000E-002    7.409642699077227E-046
 -3.210000000000000E-002    9.108287238547451E-046
 -3.200000000000000E-002    9.389822385503272E-046
 -3.190000000000000E-002    1.368976906802656E-046
 -3.180000000000000E-002   -1.247215979966831E-045
 -3.170000000000000E-002   -3.871738344026775E-045
 -3.160000000000000E-002   -8.993460003279679E-045
 -3.150000000000000E-002   -1.700614235235280E-044
 -3.140000000000000E-002   -3.053086306982351E-044
 -3.130000000000000E-002   -5.141080776512754E-044
 -3.120000000000000E-002   -8.188262904845552E-044
 -3.110000000000000E-002   -1.190503510302379E-043
 -3.100000000000000E-002   -1.584337535278754E-043
 -3.090000000000000E-002   -1.877340357871336E-043
 -3.080000000000000E-002   -1.818753453875100E-043
 -3.070000000000000E-002   -9.788540423196506E-044
 -3.060000000000000E-002    1.303636953481714E-043
 -3.050000000000000E-002    5.989203218179625E-043
 -3.040000000000000E-002    1.433285073492356E-042
 -3.030000000000000E-002    2.772428401599524E-042
 -3.020000000000000E-002    4.743703925772820E-042
 -3.010000000000000E-002    7.402032647848048E-042
 -3.000000000000000E-002    1.063092758213653E-041
 -2.990000000000000E-002    1.399081298668726E-041
 -2.980000000000000E-002    1.652163163646461E-041
 -2.970000000000000E-002    1.649611872401904E-041
 -2.960000000000000E-002    1.117422056765550E-041
 -2.950000000000000E-002   -3.379310378614552E-042
 -2.940000000000000E-002   -3.227984422304698E-041
 -2.930000000000000E-002   -8.143858844740416E-041
 -2.920000000000000E-002   -1.565690290135371E-040
 -2.910000000000000E-002   -2.613001585593929E-040
 -2.900000000000000E-002   -3.941352309544802E-040
 -2.890000000000000E-002   -5.440850717868129E-040
 -2.880000000000000E-002   -6.850314136809313E-040
 -2.870000000000000E-002   -7.692901327793306E-040
 -2.860000000000000E-002   -7.214620823378435E-040
 -2.850000000000000E-002   -4.344991892911524E-040
 -2.840000000000000E-002    2.290804462197847E-040
 -2.830000000000000E-002    1.426888425536195E-039
 -2.820000000000000E-002    3.312561838591152E-039
 -2.810000000000000E-002    5.992982930591834E-039
 -2.800000000000000E-002    9.462980828422808E-039
 -2.790000000000000E-002    1.351639875372207E-038
 -2.780000000000000E-002    1.763751547394590E-038
 -2.770000000000000E-002    2.088459620929721E-038
 -2.760000000000000E-002    2.178797243774182E-038
 -2.750000000000000E-002    1.829768410223338E-038
 -2.740000000000000E-002    7.828909846039298E-039
 -2.730000000000000E-002   -1.253578416899468E-038
 -2.720000000000000E-002   -4.562394568285118E-038
 -2.710000000000000E-002   -9.347439316843616E-038
 -2.700000000000000E-002   -1.563309138253223E-037
 -2.690000000000000E-002   -2.313454484357197E-037
 -2.680000000000000E-002   -3.110827050692985E-037
 -2.670000000000000E-002   -3.820198815935712E-037
 -2.660000000000000E-002   -4.233574452243520E-037
 -2.650000000000000E-002   -4.065855626045241E-037
 -2.640000000000000E-002   -2.963622198129748E-037
 -2.630000000000000E-002   -5.331861184497393E-038
 -2.620000000000000E-002    3.606247033260466E-037
 -2.610000000000000E-002    9.740176523407892E-037
 -2.600000000000000E-002    1.794648640089131E-036
 -2.590000000000000E-002    2.795802903819103E-036
 -2.580000000000000E-002    3.901235218200065E-036
 -2.570000000000000E-002    4.970981094954108E-036
 -2.560000000000000E-002    5.791074459204224E-036
 -2.550000000000000E-002    6.071087433962404E-036
 -2.540000000000000E-002    5.453934175718103E-036
 -2.530000000000000E-002    3.542354148959376E-036
 -2.520000000000000E-002   -5.435105896275531E-038
 -2.510000000000000E-002   -5.651599346044681E-036
 -2.500000000000000E-002   -1.340006573605079E-035
 -2.490000000000000E-002   -2.318071375836404E-035
 -2.480000000000000E-002   -3.449432321584595E-035
 -2.470000000000000E-002   -4.636049574325183E-035
 -2.460000000000000E-002   -5.724559733534598E-035
 -2.450000000000000E-002   -6.504203323084754E-035
 -2.440000000000000E-002   -6.712170723425339E-035
 -2.430000000000000E-002   -6.048374942626179E-035
 -2.420000000000000E-002   -4.200979212273541E-035
 -2.410000000000000E-002   -8.829677208250076E-036
 -2.400000000000000E-002    4.121314022821112E-035
 -2.390000000000000E-002    1.090220738895990E-034
 -2.380000000000000E-002    1.936738001276736E-034
 -2.370000000000000E-002    2.918614168683260E-034
 -2.360000000000000E-002    3.974108612865503E-034
 -2.350000000000000E-002    5.009255878917470E-034
 -2.340000000000000E-002    5.896070736825579E-034
 -2.330000000000000E-002    6.472866170136951E-034
 -2.320000000000000E-002    6.546947282506021E-034
 -2.310000000000000E-002    5.899926501953608E-034
 -2.300000000000000E-002    4.296077228267606E-034
 -2.290000000000000E-002    1.494530446232452E-034
 -2.280000000000000E-002   -2.733207831162845E-034
 -2.270000000000000E-002   -8.578088821529919E-034
 -2.260000000000000E-002   -1.615751217566707E-033
 -2.250000000000000E-002   -2.546472976890000E-033
 -2.240000000000000E-002   -3.630012730292949E-033
 -2.230000000000000E-002   -4.818246819784094E-033
 -2.220000000000000E-002   -6.024166404263962E-033
 -2.210000000000000E-002   -7.110059718966056E-033
 -2.200000000000000E-002   -7.876197978088738E-033
 -2.190000000000000E-002   -8.052687120578163E-033
 -2.180000000000000E-002   -7.298318213268353E-033
 -2.170000000000000E-002   -5.211317567963410E-033
 -2.160000000000000E-002   -1.357570840877563E-033
 -2.150000000000000E-002    4.678199117183761E-033
 -2.140000000000000E-002    1.321411043510221E-032
 -2.130000000000000E-002    2.436431898874931E-032
 -2.120000000000000E-002    3.790709812956059E-032
 -2.110000000000000E-002    5.313774215764956E-032
 -2.100000000000000E-002    6.872431641327930E-032
 -2.090000000000000E-002    8.259315196513130E-032
 -2.080000000000000E-002    9.187925555411069E-032
 -2.070000000000000E-002    9.298261174711477E-032
 -2.060000000000000E-002    8.177266536805179E-032
 -2.050000000000000E-002    5.397739190293631E-032
 -2.040000000000000E-002    5.778571623677187E-033
 -2.030000000000000E-002   -6.539074187121890E-032
 -2.020000000000000E-002   -1.598863733411793E-031
 -2.010000000000000E-002   -2.748154376735794E-031
 -2.000000000000000E-002   -4.030550523556545E-031
 -1.990000000000000E-002   -5.325083218696445E-031
 -1.980000000000000E-002   -6.458146144227154E-031
 -1.970000000000000E-002   -7.207449917768205E-031
 -1.960000000000000E-002   -7.314945439482239E-031
 -1.950000000000000E-002   -6.510214782441336E-031
 -1.940000000000000E-002   -4.544721703901108E-031
 -1.930000000000000E-002   -1.235735205476790E-031
 -1.920000000000000E-002    3.483255491951752E-031
 -1.910000000000000E-002    9.510975488168465E-031
 -1.900000000000000E-002    1.653310508654985E-030
 -1.890000000000000E-002    2.399239349155745E-030
 -1.880000000000000E-002    3.108390647479115E-030
 -1.870000000000000E-002    3.678454411549276E-030
 -1.860000000000000E-002    3.992362255612221E-030
 -1.850000000000000E-002    3.929707220869418E-030
 -1.840000000000000E-002    3.382181364016670E-030
 -1.830000000000000E-002    2.271944632361342E-030
 -1.820000000000000E-002    5.710410013879950E-031
 -1.810000000000000E-002   -1.680757792331481E-030
 -1.800000000000000E-002   -4.362849565092218E-030
 -1.790000000000000E-002   -7.268774745197791E-030
 -1.780000000000000E-002   -1.011229951166836E-029
 -1.770000000000000E-002   -1.254671031821065E-029
 -1.760000000000000E-002   -1.419789311408804E-029
 -1.750000000000000E-002   -1.470966232333076E-029
 -1.740000000000000E-002   -1.379736025066227E-029
 -1.730000000000000E-002   -1.130326291875319E-029
 -1.720000000000000E-002   -7.245223131558608E-030
 -1.710000000000000E-002   -1.848763129735922E-030
 -1.700000000000000E-002    4.447056641710923E-030
 -1.690000000000000E-002    1.101778384851779E-029
 -1.680000000000000E-002    1.711973466671369E-029
 -1.670000000000000E-002    2.199255522721283E-029
 -1.660000000000000E-002    2.498953964584294E-029
 -1.650000000000000E-002    2.571958378522732E-029
 -1.640000000000000E-002    2.417773495371799E-029
 -1.630000000000000E-002    2.083650519236261E-029
 -1.620000000000000E-002    1.666902558160784E-029
 -1.610000000000000E-002    1.307863670612608E-029
 -1.600000000000000E-002    1.171904016785578E-029
 -1.590000000000000E-002    1.420413117409720E-029
 -1.580000000000000E-002    2.172643001621262E-029
 -1.570000000000000E-002    3.462560733452984E-029
 -1.560000000000000E-002    5.197052406057341E-029
 -1.550000000000000E-002    7.123569952082792E-029
 -1.540000000000000E-002    8.816177557102452E-029
 -1.530000000000000E-002    9.688537023518480E-029
 -1.520000000000000E-002    9.040373771904666E-029
 -1.510000000000000E-002    6.140292638004693E-029
 -1.500000000000000E-002    3.425961722867869E-030
 -1.490000000000000E-002   -8.770503840683976E-029
 -1.480000000000000E-002   -2.123646857205185E-028
 -1.470000000000000E-002   -3.657096950687374E-028
 -1.460000000000000E-002   -5.366258269069805E-028
 -1.450000000000000E-002   -7.073008439477378E-028
 -1.440000000000000E-002   -8.536614608484428E-028
 -1.430000000000000E-002   -9.468423520842168E-028
 -1.420000000000000E-002   -9.557445689591755E-028
 -1.410000000000000E-002   -8.505949429691629E-028
 -1.400000000000000E-002   -6.072530783268112E-028
 -1.390000000000000E-002   -2.118507096965604E-028
 -1.380000000000000E-002    3.347855408717962E-028
 -1.370000000000000E-002    1.013559001303859E-027
 -1.360000000000000E-002    1.785012333627427E-027
 -1.350000000000000E-002    2.589274217108187E-027
 -1.340000000000000E-002    3.348423046591378E-027
 -1.330000000000000E-002    3.971393038483824E-027
 -1.320000000000000E-002    4.361242058001365E-027
 -1.310000000000000E-002    4.424279763833403E-027
 -1.300000000000000E-002    4.080270309525893E-027
 -1.290000000000000E-002    3.272706891832453E-027
 -1.280000000000000E-002    1.978071356680410E-027
 -1.270000000000000E-002    2.130366228645039E-028
 -1.260000000000000E-002   -1.961237056023088E-027
 -1.250000000000000E-002   -4.438261408204124E-027
 -1.240000000000000E-002   -7.069000618885590E-027
 -1.230000000000000E-002   -9.668072005235501E-027
 -1.220000000000000E-002   -1.202283876788885E-026
 -1.210000000000000E-002   -1.390472608392831E-026
 -1.200000000000000E-002   -1.508203800376190E-026
 -1.190000000000000E-002   -1.533376247290278E-026
 -1.180000000000000E-002   -1.446411428610446E-026
 -1.170000000000000E-002   -1.231789228157692E-026
 -1.160000000000000E-002   -8.796965177944445E-027
 -1.150000000000000E-002   -3.878196143651509E-027
 -1.140000000000000E-002    2.367226516438105E-027
 -1.130000000000000E-002    9.753842820282564E-027
 -1.120000000000000E-002    1.796327459757073E-026
 -1.110000000000000E-002    2.653017670755626E-026
 -1.100000000000000E-002    3.483748171240351E-026
 -1.090000000000000E-002    4.212658677155571E-026
 -1.080000000000000E-002    4.752845123125942E-026
 -1.070000000000000E-002    5.012052230601545E-026
 -1.060000000000000E-002    4.901214316721505E-026
 -1.050000000000000E-002    4.345708359680488E-026
 -1.040000000000000E-002    3.298649119769245E-026
 -1.030000000000000E-002    1.754951905976220E-026
 -1.020000000000000E-002   -2.357363573412097E-027
 -1.010000000000000E-002   -2.559623807805673E-026
 -1.000000000000000E-002   -5.035531857096290E-026
 -9.899999999999999E-003   -7.420340050784531E-026
 -9.800000000000000E-003   -9.425071139128514E-026
 -9.699999999999999E-003   -1.074245789096073E-025
 -9.599999999999999E-003   -1.108524926373807E-025
 -9.500000000000000E-003   -1.023258519612691E-025
 -9.399999999999999E-003   -8.079674962022885E-026
 -9.299999999999999E-003   -4.684078874585655E-026
 -9.200000000000000E-003   -3.004959778861371E-027
 -9.099999999999999E-003    4.604599493403604E-026
 -8.999999999999999E-003    9.366442925040770E-026
 -8.900000000000000E-003    1.316945627415938E-025
 -8.799999999999999E-003    1.513100504306952E-025
 -8.699999999999999E-003    1.441891813668835E-025
 -8.600000000000000E-003    1.039437416042229E-025
 -8.499999999999999E-003    2.765867952509135E-026
 -8.399999999999999E-003   -8.265522895867394E-026
 -8.300000000000000E-003   -2.189328238579050E-025
 -8.199999999999999E-003   -3.664998922771746E-025
 -8.100000000000000E-003   -5.043242541356012E-025
 -8.000000000000000E-003   -6.062500216123032E-025
 -7.899999999999999E-003   -6.432942875255772E-025
 -7.800000000000000E-003   -5.869608176024430E-025
 -7.699999999999999E-003   -4.133713261748025E-025
 -7.599999999999999E-003   -1.078581704712647E-025
 -7.499999999999999E-003    3.304874185168414E-025
 -7.399999999999999E-003    8.849239457365258E-025
 -7.299999999999999E-003    1.518496564352805E-024
 -7.199999999999999E-003    2.173446368447786E-024
 -7.100000000000000E-003    2.773126834827889E-024
 -6.999999999999999E-003    3.226753534068558E-024
 -6.899999999999999E-003    3.437032380553029E-024
 -6.800000000000000E-003    3.310347845590678E-024
 -6.699999999999999E-003    2.768819719127662E-024
 -6.599999999999999E-003    1.763160437389906E-024
 -6.499999999999999E-003    2.849600622757902E-025
 -6.399999999999999E-003   -1.623177457801404E-024
 -6.299999999999999E-003   -3.861260454876079E-024
 -6.199999999999999E-003   -6.270762345102211E-024
 -6.100000000000000E-003   -8.639827322243268E-024
 -5.999999999999999E-003   -1.071540058006258E-023
 -5.899999999999999E-003   -1.222215084330912E-023
 -5.800000000000000E-003   -1.288727150179074E-023
 -5.699999999999999E-003   -1.246939728495354E-023
 -5.599999999999999E-003   -1.078913954864106E-023
 -5.499999999999999E-003   -7.758198604111628E-024
 -5.399999999999999E-003   -3.403693846925526E-024
 -5.299999999999999E-003    2.115578708737656E-024
 -5.199999999999999E-003    8.503796802212062E-024
 -5.099999999999999E-003    1.533572407461900E-023
 -4.999999999999999E-003    2.207812193279042E-023
 -4.899999999999999E-003    2.812447131054973E-023
 -4.799999999999999E-003    3.284099934528237E-023
 -4.699999999999999E-003    3.562061950982891E-023
 -4.599999999999999E-003    3.594026863779257E-023
 -4.499999999999999E-003    3.341637459717264E-023
 -4.399999999999999E-003    2.785303213893886E-023
 -4.299999999999999E-003    1.927789885347387E-023
 -4.199999999999999E-003    7.961803780632571E-024
 -4.099999999999999E-003   -5.580422316776187E-024
 -3.999999999999999E-003   -2.060851705272060E-023
 -3.899999999999999E-003   -3.619358507376376E-023
 -3.799999999999999E-003   -5.127018189135555E-023
 -3.699999999999999E-003   -6.469942227747749E-023
 -3.599999999999999E-003   -7.533831789529657E-023
 -3.499999999999999E-003   -8.211057774216161E-023
 -3.399999999999999E-003   -8.407484220949191E-023
 -3.299999999999999E-003   -8.048772139528111E-023
 -3.199999999999999E-003   -7.086055066795376E-023
 -3.099999999999999E-003   -5.500998981809010E-023
 -2.999999999999999E-003   -3.310362585816858E-023
 -2.899999999999999E-003   -5.701466339407759E-024
 -2.799999999999999E-003    2.620710143303510E-023
 -2.699999999999999E-003    6.117388700202846E-023
 -2.599999999999999E-003    9.727621841694116E-023
 -2.499999999999999E-003    1.321253946382914E-022
 -2.399999999999999E-003    1.629125037765372E-022
 -2.299999999999999E-003    1.865070077115215E-022
 -2.199999999999999E-003    1.996225800120092E-022
 -2.099999999999999E-003    1.990603858235069E-022
 -1.999999999999999E-003    1.820320403677046E-022
 -1.899999999999999E-003    1.465522512033642E-022
 -1.799999999999999E-003    9.187566439417979E-023
 -1.699999999999999E-003    1.893639284396985E-023
 -1.599999999999999E-003   -6.926841349042655E-023
 -1.499999999999999E-003   -1.674211274972494E-022
 -1.399999999999999E-003   -2.678285257469073E-022
 -1.299999999999999E-003   -3.606407721888257E-022
 -1.199999999999999E-003   -4.343999168175450E-022
 -1.099999999999999E-003   -4.769445525211211E-022
 -9.999999999999989E-004   -4.766554761313285E-022
 -8.999999999999990E-004   -4.239755202328900E-022
 -7.999999999999990E-004   -3.130823427463181E-022
 -6.999999999999989E-004   -1.435379756715326E-022
 -5.999999999999990E-004    7.830315919753694E-023
 -4.999999999999989E-004    3.383703851297390E-022
 -3.999999999999989E-004    6.146790747238790E-022
 -2.999999999999989E-004    8.780619995231993E-022
 -1.999999999999989E-004    1.093966349420306E-021
 -9.999999999999892E-005    1.225343200400863E-021
  1.084202172485504E-018    1.236526550110463E-021
  1.000000000000011E-004    1.097848223508532E-021
  2.000000000000011E-004    7.905856964465609E-022
  3.000000000000011E-004    3.117107848005235E-022
  4.000000000000011E-004   -3.221835255837433E-022
  5.000000000000011E-004   -1.072431413782933E-021
  6.000000000000011E-004   -1.877925960109909E-021
  7.000000000000011E-004   -2.657313024506094E-021
  8.000000000000011E-004   -3.314018038861220E-021
  9.000000000000012E-004   -3.744082942389504E-021
  1.000000000000001E-003   -3.846461998199283E-021
  1.100000000000001E-003   -3.535067624743708E-021
  1.200000000000001E-003   -2.751523512068853E-021
  1.300000000000001E-003   -1.477304024043181E-021
  1.400000000000001E-003    2.562087839016165E-022
  1.500000000000001E-003    2.361259751116687E-021
  1.600000000000001E-003    4.692193700530719E-021
  1.700000000000001E-003    7.049893221053876E-021
  1.800000000000001E-003    9.192734300219252E-021
  1.900000000000001E-003    1.085396495682487E-020
  2.000000000000001E-003    1.176474325168520E-020
  2.100000000000001E-003    1.168130846726260E-020
  2.200000000000001E-003    1.041415866034673E-020
  2.300000000000001E-003    7.856549855099619E-021
  2.400000000000001E-003    4.009343960258470E-021
  2.500000000000001E-003   -1.000786006084440E-021
  2.600000000000001E-003   -6.912539523714244E-021
  2.700000000000001E-003   -1.333271593939893E-020
  2.800000000000001E-003   -1.975180642575860E-020
  2.900000000000001E-003   -2.557271651956532E-020
  3.000000000000001E-003   -3.015169286854946E-020
  3.100000000000001E-003   -3.284928110519953E-020
  3.200000000000001E-003   -3.308810766490858E-020
  3.300000000000001E-003   -3.041325559446234E-020
  3.400000000000001E-003   -2.455040965795618E-020
  3.500000000000001E-003   -1.545666558180448E-020
  3.600000000000001E-003   -3.359014581942655E-021
  3.700000000000001E-003    1.122404478501156E-020
  3.800000000000001E-003    2.748135594238752E-020
  3.900000000000001E-003    4.433095485768212E-020
  4.000000000000001E-003    6.046585860854549E-020
  4.100000000000001E-003    7.442350402732735E-020
  4.200000000000001E-003    8.467655171296757E-020
  4.300000000000001E-003    8.974157460168965E-020
  4.400000000000001E-003    8.830033206342534E-020
  4.500000000000001E-003    7.932715305445349E-020
  4.600000000000002E-003    6.221463614788485E-020
  4.700000000000001E-003    3.688898709968468E-020
  4.800000000000001E-003    3.905622516064405E-021
  4.900000000000002E-003   -3.548477388736292E-020
  5.000000000000001E-003   -7.930920975074314E-020
  5.100000000000001E-003   -1.248933686245765E-019
  5.200000000000001E-003   -1.689381546805692E-019
  5.300000000000002E-003   -2.076566714815921E-019
  5.400000000000001E-003   -2.369738319947071E-019
  5.500000000000001E-003   -2.527866211466255E-019
  5.600000000000002E-003   -2.512771355375341E-019
  5.700000000000001E-003   -2.292658602089650E-019
  5.800000000000001E-003   -1.845852693774321E-019
  5.900000000000002E-003   -1.164487960641809E-019
  6.000000000000001E-003   -2.578414816757985E-020
  6.100000000000001E-003    8.450356234090772E-020
  6.200000000000002E-003    2.093755583301263E-019
  6.300000000000002E-003    3.416450162785154E-019
  6.400000000000001E-003    4.721352728592703E-019
  6.500000000000001E-003    5.900328824150251E-019
  6.600000000000002E-003    6.834448357610310E-019
  6.700000000000001E-003    7.401544443189739E-019
  6.800000000000001E-003    7.485523323362835E-019
  6.900000000000002E-003    6.986963468386404E-019
  7.000000000000001E-003    5.834385773700900E-019
  7.100000000000001E-003    3.995362110921747E-019
  7.200000000000002E-003    1.486506153379671E-019
  7.300000000000002E-003   -1.618691847447040E-019
  7.400000000000001E-003   -5.185237025048163E-019
  7.500000000000001E-003   -9.016166261777544E-019
  7.600000000000002E-003   -1.285703772928498E-018
  7.700000000000001E-003   -1.640587860526092E-018
  7.800000000000001E-003   -1.932875433009764E-018
  7.900000000000001E-003   -2.128063420788041E-018
  8.000000000000002E-003   -2.193082114542034E-018
  8.100000000000001E-003   -2.099165518370654E-018
  8.200000000000001E-003   -1.824876456112702E-018
  8.300000000000002E-003   -1.359071937341623E-018
  8.400000000000001E-003   -7.035640322205365E-019
  8.500000000000002E-003    1.247815926302824E-019
  8.600000000000002E-003    1.092770394918911E-018
  8.700000000000001E-003    2.150654200192485E-018
  8.800000000000002E-003    3.233154567552959E-018
  8.900000000000002E-003    4.261851070106235E-018
  9.000000000000001E-003    5.148974317648986E-018
  9.100000000000002E-003    5.802543823839303E-018
  9.200000000000002E-003    6.132668979457971E-018
  9.300000000000001E-003    6.058727329965423E-018
  9.400000000000002E-003    5.517012062133416E-018
  9.500000000000001E-003    4.468346456481428E-018
  9.600000000000001E-003    2.905089162466492E-018
  9.700000000000002E-003    8.569021994877227E-019
  9.800000000000001E-003   -1.605345290858610E-018
  9.900000000000001E-003   -4.368130988786670E-018
  1.000000000000000E-002   -7.276781724649983E-018
  1.010000000000000E-002   -1.014028927578410E-017
  1.020000000000000E-002   -1.273959662342420E-017
  1.030000000000000E-002   -1.483929426794509E-017
  1.040000000000000E-002   -1.620238591762473E-017
  1.050000000000000E-002   -1.660754078195369E-017
  1.060000000000000E-002   -1.586790682301112E-017
  1.070000000000000E-002   -1.385037339782408E-017
  1.080000000000000E-002   -1.049392152850136E-017
  1.090000000000000E-002   -5.825569187335336E-018
  1.100000000000000E-002    2.764160715272304E-020
  1.110000000000000E-002    6.832088317750511E-018
  1.120000000000000E-002    1.424779032558301E-017
  1.130000000000000E-002    2.183643624356748E-017
  1.140000000000000E-002    2.907781922698220E-017
  1.150000000000000E-002    3.539478274374188E-017
  1.160000000000000E-002    4.018617276242247E-017
  1.170000000000000E-002    4.286662125236601E-017
  1.180000000000000E-002    4.291127817218160E-017
  1.190000000000000E-002    3.990305113287852E-017
  1.200000000000000E-002    3.357924787513494E-017
  1.210000000000000E-002    2.387419474377009E-017
  1.220000000000000E-002    1.095410094534696E-017
  1.230000000000000E-002   -4.759468523971761E-018
  1.240000000000000E-002   -2.258096981179491E-017
  1.250000000000000E-002   -4.156993971635262E-017
  1.260000000000000E-002   -6.055967780081638E-017
  1.270000000000000E-002   -7.820642709120456E-017
  1.280000000000000E-002   -9.305858304340025E-017
  1.290000000000000E-002   -1.036438532653138E-016
  1.300000000000000E-002   -1.085707867569080E-016
  1.310000000000000E-002   -1.066395171330192E-016
  1.320000000000000E-002   -9.695516092878008E-017
  1.330000000000000E-002   -7.903605589253014E-017
  1.340000000000000E-002   -5.290854996938719E-017
  1.350000000000000E-002   -1.917950870617101E-017
  1.360000000000000E-002    2.092172704915713E-017
  1.370000000000000E-002    6.553924523309181E-017
  1.380000000000000E-002    1.122301116585286E-016
  1.390000000000000E-002    1.580509390655615E-016
  1.400000000000000E-002    1.996917695789682E-016
  1.410000000000000E-002    2.336550022628673E-016
  1.420000000000000E-002    2.564724115152573E-016
  1.430000000000000E-002    2.649511033922069E-016
  1.440000000000000E-002    2.564347254077707E-016
  1.450000000000000E-002    2.290639139134003E-016
  1.460000000000000E-002    1.820176469835959E-016
  1.470000000000000E-002    1.157162685143038E-016
  1.480000000000000E-002    3.196663137523475E-017
  1.490000000000000E-002   -6.596874350431062E-017
  1.500000000000000E-002   -1.733934488931304E-016
  1.510000000000000E-002   -2.843010293156556E-016
  1.520000000000000E-002   -3.916061493812515E-016
  1.530000000000000E-002   -4.874814666797571E-016
  1.540000000000000E-002   -5.637921226432379E-016
  1.550000000000000E-002   -6.126102864218627E-016
  1.560000000000000E-002   -6.267856863013666E-016
  1.570000000000000E-002   -6.005404676080408E-016
  1.580000000000000E-002   -5.300512876974632E-016
  1.590000000000000E-002   -4.139759896593371E-016
  1.600000000000000E-002   -2.538827999446840E-016
  1.610000000000000E-002   -5.453864978489083E-017
  1.620000000000000E-002    1.759814065120432E-016
  1.630000000000000E-002    4.263954274711295E-016
  1.640000000000000E-002    6.825467819957194E-016
  1.650000000000000E-002    9.279765224314385E-016
  1.660000000000000E-002    1.144728359098149E-015
  1.670000000000000E-002    1.314362434764983E-015
  1.680000000000000E-002    1.419136261882304E-015
  1.690000000000000E-002    1.443295956380426E-015
  1.700000000000000E-002    1.374403193605800E-015
  1.710000000000000E-002    1.204613942543055E-015
  1.720000000000000E-002    9.318149791900145E-016
  1.730000000000000E-002    5.605234160721629E-016
  1.740000000000000E-002    1.024568630696299E-016
  1.750000000000000E-002   -4.233085061305075E-016
  1.760000000000000E-002   -9.906535233267132E-016
  1.770000000000000E-002   -1.567248964084409E-015
  1.780000000000000E-002   -2.115916346549759E-015
  1.790000000000000E-002   -2.596489310509958E-015
  1.800000000000000E-002   -2.968121370444494E-015
  1.810000000000000E-002   -3.191936084520679E-015
  1.820000000000000E-002   -3.233887671695811E-015
  1.830000000000000E-002   -3.067665518582622E-015
  1.840000000000000E-002   -2.677452303318174E-015
  1.850000000000000E-002   -2.060328089403542E-015
  1.860000000000000E-002   -1.228116514601022E-015
  1.870000000000000E-002   -2.084750369366310E-016