 -4.000000000000000E-002    0.000000000000000E+000
 -3.990000000000000E-002    0.000000000000000E+000
 -3.980000000000000E-002    0.000000000000000E+000
 -3.970000000000000E-002    0.000000000000000E+000
 -3.960000000000000E-002    0.000000000000000E+000
 -3.950000000000000E-002    0.000000000000000E+000
 -3.940000000000000E-002    0.000000000000000E+000
 -3.930000000000000E-002    0.000000000000000E+000
 -3.920000000000000E-002    0.000000000000000E+000
 -3.910000000000000E-002    0.000000000000000E+000
 -3.900000000000000E-002    0.000000000000000E+000
 -3.890000000000000E-002    0.000000000000000E+000
 -3.880000000000000E-002    0.000000000000000E+000
 -3.870000000000000E-002    0.000000000000000E+000
 -3.860000000000000E-002    0.000000000000000E+000
 -3.850000000000000E-002    0.000000000000000E+000
 -3.840000000000000E-002    0.000000000000000E+000
 -3.830000000000000E-002    0.000000000000000E+000
 -3.820000000000000E-002    0.000000000000000E+000
 -3.810000000000000E-002    0.000000000000000E+000
 -3.800000000000000E-002    0.000000000000000E+000
 -3.790000000000000E-002    0.000000000000000E+000
 -3.780000000000000E-002    0.000000000000000E+000
 -3.770000000000000E-002    0.000000000000000E+000
 -3.760000000000000E-002    0.000000000000000E+000
 -3.750000000000000E-002    0.000000000000000E+000
 -3.740000000000000E-002    0.000000000000000E+000
 -3.730000000000000E-002    0.000000000000000E+000
 -3.720000000000000E-002    0.000000000000000E+000
 -3.710000000000000E-002    6.558908991058420E-048
 -3.700000000000000E-002    1.854047984021582E-046
 -3.690000000000000E-002    5.223794725067738E-046
 -3.680000000000000E-002    1.228321547532894E-045
 -3.670000000000000E-002    3.268441383531652E-045
 -3.660000000000000E-002    8.491465576564743E-045
 -3.650000000000000E-002    2.008989031849339E-044
 -3.640000000000000E-002    4.600195492926270E-044
 -3.630000000000000E-002    1.011063198751043E-043
 -3.620000000000000E-002    2.066820792007099E-043
 -3.610000000000000E-002    3.949474427520528E-043
 -3.600000000000000E-002    6.920182838237553E-043
 -3.590000000000000E-002    1.084456514647974E-042
 -3.580000000000000E-002    1.418443012340748E-042
 -3.570000000000000E-002    1.192339919407444E-042
 -3.560000000000000E-002   -8.468419140468893E-043
 -3.550000000000000E-002   -7.402616369318044E-042
 -3.540000000000000E-002   -2.371892126292200E-041
 -3.530000000000000E-002   -5.910405036267032E-041
 -3.520000000000000E-002   -1.286887619515874E-040
 -3.510000000000000E-002   -2.548246006977774E-040
 -3.500000000000000E-002   -4.667573530407688E-040
 -3.490000000000000E-002   -7.960658300931509E-040
 -3.480000000000000E-002   -1.263914358140869E-039
 -3.470000000000000E-002   -1.854619972714682E-039
 -3.460000000000000E-002   -2.469148657704883E-039
 -3.450000000000000E-002   -2.852990710773601E-039
 -3.440000000000000E-002   -2.497175651221991E-039
 -3.430000000000000E-002   -5.210089144995285E-040
 -3.420000000000000E-002    4.437849009101395E-039
 -3.410000000000000E-002    1.427537835294252E-038
 -3.400000000000000E-002    3.133445489386754E-038
 -3.390000000000000E-002    5.807002314163153E-038
 -3.380000000000000E-002    9.634389317264938E-038
 -3.370000000000000E-002    1.462501335215240E-037
 -3.360000000000000E-002    2.044562977027989E-037
 -3.350000000000000E-002    2.622134608868989E-037
 -3.340000000000000E-002    3.034458008134109E-037
 -3.330000000000000E-002    3.036494308331942E-037
 -3.320000000000000E-002    2.306250900903434E-037
 -3.310000000000000E-002    4.817844224067184E-038
 -3.300000000000000E-002   -2.764013384949110E-037
 -3.290000000000000E-002   -7.613123195347777E-037
 -3.280000000000000E-002   -1.397935504985932E-036
 -3.270000000000000E-002   -2.142657660906743E-036
 -3.260000000000000E-002   -2.922179187448710E-036
 -3.250000000000000E-002   -3.665552911305885E-036
 -3.240000000000000E-002   -4.378204727499600E-036
 -3.230000000000000E-002   -5.270680293737303E-036
 -3.220000000000000E-002   -6.944148959052566E-036
 -3.210000000000000E-002   -1.061219661874101E-035
 -3.200000000000000E-002   -1.830131421161729E-035
 -3.190000000000000E-002   -3.292061236385165E-035
 -3.180000000000000E-002   -5.803038639559827E-035
 -3.170000000000000E-002   -9.708069677264726E-035
 -3.160000000000000E-002   -1.518583167948856E-034
 -3.150000000000000E-002   -2.199032039162619E-034
 -3.140000000000000E-002   -2.907693365614906E-034
 -3.130000000000000E-002   -3.412523690880384E-034
 -3.120000000000000E-002   -3.300997243266735E-034
 -3.110000000000000E-002   -1.932683459858617E-034
 -3.100000000000000E-002    1.585521411276527E-034
 -3.090000000000000E-002    8.377827471044471E-034
 -3.080000000000000E-002    1.970297285822672E-033
 -3.070000000000000E-002    3.675266815493052E-033
 -3.060000000000000E-002    6.031947311734326E-033
 -3.050000000000000E-002    9.032051918072984E-033
 -3.040000000000000E-002    1.251832632256507E-032
 -3.030000000000000E-002    1.611259756683743E-032
 -3.020000000000000E-002    1.913943148132383E-032
 -3.010000000000000E-002    2.055426609630572E-032
 -3.000000000000000E-002    1.888645515124380E-032
 -2.990000000000000E-002    1.220822543005884E-032
 -2.980000000000000E-002   -1.860173464421910E-033
 -2.970000000000000E-002   -2.609937935537751E-032
 -2.960000000000000E-002   -6.358127108637509E-032
 -2.950000000000000E-002   -1.174788256665760E-031
 -2.940000000000000E-002   -1.907510928954471E-031
 -2.930000000000000E-002   -2.856202769476416E-031
 -2.920000000000000E-002   -4.026999420927332E-031
 -2.910000000000000E-002   -5.395663783838243E-031
 -2.900000000000000E-002   -6.884952020256531E-031
 -2.890000000000000E-002   -8.330653109795045E-031
 -2.880000000000000E-002   -9.433885939356590E-031
 -2.870000000000000E-002   -9.699435720272361E-031
 -2.860000000000000E-002   -8.364425426476679E-031
 -2.850000000000000E-002   -4.329101645838390E-031
 -2.840000000000000E-002    3.887813277127410E-031
 -2.830000000000000E-002    1.813312103057489E-030
 -2.820000000000000E-002    4.049192783006500E-030
 -2.810000000000000E-002    7.298592614334923E-030
 -2.800000000000000E-002    1.170288600003220E-029
 -2.790000000000000E-002    1.725798001200065E-029
 -2.780000000000000E-002    2.369661074959787E-029
 -2.770000000000000E-002    3.034096258331989E-029
 -2.760000000000000E-002    3.593873350125090E-029
 -2.750000000000000E-002    3.850923976257892E-029
 -2.740000000000000E-002    3.524248310371116E-029
 -2.730000000000000E-002    2.251129730930966E-029
 -2.720000000000000E-002   -3.928553379868459E-030
 -2.710000000000000E-002   -4.846833504749767E-029
 -2.700000000000000E-002   -1.148311143551674E-028
 -2.690000000000000E-002   -2.048634212960405E-028
 -2.680000000000000E-002   -3.169400203872399E-028
 -2.670000000000000E-002   -4.440734893610906E-028
 -2.660000000000000E-002   -5.719351969490032E-028
 -2.650000000000000E-002   -6.771330029329808E-028
 -2.640000000000000E-002   -7.262356553756458E-028
 -2.630000000000000E-002   -6.761593743294524E-028
 -2.620000000000000E-002   -4.766022060626418E-028
 -2.610000000000000E-002   -7.518389461046511E-029
 -2.600000000000000E-002    5.742220313917691E-028
 -2.590000000000000E-002    1.499827928394226E-027
 -2.580000000000000E-002    2.697360257506289E-027
 -2.570000000000000E-002    4.113739085700694E-027
 -2.560000000000000E-002    5.631055564130702E-027
 -2.550000000000000E-002    7.053827462412973E-027
 -2.540000000000000E-002    8.103320650330274E-027
 -2.530000000000000E-002    8.423234641541224E-027
 -2.520000000000000E-002    7.601000308608719E-027
 -2.510000000000000E-002    5.208125010209741E-027
 -2.500000000000000E-002    8.612578035495332E-028
 -2.490000000000000E-002   -5.697145963766297E-027
 -2.480000000000000E-002   -1.450345371062067E-026
 -2.470000000000000E-002   -2.527206844322180E-026
 -2.460000000000000E-002   -3.730316431483732E-026
 -2.450000000000000E-002   -4.941688085661248E-026
 -2.440000000000000E-002   -5.993455398619647E-026
 -2.430000000000000E-002   -6.672761803161845E-026
 -2.420000000000000E-002   -6.735167115776030E-026
 -2.410000000000000E-002   -5.927596775485269E-026
 -2.400000000000000E-002   -4.020722757019478E-026
 -2.390000000000000E-002   -8.491761080382524E-027
 -2.380000000000000E-002    3.643751465784478E-026
 -2.370000000000000E-002    9.361992553681607E-026
 -2.360000000000000E-002    1.601974470947465E-025
 -2.350000000000000E-002    2.311910559277696E-025
 -2.340000000000000E-002    2.994971426731933E-025
 -2.330000000000000E-002    3.561656516033048E-025
 -2.320000000000000E-002    3.909963792975904E-025
 -2.310000000000000E-002    3.934513836063540E-025
 -2.300000000000000E-002    3.538344109101247E-025
 -2.290000000000000E-002    2.646358544541092E-025
 -2.280000000000000E-002    1.218949691052167E-025
 -2.270000000000000E-002   -7.360443505582282E-026
 -2.260000000000000E-002   -3.154990073104820E-025
 -2.250000000000000E-002   -5.915479807536717E-025
 -2.240000000000000E-002   -8.839938350902413E-025
 -2.230000000000000E-002   -1.170616151689840E-024
 -2.220000000000000E-002   -1.426400455576692E-024
 -2.210000000000000E-002   -1.625620969427099E-024
 -2.200000000000000E-002   -1.744025228500409E-024
 -2.190000000000000E-002   -1.760739909830207E-024
 -2.180000000000000E-002   -1.659506332504376E-024
 -2.170000000000000E-002   -1.428934643737419E-024
 -2.160000000000000E-002   -1.061637631991776E-024
 -2.150000000000000E-002   -5.523669466710061E-025
 -2.140000000000000E-002    1.044102452257734E-025
 -2.130000000000000E-002    9.167204486855907E-025
 -2.120000000000000E-002    1.896046105663723E-024
 -2.110000000000000E-002    3.055869523134703E-024
 -2.100000000000000E-002    4.406726571290291E-024
 -2.090000000000000E-002    5.947062925492844E-024
 -2.080000000000000E-002    7.649867495353370E-024
 -2.070000000000000E-002    9.446022808228817E-024
 -2.060000000000000E-002    1.120645528384266E-023
 -2.050000000000000E-002    1.272636580745925E-023
 -2.040000000000000E-002    1.371583108968667E-023
 -2.030000000000000E-002    1.380162399419699E-023
 -2.020000000000000E-002    1.254497592153750E-023
 -2.010000000000000E-002    9.478979802209651E-024
 -2.000000000000000E-002    4.167233331448916E-024
 -1.990000000000000E-002   -3.717705743075910E-024
 -1.980000000000000E-002   -1.430138725562043E-023
 -1.970000000000000E-002   -2.740954446008332E-023
 -1.960000000000000E-002   -4.247873864957532E-023
 -1.950000000000000E-002   -5.849200682124696E-023
 -1.940000000000000E-002   -7.395733011799317E-023
 -1.930000000000000E-002   -8.694535241977688E-023
 -1.920000000000000E-002   -9.519868650725083E-023
 -1.910000000000000E-002   -9.631781226707647E-023
 -1.900000000000000E-002   -8.801858108471922E-023
 -1.890000000000000E-002   -6.844452575995866E-023
 -1.880000000000000E-002   -3.650493645074262E-023
 -1.870000000000000E-002    7.801130231353351E-024
 -1.860000000000000E-002    6.312203628490824E-023
 -1.850000000000000E-002    1.266009153454671E-022
 -1.840000000000000E-002    1.938770767879614E-022
 -1.830000000000000E-002    2.592724911661547E-022
 -1.820000000000000E-002    3.161743579511056E-022
 -1.810000000000000E-002    3.575986234294003E-022
 -1.800000000000000E-002    3.768909285716598E-022
 -1.790000000000000E-002    3.684941804152176E-022
 -1.780000000000000E-002    3.286899691745928E-022
 -1.770000000000000E-002    2.562103278442826E-022
 -1.760000000000000E-002    1.526195992086081E-022
 -1.750000000000000E-002    2.238570974830562E-023
 -1.740000000000000E-002   -1.274038280965320E-022
 -1.730000000000000E-002   -2.876765865002920E-022
 -1.720000000000000E-002   -4.482990501620006E-022
 -1.710000000000000E-002   -5.991718356621766E-022
 -1.700000000000000E-002   -7.313335345870015E-022
 -1.690000000000000E-002   -8.378847749778325E-022
 -1.680000000000000E-002   -9.145478267122873E-022
 -1.670000000000000E-002   -9.597150207422982E-022
 -1.660000000000000E-002   -9.739101157980063E-022
 -1.650000000000000E-002   -9.586851548585100E-022
 -1.640000000000000E-002   -9.150911169260159E-022
 -1.630000000000000E-002   -8.419734354836689E-022
 -1.620000000000000E-002   -7.344341226417379E-022
 -1.610000000000000E-002   -5.828515509785567E-022
 -1.600000000000000E-002   -3.728335082329868E-022
 -1.590000000000000E-002   -8.639851909980017E-023
 -1.580000000000000E-002    2.954791019697070E-022
 -1.570000000000000E-002    7.890380777043206E-022
 -1.560000000000000E-002    1.402942603614742E-021
 -1.550000000000000E-002    2.133112489307281E-021
 -1.540000000000000E-002    2.957954297324994E-021
 -1.530000000000000E-002    3.834884867678376E-021
 -1.520000000000000E-002    4.699033064671394E-021
 -1.510000000000000E-002    5.464840938424030E-021
 -1.500000000000000E-002    6.030978497034844E-021
 -1.490000000000000E-002    6.288548663048775E-021
 -1.480000000000000E-002    6.132043765204097E-021
 -1.470000000000000E-002    5.472006126328376E-021
 -1.460000000000000E-002    4.247900533076869E-021
 -1.450000000000000E-002    2.439454738454898E-021
 -1.440000000000000E-002    7.469761336794565E-023
 -1.430000000000000E-002   -2.766800432313639E-021
 -1.420000000000000E-002   -5.956430663113759E-021
 -1.410000000000000E-002   -9.324929197580374E-021
 -1.400000000000000E-002   -1.267584274751423E-020
 -1.390000000000000E-002   -1.580235303619337E-020
 -1.380000000000000E-002   -1.850495845710730E-020
 -1.370000000000000E-002   -2.060711654033009E-020
 -1.360000000000000E-002   -2.196599933891855E-020
 -1.350000000000000E-002   -2.247612116348640E-020
 -1.340000000000000E-002   -2.206479287516151E-020
 -1.330000000000000E-002   -2.067990704917318E-020
 -1.320000000000000E-002   -1.827237551129859E-020
 -1.310000000000000E-002   -1.477723930566265E-020
 -1.300000000000000E-002   -1.009877964630165E-020
 -1.290000000000000E-002   -4.105407798414797E-021
 -1.280000000000000E-002    3.360348598407132E-021
 -1.270000000000000E-002    1.245322476486730E-020
 -1.260000000000000E-002    2.327716469944137E-020
 -1.250000000000000E-002    3.582075534933020E-020
 -1.240000000000000E-002    4.988313178135579E-020
 -1.230000000000000E-002    6.500115909213863E-020
 -1.220000000000000E-002    8.039150691113795E-020
 -1.210000000000000E-002    9.492238969025169E-020
 -1.200000000000000E-002    1.071286875663277E-019
 -1.190000000000000E-002    1.152804527950732E-019
 -1.180000000000000E-002    1.175088144953037E-019
 -1.170000000000000E-002    1.119851018355598E-019
 -1.160000000000000E-002    9.714013191280392E-020
 -1.150000000000000E-002    7.190170046535032E-020
 -1.140000000000000E-002    3.592138616339868E-020
 -1.130000000000000E-002   -1.024203059472178E-020
 -1.120000000000000E-002   -6.501465053524502E-020
 -1.110000000000000E-002   -1.258012538367541E-019
 -1.100000000000000E-002   -1.890966641758754E-019
 -1.090000000000000E-002   -2.507151555894289E-019
 -1.080000000000000E-002   -3.061217931104579E-019
 -1.070000000000000E-002   -3.508315473634317E-019
 -1.060000000000000E-002   -3.808284810102788E-019
 -1.050000000000000E-002   -3.929483969408917E-019
 -1.040000000000000E-002   -3.851673068655274E-019
 -1.030000000000000E-002   -3.567480769548983E-019
 -1.020000000000000E-002   -3.082143328297250E-019
 -1.010000000000000E-002   -2.411484944539884E-019
 -1.000000000000000E-002   -1.578403106575620E-019
 -9.899999999999999E-003   -6.084355154415641E-020
 -9.800000000000000E-003    4.747596491979441E-020
 -9.699999999999999E-003    1.653032729143189E-019
 -9.599999999999999E-003    2.915505831219386E-019
 -9.500000000000000E-003    4.257689383197492E-019
 -9.399999999999999E-003    5.677522800663928E-019
 -9.299999999999999E-003    7.168435902670109E-019
 -9.200000000000000E-003    8.710141772595011E-019
 -9.099999999999999E-003    1.025846857174987E-018
 -8.999999999999999E-003    1.173605135607788E-018
 -8.900000000000000E-003    1.302600951573307E-018
 -8.799999999999999E-003    1.397072744785272E-018
 -8.699999999999999E-003    1.437749844566492E-018
 -8.600000000000000E-003    1.403205417395299E-018
 -8.499999999999999E-003    1.271995931702072E-018
 -8.399999999999999E-003    1.025456629510253E-018
 -8.300000000000000E-003    6.508933484819712E-019
 -8.199999999999999E-003    1.447917395309986E-019
 -8.100000000000000E-003   -4.844113833490397E-019
 -8.000000000000000E-003   -1.214478338186543E-018
 -7.899999999999999E-003   -2.008877856320630E-018
 -7.800000000000000E-003   -2.817968656196062E-018
 -7.699999999999999E-003   -3.581990311313471E-018
 -7.599999999999999E-003   -4.235755885259843E-018
 -7.499999999999999E-003   -4.714679576118085E-018
 -7.399999999999999E-003   -4.961527718376966E-018
 -7.299999999999999E-003   -4.933088381055357E-018
 -7.199999999999999E-003   -4.605853066656651E-018
 -7.100000000000000E-003   -3.979825369577974E-018
 -6.999999999999999E-003   -3.079728106948219E-018
 -6.899999999999999E-003   -1.953169350508150E-018
 -6.800000000000000E-003   -6.657197221861776E-019
 -6.699999999999999E-003    7.066752759656369E-019
 -6.599999999999999E-003    2.087077852841896E-018
 -6.499999999999999E-003    3.407466314292604E-018
 -6.399999999999999E-003    4.617647615732302E-018
 -6.299999999999999E-003    5.691621598239077E-018
 -6.199999999999999E-003    6.630011269377890E-018
 -6.100000000000000E-003    7.457630025663297E-018
 -5.999999999999999E-003    8.215886494894624E-018
 -5.899999999999999E-003    8.950543037344171E-018
 -5.800000000000000E-003    9.696166489878664E-018
 -5.699999999999999E-003    1.045938539317335E-017
 -5.599999999999999E-003    1.120362060489221E-017
 -5.499999999999999E-003    1.183819545534088E-017
 -5.399999999999999E-003    1.221456323023283E-017
 -5.299999999999999E-003    1.213176971431712E-017
 -5.199999999999999E-003    1.135224869852382E-017
 -5.099999999999999E-003    9.627687647025124E-018
 -4.999999999999999E-003    6.733173987502443E-018
 -4.899999999999999E-003    2.506323021621920E-018
 -4.799999999999999E-003   -3.113157821603184E-018
 -4.699999999999999E-003   -1.004884390753783E-017
 -4.599999999999999E-003   -1.806339087290172E-017
 -4.499999999999999E-003   -2.674970364846605E-017
 -4.399999999999999E-003   -3.554105867883272E-017
 -4.299999999999999E-003   -4.374175338976440E-017
 -4.199999999999999E-003   -5.057741604242218E-017
 -4.099999999999999E-003   -5.526140078837809E-017
 -3.999999999999999E-003   -5.707133106394091E-017
 -3.899999999999999E-003   -5.542780006430955E-017
 -3.799999999999999E-003   -4.996624844728303E-017
 -3.699999999999999E-003   -4.059301182362489E-017
 -3.599999999999999E-003   -2.751775257825848E-017
 -3.499999999999999E-003   -1.125685503167723E-017
 -3.399999999999999E-003    7.394395486605887E-018
 -3.299999999999999E-003    2.741918650841629E-017
 -3.199999999999999E-003    4.766059584058850E-017
 -3.099999999999999E-003    6.691819079758355E-017
 -2.999999999999999E-003    8.404856420342792E-017
 -2.899999999999999E-003    9.805761540645016E-017
 -2.799999999999999E-003    1.081732184288752E-016
 -2.699999999999999E-003    1.138891271258057E-016
 -2.599999999999999E-003    1.149751260871894E-016
 -2.499999999999999E-003    1.114530783973590E-016
 -2.399999999999999E-003    1.035438573910551E-016
 -2.299999999999999E-003    9.159482452381831E-017
 -2.199999999999999E-003    7.600117900698932E-017
 -2.099999999999999E-003    5.713606636827094E-017
 -1.999999999999999E-003    3.530382704753519E-017
 -1.899999999999999E-003    1.072766783127379E-017
 -1.799999999999999E-003   -1.642221614998423E-017
 -1.699999999999999E-003   -4.596071470253043E-017
 -1.599999999999999E-003   -7.758835648698471E-017
 -1.499999999999999E-003   -1.107756032194876E-016
 -1.399999999999999E-003   -1.446515273575373E-016
 -1.299999999999999E-003   -1.779203404216345E-016
 -1.199999999999999E-003   -2.088286223814988E-016
 -1.099999999999999E-003   -2.352017026934864E-016
 -9.999999999999989E-004   -2.545597592472312E-016
 -8.999999999999990E-004   -2.643134012795093E-016
 -7.999999999999990E-004   -2.620265865114647E-016
 -6.999999999999989E-004   -2.457222469194294E-016
 -5.999999999999990E-004   -2.141961628218086E-016
 -4.999999999999989E-004   -1.672978153176334E-016
 -3.999999999999989E-004   -1.061355772020441E-016
 -2.999999999999989E-004   -3.316759578522010E-017
 -1.999999999999989E-004    4.784992868929104E-017
 -9.999999999999892E-005    1.320702842587364E-016
  1.084202172485504E-018    2.139141495348792E-016
  1.000000000000011E-004    2.875520101295012E-016
  2.000000000000011E-004    3.474669135131753E-016
  3.000000000000011E-004    3.890379537636464E-016
  4.000000000000011E-004    4.090766154474909E-016
  5.000000000000011E-004    4.062477353309717E-016
  6.000000000000011E-004    3.813143382402534E-016
  7.000000000000011E-004    3.371631853441120E-016
  8.000000000000011E-004    2.785905866013698E-016
  9.000000000000012E-004    2.118561128461573E-016
  1.000000000000001E-003    1.440409631148234E-016
  1.100000000000001E-003    8.227291887787619E-017
  1.200000000000001E-003    3.290088245779892E-017
  1.300000000000001E-003    7.112461253497182E-019
  1.400000000000001E-003   -1.172022111150318E-017
  1.500000000000001E-003   -4.460640500417130E-018
  1.600000000000001E-003    1.962275474070985E-017
  1.700000000000001E-003    5.500951021394314E-017
  1.800000000000001E-003    9.397139873755120E-017
  1.900000000000001E-003    1.272770131788100E-016
  2.000000000000001E-003    1.450858695196387E-016
  2.100000000000001E-003    1.379417902674777E-016
  2.200000000000001E-003    9.776424102673978E-017
  2.300000000000001E-003    1.873958390968126E-017
  2.400000000000001E-003   -1.019719844196801E-016
  2.500000000000001E-003   -2.637729680081675E-016
  2.600000000000001E-003   -4.624386751309116E-016
  2.700000000000001E-003   -6.901975213404148E-016
  2.800000000000001E-003   -9.360504136889302E-016
  2.900000000000001E-003   -1.186278078547554E-015
  3.000000000000001E-003   -1.425073321757222E-015
  3.100000000000001E-003   -1.635238483598330E-015
  3.200000000000001E-003   -1.798901706170459E-015
  3.300000000000001E-003   -1.898227539090254E-015
  3.400000000000001E-003   -1.916121810536072E-015
  3.500000000000001E-003   -1.836955234836318E-015
  3.600000000000001E-003   -1.647347215594588E-015
  3.700000000000001E-003   -1.337050600255947E-015
  3.800000000000001E-003   -8.999721223417051E-016
  3.900000000000001E-003   -3.353257542994096E-016
  4.000000000000001E-003    3.511191746231614E-016
  4.100000000000001E-003    1.145789455831045E-015
  4.200000000000001E-003    2.026206252337374E-015
  4.300000000000001E-003    2.960215838900760E-015
  4.400000000000001E-003    3.905772388127570E-015
  4.500000000000001E-003    4.811483663389722E-015
  4.600000000000002E-003    5.618100879942764E-015
  4.700000000000001E-003    6.261066453768641E-015
  4.800000000000001E-003    6.674131564695770E-015
  4.900000000000002E-003    6.793936986931544E-015
  5.000000000000001E-003    6.565314354294377E-015
  5.100000000000001E-003    5.946935728810292E-015
  5.200000000000001E-003    4.916835069476267E-015
  5.300000000000002E-003    3.477251899205673E-015
  5.400000000000001E-003    1.658221513954740E-015
  5.500000000000001E-003   -4.805983783689176E-016
  5.600000000000002E-003   -2.850306115396755E-015
  5.700000000000001E-003   -5.335582970079743E-015
  5.800000000000001E-003   -7.800036327869743E-015
  5.900000000000002E-003   -1.009386590212810E-014
  6.000000000000001E-003   -1.206343644716189E-014
  6.100000000000001E-003   -1.356211187323598E-014
  6.200000000000002E-003   -1.446154698787413E-014
  6.300000000000002E-003   -1.466250533552098E-014
  6.400000000000001E-003   -1.410426341926852E-014
  6.500000000000001E-003   -1.277171849964413E-014
  6.600000000000002E-003   -1.069944905798605E-014
  6.700000000000001E-003   -7.972232600869229E-015
  6.800000000000001E-003   -4.721757307352633E-015
  6.900000000000002E-003   -1.119604117931521E-015
  7.000000000000001E-003    2.633126090439095E-015
  7.100000000000001E-003    6.318882213037082E-015
  7.200000000000002E-003    9.718551626674343E-015
  7.300000000000002E-003    1.262709759871802E-014
  7.400000000000001E-003    1.486881467642121E-014
  7.500000000000001E-003    1.631106024383862E-014
  7.600000000000002E-003    1.687541770342179E-014
  7.700000000000001E-003    1.654537481477405E-014
  7.800000000000001E-003    1.536986305535482E-014
  7.900000000000001E-003    1.346217582776760E-014
  8.000000000000002E-003    1.099414115365967E-014
  8.100000000000001E-003    8.185670583762426E-015
  8.200000000000001E-003    5.290057939923875E-015
  8.300000000000002E-003    2.575703346638356E-015
  8.400000000000001E-003    3.052289888586730E-016
  8.500000000000002E-003   -1.286949925292044E-015
  8.600000000000002E-003   -2.017190756558193E-015
  8.700000000000001E-003   -1.773845579270699E-015
  8.800000000000002E-003   -5.355216524435304E-016
  8.900000000000002E-003    1.615312947143098E-015
  9.000000000000001E-003    4.484977642603975E-015
  9.100000000000002E-003    7.769003031704052E-015
  9.200000000000002E-003    1.106153166473262E-014
  9.300000000000001E-003    1.387446459709830E-014
  9.400000000000002E-003    1.566661866524697E-014
  9.500000000000001E-003    1.588232967745132E-014
  9.600000000000001E-003    1.399814600395127E-014
  9.700000000000002E-003    9.575418104743995E-015
  9.800000000000001E-003    2.315507545853064E-015
  9.900000000000001E-003   -7.886324522870453E-015
  1.000000000000000E-002   -2.089313528286743E-014
  1.010000000000000E-002   -3.628953348634876E-014
  1.020000000000000E-002   -5.336120659680851E-014
  1.030000000000000E-002   -7.109526708322723E-014
  1.040000000000000E-002   -8.820514839047650E-014
  1.050000000000000E-002   -1.031825908882849E-013
  1.060000000000000E-002   -1.143770553959963E-013
  1.070000000000000E-002   -1.201008545544224E-013
  1.080000000000000E-002   -1.187560362126424E-013
  1.090000000000000E-002   -1.089763251285112E-013
  1.100000000000000E-002   -8.977512985466729E-014
  1.110000000000000E-002   -6.068901654167528E-014
  1.120000000000000E-002   -2.190436702435613E-014
  1.130000000000000E-002    2.564548121782158E-014
  1.140000000000000E-002    8.022459593913389E-014
  1.150000000000000E-002    1.392912202699169E-013
  1.160000000000000E-002    1.995549458337919E-013
  1.170000000000000E-002    2.570990159998575E-013
  1.180000000000000E-002    3.075679755306055E-013
  1.190000000000000E-002    3.464158242838570E-013
  1.200000000000000E-002    3.692047936784237E-013
  1.210000000000000E-002    3.719397684681123E-013
  1.220000000000000E-002    3.514181015857796E-013
  1.230000000000000E-002    3.055718914939736E-013
  1.240000000000000E-002    2.337763335716455E-013
  1.250000000000000E-002    1.370973574842226E-013
  1.260000000000000E-002    1.845268178934413E-014
  1.270000000000000E-002   -1.173365325136056E-013
  1.280000000000000E-002   -2.636216902312177E-013
  1.290000000000000E-002   -4.121408305843866E-013
  1.300000000000000E-002   -5.533738491062328E-013
  1.310000000000000E-002   -6.770318413473496E-013
  1.320000000000000E-002   -7.726632975142149E-013
  1.330000000000000E-002   -8.303495536505180E-013
  1.340000000000000E-002   -8.414521778529924E-013
  1.350000000000000E-002   -7.993676833034211E-013
  1.360000000000000E-002   -7.002378459459267E-013
  1.370000000000000E-002   -5.435621148874426E-013
  1.380000000000000E-002   -3.326569706160811E-013
  1.390000000000000E-002   -7.491354191349581E-014
  1.400000000000000E-002    2.181912398513346E-013
  1.410000000000000E-002    5.313574084569357E-013
  1.420000000000000E-002    8.460183328253602E-013
  1.430000000000000E-002    1.141185476301301E-012
  1.440000000000000E-002    1.394561638941879E-012
  1.450000000000000E-002    1.583880859584642E-012
  1.460000000000000E-002    1.688410406290233E-012
  1.470000000000000E-002    1.690536441296694E-012
  1.480000000000000E-002    1.577335395171908E-012
  1.490000000000000E-002    1.342025847602791E-012
  1.500000000000000E-002    9.851909024350633E-013
  1.510000000000000E-002    5.156596923123217E-013
  1.520000000000000E-002   -4.904828946534602E-014
  1.530000000000000E-002   -6.828006735738491E-013
  1.540000000000000E-002   -1.351504581172723E-012
  1.550000000000000E-002   -2.014365686235841E-012
  1.560000000000000E-002   -2.625737897123996E-012
  1.570000000000000E-002   -3.137517664955773E-012
  1.580000000000000E-002   -3.501990291579595E-012
  1.590000000000000E-002   -3.674996846237907E-012
  1.600000000000000E-002   -3.619258510758508E-012
  1.610000000000000E-002   -3.307659520591399E-012
  1.620000000000000E-002   -2.726276179300262E-012
  1.630000000000000E-002   -1.876929697593221E-012
  1.640000000000000E-002   -7.790463497854352E-013
  1.650000000000000E-002    5.293754115320051E-013
  1.660000000000000E-002    1.991851363740139E-012
  1.670000000000000E-002    3.534665585349110E-012
  1.680000000000000E-002    5.069355120664100E-012
  1.690000000000000E-002    6.496396740993901E-012
  1.700000000000000E-002    7.710018821127414E-012
  1.710000000000000E-002    8.603954824577457E-012
  1.720000000000000E-002    9.077908422918427E-012
  1.730000000000000E-002    9.044397619531406E-012
  1.740000000000000E-002    8.435623814965937E-012
  1.750000000000000E-002    7.209944492122251E-012
  1.760000000000000E-002    5.357525351079814E-012
  1.770000000000000E-002    2.904747307510841E-012
  1.780000000000000E-002   -8.302482604162502E-014
  1.790000000000000E-002   -3.500640489251348E-012
  1.800000000000000E-002   -7.204588900288509E-012
  1.810000000000000E-002   -1.101678713403228E-011
  1.820000000000000E-002   -1.473076308177745E-011
  1.830000000000000E-002   -1.812011808892506E-011
  1.840000000000000E-002   -2.094900724119721E-011
  1.850000000000000E-002   -2.298425132510579E-011
  1.860000000000000E-002   -2.400856064358259E-011
  1.870000000000000E-002   -2.383423543072562E-011