 -4.000000000000000E-002    0.000000000000000E+000
 -3.990000000000000E-002   -8.136092579831137E-007
 -3.980000000000000E-002   -2.430088906208318E-006
 -3.970000000000000E-002   -4.799862149643725E-006
 -3.960000000000000E-002   -7.842970737739208E-006
 -3.950000000000000E-002   -1.146032438093568E-005
 -3.940000000000000E-002   -1.554649345114996E-005
 -3.930000000000000E-002   -2.000266647599493E-005
 -3.920000000000000E-002   -2.474840491682539E-005
 -3.910000000000000E-002   -2.973096923465208E-005
 -3.900000000000000E-002   -3.493131638848135E-005
 -3.890000000000000E-002   -4.036619294733592E-005
 -3.880000000000000E-002   -4.608624167237504E-005
 -3.870000000000000E-002   -5.217042878417938E-005
 -3.860000000000000E-002   -5.871755311690316E-005
 -3.850000000000000E-002   -6.583585181459070E-005
 -3.840000000000000E-002   -7.363195643817226E-005
 -3.830000000000000E-002   -8.220049073768362E-005
 -3.820000000000000E-002   -9.161547992691925E-005
 -3.810000000000000E-002   -1.019245437576134E-004
 -3.800000000000000E-002   -1.131464928586121E-004
 -3.790000000000000E-002   -1.252725844995658E-004
 -3.780000000000000E-002   -1.382712309186532E-004
 -3.770000000000000E-002   -1.520955378786542E-004
 -3.760000000000000E-002   -1.666928259585938E-004
 -3.750000000000000E-002   -1.820150430459207E-004
 -3.740000000000000E-002   -1.980287951461326E-004
 -3.730000000000000E-002   -2.147239082809872E-004
 -3.720000000000000E-002   -2.321196188381946E-004
 -3.710000000000000E-002   -2.502676638103391E-004
 -3.700000000000000E-002   -2.692519560826250E-004
 -3.690000000000000E-002   -2.891851207569291E-004
 -3.680000000000000E-002   -3.102021126832706E-004
 -3.670000000000000E-002   -3.324518979964008E-004
 -3.660000000000000E-002   -3.560880809536923E-004
 -3.650000000000000E-002   -3.812596691121318E-004
 -3.640000000000000E-002   -4.081030221392373E-004
 -3.630000000000000E-002   -4.367358299112502E-004
 -3.620000000000000E-002   -4.672539243286574E-004
 -3.610000000000000E-002   -4.997311259189947E-004
 -3.600000000000000E-002   -5.342223823689242E-004
 -3.590000000000000E-002   -5.707693651180243E-004
 -3.580000000000000E-002   -6.094084254038888E-004
 -3.570000000000000E-002   -6.501794330088343E-004
 -3.560000000000000E-002   -6.931350726715783E-004
 -3.550000000000000E-002   -7.383490532715723E-004
 -3.540000000000000E-002   -7.859227180680097E-004
 -3.530000000000000E-002   -8.359891250308585E-004
 -3.520000000000000E-002   -8.887143748152814E-004
 -3.510000000000000E-002   -9.442960612883898E-004
 -3.500000000000000E-002   -1.002958974858025E-003
 -3.490000000000000E-002   -1.064948796938808E-003
 -3.480000000000000E-002   -1.130524686828912E-003
 -3.470000000000000E-002   -1.199951125603986E-003
 -3.460000000000000E-002   -1.273490594253626E-003
 -3.450000000000000E-002   -1.351397761356626E-003
 -3.440000000000000E-002   -1.433915616681731E-003
 -3.430000000000000E-002   -1.521274065478657E-003
 -3.420000000000000E-002   -1.613691678255997E-003
 -3.410000000000000E-002   -1.711379442238179E-003
 -3.400000000000000E-002   -1.814547180036454E-003
 -3.390000000000000E-002   -1.923410853024604E-003
 -3.380000000000000E-002   -2.038200930576700E-003
 -3.370000000000000E-002   -2.159170350530861E-003
 -3.360000000000000E-002   -2.286600954821720E-003
 -3.350000000000000E-002   -2.420809287957590E-003
 -3.340000000000000E-002   -2.562148966150183E-003
 -3.330000000000000E-002   -2.711011109400635E-003
 -3.320000000000000E-002   -2.867822232580055E-003
 -3.310000000000000E-002   -3.033040768249143E-003
 -3.300000000000000E-002   -3.207150620953408E-003
 -3.290000000000000E-002   -3.390655799946007E-003
 -3.280000000000000E-002   -3.584073526000289E-003
 -3.270000000000000E-002   -3.787929254575789E-003
 -3.260000000000000E-002   -4.002752273855586E-003
 -3.250000000000000E-002   -4.229073771937056E-003
 -3.240000000000000E-002   -4.467428190745028E-003
 -3.230000000000000E-002   -4.718354577638364E-003
 -3.220000000000000E-002   -4.982402052531996E-003
 -3.210000000000000E-002   -5.260136066245497E-003
 -3.200000000000000E-002   -5.552145647073713E-003
 -3.190000000000000E-002   -5.859050997214653E-003
 -3.180000000000000E-002   -6.181510225188694E-003
 -3.170000000000000E-002   -6.520225348396210E-003
 -3.160000000000000E-002   -6.875946651825264E-003
 -3.150000000000000E-002   -7.249474924502275E-003
 -3.140000000000000E-002   -7.641661011180148E-003
 -3.130000000000000E-002   -8.053404727857609E-003
 -3.120000000000000E-002   -8.485650044226672E-003
 -3.110000000000000E-002   -8.939382014263413E-003
 -3.100000000000000E-002   -9.415621023867395E-003
 -3.090000000000000E-002   -9.915416947391191E-003
 -3.080000000000000E-002   -1.043984738460657E-002
 -3.070000000000000E-002   -1.099001507443646E-002
 -3.060000000000000E-002   -1.156704625244908E-002
 -3.050000000000000E-002   -1.217209300201237E-002
 -3.040000000000000E-002   -1.280633670982169E-002
 -3.030000000000000E-002   -1.347099362625814E-002
 -3.020000000000000E-002   -1.416732165068277E-002
 -3.010000000000000E-002   -1.489662583598615E-002
 -3.000000000000000E-002   -1.566026727110318E-002
 -2.990000000000000E-002   -1.645966765518902E-002
 -2.980000000000000E-002   -1.729631605524228E-002
 -2.970000000000000E-002   -1.817177171784666E-002
 -2.960000000000000E-002   -1.908766432098101E-002
 -2.950000000000000E-002   -2.004569835166862E-002
 -2.940000000000000E-002   -2.104764488086945E-002
 -2.930000000000000E-002   -2.209534522287674E-002
 -2.920000000000000E-002   -2.319070387210578E-002
 -2.910000000000000E-002   -2.433568399629161E-002
 -2.900000000000000E-002   -2.553230522978947E-002
 -2.890000000000000E-002   -2.678264323644612E-002
 -2.880000000000000E-002   -2.808882753926387E-002
 -2.870000000000000E-002   -2.945303934799332E-002
 -2.860000000000000E-002   -3.087751873848653E-002
 -2.850000000000000E-002   -3.236456671212990E-002
 -2.840000000000000E-002   -3.391654958699107E-002
 -2.830000000000000E-002   -3.553590635343000E-002
 -2.820000000000000E-002   -3.722515792759237E-002
 -2.810000000000000E-002   -3.898690963236893E-002
 -2.800000000000000E-002   -4.082385387694014E-002
 -2.790000000000000E-002   -4.273878165248228E-002
 -2.780000000000000E-002   -4.473458072021957E-002
 -2.770000000000000E-002   -4.681423748189876E-002
 -2.760000000000000E-002   -4.898083770133951E-002
 -2.750000000000000E-002   -5.123755909285832E-002
 -2.740000000000000E-002   -5.358767731821867E-002
 -2.730000000000000E-002   -5.603455720374349E-002
 -2.720000000000000E-002   -5.858165247659535E-002
 -2.710000000000000E-002   -6.123249929642437E-002
 -2.700000000000000E-002   -6.399071765049628E-002
 -2.690000000000000E-002   -6.686001747160698E-002
 -2.680000000000000E-002   -6.984418143601190E-002
 -2.670000000000000E-002   -7.294709232423530E-002
 -2.660000000000000E-002   -7.617271709156510E-002
 -2.650000000000000E-002   -7.952511484573037E-002
 -2.640000000000000E-002   -8.300845730076561E-002
 -2.630000000000000E-002   -8.662700375718521E-002
 -2.620000000000000E-002   -9.038513570803818E-002
 -2.610000000000000E-002   -9.428734237474384E-002
 -2.600000000000000E-002   -9.833822940408983E-002
 -2.590000000000000E-002   -0.102542519267960     
 -2.580000000000000E-002   -0.106905046074924     
 -2.570000000000000E-002   -0.111430763068712     
 -2.560000000000000E-002   -0.116124728071440     
 -2.550000000000000E-002   -0.120992121056697     
 -2.540000000000000E-002   -0.126038206340149     
 -2.530000000000000E-002   -0.131268352543521     
 -2.520000000000000E-002   -0.136688042850641     
 -2.510000000000000E-002   -0.142302837060029     
 -2.500000000000000E-002   -0.148118409166600     
 -2.490000000000000E-002   -0.154140506172597     
 -2.480000000000000E-002   -0.160374976773238     
 -2.470000000000000E-002   -0.166827772897655     
 -2.460000000000000E-002   -0.173504936291220     
 -2.450000000000000E-002   -0.180412605999424     
 -2.440000000000000E-002   -0.187557036579683     
 -2.430000000000000E-002   -0.194944570815457     
 -2.420000000000000E-002   -0.202581664950792     
 -2.410000000000000E-002   -0.210474860931210     
 -2.400000000000000E-002   -0.218630799477461     
 -2.390000000000000E-002   -0.227056224107863     
 -2.380000000000000E-002   -0.235757969321728     
 -2.370000000000000E-002   -0.244742953418297     
 -2.360000000000000E-002   -0.254018145773448     
 -2.350000000000000E-002   -0.263590636789988     
 -2.340000000000000E-002   -0.273467556290934     
 -2.330000000000000E-002   -0.283656068466508     
 -2.320000000000000E-002   -0.294163440148222     
 -2.310000000000000E-002   -0.304996969084176     
 -2.300000000000000E-002   -0.316164009079610     
 -2.290000000000000E-002   -0.327671934744954     
 -2.280000000000000E-002   -0.339528183735655     
 -2.270000000000000E-002   -0.351740188543491     
 -2.260000000000000E-002   -0.364315462999281     
 -2.250000000000000E-002   -0.377261526857034     
 -2.240000000000000E-002   -0.390585904987680     
 -2.230000000000000E-002   -0.404296168530350     
 -2.220000000000000E-002   -0.418399876011265     
 -2.210000000000000E-002   -0.432904588141896     
 -2.200000000000000E-002   -0.447817888423197     
 -2.190000000000000E-002   -0.463147292835329     
 -2.180000000000000E-002   -0.478900368323368     
 -2.170000000000000E-002   -0.495084587347233     
 -2.160000000000000E-002   -0.511707394857413     
 -2.150000000000000E-002   -0.528776158955586     
 -2.140000000000000E-002   -0.546298203832732     
 -2.130000000000000E-002   -0.564280777360414     
 -2.120000000000000E-002   -0.582731030645845     
 -2.110000000000000E-002   -0.601655992609340     
 -2.100000000000000E-002   -0.621062664695316     
 -2.090000000000000E-002   -0.640957798767181     
 -2.080000000000000E-002   -0.661348110682394     
 -2.070000000000000E-002   -0.682240168504320     
 -2.060000000000000E-002   -0.703640409609808     
 -2.050000000000000E-002   -0.725555007770670     
 -2.040000000000000E-002   -0.747990052676652     
 -2.030000000000000E-002   -0.770951415410032     
 -2.020000000000000E-002   -0.794444816030885     
 -2.010000000000000E-002   -0.818475655331750     
 -2.000000000000000E-002   -0.843049191448732     
 -1.990000000000000E-002   -0.868170410820709     
 -1.980000000000000E-002   -0.893844046847990     
 -1.970000000000000E-002   -0.920074570498189     
 -1.960000000000000E-002   -0.946866139115024     
 -1.950000000000000E-002   -0.974222590892009     
 -1.940000000000000E-002    -1.00214756783491     
 -1.930000000000000E-002    -1.03064421719773     
 -1.920000000000000E-002    -1.05971531212496     
 -1.910000000000000E-002    -1.08936342111724     
 -1.900000000000000E-002    -1.11959060947126     
 -1.890000000000000E-002    -1.15039853114734     
 -1.880000000000000E-002    -1.18178855073877     
 -1.870000000000000E-002    -1.21376137978434     
 -1.860000000000000E-002    -1.24631751744777     
 -1.850000000000000E-002    -1.27945683865257     
 -1.840000000000000E-002    -1.31317891717186     
 -1.830000000000000E-002    -1.34748263844252     
 -1.820000000000000E-002    -1.38236640367821     
 -1.810000000000000E-002    -1.41782816310999     
 -1.800000000000000E-002    -1.45386538421231     
 -1.790000000000000E-002    -1.49047479878511     
 -1.780000000000000E-002    -1.52765262941436     
 -1.770000000000000E-002    -1.56539455231834     
 -1.760000000000000E-002    -1.60369559602145     
 -1.750000000000000E-002    -1.64255024848406     
 -1.740000000000000E-002    -1.68195222715657     
 -1.730000000000000E-002    -1.72189471623910     
 -1.720000000000000E-002    -1.76236999699603     
 -1.710000000000000E-002    -1.80336985802294     
 -1.700000000000000E-002    -1.84488526154156     
 -1.690000000000000E-002    -1.88690652548383     
 -1.680000000000000E-002    -1.92942329123552     
 -1.670000000000000E-002    -1.97242430169875     
 -1.660000000000000E-002    -2.01589775384704     
 -1.650000000000000E-002    -2.05983083750659     
 -1.640000000000000E-002    -2.10421012684420     
 -1.630000000000000E-002    -2.14902139786371     
 -1.620000000000000E-002    -2.19424964830133     
 -1.610000000000000E-002    -2.23987897666477     
 -1.600000000000000E-002    -2.28589258225148     
 -1.590000000000000E-002    -2.33227301295210     
 -1.580000000000000E-002    -2.37900182873112     
 -1.570000000000000E-002    -2.42605985577380     
 -1.560000000000000E-002    -2.47342688056636     
 -1.550000000000000E-002    -2.52108209179939     
 -1.540000000000000E-002    -2.56900361599288     
 -1.530000000000000E-002    -2.61716884023398     
 -1.520000000000000E-002    -2.66555421835597     
 -1.510000000000000E-002    -2.71413525384336     
 -1.500000000000000E-002    -2.76288681952130     
 -1.490000000000000E-002    -2.81178257655191     
 -1.480000000000000E-002    -2.86079528203431     
 -1.470000000000000E-002    -2.90989718809751     
 -1.460000000000000E-002    -2.95905924107524     
 -1.450000000000000E-002    -3.00825188239087     
 -1.440000000000000E-002    -3.05744467377149     
 -1.430000000000000E-002    -3.10660614239061     
 -1.420000000000000E-002    -3.15570371257076     
 -1.410000000000000E-002    -3.20470461823513     
 -1.400000000000000E-002    -3.25357467335745     
 -1.390000000000000E-002    -3.30227919468483     
 -1.380000000000000E-002    -3.35078282989977     
 -1.370000000000000E-002    -3.39904886815434     
 -1.360000000000000E-002    -3.44704030895541     
 -1.350000000000000E-002    -3.49471942770348     
 -1.340000000000000E-002    -3.54204720703851     
 -1.330000000000000E-002    -3.58898446286998     
 -1.320000000000000E-002    -3.63549096778178     
 -1.310000000000000E-002    -3.68152579177009     
 -1.300000000000000E-002    -3.72704771785403     
 -1.290000000000000E-002    -3.77201431746497     
 -1.280000000000000E-002    -3.81638285961567     
 -1.270000000000000E-002    -3.86011025613849     
 -1.260000000000000E-002    -3.90315222449592     
 -1.250000000000000E-002    -3.94546484550585     
 -1.240000000000000E-002    -3.98700277991752     
 -1.230000000000000E-002    -4.02772065182964     
 -1.220000000000000E-002    -4.06757272391060     
 -1.210000000000000E-002    -4.10651295812082     
 -1.200000000000000E-002    -4.14449462375622     
 -1.190000000000000E-002    -4.18147055263528     
 -1.180000000000000E-002    -4.21739388058581     
 -1.170000000000000E-002    -4.25221733064744     
 -1.160000000000000E-002    -4.28589274365547     
 -1.150000000000000E-002    -4.31837285074528     
 -1.140000000000000E-002    -4.34960932663762     
 -1.130000000000000E-002    -4.37955414014953     
 -1.120000000000000E-002    -4.40815946992836     
 -1.110000000000000E-002    -4.43537739817835     
 -1.100000000000000E-002    -4.46115981929218     
 -1.090000000000000E-002    -4.48545885573770     
 -1.080000000000000E-002    -4.50822682039278     
 -1.070000000000000E-002    -4.52941643007320     
 -1.060000000000000E-002    -4.54898030078913     
 -1.050000000000000E-002    -4.56687164061970     
 -1.040000000000000E-002    -4.58304406909854     
 -1.030000000000000E-002    -4.59745152154458     
 -1.020000000000000E-002    -4.61004825261699     
 -1.010000000000000E-002    -4.62078957583555     
 -1.000000000000000E-002    -4.62963100577939     
 -9.899999999999999E-003    -4.63652889857738     
 -9.800000000000000E-003    -4.64144004032567     
 -9.699999999999999E-003    -4.64432262939533     
 -9.599999999999999E-003    -4.64513496384627     
 -9.500000000000000E-003    -4.64383613155070     
 -9.399999999999999E-003    -4.64038675326665     
 -9.299999999999999E-003    -4.63474820284165     
 -9.200000000000000E-003    -4.62688285986735     
 -9.099999999999999E-003    -4.61675452609611     
 -8.999999999999999E-003    -4.60432753155896     
 -8.900000000000000E-003    -4.58956793835031     
 -8.799999999999999E-003    -4.57244267000003     
 -8.699999999999999E-003    -4.55292073698590     
 -8.600000000000000E-003    -4.53097194628384     
 -8.499999999999999E-003    -4.50656797604115     
 -8.399999999999999E-003    -4.47968138771130     
 -8.300000000000000E-003    -4.45028675383542     
 -8.199999999999999E-003    -4.41835992587681     
 -8.100000000000000E-003    -4.38387914898754     
 -8.000000000000000E-003    -4.34682352499250     
 -7.899999999999999E-003    -4.30717440297977     
 -7.800000000000000E-003    -4.26491477955002     
 -7.699999999999999E-003    -4.22002933444652     
 -7.599999999999999E-003    -4.17250476404323     
 -7.499999999999999E-003    -4.12233034936260     
 -7.399999999999999E-003    -4.06949590017097     
 -7.299999999999999E-003    -4.01399463379799     
 -7.199999999999999E-003    -3.95582107540499     
 -7.100000000000000E-003    -3.89497243132529     
 -6.999999999999999E-003    -3.83144743175443     
 -6.899999999999999E-003    -3.76524723961514     
 -6.800000000000000E-003    -3.69637520260333     
 -6.699999999999999E-003    -3.62483678428009     
 -6.599999999999999E-003    -3.55064011221226     
 -6.499999999999999E-003    -3.47379506569048     
 -6.399999999999999E-003    -3.39431413213457     
 -6.299999999999999E-003    -3.31221211765391     
 -6.199999999999999E-003    -3.22750603012300     
 -6.100000000000000E-003    -3.14021537674512     
 -5.999999999999999E-003    -3.05036183620035     
 -5.899999999999999E-003    -2.95796957761428     
 -5.800000000000000E-003    -2.86306490748013     
 -5.699999999999999E-003    -2.76567693832878     
 -5.599999999999999E-003    -2.66583683549276     
 -5.499999999999999E-003    -2.56357829290310     
 -5.399999999999999E-003    -2.45893734270667     
 -5.299999999999999E-003    -2.35195242985500     
 -5.199999999999999E-003    -2.24266431094567     
 -5.099999999999999E-003    -2.13111598373792     
 -4.999999999999999E-003    -2.01735291372143     
 -4.899999999999999E-003    -1.90142291392834     
 -4.799999999999999E-003    -1.78337605374918     
 -4.699999999999999E-003    -1.66326455244974     
 -4.599999999999999E-003    -1.54114301522078     
 -4.499999999999999E-003    -1.41706816637103     
 -4.399999999999999E-003    -1.29109896859124     
 -4.299999999999999E-003    -1.16329650448149     
 -4.199999999999999E-003    -1.03372387691941     
 -4.099999999999999E-003   -0.902446326372675     
 -3.999999999999999E-003   -0.769531077714224     
 -3.899999999999999E-003   -0.635047294146899     
 -3.799999999999999E-003   -0.499066094718836     
 -3.699999999999999E-003   -0.361660487876819     
 -3.599999999999999E-003   -0.222905189551877     
 -3.499999999999999E-003   -8.287667723488387E-002
 -3.399999999999999E-003    5.834675708423330E-002
 -3.299999999999999E-003    0.200685332704431     
 -3.199999999999999E-003    0.344057680006035     
 -3.099999999999999E-003    0.488380945129685     
 -2.999999999999999E-003    0.633570818756397     
 -2.899999999999999E-003    0.779541595225175     
 -2.799999999999999E-003    0.926206440083948     
 -2.699999999999999E-003     1.07347716566790     
 -2.599999999999999E-003     1.22126462606662     
 -2.499999999999999E-003     1.36947847889157     
 -2.399999999999999E-003     1.51802756485011     
 -2.299999999999999E-003     1.66681991139154     
 -2.199999999999999E-003     1.81576252921628     
 -2.099999999999999E-003     1.96476193700363     
 -1.999999999999999E-003     2.11372397566885     
 -1.899999999999999E-003     2.26255398806419     
 -1.799999999999999E-003     2.41115686644979     
 -1.699999999999999E-003     2.55943729650051     
 -1.599999999999999E-003     2.70729939376219     
 -1.499999999999999E-003     2.85464747087171     
 -1.399999999999999E-003     3.00138577593861     
 -1.299999999999999E-003     3.14741819272523     
 -1.199999999999999E-003     3.29264925832390     
 -1.099999999999999E-003     3.43698336373981     
 -9.999999999999989E-004     3.58032548591701     
 -8.999999999999990E-004     3.72258107743372     
 -7.999999999999990E-004     3.86365567564009     
 -6.999999999999989E-004     4.00345590660671     
 -5.999999999999990E-004     4.14188887471660     
 -4.999999999999989E-004     4.27886239381549     
 -3.999999999999989E-004     4.41428558325130     
 -2.999999999999989E-004     4.54806791381654     
 -1.999999999999989E-004     4.68012053677582     
 -9.999999999999892E-005     4.81035566856826     
  1.084202172485504E-018     4.93868666731982     
  1.000000000000011E-004     5.06502834293588     
  2.000000000000011E-004     5.18929686403697     
  3.000000000000011E-004     5.31140986608063     
  4.000000000000011E-004     5.43128674750573     
  5.000000000000011E-004     5.54884855135777     
  6.000000000000011E-004     5.66401775102589     
  7.000000000000011E-004     5.77671946201651     
  8.000000000000011E-004     5.88687975423819     
  9.000000000000012E-004     5.99442766368437     
  1.000000000000001E-003     6.09929370492381     
  1.100000000000001E-003     6.20141091161472     
  1.200000000000001E-003     6.30071418210159     
  1.300000000000001E-003     6.39714081476133     
  1.400000000000001E-003     6.49063087301512     
  1.500000000000001E-003     6.58112569426911     
  1.600000000000001E-003     6.66857050923121     
  1.700000000000001E-003     6.75291236751076     
  1.800000000000001E-003     6.83410065711835     
  1.900000000000001E-003     6.91208809469971     
  2.000000000000001E-003     6.98682897533372     
  2.100000000000001E-003     7.05828149576758     
  2.200000000000001E-003     7.12640560144341     
  2.300000000000001E-003     7.19116451935251     
  2.400000000000001E-003     7.25252433038928     
  2.500000000000001E-003     7.31045374755880     
  2.600000000000001E-003     7.36492464511996     
  2.700000000000001E-003     7.41591147025858     
  2.800000000000001E-003     7.46339167123544     
  2.900000000000001E-003     7.50734515990461     
  3.000000000000001E-003     7.54775587105916     
  3.100000000000001E-003     7.58460933372829     
  3.200000000000001E-003     7.61789532172923     
  3.300000000000001E-003     7.64760553873475     
  3.400000000000001E-003     7.67373530505663     
  3.500000000000001E-003     7.69628257512559     
  3.600000000000001E-003     7.71524816405560     
  3.700000000000001E-003     7.73063589605454     
  3.800000000000001E-003     7.74245270221170     
  3.900000000000001E-003     7.75070798550929     
  4.000000000000001E-003     7.75541389763934     
  4.100000000000001E-003     7.75658608048417     
  4.200000000000001E-003     7.75424287506221     
  4.300000000000001E-003     7.74840471132244     
  4.400000000000001E-003     7.73909500465893     
  4.500000000000001E-003     7.72634030600641     
  4.600000000000002E-003     7.71016926504566     
  4.700000000000001E-003     7.69061367215352     
  4.800000000000001E-003     7.66770713488877     
  4.900000000000002E-003     7.64148684063164     
  5.000000000000001E-003     7.61199144457415     
  5.100000000000001E-003     7.57926240384906     
  5.200000000000001E-003     7.54334373290239     
  5.300000000000002E-003     7.50428148763635     
  5.400000000000001E-003     7.46212379453354     
  5.500000000000001E-003     7.41692116280931     
  5.600000000000002E-003     7.36872645146901     
  5.700000000000001E-003     7.31759393419731     
  5.800000000000001E-003     7.26358012762083     
  5.900000000000002E-003     7.20674369801651     
  6.000000000000001E-003     7.14714480859400     
  6.100000000000001E-003     7.08484542810711     
  6.200000000000002E-003     7.01990928910917     
  6.300000000000002E-003     6.95240191082340     
  6.400000000000001E-003     6.88238940462476     
  6.500000000000001E-003     6.80993998025646     
  6.600000000000002E-003     6.73512362761335     
  6.700000000000001E-003     6.65801061329654     
  6.800000000000001E-003     6.57867292385765     
  6.900000000000002E-003     6.49718387625521     
  7.000000000000001E-003     6.41361723428110     
  7.100000000000001E-003     6.32804834155694     
  7.200000000000002E-003     6.24055264179005     
  7.300000000000002E-003     6.15120720523054     
  7.400000000000001E-003     6.06008853864335     
  7.500000000000001E-003     5.96727525484752     
  7.600000000000002E-003     5.87284521439562     
  7.700000000000001E-003     5.77687722733145     
  7.800000000000001E-003     5.67945091360375     
  7.900000000000001E-003     5.58064528755179     
  8.000000000000002E-003     5.48053978144134     
  8.100000000000001E-003     5.37921440132369     
  8.200000000000001E-003     5.27674865039512     
  8.300000000000002E-003     5.17322196523617     
  8.400000000000001E-003     5.06871380816386     
  8.500000000000002E-003     4.96330348568094     
  8.600000000000002E-003     4.85707000620112     
  8.700000000000001E-003     4.75009194410317     
  8.800000000000002E-003     4.64244762982636     
  8.900000000000002E-003     4.53421446541339     
  9.000000000000001E-003     4.42546959107580     
  9.100000000000002E-003     4.31628919567747     
  9.200000000000002E-003     4.20674954072178     
  9.300000000000001E-003     4.09692502775727     
  9.400000000000002E-003     3.98688948858763     
  9.500000000000001E-003     3.87671641633487     
  9.600000000000001E-003     3.76647774065838     
  9.700000000000002E-003     3.65624455688142     
  9.800000000000001E-003     3.54608699449839     
  9.900000000000001E-003     3.43607388430262     
  1.000000000000000E-002     3.32627284334835     
  1.010000000000000E-002     3.21675038309798     
  1.020000000000000E-002     3.10757158407165     
  1.030000000000000E-002     2.99880037135721     
  1.040000000000000E-002     2.89049922051237     
  1.050000000000000E-002     2.78272913757744     
  1.060000000000000E-002     2.67554987624768     
  1.070000000000000E-002     2.56901962665065     
  1.080000000000000E-002     2.46319485457286     
  1.090000000000000E-002     2.35813065555537     
  1.100000000000000E-002     2.25388054109187     
  1.110000000000000E-002     2.15049646348115     
  1.120000000000000E-002     2.04802857264341     
  1.130000000000000E-002     1.94652547682512     
  1.140000000000000E-002     1.84603406566134     
  1.150000000000000E-002     1.74659970369101     
  1.160000000000000E-002     1.64826572799670     
  1.170000000000000E-002     1.55107401121016     
  1.180000000000000E-002     1.45506472978819     
  1.190000000000000E-002     1.36027621282468     
  1.200000000000000E-002     1.26674514128333     
  1.210000000000000E-002     1.17450649055602     
  1.220000000000000E-002     1.08359335087991     
  1.230000000000000E-002    0.994037165700289     
  1.240000000000000E-002    0.905867728058169     
  1.250000000000000E-002    0.819112905610035     
  1.260000000000000E-002    0.733798988133680     
  1.270000000000000E-002    0.649950479066173     
  1.280000000000000E-002    0.567590177875478     
  1.290000000000000E-002    0.486739222106079     
  1.300000000000000E-002    0.407417067312723     
  1.310000000000000E-002    0.329641489954050     
  1.320000000000000E-002    0.253428518107503     
  1.330000000000000E-002    0.178792678722057     
  1.340000000000000E-002    0.105746819429122     
  1.350000000000000E-002    3.430224513235822E-002
  1.360000000000000E-002   -3.553132257838619E-002
  1.370000000000000E-002   -0.103745679504620     
  1.380000000000000E-002   -0.170334180312115     
  1.390000000000000E-002   -0.235291594968754     
  1.400000000000000E-002   -0.298614192681364     
  1.410000000000000E-002   -0.360299659542955     
  1.420000000000000E-002   -0.420347036435079     
  1.430000000000000E-002   -0.478756789266966     
  1.440000000000000E-002   -0.535530676218314     
  1.450000000000000E-002   -0.590671764785987     
  1.460000000000000E-002   -0.644184480204037     
  1.470000000000000E-002   -0.696074359457146     
  1.480000000000000E-002   -0.746348202768148     
  1.490000000000000E-002   -0.795013973350433     
  1.500000000000000E-002   -0.842080791398141     
  1.510000000000000E-002   -0.887558832896485     
  1.520000000000000E-002   -0.931459321624082     
  1.530000000000000E-002   -0.973794500270709     
  1.540000000000000E-002    -1.01457759009474     
  1.550000000000000E-002    -1.05382279346424     
  1.560000000000000E-002    -1.09154509892892     
  1.570000000000000E-002    -1.12776045815170     
  1.580000000000000E-002    -1.16248558568566     
  1.590000000000000E-002    -1.19573808990201     
  1.600000000000000E-002    -1.22753613433497     
  1.610000000000000E-002    -1.25789875261276     
  1.620000000000000E-002    -1.28684558687560     
  1.630000000000000E-002    -1.31439698225623     
  1.640000000000000E-002    -1.34057378826794     
  1.650000000000000E-002    -1.36539755166613     
  1.660000000000000E-002    -1.38889015832619     
  1.670000000000000E-002    -1.41107413381881     
  1.680000000000000E-002    -1.43197233408458     
  1.690000000000000E-002    -1.45160809558149     
  1.700000000000000E-002    -1.47000514289480     
  1.710000000000000E-002    -1.48718759698100     
  1.720000000000000E-002    -1.50317988177582     
  1.730000000000000E-002    -1.51800664368994     
  1.740000000000000E-002    -1.53169270162424     
  1.750000000000000E-002    -1.54426322292255     
  1.760000000000000E-002    -1.55574357142798     
  1.770000000000000E-002    -1.56615912285892     
  1.780000000000000E-002    -1.57553540295368     
  1.790000000000000E-002    -1.58389811950105     
  1.800000000000000E-002    -1.59127299166198     
  1.810000000000000E-002    -1.59768572775151     
  1.820000000000000E-002    -1.60316209623449     
  1.830000000000000E-002    -1.60772781669064     
  1.840000000000000E-002    -1.61140870032503     
  1.850000000000000E-002    -1.61423025743056     
  1.860000000000000E-002    -1.61621811309653     
  1.870000000000000E-002    -1.61739764698261     