 -4.000000000000000E-002    0.000000000000000E+000
 -3.990000000000000E-002    0.000000000000000E+000
 -3.980000000000000E-002    0.000000000000000E+000
 -3.970000000000000E-002    0.000000000000000E+000
 -3.960000000000000E-002    0.000000000000000E+000
 -3.950000000000000E-002    0.000000000000000E+000
 -3.940000000000000E-002    0.000000000000000E+000
 -3.930000000000000E-002    0.000000000000000E+000
 -3.920000000000000E-002    0.000000000000000E+000
 -3.910000000000000E-002    0.000000000000000E+000
 -3.900000000000000E-002    0.000000000000000E+000
 -3.890000000000000E-002    0.000000000000000E+000
 -3.880000000000000E-002    0.000000000000000E+000
 -3.870000000000000E-002    0.000000000000000E+000
 -3.860000000000000E-002    0.000000000000000E+000
 -3.850000000000000E-002    0.000000000000000E+000
 -3.840000000000000E-002    0.000000000000000E+000
 -3.830000000000000E-002    0.000000000000000E+000
 -3.820000000000000E-002    0.000000000000000E+000
 -3.810000000000000E-002    0.000000000000000E+000
 -3.800000000000000E-002    0.000000000000000E+000
 -3.790000000000000E-002    0.000000000000000E+000
 -3.780000000000000E-002    0.000000000000000E+000
 -3.770000000000000E-002    0.000000000000000E+000
 -3.760000000000000E-002   -6.729333694173319E-048
 -3.750000000000000E-002   -4.665671393991862E-047
 -3.740000000000000E-002   -2.887490295350726E-046
 -3.730000000000000E-002   -1.205493035071753E-045
 -3.720000000000000E-002   -3.661245746765404E-045
 -3.710000000000000E-002   -9.400914034931168E-045
 -3.700000000000000E-002   -2.053510632738806E-044
 -3.690000000000000E-002   -3.104622042644504E-044
 -3.680000000000000E-002   -7.795638859270402E-045
 -3.670000000000000E-002    1.891937738990985E-043
 -3.660000000000000E-002    1.005080735404319E-042
 -3.650000000000000E-002    3.678061815184184E-042
 -3.640000000000000E-002    1.132753896183019E-041
 -3.630000000000000E-002    3.118084266017541E-041
 -3.620000000000000E-002    7.877014617379039E-041
 -3.610000000000000E-002    1.852195178447817E-040
 -3.600000000000000E-002    4.086661098467963E-040
 -3.590000000000000E-002    8.500058388510784E-040
 -3.580000000000000E-002    1.670376320408123E-039
 -3.570000000000000E-002    3.101786942704876E-039
 -3.560000000000000E-002    5.431136333300909E-039
 -3.550000000000000E-002    8.920072898676286E-039
 -3.540000000000000E-002    1.359847679830501E-038
 -3.530000000000000E-002    1.884127086588844E-038
 -3.520000000000000E-002    2.261650942409896E-038
 -3.510000000000000E-002    2.029715950725031E-038
 -3.500000000000000E-002    2.991404073155406E-039
 -3.490000000000000E-002   -4.448972841667686E-038
 -3.480000000000000E-002   -1.455957557552501E-037
 -3.470000000000000E-002   -3.330036837307201E-037
 -3.460000000000000E-002   -6.469935276587467E-037
 -3.450000000000000E-002   -1.128896759823886E-036
 -3.440000000000000E-002   -1.806703534296016E-036
 -3.430000000000000E-002   -2.669904377580879E-036
 -3.420000000000000E-002   -3.631768513712010E-036
 -3.410000000000000E-002   -4.480170296826029E-036
 -3.400000000000000E-002   -4.823245635107535E-036
 -3.390000000000000E-002   -4.043569846095091E-036
 -3.380000000000000E-002   -1.283152956670179E-036
 -3.370000000000000E-002    4.511334990501619E-036
 -3.360000000000000E-002    1.445256335884943E-035
 -3.350000000000000E-002    2.946646090803669E-035
 -3.340000000000000E-002    4.994746787996055E-035
 -3.330000000000000E-002    7.538172519244815E-035
 -3.320000000000000E-002    1.040840607952932E-034
 -3.310000000000000E-002    1.332853476230350E-034
 -3.300000000000000E-002    1.598787197639591E-034
 -3.290000000000000E-002    1.821344874649310E-034
 -3.280000000000000E-002    2.025491334353824E-034
 -3.270000000000000E-002    2.316149247101837E-034
 -3.260000000000000E-002    2.916069693538100E-034
 -3.250000000000000E-002    4.184457177482696E-034
 -3.240000000000000E-002    6.583868159789433E-034
 -3.230000000000000E-002    1.054927349356454E-033
 -3.220000000000000E-002    1.620399505727295E-033
 -3.210000000000000E-002    2.286884280768193E-033
 -3.200000000000000E-002    2.833365243279020E-033
 -3.190000000000000E-002    2.791334722731501E-033
 -3.180000000000000E-002    1.340405048430648E-033
 -3.170000000000000E-002   -2.780970031753546E-033
 -3.160000000000000E-002   -1.130741586103166E-032
 -3.150000000000000E-002   -2.636043124150269E-032
 -3.140000000000000E-002   -5.016769565689495E-032
 -3.130000000000000E-002   -8.450539399332209E-032
 -3.120000000000000E-002   -1.297914068300998E-031
 -3.110000000000000E-002   -1.837941088756099E-031
 -3.100000000000000E-002   -2.399909288167582E-031
 -3.090000000000000E-002   -2.857156694452063E-031
 -3.080000000000000E-002   -3.003719827877347E-031
 -3.070000000000000E-002   -2.541473187817176E-031
 -3.060000000000000E-002   -1.078140501257854E-031
 -3.050000000000000E-002    1.856815027615110E-031
 -3.040000000000000E-002    6.771032591280337E-031
 -3.030000000000000E-002    1.413620017516035E-030
 -3.020000000000000E-002    2.427858630982236E-030
 -3.010000000000000E-002    3.723209221362830E-030
 -3.000000000000000E-002    5.255727873694565E-030
 -2.990000000000000E-002    6.913450511090250E-030
 -2.980000000000000E-002    8.494364707222621E-030
 -2.970000000000000E-002    9.684601722871873E-030
 -2.960000000000000E-002    1.003858518605636E-029
 -2.950000000000000E-002    8.963000562017868E-030
 -2.940000000000000E-002    5.706950640280826E-030
 -2.930000000000000E-002   -6.381602858458024E-031
 -2.920000000000000E-002   -1.112274696366632E-029
 -2.910000000000000E-002   -2.689606594461690E-029
 -2.900000000000000E-002   -4.911747191963098E-029
 -2.890000000000000E-002   -7.879313142173693E-029
 -2.880000000000000E-002   -1.164985264372252E-028
 -2.870000000000000E-002   -1.619371406669363E-028
 -2.860000000000000E-002   -2.132837359630006E-028
 -2.850000000000000E-002   -2.662727980319276E-028
 -2.840000000000000E-002   -3.130276957216524E-028
 -2.830000000000000E-002   -3.406954701486967E-028
 -2.820000000000000E-002   -3.300607190937964E-028
 -2.810000000000000E-002   -2.544632658421846E-028
 -2.800000000000000E-002   -7.952940905700017E-029
 -2.790000000000000E-002    2.355771250466665E-028
 -2.780000000000000E-002    7.345146789788259E-028
 -2.770000000000000E-002    1.456790515088290E-027
 -2.760000000000000E-002    2.426613739738054E-027
 -2.750000000000000E-002    3.637095154422887E-027
 -2.740000000000000E-002    5.030028058512316E-027
 -2.730000000000000E-002    6.472595375746747E-027
 -2.720000000000000E-002    7.733864836414736E-027
 -2.710000000000000E-002    8.465770167508369E-027
 -2.700000000000000E-002    8.195189832260123E-027
 -2.690000000000000E-002    6.335439562261866E-027
 -2.680000000000000E-002    2.226416395499157E-027
 -2.670000000000000E-002   -4.787747018957267E-027
 -2.660000000000000E-002   -1.523701707011982E-026
 -2.650000000000000E-002   -2.935820785413596E-026
 -2.640000000000000E-002   -4.688832810908927E-026
 -2.630000000000000E-002   -6.683531699710004E-026
 -2.620000000000000E-002   -8.725580644787648E-026
 -2.610000000000000E-002   -1.050829973133903E-025
 -2.600000000000000E-002   -1.160601964693442E-025
 -2.590000000000000E-002   -1.148433020807747E-025
 -2.580000000000000E-002   -9.533597760975038E-026
 -2.570000000000000E-002   -5.131024553964071E-026
 -2.560000000000000E-002    2.265972275489718E-026
 -2.550000000000000E-002    1.299639177165227E-025
 -2.540000000000000E-002    2.704920484210758E-025
 -2.530000000000000E-002    4.390756116979726E-025
 -2.520000000000000E-002    6.240463057650213E-025
 -2.510000000000000E-002    8.061875199614843E-025
 -2.500000000000000E-002    9.584025565033773E-025
 -2.490000000000000E-002    1.046436497777216E-024
 -2.480000000000000E-002    1.030948953149005E-024
 -2.470000000000000E-002    8.711369659764520E-025
 -2.460000000000000E-002    5.299370007466870E-025
 -2.450000000000000E-002   -1.939521576695207E-026
 -2.440000000000000E-002   -7.858095532238034E-025
 -2.430000000000000E-002   -1.752872619448332E-024
 -2.420000000000000E-002   -2.872119141903577E-024
 -2.410000000000000E-002   -4.058596786857883E-024
 -2.400000000000000E-002   -5.189925057520821E-024
 -2.390000000000000E-002   -6.110067948504825E-024
 -2.380000000000000E-002   -6.638690846283458E-024
 -2.370000000000000E-002   -6.586404545434155E-024
 -2.360000000000000E-002   -5.775432407270618E-024
 -2.350000000000000E-002   -4.064345445804500E-024
 -2.340000000000000E-002   -1.374573931644198E-024
 -2.330000000000000E-002    2.284395241749687E-024
 -2.320000000000000E-002    6.794761729055256E-024
 -2.310000000000000E-002    1.191880836325456E-023
 -2.300000000000000E-002    1.729920138662506E-023
 -2.290000000000000E-002    2.247337100861760E-023
 -2.280000000000000E-002    2.690249494818567E-023
 -2.270000000000000E-002    3.001353135769270E-023
 -2.260000000000000E-002    3.125052242016969E-023
 -2.250000000000000E-002    3.012939569290900E-023
 -2.240000000000000E-002    2.628906682600648E-023
 -2.230000000000000E-002    1.953136742138038E-023
 -2.220000000000000E-002    9.843277435401688E-024
 -2.210000000000000E-002   -2.602473419697085E-024
 -2.200000000000000E-002   -1.746855809362085E-023
 -2.190000000000000E-002   -3.429119010003715E-023
 -2.180000000000000E-002   -5.252550604755723E-023
 -2.170000000000000E-002   -7.158423389377755E-023
 -2.160000000000000E-002   -9.085352340550888E-023
 -2.150000000000000E-002   -1.096706705943624E-022
 -2.140000000000000E-002   -1.272532051279444E-022
 -2.130000000000000E-002   -1.425780648929414E-022
 -2.120000000000000E-002   -1.542220733785607E-022
 -2.110000000000000E-002   -1.601905762096024E-022
 -2.100000000000000E-002   -1.577761389387542E-022
 -2.090000000000000E-002   -1.435021748062028E-022
 -2.080000000000000E-002   -1.132122863777365E-022
 -2.070000000000000E-002   -6.236273423184310E-023
 -2.060000000000000E-002    1.344057437718697E-023
 -2.050000000000000E-002    1.176490222928180E-022
 -2.040000000000000E-002    2.517527606023421E-022
 -2.030000000000000E-002    4.141195492103599E-022
 -2.020000000000000E-002    5.988290692044298E-022
 -2.010000000000000E-002    7.946901994480998E-022
 -2.000000000000000E-002    9.846642351855495E-022
 -1.990000000000000E-002    1.145924365798565E-021
 -1.980000000000000E-002    1.250757571095440E-021
 -1.970000000000000E-002    1.268446609832182E-021
 -1.960000000000000E-002    1.168163804013449E-021
 -1.950000000000000E-002    9.227658125213837E-022
 -1.940000000000000E-002    5.132158027809249E-022
 -1.930000000000000E-002   -6.680570846635411E-023
 -1.920000000000000E-002   -8.066783458626155E-022
 -1.910000000000000E-002   -1.675672103504447E-021
 -1.900000000000000E-002   -2.621503756251757E-021
 -1.890000000000000E-002   -3.571203992045049E-021
 -1.880000000000000E-002   -4.434683796229043E-021
 -1.870000000000000E-002   -5.111095243648623E-021
 -1.860000000000000E-002   -5.497715479119530E-021
 -1.850000000000000E-002   -5.500672545251917E-021
 -1.840000000000000E-002   -5.046459471366013E-021
 -1.830000000000000E-002   -4.092881375694852E-021
 -1.820000000000000E-002   -2.637931014228133E-021
 -1.810000000000000E-002   -7.251419998212706E-022
 -1.800000000000000E-002    1.555755988635945E-021
 -1.790000000000000E-002    4.073553316534304E-021
 -1.780000000000000E-002    6.665627089845513E-021
 -1.770000000000000E-002    9.152534896435474E-021
 -1.760000000000000E-002    1.135552295700244E-020
 -1.750000000000000E-002    1.311464550276599E-020
 -1.740000000000000E-002    1.430482320853330E-020
 -1.730000000000000E-002    1.484709923385330E-020
 -1.720000000000000E-002    1.471283576244058E-020
 -1.710000000000000E-002    1.391943895138865E-020
 -1.700000000000000E-002    1.251753094360685E-020
 -1.690000000000000E-002    1.057100698696479E-020
 -1.680000000000000E-002    8.133008365489448E-021
 -1.670000000000000E-002    5.222185672444321E-021
 -1.660000000000000E-002    1.804447099927683E-021
 -1.650000000000000E-002   -2.214503166312437E-021
 -1.640000000000000E-002   -6.981397656163933E-021
 -1.630000000000000E-002   -1.266975506290546E-020
 -1.620000000000000E-002   -1.943633646209382E-020
 -1.610000000000000E-002   -2.736293958771250E-020
 -1.600000000000000E-002   -3.639006841542211E-020
 -1.590000000000000E-002   -4.625205442949338E-020
 -1.580000000000000E-002   -5.642517489351981E-020
 -1.570000000000000E-002   -6.610081294241723E-020
 -1.560000000000000E-002   -7.419448822225749E-020
 -1.550000000000000E-002   -7.939826723167208E-020
 -1.540000000000000E-002   -8.027887923392593E-020
 -1.530000000000000E-002   -7.541765677913444E-020
 -1.520000000000000E-002   -6.358131137662437E-020
 -1.510000000000000E-002   -4.390623071624176E-020
 -1.500000000000000E-002   -1.607407658990607E-020
 -1.490000000000000E-002    1.954572258073268E-020
 -1.480000000000000E-002    6.180990971946511E-020
 -1.470000000000000E-002    1.087902847995738E-019
 -1.460000000000000E-002    1.578477467157377E-019
 -1.450000000000000E-002    2.057908904100550E-019
 -1.440000000000000E-002    2.491062788339552E-019
 -1.430000000000000E-002    2.842362282192807E-019
 -1.420000000000000E-002    3.078707868244730E-019
 -1.410000000000000E-002    3.172162062402505E-019
 -1.400000000000000E-002    3.102034375998397E-019
 -1.390000000000000E-002    2.856076645621750E-019
 -1.380000000000000E-002    2.430635274235603E-019
 -1.370000000000000E-002    1.829786808757025E-019
 -1.360000000000000E-002    1.063674792512389E-019
 -1.350000000000000E-002    1.464536483094700E-020
 -1.340000000000000E-002   -9.056330730401848E-020
 -1.330000000000000E-002   -2.075459477458693E-019
 -1.320000000000000E-002   -3.344992753346887E-019
 -1.310000000000000E-002   -4.693704470412229E-019
 -1.300000000000000E-002   -6.095347515284641E-019
 -1.290000000000000E-002   -7.513409552180790E-019
 -1.280000000000000E-002   -8.895898684422282E-019
 -1.270000000000000E-002   -1.017048299728305E-018
 -1.260000000000000E-002   -1.124119586590642E-018
 -1.250000000000000E-002   -1.198799975711221E-018
 -1.240000000000000E-002   -1.227032807755733E-018
 -1.230000000000000E-002   -1.193531696108633E-018
 -1.220000000000000E-002   -1.083086564261195E-018
 -1.210000000000000E-002   -8.822893634975108E-019
 -1.200000000000000E-002   -5.815380364392966E-019
 -1.190000000000000E-002   -1.771038780004817E-019
 -1.180000000000000E-002    3.270047025179127E-019
 -1.170000000000000E-002    9.176671663997105E-019
 -1.160000000000000E-002    1.572032818836510E-018
 -1.150000000000000E-002    2.257859159676739E-018
 -1.140000000000000E-002    2.934905564197492E-018
 -1.130000000000000E-002    3.557342829007046E-018
 -1.120000000000000E-002    4.076993691545921E-018
 -1.110000000000000E-002    4.447087310964972E-018
 -1.100000000000000E-002    4.626098096022460E-018
 -1.090000000000000E-002    4.581197277153269E-018
 -1.080000000000000E-002    4.290868931698539E-018
 -1.070000000000000E-002    3.746334105046157E-018
 -1.060000000000000E-002    2.951601446836382E-018
 -1.050000000000000E-002    1.922181104718242E-018
 -1.040000000000000E-002    6.827320398601835E-019
 -1.030000000000000E-002   -7.358559760263214E-019
 -1.020000000000000E-002   -2.299300738228136E-018
 -1.010000000000000E-002   -3.971978005911305E-018
 -1.000000000000000E-002   -5.717543252784794E-018
 -9.899999999999999E-003   -7.497705431997706E-018
 -9.800000000000000E-003   -9.269056837776291E-018
 -9.699999999999999E-003   -1.097828785975657E-017
 -9.599999999999999E-003   -1.255656438669723E-017
 -9.500000000000000E-003   -1.391423989195376E-017
 -9.399999999999999E-003   -1.493736122712614E-017
 -9.299999999999999E-003   -1.548749352044836E-017
 -9.200000000000000E-003   -1.540618961541279E-017
 -9.099999999999999E-003   -1.452500146073794E-017
 -8.999999999999999E-003   -1.268119695568008E-017
 -8.900000000000000E-003   -9.738460301087194E-018
 -8.799999999999999E-003   -5.610862174275456E-018
 -8.699999999999999E-003   -2.875130839483256E-019
 -8.600000000000000E-003    6.145417917447575E-018
 -8.499999999999999E-003    1.348890001289984E-017
 -8.399999999999999E-003    2.142490424097944E-017
 -8.300000000000000E-003    2.952264274111551E-017
 -8.199999999999999E-003    3.725867222749872E-017
 -8.100000000000000E-003    4.405066238305441E-017
 -8.000000000000000E-003    4.930276597405847E-017
 -7.899999999999999E-003    5.245860580721982E-017
 -7.800000000000000E-003    5.305631172962070E-017
 -7.699999999999999E-003    5.077906042289577E-017
 -7.599999999999999E-003    4.549432050609694E-017
 -7.499999999999999E-003    3.727583877261718E-017
 -7.399999999999999E-003    2.640410178541219E-017
 -7.299999999999999E-003    1.334362077807008E-017
 -7.199999999999999E-003   -1.301441540980426E-018
 -7.100000000000000E-003   -1.684845796122257E-017
 -6.999999999999999E-003   -3.260655112505681E-017
 -6.899999999999999E-003   -4.794571978338522E-017
 -6.800000000000000E-003   -6.235414482032060E-017
 -6.699999999999999E-003   -7.547339800654948E-017
 -6.599999999999999E-003   -8.710381037658364E-017
 -6.499999999999999E-003   -9.717628744916120E-017
 -6.399999999999999E-003   -1.056918795563442E-016
 -6.299999999999999E-003   -1.126361808380557E-016
 -6.199999999999999E-003   -1.178810281159356E-016
 -6.100000000000000E-003   -1.210900887764217E-016
 -5.999999999999999E-003   -1.216473329456119E-016
 -5.899999999999999E-003   -1.186268420676831E-016
 -5.800000000000000E-003   -1.108191734850239E-016
 -5.699999999999999E-003   -9.682322214199970E-017
 -5.599999999999999E-003   -7.520392664976392E-017
 -5.499999999999999E-003   -4.470612390197099E-017
 -5.399999999999999E-003   -4.504681636644690E-018
 -5.299999999999999E-003    4.553789236351939E-017
 -5.199999999999999E-003    1.046410623272109E-016
 -5.099999999999999E-003    1.709399988852232E-016
 -4.999999999999999E-003    2.414174646064022E-016
 -4.899999999999999E-003    3.119596447108139E-016
 -4.799999999999999E-003    3.775494145649776E-016
 -4.699999999999999E-003    4.325942711745557E-016
 -4.599999999999999E-003    4.713686016957796E-016
 -4.499999999999999E-003    4.885328686282391E-016
 -4.399999999999999E-003    4.796784687914557E-016
 -4.299999999999999E-003    4.418384372637042E-016
 -4.199999999999999E-003    3.739025134201460E-016
 -4.099999999999999E-003    2.768816460955381E-016
 -3.999999999999999E-003    1.539809647928046E-016
 -3.899999999999999E-003    1.046114390865176E-017
 -3.799999999999999E-003   -1.467067546763398E-016
 -3.699999999999999E-003   -3.093624257248258E-016
 -3.599999999999999E-003   -4.687985178425104E-016
 -3.499999999999999E-003   -6.164515492340432E-016
 -3.399999999999999E-003   -7.445607649087825E-016
 -3.299999999999999E-003   -8.467151207374562E-016
 -3.199999999999999E-003   -9.182233685355057E-016
 -3.099999999999999E-003   -9.562639087595732E-016
 -2.999999999999999E-003   -9.598035001378782E-016
 -2.899999999999999E-003   -9.293077018601775E-016
 -2.799999999999999E-003   -8.662978861889167E-016
 -2.699999999999999E-003   -7.728379559109376E-016
 -2.599999999999999E-003   -6.510464014662454E-016
 -2.499999999999999E-003   -5.027321565352138E-016
 -2.399999999999999E-003   -3.292361866294981E-016
 -2.299999999999999E-003   -1.315317465585436E-016
 -2.199999999999999E-003    8.940623246022992E-017
 -2.099999999999999E-003    3.319993838039452E-016
 -1.999999999999999E-003    5.933155629616108E-016
 -1.899999999999999E-003    8.682936124462689E-016
 -1.799999999999999E-003    1.149090142698698E-015
 -1.699999999999999E-003    1.424699620812864E-015
 -1.599999999999999E-003    1.680978943502998E-015
 -1.499999999999999E-003    1.901165063158447E-015
 -1.399999999999999E-003    2.066912741982951E-015
 -1.299999999999999E-003    2.159804857621978E-015
 -1.199999999999999E-003    2.163211389290566E-015
 -1.099999999999999E-003    2.064304074634480E-015
 -9.999999999999989E-004    1.855986144868502E-015
 -8.999999999999990E-004    1.538472735277108E-015
 -7.999999999999990E-004    1.120273300122988E-015
 -6.999999999999989E-004    6.183765317889746E-016
 -5.999999999999990E-004    5.751758386344146E-017
 -4.999999999999989E-004   -5.314822323250362E-016
 -3.999999999999989E-004   -1.114198634524911E-015
 -2.999999999999989E-004   -1.655685679358658E-015
 -1.999999999999989E-004   -2.123838951749922E-015
 -9.999999999999892E-005   -2.492657372586887E-015
  1.084202172485504E-018   -2.745003638653535E-015
  1.000000000000011E-004   -2.874497215910028E-015
  2.000000000000011E-004   -2.886255024049416E-015
  3.000000000000011E-004   -2.796320045973139E-015
  4.000000000000011E-004   -2.629772504752343E-015
  5.000000000000011E-004   -2.417681627357088E-015
  6.000000000000011E-004   -2.193208810581573E-015
  7.000000000000011E-004   -1.987295040208813E-015
  8.000000000000011E-004   -1.824432788578394E-015
  9.000000000000012E-004   -1.719039572132529E-015
  1.000000000000001E-003   -1.672891359178754E-015
  1.100000000000001E-003   -1.673962727941304E-015
  1.200000000000001E-003   -1.696858055874456E-015
  1.300000000000001E-003   -1.704834512803907E-015
  1.400000000000001E-003   -1.653225456792170E-015
  1.500000000000001E-003   -1.493910536812089E-015
  1.600000000000001E-003   -1.180356182870125E-015
  1.700000000000001E-003   -6.726915598028454E-016
  1.800000000000001E-003    5.769408806620241E-017
  1.900000000000001E-003    1.024475049111250E-015
  2.000000000000001E-003    2.223943847966754E-015
  2.100000000000001E-003    3.633920525331211E-015
  2.200000000000001E-003    5.213992484651120E-015
  2.300000000000001E-003    6.906879028820659E-015
  2.400000000000001E-003    8.640634465457331E-015
  2.500000000000001E-003    1.033133530218224E-014
  2.600000000000001E-003    1.188594676369104E-014
  2.700000000000001E-003    1.320515061230055E-014
  2.800000000000001E-003    1.418606994262963E-014
  2.900000000000001E-003    1.472497831962834E-014
  3.000000000000001E-003    1.472025569478940E-014
  3.100000000000001E-003    1.407593609895041E-014
  3.200000000000001E-003    1.270623345175586E-014
  3.300000000000001E-003    1.054134907955210E-014
  3.400000000000001E-003    7.534679448640399E-015
  3.500000000000001E-003    3.671283133383018E-015
  3.600000000000001E-003   -1.022886710538094E-015
  3.700000000000001E-003   -6.471803899906701E-015
  3.800000000000001E-003   -1.254139941474372E-014
  3.900000000000001E-003   -1.903412979740848E-014
  4.000000000000001E-003   -2.568752604773351E-014
  4.100000000000001E-003   -3.217796234134368E-014
  4.200000000000001E-003   -3.813061399603195E-014
  4.300000000000001E-003   -4.313602187748126E-014
  4.400000000000001E-003   -4.677300467678543E-014
  4.500000000000001E-003   -4.863689995866706E-014
  4.600000000000002E-003   -4.837137123751947E-014
  4.700000000000001E-003   -4.570132242590552E-014
  4.800000000000001E-003   -4.046403095253526E-014
  4.900000000000002E-003   -3.263538538261407E-014
  5.000000000000001E-003   -2.234819040398136E-014
  5.100000000000001E-003   -9.900069178135121E-015
  5.200000000000001E-003    4.250867779086157E-015
  5.300000000000002E-003    1.950326099823993E-014
  5.400000000000001E-003    3.514228591225717E-014
  5.500000000000001E-003    5.038017595182418E-014
  5.600000000000002E-003    6.440483241291520E-014
  5.700000000000001E-003    7.643269732880952E-014
  5.800000000000001E-003    8.576170317520971E-014
  5.900000000000002E-003    9.181985300452903E-014
  6.000000000000001E-003    9.420522814271996E-014
  6.100000000000001E-003    9.271402209570636E-014
  6.200000000000002E-003    8.735409142149794E-014
  6.300000000000002E-003    7.834287591457541E-014
  6.400000000000001E-003    6.608990593371837E-014
  6.500000000000001E-003    5.116539964155570E-014
  6.600000000000002E-003    3.425772531697100E-014
  6.700000000000001E-003    1.612329709447783E-014
  6.800000000000001E-003   -2.466889074337911E-015
  6.900000000000002E-003   -2.077981431653797E-014
  7.000000000000001E-003   -3.816798789254852E-014
  7.100000000000001E-003   -5.410837110476523E-014
  7.200000000000002E-003   -6.822999416916963E-014
  7.300000000000002E-003   -8.032839351487650E-014
  7.400000000000001E-003   -9.036581398108667E-014
  7.500000000000001E-003   -9.845736095730727E-014
  7.600000000000002E-003   -1.048437737766788E-013
  7.700000000000001E-003   -1.098524358638970E-013
  7.800000000000001E-003   -1.138486293159686E-013
  7.900000000000001E-003   -1.171796857154819E-013
  8.000000000000002E-003   -1.201150898693825E-013
  8.100000000000001E-003   -1.227862106871674E-013
  8.200000000000001E-003   -1.251297787796031E-013
  8.300000000000002E-003   -1.268394930726218E-013
  8.400000000000001E-003   -1.273314152937951E-013
  8.500000000000002E-003   -1.257282177049193E-013
  8.600000000000002E-003   -1.208680345786441E-013
  8.700000000000001E-003   -1.113427793841027E-013
  8.800000000000002E-003   -9.557035254614492E-014
  8.900000000000002E-003   -7.190272992074859E-014
  9.000000000000001E-003   -3.876981852729170E-014
  9.100000000000002E-003    5.144691091667097E-015
  9.200000000000002E-003    6.070259991284837E-014
  9.300000000000001E-003    1.280974445264268E-013
  9.400000000000002E-003    2.066435988672584E-013
  9.500000000000001E-003    2.945870814624800E-013
  9.600000000000001E-003    3.889607494420116E-013
  9.700000000000002E-003    4.855053560487495E-013
  9.800000000000001E-003    5.786800750444048E-013
  9.900000000000001E-003    6.617796433837426E-013
  1.000000000000000E-002    7.271720999665225E-013
  1.010000000000000E-002    7.666619897948879E-013
  1.020000000000000E-002    7.719749558080159E-013
  1.030000000000000E-002    7.353479684948694E-013
  1.040000000000000E-002    6.501984098478835E-013
  1.050000000000000E-002    5.118339632255986E-013
  1.060000000000000E-002    3.181556919807767E-013
  1.070000000000000E-002    7.029890919755015E-014
  1.080000000000000E-002   -2.268457842778841E-013
  1.090000000000000E-002   -5.642904440986368E-013
  1.100000000000000E-002   -9.288407076676855E-013
  1.110000000000000E-002   -1.303260717944145E-012
  1.120000000000000E-002   -1.666744248402627E-012
  1.130000000000000E-002   -1.995702422650945E-012
  1.140000000000000E-002   -2.264857274203489E-012
  1.150000000000000E-002   -2.448610451987538E-012
  1.160000000000000E-002   -2.522629030755887E-012
  1.170000000000000E-002   -2.465572789244582E-012
  1.180000000000000E-002   -2.260865954433957E-012
  1.190000000000000E-002   -1.898403709414398E-012
  1.200000000000000E-002   -1.376073193649458E-012
  1.210000000000000E-002   -7.009710818568275E-013
  1.220000000000000E-002    1.097977873041110E-013
  1.230000000000000E-002    1.028839179088471E-012
  1.240000000000000E-002    2.018782408014352E-012
  1.250000000000000E-002    3.033237559968579E-012
  1.260000000000000E-002    4.018407729291346E-012
  1.270000000000000E-002    4.915333255743785E-012
  1.280000000000000E-002    5.662699601960747E-012
  1.290000000000000E-002    6.200098080739836E-012
  1.300000000000000E-002    6.471596581901569E-012
  1.310000000000000E-002    6.429439050126012E-012
  1.320000000000000E-002    6.037666119113684E-012
  1.330000000000000E-002    5.275440368819084E-012
  1.340000000000000E-002    4.139846379819778E-012
  1.350000000000000E-002    2.647953856247967E-012
  1.360000000000000E-002    8.379589388790652E-013
  1.370000000000000E-002   -1.230761878224012E-012
  1.380000000000000E-002   -3.478777346108851E-012
  1.390000000000000E-002   -5.808952547823223E-012
  1.400000000000000E-002   -8.109999955626870E-012
  1.410000000000000E-002   -1.026112611781995E-011
  1.420000000000000E-002   -1.213760462030169E-011
  1.430000000000000E-002   -1.361702989222920E-011
  1.440000000000000E-002   -1.458595125775420E-011
  1.450000000000000E-002   -1.494654072447434E-011
  1.460000000000000E-002   -1.462291963214968E-011
  1.470000000000000E-002   -1.356676003521338E-011
  1.480000000000000E-002   -1.176180038918086E-011
  1.490000000000000E-002   -9.226947786744270E-012
  1.500000000000000E-002   -6.017714740775457E-012
  1.510000000000000E-002   -2.225796046026316E-012
  1.520000000000000E-002    2.023264748580316E-012
  1.530000000000000E-002    6.574299441227111E-012
  1.540000000000000E-002    1.124848311099451E-011
  1.550000000000000E-002    1.585076254664409E-011
  1.560000000000000E-002    2.017840380404497E-011
  1.570000000000000E-002    2.403019647617522E-011
  1.580000000000000E-002    2.721581602591705E-011
  1.590000000000000E-002    2.956481253562595E-011
  1.600000000000000E-002    3.093470688015118E-011
  1.610000000000000E-002    3.121770397790630E-011
  1.620000000000000E-002    3.034562781949197E-011
  1.630000000000000E-002    2.829277739278075E-011
  1.640000000000000E-002    2.507655517484894E-011
  1.650000000000000E-002    2.075584679518757E-011
  1.660000000000000E-002    1.542729995624261E-011
  1.670000000000000E-002    9.219826806442496E-012
  1.680000000000000E-002    2.287734650445496E-012
  1.690000000000000E-002   -5.196920289683628E-012
  1.700000000000000E-002   -1.305215216906837E-011
  1.710000000000000E-002   -2.109338308426132E-011
  1.720000000000000E-002   -2.913962733140229E-011
  1.730000000000000E-002   -3.701799065472619E-011
  1.740000000000000E-002   -4.456603279194541E-011
  1.750000000000000E-002   -5.163174628609629E-011
  1.760000000000000E-002   -5.807106418156856E-011
  1.770000000000000E-002   -6.374311633316167E-011
  1.780000000000000E-002   -6.850364873547545E-011
  1.790000000000000E-002   -7.219729088273753E-011
  1.800000000000000E-002   -7.464954777129726E-011
  1.810000000000000E-002   -7.565954421708631E-011
  1.820000000000000E-002   -7.499475367899992E-011
  1.830000000000000E-002   -7.238878858809387E-011
  1.840000000000000E-002   -6.754344838642309E-011
  1.850000000000000E-002   -6.013599808123912E-011
  1.860000000000000E-002   -4.983231198915153E-011
  1.870000000000000E-002   -3.630625206691163E-011