 -4.000000000000000E-002    0.000000000000000E+000
 -3.990000000000000E-002    0.000000000000000E+000
 -3.980000000000000E-002    0.000000000000000E+000
 -3.970000000000000E-002    0.000000000000000E+000
 -3.960000000000000E-002    0.000000000000000E+000
 -3.950000000000000E-002    0.000000000000000E+000
 -3.940000000000000E-002    0.000000000000000E+000
 -3.930000000000000E-002    0.000000000000000E+000
 -3.920000000000000E-002    0.000000000000000E+000
 -3.910000000000000E-002    0.000000000000000E+000
 -3.900000000000000E-002    0.000000000000000E+000
 -3.890000000000000E-002    0.000000000000000E+000
 -3.880000000000000E-002    0.000000000000000E+000
 -3.870000000000000E-002    0.000000000000000E+000
 -3.860000000000000E-002    0.000000000000000E+000
 -3.850000000000000E-002    0.000000000000000E+000
 -3.840000000000000E-002    0.000000000000000E+000
 -3.830000000000000E-002    0.000000000000000E+000
 -3.820000000000000E-002    0.000000000000000E+000
 -3.810000000000000E-002    0.000000000000000E+000
 -3.800000000000000E-002    0.000000000000000E+000
 -3.790000000000000E-002    0.000000000000000E+000
 -3.780000000000000E-002    0.000000000000000E+000
 -3.770000000000000E-002    0.000000000000000E+000
 -3.760000000000000E-002    0.000000000000000E+000
 -3.750000000000000E-002    0.000000000000000E+000
 -3.740000000000000E-002    0.000000000000000E+000
 -3.730000000000000E-002    0.000000000000000E+000
 -3.720000000000000E-002    0.000000000000000E+000
 -3.710000000000000E-002    0.000000000000000E+000
 -3.700000000000000E-002    0.000000000000000E+000
 -3.690000000000000E-002    0.000000000000000E+000
 -3.680000000000000E-002    0.000000000000000E+000
 -3.670000000000000E-002    0.000000000000000E+000
 -3.660000000000000E-002    0.000000000000000E+000
 -3.650000000000000E-002    0.000000000000000E+000
 -3.640000000000000E-002    0.000000000000000E+000
 -3.630000000000000E-002    0.000000000000000E+000
 -3.620000000000000E-002    0.000000000000000E+000
 -3.610000000000000E-002    0.000000000000000E+000
 -3.600000000000000E-002    0.000000000000000E+000
 -3.590000000000000E-002    0.000000000000000E+000
 -3.580000000000000E-002    0.000000000000000E+000
 -3.570000000000000E-002    0.000000000000000E+000
 -3.560000000000000E-002    0.000000000000000E+000
 -3.550000000000000E-002    0.000000000000000E+000
 -3.540000000000000E-002    0.000000000000000E+000
 -3.530000000000000E-002    0.000000000000000E+000
 -3.520000000000000E-002    0.000000000000000E+000
 -3.510000000000000E-002    0.000000000000000E+000
 -3.500000000000000E-002    0.000000000000000E+000
 -3.490000000000000E-002    0.000000000000000E+000
 -3.480000000000000E-002    0.000000000000000E+000
 -3.470000000000000E-002    0.000000000000000E+000
 -3.460000000000000E-002    0.000000000000000E+000
 -3.450000000000000E-002    0.000000000000000E+000
 -3.440000000000000E-002    0.000000000000000E+000
 -3.430000000000000E-002    0.000000000000000E+000
 -3.420000000000000E-002    0.000000000000000E+000
 -3.410000000000000E-002    0.000000000000000E+000
 -3.400000000000000E-002    0.000000000000000E+000
 -3.390000000000000E-002    0.000000000000000E+000
 -3.380000000000000E-002    0.000000000000000E+000
 -3.370000000000000E-002    0.000000000000000E+000
 -3.360000000000000E-002    0.000000000000000E+000
 -3.350000000000000E-002    0.000000000000000E+000
 -3.340000000000000E-002    0.000000000000000E+000
 -3.330000000000000E-002    0.000000000000000E+000
 -3.320000000000000E-002    0.000000000000000E+000
 -3.310000000000000E-002    0.000000000000000E+000
 -3.300000000000000E-002    0.000000000000000E+000
 -3.290000000000000E-002    0.000000000000000E+000
 -3.280000000000000E-002    0.000000000000000E+000
 -3.270000000000000E-002    0.000000000000000E+000
 -3.260000000000000E-002    0.000000000000000E+000
 -3.250000000000000E-002    0.000000000000000E+000
 -3.240000000000000E-002    0.000000000000000E+000
 -3.230000000000000E-002    0.000000000000000E+000
 -3.220000000000000E-002    0.000000000000000E+000
 -3.210000000000000E-002    0.000000000000000E+000
 -3.200000000000000E-002    0.000000000000000E+000
 -3.190000000000000E-002    0.000000000000000E+000
 -3.180000000000000E-002    0.000000000000000E+000
 -3.170000000000000E-002    0.000000000000000E+000
 -3.160000000000000E-002    0.000000000000000E+000
 -3.150000000000000E-002    0.000000000000000E+000
 -3.140000000000000E-002    0.000000000000000E+000
 -3.130000000000000E-002    0.000000000000000E+000
 -3.120000000000000E-002    0.000000000000000E+000
 -3.110000000000000E-002    0.000000000000000E+000
 -3.100000000000000E-002    0.000000000000000E+000
 -3.090000000000000E-002    0.000000000000000E+000
 -3.080000000000000E-002    0.000000000000000E+000
 -3.070000000000000E-002    0.000000000000000E+000
 -3.060000000000000E-002    0.000000000000000E+000
 -3.050000000000000E-002    0.000000000000000E+000
 -3.040000000000000E-002    0.000000000000000E+000
 -3.030000000000000E-002    0.000000000000000E+000
 -3.020000000000000E-002    0.000000000000000E+000
 -3.010000000000000E-002    0.000000000000000E+000
 -3.000000000000000E-002    0.000000000000000E+000
 -2.990000000000000E-002    0.000000000000000E+000
 -2.980000000000000E-002    0.000000000000000E+000
 -2.970000000000000E-002    0.000000000000000E+000
 -2.960000000000000E-002    0.000000000000000E+000
 -2.950000000000000E-002    0.000000000000000E+000
 -2.940000000000000E-002    0.000000000000000E+000
 -2.930000000000000E-002    0.000000000000000E+000
 -2.920000000000000E-002    0.000000000000000E+000
 -2.910000000000000E-002    0.000000000000000E+000
 -2.900000000000000E-002    0.000000000000000E+000
 -2.890000000000000E-002    0.000000000000000E+000
 -2.880000000000000E-002    0.000000000000000E+000
 -2.870000000000000E-002    0.000000000000000E+000
 -2.860000000000000E-002    0.000000000000000E+000
 -2.850000000000000E-002    0.000000000000000E+000
 -2.840000000000000E-002    0.000000000000000E+000
 -2.830000000000000E-002    0.000000000000000E+000
 -2.820000000000000E-002    0.000000000000000E+000
 -2.810000000000000E-002    0.000000000000000E+000
 -2.800000000000000E-002    0.000000000000000E+000
 -2.790000000000000E-002    0.000000000000000E+000
 -2.780000000000000E-002    0.000000000000000E+000
 -2.770000000000000E-002    0.000000000000000E+000
 -2.760000000000000E-002    0.000000000000000E+000
 -2.750000000000000E-002    0.000000000000000E+000
 -2.740000000000000E-002    0.000000000000000E+000
 -2.730000000000000E-002    0.000000000000000E+000
 -2.720000000000000E-002    0.000000000000000E+000
 -2.710000000000000E-002    0.000000000000000E+000
 -2.700000000000000E-002    0.000000000000000E+000
 -2.690000000000000E-002    0.000000000000000E+000
 -2.680000000000000E-002    0.000000000000000E+000
 -2.670000000000000E-002    0.000000000000000E+000
 -2.660000000000000E-002    0.000000000000000E+000
 -2.650000000000000E-002    0.000000000000000E+000
 -2.640000000000000E-002    0.000000000000000E+000
 -2.630000000000000E-002    0.000000000000000E+000
 -2.620000000000000E-002    0.000000000000000E+000
 -2.610000000000000E-002    0.000000000000000E+000
 -2.600000000000000E-002    0.000000000000000E+000
 -2.590000000000000E-002    0.000000000000000E+000
 -2.580000000000000E-002    0.000000000000000E+000
 -2.570000000000000E-002    0.000000000000000E+000
 -2.560000000000000E-002    0.000000000000000E+000
 -2.550000000000000E-002    0.000000000000000E+000
 -2.540000000000000E-002    0.000000000000000E+000
 -2.530000000000000E-002    0.000000000000000E+000
 -2.520000000000000E-002    0.000000000000000E+000
 -2.510000000000000E-002    0.000000000000000E+000
 -2.500000000000000E-002    0.000000000000000E+000
 -2.490000000000000E-002    0.000000000000000E+000
 -2.480000000000000E-002    0.000000000000000E+000
 -2.470000000000000E-002    0.000000000000000E+000
 -2.460000000000000E-002    0.000000000000000E+000
 -2.450000000000000E-002    0.000000000000000E+000
 -2.440000000000000E-002    0.000000000000000E+000
 -2.430000000000000E-002    0.000000000000000E+000
 -2.420000000000000E-002    0.000000000000000E+000
 -2.410000000000000E-002    0.000000000000000E+000
 -2.400000000000000E-002    0.000000000000000E+000
 -2.390000000000000E-002    0.000000000000000E+000
 -2.380000000000000E-002    0.000000000000000E+000
 -2.370000000000000E-002    0.000000000000000E+000
 -2.360000000000000E-002    0.000000000000000E+000
 -2.350000000000000E-002    0.000000000000000E+000
 -2.340000000000000E-002    0.000000000000000E+000
 -2.330000000000000E-002    0.000000000000000E+000
 -2.320000000000000E-002    0.000000000000000E+000
 -2.310000000000000E-002    0.000000000000000E+000
 -2.300000000000000E-002    0.000000000000000E+000
 -2.290000000000000E-002    0.000000000000000E+000
 -2.280000000000000E-002    0.000000000000000E+000
 -2.270000000000000E-002    0.000000000000000E+000
 -2.260000000000000E-002    0.000000000000000E+000
 -2.250000000000000E-002    0.000000000000000E+000
 -2.240000000000000E-002    0.000000000000000E+000
 -2.230000000000000E-002    0.000000000000000E+000
 -2.220000000000000E-002    0.000000000000000E+000
 -2.210000000000000E-002    0.000000000000000E+000
 -2.200000000000000E-002    0.000000000000000E+000
 -2.190000000000000E-002    0.000000000000000E+000
 -2.180000000000000E-002    0.000000000000000E+000
 -2.170000000000000E-002    0.000000000000000E+000
 -2.160000000000000E-002    0.000000000000000E+000
 -2.150000000000000E-002    0.000000000000000E+000
 -2.140000000000000E-002    0.000000000000000E+000
 -2.130000000000000E-002    0.000000000000000E+000
 -2.120000000000000E-002    0.000000000000000E+000
 -2.110000000000000E-002    0.000000000000000E+000
 -2.100000000000000E-002    0.000000000000000E+000
 -2.090000000000000E-002    0.000000000000000E+000
 -2.080000000000000E-002    0.000000000000000E+000
 -2.070000000000000E-002    0.000000000000000E+000
 -2.060000000000000E-002    0.000000000000000E+000
 -2.050000000000000E-002    0.000000000000000E+000
 -2.040000000000000E-002    0.000000000000000E+000
 -2.030000000000000E-002    0.000000000000000E+000
 -2.020000000000000E-002    0.000000000000000E+000
 -2.010000000000000E-002    0.000000000000000E+000
 -2.000000000000000E-002    0.000000000000000E+000
 -1.990000000000000E-002    0.000000000000000E+000
 -1.980000000000000E-002    0.000000000000000E+000
 -1.970000000000000E-002    0.000000000000000E+000
 -1.960000000000000E-002    0.000000000000000E+000
 -1.950000000000000E-002    0.000000000000000E+000
 -1.940000000000000E-002    0.000000000000000E+000
 -1.930000000000000E-002    0.000000000000000E+000
 -1.920000000000000E-002    0.000000000000000E+000
 -1.910000000000000E-002    0.000000000000000E+000
 -1.900000000000000E-002    0.000000000000000E+000
 -1.890000000000000E-002    0.000000000000000E+000
 -1.880000000000000E-002    0.000000000000000E+000
 -1.870000000000000E-002    0.000000000000000E+000
 -1.860000000000000E-002    0.000000000000000E+000
 -1.850000000000000E-002    0.000000000000000E+000
 -1.840000000000000E-002    0.000000000000000E+000
 -1.830000000000000E-002    0.000000000000000E+000
 -1.820000000000000E-002    0.000000000000000E+000
 -1.810000000000000E-002    0.000000000000000E+000
 -1.800000000000000E-002    0.000000000000000E+000
 -1.790000000000000E-002    0.000000000000000E+000
 -1.780000000000000E-002    0.000000000000000E+000
 -1.770000000000000E-002    0.000000000000000E+000
 -1.760000000000000E-002    0.000000000000000E+000
 -1.750000000000000E-002    0.000000000000000E+000
 -1.740000000000000E-002    0.000000000000000E+000
 -1.730000000000000E-002    0.000000000000000E+000
 -1.720000000000000E-002    0.000000000000000E+000
 -1.710000000000000E-002    0.000000000000000E+000
 -1.700000000000000E-002    0.000000000000000E+000
 -1.690000000000000E-002    0.000000000000000E+000
 -1.680000000000000E-002    0.000000000000000E+000
 -1.670000000000000E-002    0.000000000000000E+000
 -1.660000000000000E-002    0.000000000000000E+000
 -1.650000000000000E-002    0.000000000000000E+000
 -1.640000000000000E-002    0.000000000000000E+000
 -1.630000000000000E-002    0.000000000000000E+000
 -1.620000000000000E-002    0.000000000000000E+000
 -1.610000000000000E-002    0.000000000000000E+000
 -1.600000000000000E-002    0.000000000000000E+000
 -1.590000000000000E-002    0.000000000000000E+000
 -1.580000000000000E-002    0.000000000000000E+000
 -1.570000000000000E-002    0.000000000000000E+000
 -1.560000000000000E-002    0.000000000000000E+000
 -1.550000000000000E-002    0.000000000000000E+000
 -1.540000000000000E-002    0.000000000000000E+000
 -1.530000000000000E-002    0.000000000000000E+000
 -1.520000000000000E-002    0.000000000000000E+000
 -1.510000000000000E-002    0.000000000000000E+000
 -1.500000000000000E-002    0.000000000000000E+000
 -1.490000000000000E-002    0.000000000000000E+000
 -1.480000000000000E-002    0.000000000000000E+000
 -1.470000000000000E-002    0.000000000000000E+000
 -1.460000000000000E-002    0.000000000000000E+000
 -1.450000000000000E-002    0.000000000000000E+000
 -1.440000000000000E-002    0.000000000000000E+000
 -1.430000000000000E-002    0.000000000000000E+000
 -1.420000000000000E-002    0.000000000000000E+000
 -1.410000000000000E-002    0.000000000000000E+000
 -1.400000000000000E-002    0.000000000000000E+000
 -1.390000000000000E-002    0.000000000000000E+000
 -1.380000000000000E-002    0.000000000000000E+000
 -1.370000000000000E-002    0.000000000000000E+000
 -1.360000000000000E-002    0.000000000000000E+000
 -1.350000000000000E-002    0.000000000000000E+000
 -1.340000000000000E-002    0.000000000000000E+000
 -1.330000000000000E-002    0.000000000000000E+000
 -1.320000000000000E-002    0.000000000000000E+000
 -1.310000000000000E-002    0.000000000000000E+000
 -1.300000000000000E-002    0.000000000000000E+000
 -1.290000000000000E-002    0.000000000000000E+000
 -1.280000000000000E-002    0.000000000000000E+000
 -1.270000000000000E-002    0.000000000000000E+000
 -1.260000000000000E-002    0.000000000000000E+000
 -1.250000000000000E-002    0.000000000000000E+000
 -1.240000000000000E-002    0.000000000000000E+000
 -1.230000000000000E-002    0.000000000000000E+000
 -1.220000000000000E-002    0.000000000000000E+000
 -1.210000000000000E-002    0.000000000000000E+000
 -1.200000000000000E-002    0.000000000000000E+000
 -1.190000000000000E-002    0.000000000000000E+000
 -1.180000000000000E-002    0.000000000000000E+000
 -1.170000000000000E-002    0.000000000000000E+000
 -1.160000000000000E-002    0.000000000000000E+000
 -1.150000000000000E-002    0.000000000000000E+000
 -1.140000000000000E-002    0.000000000000000E+000
 -1.130000000000000E-002    0.000000000000000E+000
 -1.120000000000000E-002    0.000000000000000E+000
 -1.110000000000000E-002    0.000000000000000E+000
 -1.100000000000000E-002    0.000000000000000E+000
 -1.090000000000000E-002    0.000000000000000E+000
 -1.080000000000000E-002    0.000000000000000E+000
 -1.070000000000000E-002    0.000000000000000E+000
 -1.060000000000000E-002    0.000000000000000E+000
 -1.050000000000000E-002    0.000000000000000E+000
 -1.040000000000000E-002    0.000000000000000E+000
 -1.030000000000000E-002    0.000000000000000E+000
 -1.020000000000000E-002    0.000000000000000E+000
 -1.010000000000000E-002    0.000000000000000E+000
 -1.000000000000000E-002    0.000000000000000E+000
 -9.899999999999999E-003    0.000000000000000E+000
 -9.800000000000000E-003    0.000000000000000E+000
 -9.699999999999999E-003    0.000000000000000E+000
 -9.599999999999999E-003    0.000000000000000E+000
 -9.500000000000000E-003    0.000000000000000E+000
 -9.399999999999999E-003    0.000000000000000E+000
 -9.299999999999999E-003    0.000000000000000E+000
 -9.200000000000000E-003    0.000000000000000E+000
 -9.099999999999999E-003    0.000000000000000E+000
 -8.999999999999999E-003    0.000000000000000E+000
 -8.900000000000000E-003    0.000000000000000E+000
 -8.799999999999999E-003    0.000000000000000E+000
 -8.699999999999999E-003    0.000000000000000E+000
 -8.600000000000000E-003    0.000000000000000E+000
 -8.499999999999999E-003    0.000000000000000E+000
 -8.399999999999999E-003    0.000000000000000E+000
 -8.300000000000000E-003    0.000000000000000E+000
 -8.199999999999999E-003    0.000000000000000E+000
 -8.100000000000000E-003    0.000000000000000E+000
 -8.000000000000000E-003    0.000000000000000E+000
 -7.899999999999999E-003    0.000000000000000E+000
 -7.800000000000000E-003    0.000000000000000E+000
 -7.699999999999999E-003    0.000000000000000E+000
 -7.599999999999999E-003    0.000000000000000E+000
 -7.499999999999999E-003    0.000000000000000E+000
 -7.399999999999999E-003    0.000000000000000E+000
 -7.299999999999999E-003    0.000000000000000E+000
 -7.199999999999999E-003    0.000000000000000E+000
 -7.100000000000000E-003    0.000000000000000E+000
 -6.999999999999999E-003    0.000000000000000E+000
 -6.899999999999999E-003    0.000000000000000E+000
 -6.800000000000000E-003    0.000000000000000E+000
 -6.699999999999999E-003    0.000000000000000E+000
 -6.599999999999999E-003    0.000000000000000E+000
 -6.499999999999999E-003    0.000000000000000E+000
 -6.399999999999999E-003    0.000000000000000E+000
 -6.299999999999999E-003    0.000000000000000E+000
 -6.199999999999999E-003    0.000000000000000E+000
 -6.100000000000000E-003    0.000000000000000E+000
 -5.999999999999999E-003    0.000000000000000E+000
 -5.899999999999999E-003    0.000000000000000E+000
 -5.800000000000000E-003    0.000000000000000E+000
 -5.699999999999999E-003    0.000000000000000E+000
 -5.599999999999999E-003    0.000000000000000E+000
 -5.499999999999999E-003    0.000000000000000E+000
 -5.399999999999999E-003    0.000000000000000E+000
 -5.299999999999999E-003    0.000000000000000E+000
 -5.199999999999999E-003    0.000000000000000E+000
 -5.099999999999999E-003    0.000000000000000E+000
 -4.999999999999999E-003    0.000000000000000E+000
 -4.899999999999999E-003    0.000000000000000E+000
 -4.799999999999999E-003    0.000000000000000E+000
 -4.699999999999999E-003    0.000000000000000E+000
 -4.599999999999999E-003    0.000000000000000E+000
 -4.499999999999999E-003    0.000000000000000E+000
 -4.399999999999999E-003    0.000000000000000E+000
 -4.299999999999999E-003    0.000000000000000E+000
 -4.199999999999999E-003    0.000000000000000E+000
 -4.099999999999999E-003    0.000000000000000E+000
 -3.999999999999999E-003    0.000000000000000E+000
 -3.899999999999999E-003    0.000000000000000E+000
 -3.799999999999999E-003    0.000000000000000E+000
 -3.699999999999999E-003    0.000000000000000E+000
 -3.599999999999999E-003    0.000000000000000E+000
 -3.499999999999999E-003    0.000000000000000E+000
 -3.399999999999999E-003    0.000000000000000E+000
 -3.299999999999999E-003    0.000000000000000E+000
 -3.199999999999999E-003    0.000000000000000E+000
 -3.099999999999999E-003    0.000000000000000E+000
 -2.999999999999999E-003   -3.659052880032863E-049
 -2.899999999999999E-003   -3.659052880032863E-049
 -2.799999999999999E-003   -3.659052880032863E-049
 -2.699999999999999E-003    0.000000000000000E+000
 -2.599999999999999E-003    3.659052880032863E-049
 -2.499999999999999E-003    1.097715864009859E-048
 -2.399999999999999E-003    1.829526440016431E-048
 -2.299999999999999E-003    2.561337016023004E-048
 -2.199999999999999E-003    2.927242304026290E-048
 -2.099999999999999E-003    4.000564499948889E-048
 -1.999999999999999E-003    2.865146318279028E-048
 -1.899999999999999E-003   -6.839901106851193E-049
 -1.799999999999999E-003   -1.011017255873202E-047
 -1.699999999999999E-003   -1.706459666185268E-047
 -1.599999999999999E-003   -2.434722373531663E-047
 -1.499999999999999E-003   -2.954433553182957E-047
 -1.399999999999999E-003   -2.916821061151578E-047
 -1.299999999999999E-003   -8.445442452728526E-047
 -1.199999999999999E-003   -1.308208850612932E-046
 -1.099999999999999E-003   -1.734969834976847E-046
 -9.999999999999989E-004   -2.041364961489193E-046
 -8.999999999999990E-004   -1.691497379235141E-046
 -7.999999999999990E-004   -7.619095780990945E-047
 -6.999999999999989E-004    2.445296019110927E-046
 -5.999999999999990E-004    4.493836675847784E-046
 -4.999999999999989E-004    9.148310990304463E-046
 -3.999999999999989E-004    1.347984391187996E-045
 -2.999999999999989E-004    1.579947445946810E-045
 -1.999999999999989E-004    1.874608465192389E-045
 -9.999999999999892E-005    1.988685683454400E-045
  1.084202172485504E-018    1.321218242054740E-045
  1.000000000000011E-004    1.379250058673840E-045
  2.000000000000011E-004    9.301259096558507E-046
  3.000000000000011E-004   -1.025512656323146E-046
  4.000000000000011E-004   -2.617186324980083E-045
  5.000000000000011E-004   -4.653443941848451E-045
  6.000000000000011E-004   -7.783005123663965E-045
  7.000000000000011E-004   -1.018131286614411E-044
  8.000000000000011E-004   -1.216868212030285E-044
  9.000000000000012E-004   -1.172402219274582E-044
  1.000000000000001E-003   -8.590646229908234E-045
  1.100000000000001E-003   -3.486919266183356E-045
  1.200000000000001E-003    3.705068171850545E-045
  1.300000000000001E-003    1.263516554931145E-044
  1.400000000000001E-003    2.278811970517247E-044
  1.500000000000001E-003    3.271439317201787E-044
  1.600000000000001E-003    3.834470156774555E-044
  1.700000000000001E-003    3.894867624238160E-044
  1.800000000000001E-003    3.086200797001002E-044
  1.900000000000001E-003    1.341053033124329E-044
  2.000000000000001E-003   -1.426755660662468E-044
  2.100000000000001E-003   -4.932057124392493E-044
  2.200000000000001E-003   -8.742695524183034E-044
  2.300000000000001E-003   -1.210873682697203E-043
  2.400000000000001E-003   -1.417693408174200E-043
  2.500000000000001E-003   -1.402312848180819E-043
  2.600000000000001E-003   -1.076048516261959E-043
  2.700000000000001E-003   -3.870769076836293E-044
  2.800000000000001E-003    6.716620784842845E-044
  2.900000000000001E-003    2.026709645529560E-043
  3.000000000000001E-003    3.506572640239233E-043
  3.100000000000001E-003    4.848398565629571E-043
  3.200000000000001E-003    5.721336869919624E-043
  3.300000000000001E-003    5.740941185942337E-043
  3.400000000000001E-003    4.571793157441857E-043
  3.500000000000001E-003    1.976874510840982E-043
  3.600000000000001E-003   -2.094266332854041E-043
  3.700000000000001E-003   -7.424453045965821E-043
  3.800000000000001E-003   -1.345546051799183E-042
  3.900000000000001E-003   -1.925812970298299E-042
  4.000000000000001E-003   -2.363562822918010E-042
  4.100000000000001E-003   -2.515735496460201E-042
  4.200000000000001E-003   -2.242042515484575E-042
  4.300000000000001E-003   -1.429517315193782E-042
  4.400000000000001E-003   -2.236723828547072E-044
  4.500000000000001E-003    1.944193144732657E-042
  4.600000000000002E-003    4.321254196310929E-042
  4.700000000000001E-003    6.827650538368986E-042
  4.800000000000001E-003    9.061034239138305E-042
  4.900000000000002E-003    1.051830265379712E-041
  5.000000000000001E-003    1.065787607441128E-041
  5.100000000000001E-003    8.975379735241209E-042
  5.200000000000001E-003    5.105149081409611E-042
  5.300000000000002E-003   -1.066217476559425E-042
  5.400000000000001E-003   -9.303768122435289E-042
  5.500000000000001E-003   -1.894176417771266E-041
  5.600000000000002E-003   -2.885883723415939E-041
  5.700000000000001E-003   -3.751348900751584E-041
  5.800000000000001E-003   -4.306275262225483E-041
  5.900000000000002E-003   -4.356427671457637E-041
  6.000000000000001E-003   -3.725891051763102E-041
  6.100000000000001E-003   -2.290341898430522E-041
  6.200000000000002E-003   -1.230686784159681E-043
  6.300000000000002E-003    3.026848966189108E-041
  6.400000000000001E-003    6.603852440831013E-041
  6.500000000000001E-003    1.034568433939588E-040
  6.600000000000002E-003    1.374240374605302E-040
  6.700000000000001E-003    1.618270144417451E-040
  6.800000000000001E-003    1.701490001505464E-040
  6.900000000000002E-003    1.562963629532674E-040
  7.000000000000001E-003    1.155849530398839E-040
  7.100000000000001E-003    4.578093354881935E-041
  7.200000000000002E-003   -5.193044308032789E-041
  7.300000000000002E-003   -1.721914090356775E-040
  7.400000000000001E-003   -3.050991319461601E-040
  7.500000000000001E-003   -4.363271644537965E-040
  7.600000000000002E-003   -5.478625034423295E-040
  7.700000000000001E-003   -6.193715239725351E-040
  7.800000000000001E-003   -6.301821220882891E-040
  7.900000000000001E-003   -5.617699665296658E-040
  8.000000000000002E-003   -4.005539035644452E-040
  8.100000000000001E-003   -1.407666681930336E-040
  8.200000000000001E-003    2.129263383704880E-040
  8.300000000000002E-003    6.433614682883559E-040
  8.400000000000001E-003    1.119716567310479E-039
  8.500000000000002E-003    1.597532809512468E-039
  8.600000000000002E-003    2.020174307246342E-039
  8.700000000000001E-003    2.321887449100974E-039
  8.800000000000002E-003    2.432531011776716E-039
  8.900000000000002E-003    2.283919422007154E-039
  9.000000000000001E-003    1.817621707465397E-039
  9.100000000000002E-003    9.938793329169122E-040
  9.200000000000002E-003   -1.988461148853771E-040
  9.300000000000001E-003   -1.734380109352789E-039
  9.400000000000002E-003   -3.540311536719593E-039
  9.500000000000001E-003   -5.491563976963169E-039
  9.600000000000001E-003   -7.407431770614026E-039
  9.700000000000002E-003   -9.053595539316626E-039
  9.800000000000001E-003   -1.015072360617371E-038
  9.900000000000001E-003   -1.039114447316944E-038
  1.000000000000000E-002   -9.464720333012886E-039
  1.010000000000000E-002   -7.094359373102021E-039
  1.020000000000000E-002   -3.080574866073670E-039
  1.030000000000000E-002    2.646994900845705E-039
  1.040000000000000E-002    9.974925450108628E-039
  1.050000000000000E-002    1.855406256929129E-038
  1.060000000000000E-002    2.775814178690918E-038
  1.070000000000000E-002    3.666249931639543E-038
  1.080000000000000E-002    4.405346172385904E-038
  1.090000000000000E-002    4.847887060550683E-038
  1.100000000000000E-002    4.834860145868430E-038
  1.110000000000000E-002    4.209043626937365E-038
  1.120000000000000E-002    2.836097807276510E-038
  1.130000000000000E-002    6.303618674994046E-039
  1.140000000000000E-002   -2.416399213816861E-038
  1.150000000000000E-002   -6.206113447108046E-038
  1.160000000000000E-002   -1.050926903902727E-037
  1.170000000000000E-002   -1.494831979084652E-037
  1.180000000000000E-002   -1.899500627301003E-037
  1.190000000000000E-002   -2.198699997014381E-037
  1.200000000000000E-002   -2.316857886607652E-037
  1.210000000000000E-002   -2.175842859083811E-037
  1.220000000000000E-002   -1.704501194010765E-037
  1.230000000000000E-002   -8.506299170005663E-038
  1.240000000000000E-002    4.053886970854092E-038
  1.250000000000000E-002    2.036573012385960E-037
  1.260000000000000E-002    3.956743068235510E-037
  1.270000000000000E-002    6.011567611777227E-037
  1.280000000000000E-002    7.975777738893248E-037
  1.290000000000000E-002    9.559089727683872E-037
  1.300000000000000E-002    1.042306264362458E-036
  1.310000000000000E-002    1.021035914167850E-036
  1.320000000000000E-002    8.586657453953944E-037
  1.330000000000000E-002    5.293766802746968E-037
  1.340000000000000E-002    2.104201805225023E-038
  1.350000000000000E-002   -6.585073616514027E-037
  1.360000000000000E-002   -1.475839658974820E-036
  1.370000000000000E-002   -2.367897174869626E-036
  1.380000000000000E-002   -3.240695309130910E-036
  1.390000000000000E-002   -3.971841320480827E-036
  1.400000000000000E-002   -4.417795226962354E-036
  1.410000000000000E-002   -4.426437794935867E-036
  1.420000000000000E-002   -3.854943921650328E-036
  1.430000000000000E-002   -2.592215094243332E-036
  1.440000000000000E-002   -5.842362732357351E-037
  1.450000000000000E-002    2.140221500442172E-036
  1.460000000000000E-002    5.447013737088528E-036
  1.470000000000000E-002    9.081281562621804E-036
  1.480000000000000E-002    1.266378924452302E-035
  1.490000000000000E-002    1.570313847645763E-035
  1.500000000000000E-002    1.762715112856308E-035
  1.510000000000000E-002    1.783506540687039E-035
  1.520000000000000E-002    1.576978979561096E-035
  1.530000000000000E-002    1.100643906868571E-035
  1.540000000000000E-002    3.349961711707703E-036
  1.550000000000000E-002   -7.068781748103013E-036
  1.560000000000000E-002   -1.971210886337246E-035
  1.570000000000000E-002   -3.358538449443812E-035
  1.580000000000000E-002   -4.723367367561364E-035
  1.590000000000000E-002   -5.879945608055140E-035
  1.600000000000000E-002   -6.615154199272645E-035
  1.610000000000000E-002   -6.708848393353703E-035
  1.620000000000000E-002   -5.961061398182725E-035
  1.630000000000000E-002   -4.224379700042073E-035
  1.640000000000000E-002   -1.438613777793568E-035
  1.650000000000000E-002    2.336235422932983E-035
  1.660000000000000E-002    6.893614911297638E-035
  1.670000000000000E-002    1.186604651416510E-034
  1.680000000000000E-002    1.672801171557408E-034
  1.690000000000000E-002    2.082051433079777E-034
  1.700000000000000E-002    2.340006196478571E-034
  1.710000000000000E-002    2.371230073373218E-034
  1.720000000000000E-002    2.108732287887339E-034
  1.730000000000000E-002    1.504998883865696E-034
  1.740000000000000E-002    5.434824200201709E-035
  1.750000000000000E-002   -7.508357603873234E-035
  1.760000000000000E-002   -2.303441554238783E-034
  1.770000000000000E-002   -3.986570813940822E-034
  1.780000000000000E-002   -5.621402560872965E-034
  1.790000000000000E-002   -6.987439487261623E-034
  1.800000000000000E-002   -7.839747497996290E-034
  1.810000000000000E-002   -7.933881208258709E-034
  1.820000000000000E-002   -7.057273234592205E-034
  1.830000000000000E-002   -5.064715191999079E-034
  1.840000000000000E-002   -1.914413730474703E-034
  1.850000000000000E-002    2.299865961189683E-034
  1.860000000000000E-002    7.325701219813391E-034
  1.870000000000000E-002    1.274322575860056E-033