 -4.000000000000000E-002    0.000000000000000E+000
 -3.990000000000000E-002    0.000000000000000E+000
 -3.980000000000000E-002    0.000000000000000E+000
 -3.970000000000000E-002    0.000000000000000E+000
 -3.960000000000000E-002    0.000000000000000E+000
 -3.950000000000000E-002    0.000000000000000E+000
 -3.940000000000000E-002    0.000000000000000E+000
 -3.930000000000000E-002    0.000000000000000E+000
 -3.920000000000000E-002    0.000000000000000E+000
 -3.910000000000000E-002    0.000000000000000E+000
 -3.900000000000000E-002    0.000000000000000E+000
 -3.890000000000000E-002    0.000000000000000E+000
 -3.880000000000000E-002    0.000000000000000E+000
 -3.870000000000000E-002    0.000000000000000E+000
 -3.860000000000000E-002    0.000000000000000E+000
 -3.850000000000000E-002    0.000000000000000E+000
 -3.840000000000000E-002    0.000000000000000E+000
 -3.830000000000000E-002    0.000000000000000E+000
 -3.820000000000000E-002    0.000000000000000E+000
 -3.810000000000000E-002    0.000000000000000E+000
 -3.800000000000000E-002    0.000000000000000E+000
 -3.790000000000000E-002    0.000000000000000E+000
 -3.780000000000000E-002    0.000000000000000E+000
 -3.770000000000000E-002    0.000000000000000E+000
 -3.760000000000000E-002    0.000000000000000E+000
 -3.750000000000000E-002    0.000000000000000E+000
 -3.740000000000000E-002    0.000000000000000E+000
 -3.730000000000000E-002    0.000000000000000E+000
 -3.720000000000000E-002    0.000000000000000E+000
 -3.710000000000000E-002    0.000000000000000E+000
 -3.700000000000000E-002    0.000000000000000E+000
 -3.690000000000000E-002    0.000000000000000E+000
 -3.680000000000000E-002    0.000000000000000E+000
 -3.670000000000000E-002    0.000000000000000E+000
 -3.660000000000000E-002    0.000000000000000E+000
 -3.650000000000000E-002    0.000000000000000E+000
 -3.640000000000000E-002    0.000000000000000E+000
 -3.630000000000000E-002    0.000000000000000E+000
 -3.620000000000000E-002    0.000000000000000E+000
 -3.610000000000000E-002    0.000000000000000E+000
 -3.600000000000000E-002    0.000000000000000E+000
 -3.590000000000000E-002    0.000000000000000E+000
 -3.580000000000000E-002    0.000000000000000E+000
 -3.570000000000000E-002    0.000000000000000E+000
 -3.560000000000000E-002    0.000000000000000E+000
 -3.550000000000000E-002    0.000000000000000E+000
 -3.540000000000000E-002    0.000000000000000E+000
 -3.530000000000000E-002    0.000000000000000E+000
 -3.520000000000000E-002    0.000000000000000E+000
 -3.510000000000000E-002    0.000000000000000E+000
 -3.500000000000000E-002    0.000000000000000E+000
 -3.490000000000000E-002    0.000000000000000E+000
 -3.480000000000000E-002    0.000000000000000E+000
 -3.470000000000000E-002    0.000000000000000E+000
 -3.460000000000000E-002    0.000000000000000E+000
 -3.450000000000000E-002    0.000000000000000E+000
 -3.440000000000000E-002    0.000000000000000E+000
 -3.430000000000000E-002    0.000000000000000E+000
 -3.420000000000000E-002    0.000000000000000E+000
 -3.410000000000000E-002    0.000000000000000E+000
 -3.400000000000000E-002    0.000000000000000E+000
 -3.390000000000000E-002    0.000000000000000E+000
 -3.380000000000000E-002    0.000000000000000E+000
 -3.370000000000000E-002    0.000000000000000E+000
 -3.360000000000000E-002    0.000000000000000E+000
 -3.350000000000000E-002    0.000000000000000E+000
 -3.340000000000000E-002    0.000000000000000E+000
 -3.330000000000000E-002    0.000000000000000E+000
 -3.320000000000000E-002    0.000000000000000E+000
 -3.310000000000000E-002    0.000000000000000E+000
 -3.300000000000000E-002    0.000000000000000E+000
 -3.290000000000000E-002    0.000000000000000E+000
 -3.280000000000000E-002    0.000000000000000E+000
 -3.270000000000000E-002    0.000000000000000E+000
 -3.260000000000000E-002    0.000000000000000E+000
 -3.250000000000000E-002    0.000000000000000E+000
 -3.240000000000000E-002    0.000000000000000E+000
 -3.230000000000000E-002    0.000000000000000E+000
 -3.220000000000000E-002    0.000000000000000E+000
 -3.210000000000000E-002    0.000000000000000E+000
 -3.200000000000000E-002    0.000000000000000E+000
 -3.190000000000000E-002    0.000000000000000E+000
 -3.180000000000000E-002    0.000000000000000E+000
 -3.170000000000000E-002    0.000000000000000E+000
 -3.160000000000000E-002    0.000000000000000E+000
 -3.150000000000000E-002    0.000000000000000E+000
 -3.140000000000000E-002    0.000000000000000E+000
 -3.130000000000000E-002    0.000000000000000E+000
 -3.120000000000000E-002    0.000000000000000E+000
 -3.110000000000000E-002    0.000000000000000E+000
 -3.100000000000000E-002    0.000000000000000E+000
 -3.090000000000000E-002    0.000000000000000E+000
 -3.080000000000000E-002    0.000000000000000E+000
 -3.070000000000000E-002    0.000000000000000E+000
 -3.060000000000000E-002    0.000000000000000E+000
 -3.050000000000000E-002    0.000000000000000E+000
 -3.040000000000000E-002    0.000000000000000E+000
 -3.030000000000000E-002    0.000000000000000E+000
 -3.020000000000000E-002    0.000000000000000E+000
 -3.010000000000000E-002    0.000000000000000E+000
 -3.000000000000000E-002    0.000000000000000E+000
 -2.990000000000000E-002    0.000000000000000E+000
 -2.980000000000000E-002    0.000000000000000E+000
 -2.970000000000000E-002    0.000000000000000E+000
 -2.960000000000000E-002    0.000000000000000E+000
 -2.950000000000000E-002    0.000000000000000E+000
 -2.940000000000000E-002    0.000000000000000E+000
 -2.930000000000000E-002    0.000000000000000E+000
 -2.920000000000000E-002    0.000000000000000E+000
 -2.910000000000000E-002    0.000000000000000E+000
 -2.900000000000000E-002    0.000000000000000E+000
 -2.890000000000000E-002    0.000000000000000E+000
 -2.880000000000000E-002    0.000000000000000E+000
 -2.870000000000000E-002    0.000000000000000E+000
 -2.860000000000000E-002    0.000000000000000E+000
 -2.850000000000000E-002    0.000000000000000E+000
 -2.840000000000000E-002    0.000000000000000E+000
 -2.830000000000000E-002    0.000000000000000E+000
 -2.820000000000000E-002    0.000000000000000E+000
 -2.810000000000000E-002    0.000000000000000E+000
 -2.800000000000000E-002    0.000000000000000E+000
 -2.790000000000000E-002    0.000000000000000E+000
 -2.780000000000000E-002    0.000000000000000E+000
 -2.770000000000000E-002    0.000000000000000E+000
 -2.760000000000000E-002    0.000000000000000E+000
 -2.750000000000000E-002    0.000000000000000E+000
 -2.740000000000000E-002    0.000000000000000E+000
 -2.730000000000000E-002    0.000000000000000E+000
 -2.720000000000000E-002    0.000000000000000E+000
 -2.710000000000000E-002    0.000000000000000E+000
 -2.700000000000000E-002    0.000000000000000E+000
 -2.690000000000000E-002    0.000000000000000E+000
 -2.680000000000000E-002    0.000000000000000E+000
 -2.670000000000000E-002    0.000000000000000E+000
 -2.660000000000000E-002    0.000000000000000E+000
 -2.650000000000000E-002    0.000000000000000E+000
 -2.640000000000000E-002    0.000000000000000E+000
 -2.630000000000000E-002    0.000000000000000E+000
 -2.620000000000000E-002    0.000000000000000E+000
 -2.610000000000000E-002    0.000000000000000E+000
 -2.600000000000000E-002    0.000000000000000E+000
 -2.590000000000000E-002    0.000000000000000E+000
 -2.580000000000000E-002    0.000000000000000E+000
 -2.570000000000000E-002    0.000000000000000E+000
 -2.560000000000000E-002    0.000000000000000E+000
 -2.550000000000000E-002    0.000000000000000E+000
 -2.540000000000000E-002    0.000000000000000E+000
 -2.530000000000000E-002    0.000000000000000E+000
 -2.520000000000000E-002    0.000000000000000E+000
 -2.510000000000000E-002    0.000000000000000E+000
 -2.500000000000000E-002    0.000000000000000E+000
 -2.490000000000000E-002    0.000000000000000E+000
 -2.480000000000000E-002    0.000000000000000E+000
 -2.470000000000000E-002    0.000000000000000E+000
 -2.460000000000000E-002    0.000000000000000E+000
 -2.450000000000000E-002    0.000000000000000E+000
 -2.440000000000000E-002    0.000000000000000E+000
 -2.430000000000000E-002    0.000000000000000E+000
 -2.420000000000000E-002    0.000000000000000E+000
 -2.410000000000000E-002    0.000000000000000E+000
 -2.400000000000000E-002    0.000000000000000E+000
 -2.390000000000000E-002    0.000000000000000E+000
 -2.380000000000000E-002    0.000000000000000E+000
 -2.370000000000000E-002    0.000000000000000E+000
 -2.360000000000000E-002    0.000000000000000E+000
 -2.350000000000000E-002    0.000000000000000E+000
 -2.340000000000000E-002    0.000000000000000E+000
 -2.330000000000000E-002   -3.797297521671073E-048
 -2.320000000000000E-002   -1.139189256501322E-047
 -2.310000000000000E-002   -1.898648760835537E-047
 -2.300000000000000E-002   -3.771982223311299E-047
 -2.290000000000000E-002   -4.885856181452848E-047
 -2.280000000000000E-002   -3.733116124339683E-047
 -2.270000000000000E-002   -2.881860834153682E-048
 -2.260000000000000E-002    6.169266676486032E-047
 -2.250000000000000E-002    1.641251313050724E-046
 -2.240000000000000E-002    3.293652888499298E-046
 -2.230000000000000E-002    6.013016188636157E-046
 -2.220000000000000E-002    8.002317673263427E-046
 -2.210000000000000E-002    9.321499902402018E-046
 -2.200000000000000E-002    1.118202177914098E-045
 -2.190000000000000E-002    1.116144511768253E-045
 -2.180000000000000E-002    9.526775334805511E-046
 -2.170000000000000E-002    1.619580657056228E-046
 -2.160000000000000E-002   -7.295842190136170E-046
 -2.150000000000000E-002   -2.435617322896616E-045
 -2.140000000000000E-002   -4.545194328178257E-045
 -2.130000000000000E-002   -5.828887904112305E-045
 -2.120000000000000E-002   -7.004626434804518E-045
 -2.110000000000000E-002   -9.351942130014507E-045
 -2.100000000000000E-002   -1.082874127054570E-044
 -2.090000000000000E-002   -1.047702216232625E-044
 -2.080000000000000E-002   -9.405823433800448E-045
 -2.070000000000000E-002   -7.425884080304979E-045
 -2.060000000000000E-002   -4.154689493458432E-045
 -2.050000000000000E-002    7.392819523746823E-047
 -2.040000000000000E-002    5.962473963851411E-045
 -2.030000000000000E-002    1.328246759791529E-044
 -2.020000000000000E-002    2.458063222618899E-044
 -2.010000000000000E-002    4.149418154629776E-044
 -2.000000000000000E-002    6.537219786374214E-044
 -1.990000000000000E-002    9.792987512061044E-044
 -1.980000000000000E-002    1.421914713638649E-043
 -1.970000000000000E-002    1.962281562515337E-043
 -1.960000000000000E-002    2.549444832172339E-043
 -1.950000000000000E-002    3.030718518463362E-043
 -1.940000000000000E-002    3.195983258839968E-043
 -1.930000000000000E-002    2.698479763450742E-043
 -1.920000000000000E-002    1.118179756103336E-043
 -1.910000000000000E-002   -1.990360411714881E-043
 -1.900000000000000E-002   -6.974151431730564E-043
 -1.890000000000000E-002   -1.395304638043195E-042
 -1.880000000000000E-002   -2.256827266247154E-042
 -1.870000000000000E-002   -3.174345620324172E-042
 -1.860000000000000E-002   -3.954872749306878E-042
 -1.850000000000000E-002   -4.307766764133225E-042
 -1.840000000000000E-002   -3.864475108590959E-042
 -1.830000000000000E-002   -2.224891537996472E-042
 -1.820000000000000E-002    9.548226956931856E-043
 -1.810000000000000E-002    5.838098136508659E-042
 -1.800000000000000E-002    1.225167986565374E-041
 -1.790000000000000E-002    1.952495057028906E-041
 -1.780000000000000E-002    2.636850959096550E-041
 -1.770000000000000E-002    3.083768908865611E-041
 -1.760000000000000E-002    3.045553813344486E-041
 -1.750000000000000E-002    2.254397398153501E-041
 -1.740000000000000E-002    4.804134267574550E-042
 -1.730000000000000E-002   -2.386852865653305E-041
 -1.720000000000000E-002   -6.240851726510638E-041
 -1.710000000000000E-002   -1.066086203681713E-040
 -1.700000000000000E-002   -1.484193653766067E-040
 -1.690000000000000E-002   -1.758385350847732E-040
 -1.680000000000000E-002   -1.737689227903893E-040
 -1.670000000000000E-002   -1.261497258428046E-040
 -1.660000000000000E-002   -1.952577295515332E-041
 -1.650000000000000E-002    1.520623365458645E-040
 -1.640000000000000E-002    3.813866021814850E-040
 -1.630000000000000E-002    6.425467245930183E-040
 -1.620000000000000E-002    8.871666822376539E-040
 -1.610000000000000E-002    1.044131002812286E-039
 -1.600000000000000E-002    1.024815452471504E-039
 -1.590000000000000E-002    7.354074844273117E-040
 -1.580000000000000E-002    9.703288298530378E-041
 -1.570000000000000E-002   -9.271528920343710E-040
 -1.560000000000000E-002   -2.300863006797668E-039
 -1.550000000000000E-002   -3.884945567739219E-039
 -1.540000000000000E-002   -5.416798932474942E-039
 -1.530000000000000E-002   -6.508343957522065E-039
 -1.520000000000000E-002   -6.672248016742397E-039
 -1.510000000000000E-002   -5.384132128185912E-039
 -1.500000000000000E-002   -2.183871982367567E-039
 -1.490000000000000E-002    3.188470300293977E-039
 -1.480000000000000E-002    1.063660207675487E-038
 -1.470000000000000E-002    1.955767786426874E-038
 -1.460000000000000E-002    2.873416865485619E-038
 -1.450000000000000E-002    3.631144792524513E-038
 -1.440000000000000E-002    3.990501575012258E-038
 -1.430000000000000E-002    3.687196549279354E-038
 -1.420000000000000E-002    2.476006214295008E-038
 -1.410000000000000E-002    1.914561707627098E-039
 -1.400000000000000E-002   -3.182047454599769E-038
 -1.390000000000000E-002   -7.441694129676368E-038
 -1.380000000000000E-002   -1.211474125501670E-037
 -1.370000000000000E-002   -1.644208045542375E-037
 -1.360000000000000E-002   -1.941489963108028E-037
 -1.350000000000000E-002   -1.987835788352369E-037
 -1.340000000000000E-002   -1.670749970670276E-037
 -1.330000000000000E-002   -9.047245232817434E-038
 -1.320000000000000E-002    3.408379555156848E-038
 -1.310000000000000E-002    2.014074733024201E-037
 -1.300000000000000E-002    3.959335916671518E-037
 -1.290000000000000E-002    5.908865879054173E-037
 -1.280000000000000E-002    7.494075143402413E-037
 -1.270000000000000E-002    8.281341160056169E-037
 -1.260000000000000E-002    7.833975358300228E-037
 -1.250000000000000E-002    5.797094432661944E-037
 -1.240000000000000E-002    1.996233270719346E-037
 -1.230000000000000E-002   -3.465618707745311E-037
 -1.220000000000000E-002   -1.013289460559606E-036
 -1.210000000000000E-002   -1.716715329874250E-036
 -1.200000000000000E-002   -2.338304589053496E-036
 -1.190000000000000E-002   -2.736560277211048E-036
 -1.180000000000000E-002   -2.767204096520046E-036
 -1.170000000000000E-002   -2.310482295538382E-036
 -1.160000000000000E-002   -1.302348522211230E-036
 -1.150000000000000E-002    2.355985776533932E-037
 -1.140000000000000E-002    2.173946473559470E-036
 -1.130000000000000E-002    4.268094754810356E-036
 -1.120000000000000E-002    6.171833769059341E-036
 -1.110000000000000E-002    7.475620513283401E-036
 -1.100000000000000E-002    7.769268399272563E-036
 -1.090000000000000E-002    6.723559885066180E-036
 -1.080000000000000E-002    4.179520115227693E-036
 -1.070000000000000E-002    2.290275307744018E-037
 -1.060000000000000E-002   -4.732854217300758E-036
 -1.050000000000000E-002   -1.000338773856160E-035
 -1.040000000000000E-002   -1.463086503490543E-035
 -1.030000000000000E-002   -1.754298640038468E-035
 -1.020000000000000E-002   -1.773817986468526E-035
 -1.010000000000000E-002   -1.451748522546102E-035
 -1.000000000000000E-002   -7.718706801829995E-036
 -9.899999999999999E-003    2.097851901486249E-036
 -9.800000000000000E-003    1.356776851705986E-035
 -9.699999999999999E-003    2.459507531377449E-035
 -9.599999999999999E-003    3.261089625686036E-035
 -9.500000000000000E-003    3.501805352062088E-035
 -9.399999999999999E-003    2.978049501625897E-035
 -9.299999999999999E-003    1.607037673313115E-035
 -9.200000000000000E-003   -5.155465625649742E-036
 -9.099999999999999E-003   -3.080338324739020E-035
 -8.999999999999999E-003   -5.566957097922767E-035
 -8.900000000000000E-003   -7.296523616422434E-035
 -8.799999999999999E-003   -7.538869042181752E-035
 -8.699999999999999E-003   -5.668676085988831E-035
 -8.600000000000000E-003   -1.352027169244226E-035
 -8.499999999999999E-003    5.268050193403316E-035
 -8.399999999999999E-003    1.342872481455732E-034
 -8.300000000000000E-003    2.169342719549106E-034
 -8.199999999999999E-003    2.802928277461126E-034
 -8.100000000000000E-003    3.004403326403718E-034
 -8.000000000000000E-003    2.538607056837024E-034
 -7.899999999999999E-003    1.227764089947067E-034
 -7.800000000000000E-003   -9.886119103205128E-035
 -7.699999999999999E-003   -3.997524303491304E-034
 -7.599999999999999E-003   -7.472837679405549E-034
 -7.499999999999999E-003   -1.086566989488010E-033
 -7.399999999999999E-003   -1.343653080557325E-033
 -7.299999999999999E-003   -1.433620575999829E-033
 -7.199999999999999E-003   -1.273485612232481E-033
 -7.100000000000000E-003   -7.989283016636349E-034
 -6.999999999999999E-003    1.720805809720800E-035
 -6.899999999999999E-003    1.147617591637137E-033
 -6.800000000000000E-003    2.498019509939399E-033
 -6.699999999999999E-003    3.903128827749401E-033
 -6.599999999999999E-003    5.134238338744667E-033
 -6.499999999999999E-003    5.920239816180561E-033
 -6.399999999999999E-003    5.981958907691701E-033
 -6.299999999999999E-003    5.077261271899474E-033
 -6.199999999999999E-003    3.051845306706070E-033
 -6.100000000000000E-003   -1.115495620019441E-034
 -5.999999999999999E-003   -4.254190485934712E-033
 -5.899999999999999E-003   -9.021460067588932E-033
 -5.800000000000000E-003   -1.386947909915819E-032
 -5.699999999999999E-003   -1.810272812519779E-032
 -5.599999999999999E-003   -2.094288736592631E-032
 -5.499999999999999E-003   -2.162404859801908E-032
 -5.399999999999999E-003   -1.950436571032358E-032
 -5.299999999999999E-003   -1.418008285026291E-032
 -5.199999999999999E-003   -5.585569876422369E-033
 -5.099999999999999E-003    5.936889230087998E-033
 -4.999999999999999E-003    1.961071112279674E-032
 -4.899999999999999E-003    3.424976334626387E-032
 -4.799999999999999E-003    4.833470014302812E-032
 -4.699999999999999E-003    6.013367764067120E-032
 -4.599999999999999E-003    6.785364852960715E-032
 -4.499999999999999E-003    6.980482326319193E-032
 -4.399999999999999E-003    6.456063235598803E-032
 -4.299999999999999E-003    5.109995341299316E-032
 -4.199999999999999E-003    2.892565068910544E-032
 -4.099999999999999E-003   -1.837322239172450E-033
 -3.999999999999999E-003   -4.035323940215475E-032
 -3.899999999999999E-003   -8.498187260739671E-032
 -3.799999999999999E-003   -1.331692990590845E-031
 -3.699999999999999E-003   -1.813255432168553E-031
 -3.599999999999999E-003   -2.247130832242943E-031
 -3.499999999999999E-003   -2.573971028606659E-031
 -3.399999999999999E-003   -2.723354062061766E-031
 -3.299999999999999E-003   -2.617035506380247E-031
 -3.199999999999999E-003   -2.175514838697898E-031
 -3.099999999999999E-003   -1.328623676678734E-031
 -2.999999999999999E-003   -3.025433165978908E-033
 -2.899999999999999E-003    1.723524854748908E-031
 -2.799999999999999E-003    3.874865959296874E-031
 -2.699999999999999E-003    6.286163404130128E-031
 -2.599999999999999E-003    8.727846010209306E-031
 -2.499999999999999E-003    1.087675278286171E-030
 -2.399999999999999E-003    1.232975120180708E-030
 -2.299999999999999E-003    1.263623011703903E-030
 -2.199999999999999E-003    1.135088959975332E-030
 -2.099999999999999E-003    8.105129962984991E-031
 -1.999999999999999E-003    2.691297329865338E-031
 -1.899999999999999E-003   -4.850059387006391E-031
 -1.799999999999999E-003   -1.415357914931016E-030
 -1.699999999999999E-003   -2.447920011672990E-030
 -1.599999999999999E-003   -3.470544833935494E-030
 -1.499999999999999E-003   -4.338004569028997E-030
 -1.399999999999999E-003   -4.883636972560677E-030
 -1.299999999999999E-003   -4.937608260771703E-030
 -1.199999999999999E-003   -4.350745932860627E-030
 -1.099999999999999E-003   -3.021740967550069E-030
 -9.999999999999989E-004   -9.244257290282658E-031
 -8.999999999999990E-004    1.868978684433868E-030
 -7.999999999999990E-004    5.173071220937972E-030
 -6.999999999999989E-004    8.687106968345532E-030
 -5.999999999999990E-004    1.200859223595494E-029
 -4.999999999999989E-004    1.466404771337273E-029
 -3.999999999999989E-004    1.615615069669277E-029
 -2.999999999999989E-004    1.602382869002842E-029
 -1.999999999999989E-004    1.390942729202871E-029
 -9.999999999999892E-005    9.625051397663755E-030
  1.084202172485504E-018    3.208936194311501E-030
  1.000000000000011E-004   -5.037127622504267E-030
  2.000000000000011E-004   -1.453716339577850E-029
  3.000000000000011E-004   -2.446215388031600E-029
  4.000000000000011E-004   -3.378433411776192E-029
  5.000000000000011E-004   -4.136178908610120E-029
  6.000000000000011E-004   -4.604625050552927E-029
  7.000000000000011E-004   -4.680337900213139E-029
  8.000000000000011E-004   -4.283310507680240E-029
  9.000000000000012E-004   -3.367665877762332E-029
  1.000000000000001E-003   -1.929916000474188E-029
  1.100000000000001E-003   -1.395229644247082E-031
  1.200000000000001E-003    2.287625415366146E-029
  1.300000000000001E-003    4.835715558638428E-029
  1.400000000000001E-003    7.449999527733078E-029
  1.500000000000001E-003    9.916596784616099E-029
  1.600000000000001E-003    1.199742333831686E-028
  1.700000000000001E-003    1.344080527213003E-028
  1.800000000000001E-003    1.399348872262610E-028
  1.900000000000001E-003    1.341452248173021E-028
  2.000000000000001E-003    1.149230076599415E-028
  2.100000000000001E-003    8.065828457541505E-029
  2.200000000000001E-003    3.051402385900103E-029
  2.300000000000001E-003   -3.525320065154274E-029
  2.400000000000001E-003   -1.149326040653788E-028
  2.500000000000001E-003   -2.049926803124929E-028
  2.600000000000001E-003   -2.997686621383657E-028
  2.700000000000001E-003   -3.912811705872997E-028
  2.800000000000001E-003   -4.692811500937376E-028
  2.900000000000001E-003   -5.216165062833757E-028
  3.000000000000001E-003   -5.350025152814433E-028
  3.100000000000001E-003   -4.962382590812655E-028
  3.200000000000001E-003   -3.938604370045186E-028
  3.300000000000001E-003   -2.201463600397937E-028
  3.400000000000001E-003    2.669995555531131E-029
  3.500000000000001E-003    3.404351959874939E-028
  3.600000000000001E-003    7.050551514403352E-028
  3.700000000000001E-003    1.093827828157665E-027
  3.800000000000001E-003    1.469433666861125E-027
  3.900000000000001E-003    1.785515746846263E-027
  4.000000000000001E-003    1.989819848632615E-027
  4.100000000000001E-003    2.028939154116203E-027
  4.200000000000001E-003    1.854467460726977E-027
  4.300000000000001E-003    1.430116035236333E-027
  4.400000000000001E-003    7.391413184194931E-028
  4.500000000000001E-003   -2.087772563662884E-028
  4.600000000000002E-003   -1.372190721197343E-027
  4.700000000000001E-003   -2.675052786068842E-027
  4.800000000000001E-003   -4.007314979249260E-027
  4.900000000000002E-003   -5.229608567350981E-027
  5.000000000000001E-003   -6.182320207747110E-027
  5.100000000000001E-003   -6.698927232125616E-027
  5.200000000000001E-003   -6.622926370700995E-027
  5.300000000000002E-003   -5.827160219087741E-027
  5.400000000000001E-003   -4.233878657215860E-027
  5.500000000000001E-003   -1.833473072048476E-027
  5.600000000000002E-003    1.300353854112527E-027
  5.700000000000001E-003    5.001281993014628E-027
  5.800000000000001E-003    9.008921803017163E-027
  5.900000000000002E-003    1.297680294909805E-026
  6.000000000000001E-003    1.649067117876871E-026
  6.100000000000001E-003    1.909706520010966E-026
  6.200000000000002E-003    2.034117285356806E-026
  6.300000000000002E-003    1.981187090416222E-026
  6.400000000000001E-003    1.719091991644580E-026
  6.500000000000001E-003    1.230231923079990E-026
  6.600000000000002E-003    5.157180805421877E-027
  6.700000000000001E-003   -4.010818086327474E-027
  6.800000000000001E-003   -1.472442143163691E-026
  6.900000000000002E-003   -2.626076372204669E-026
  7.000000000000001E-003   -3.767203479270455E-026
  7.100000000000001E-003   -4.783103807613992E-026
  7.200000000000002E-003   -5.550239277198506E-026
  7.300000000000002E-003   -5.943762251901101E-026
  7.400000000000001E-003   -5.849012042836844E-026
  7.500000000000001E-003   -5.174341139742946E-026
  7.600000000000002E-003   -3.864363274147552E-026
  7.700000000000001E-003   -1.912477485633813E-026
  7.800000000000001E-003    6.286221391402574E-027
  7.900000000000001E-003    3.639847465515040E-026
  8.000000000000002E-003    6.933387908492507E-026
  8.100000000000001E-003    1.025635822074565E-025
  8.200000000000001E-003    1.330131232491707E-025
  8.300000000000002E-003    1.572405829092466E-025
  8.400000000000001E-003    1.716862214616602E-025
  8.500000000000002E-003    1.729842267610355E-025
  8.600000000000002E-003    1.583199059397348E-025
  8.700000000000001E-003    1.258073705172242E-025
  8.800000000000002E-003    7.485568883015052E-026
  8.900000000000002E-003    6.485610165055370E-027
  9.000000000000001E-003   -7.644289189654407E-026
  9.100000000000002E-003   -1.691332391952957E-025
  9.200000000000002E-003   -2.649187538598095E-025
  9.300000000000001E-003   -3.555204729713104E-025
  9.400000000000002E-003   -4.315069807086733E-025
  9.500000000000001E-003   -4.829529273694911E-025
  9.600000000000001E-003   -5.002691760446917E-025
  9.700000000000002E-003   -4.751591633017608E-025
  9.800000000000001E-003   -4.016331730264996E-025
  9.900000000000001E-003   -2.769964919235353E-025
  1.000000000000000E-002   -1.027129055158665E-025
  1.010000000000000E-002    1.149578418970602E-025
  1.020000000000000E-002    3.646477943852467E-025
  1.030000000000000E-002    6.299778826489873E-025
  1.040000000000000E-002    8.901249604406172E-025
  1.050000000000000E-002    1.120885480006703E-024
  1.060000000000000E-002    1.296223135793333E-024
  1.070000000000000E-002    1.390242961280430E-024
  1.080000000000000E-002    1.379483657552367E-024
  1.090000000000000E-002    1.245385535836230E-024
  1.100000000000000E-002    9.767474047752852E-025
  1.110000000000000E-002    5.719646894814836E-025
  1.120000000000000E-002    4.082944561240640E-026
  1.130000000000000E-002   -5.943224392418160E-025
  1.140000000000000E-002   -1.298314225882069E-024
  1.150000000000000E-002   -2.023822445511104E-024
  1.160000000000000E-002   -2.713177961548414E-024
  1.170000000000000E-002   -3.301295862732254E-024
  1.180000000000000E-002   -3.719686474648321E-024
  1.190000000000000E-002   -3.901424505318125E-024
  1.200000000000000E-002   -3.786852080755398E-024
  1.210000000000000E-002   -3.329713344038523E-024
  1.220000000000000E-002   -2.503343705031109E-024
  1.230000000000000E-002   -1.306447263333401E-024
  1.240000000000000E-002    2.320225286504097E-025
  1.250000000000000E-002    2.049449767969033E-024
  1.260000000000000E-002    4.048111000790923E-024
  1.270000000000000E-002    6.096255031023324E-024
  1.280000000000000E-002    8.032102461146432E-024
  1.290000000000000E-002    9.671094988204464E-024
  1.300000000000000E-002    1.081649650985670E-023
  1.310000000000000E-002    1.127323767521671E-023
  1.320000000000000E-002    1.086456264418850E-023
  1.330000000000000E-002    9.450723344224245E-024
  1.340000000000000E-002    6.948595745516135E-024
  1.350000000000000E-002    3.350690885775842E-024
  1.360000000000000E-002   -1.258170231309536E-024
  1.370000000000000E-002   -6.688632547733396E-024
  1.380000000000000E-002   -1.264106530091605E-023
  1.390000000000000E-002   -1.870832699727086E-023
  1.400000000000000E-002   -2.438876280402868E-023
  1.410000000000000E-002   -2.911045794949790E-023
  1.420000000000000E-002   -3.226710809575938E-023
  1.430000000000000E-002   -3.326469668705243E-023
  1.440000000000000E-002   -3.157707766106212E-023
  1.450000000000000E-002   -2.680716930458986E-023
  1.460000000000000E-002   -1.874928054978181E-023
  1.470000000000000E-002   -7.447054696618640E-024
  1.480000000000000E-002    6.759348770953434E-024
  1.490000000000000E-002    2.320340007017648E-023
  1.500000000000000E-002    4.088603701703345E-023
  1.510000000000000E-002    5.849857109397972E-023
  1.520000000000000E-002    7.447830216663071E-023
  1.530000000000000E-002    8.709835677786282E-023
  1.540000000000000E-002    9.459006268571528E-023
  1.550000000000000E-002    9.529311495234249E-023
  1.560000000000000E-002    8.782516184539500E-023
  1.570000000000000E-002    7.125909356094831E-023
  1.580000000000000E-002    4.529331626279297E-023
  1.590000000000000E-002    1.039841600733277E-023
  1.600000000000000E-002   -3.207750393880669E-023
  1.610000000000000E-002   -7.986204787108141E-023
  1.620000000000000E-002   -1.297853842831144E-022
  1.630000000000000E-002   -1.778920184815348E-022
  1.640000000000000E-002   -2.196431217444759E-022
  1.650000000000000E-002   -2.502082593911381E-022
  1.660000000000000E-002   -2.648367158122794E-022
  1.670000000000000E-002   -2.592904546229712E-022
  1.680000000000000E-002   -2.303110568100968E-022
  1.690000000000000E-002   -1.760859597078645E-022
  1.700000000000000E-002   -9.667243179289869E-023
  1.710000000000000E-002    5.666128178312830E-024
  1.720000000000000E-002    1.262570633275190E-022
  1.730000000000000E-002    2.579905155351798E-022
  1.740000000000000E-002    3.915008596817875E-022
  1.750000000000000E-002    5.155795066123924E-022
  1.760000000000000E-002    6.178233382529987E-022
  1.770000000000000E-002    6.855044932300174E-022
  1.780000000000000E-002    7.066231774884238E-022
  1.790000000000000E-002    6.710828194234382E-022
  1.800000000000000E-002    5.719062793824028E-022
  1.810000000000000E-002    4.063904747094728E-022
  1.820000000000000E-002    1.770886699563916E-022
  1.830000000000000E-002   -1.074978032556077E-022
  1.840000000000000E-002   -4.326293066268086E-022
  1.850000000000000E-002   -7.775339071445179E-022
  1.860000000000000E-002   -1.116175189024878E-021
  1.870000000000000E-002   -1.418610112235173E-021