 -4.000000000000000E-002    0.000000000000000E+000
 -3.990000000000000E-002    0.000000000000000E+000
 -3.980000000000000E-002    0.000000000000000E+000
 -3.970000000000000E-002    0.000000000000000E+000
 -3.960000000000000E-002    0.000000000000000E+000
 -3.950000000000000E-002    2.246215005769196E-021
 -3.940000000000000E-002    2.523171255440458E-020
 -3.930000000000000E-002    1.538883770707026E-019
 -3.920000000000000E-002    6.732978083294145E-019
 -3.910000000000000E-002    2.358502629210567E-018
 -3.900000000000000E-002    7.005637052302661E-018
 -3.890000000000000E-002    1.826388537009324E-017
 -3.880000000000000E-002    4.273039842676284E-017
 -3.870000000000000E-002    9.106984734182095E-017
 -3.860000000000000E-002    1.786027250243127E-016
 -3.850000000000000E-002    3.243960908391055E-016
 -3.840000000000000E-002    5.474673145329322E-016
 -3.830000000000000E-002    8.584262356183983E-016
 -3.820000000000000E-002    1.244946119581395E-015
 -3.810000000000000E-002    1.650119915848235E-015
 -3.800000000000000E-002    1.944255685131933E-015
 -3.790000000000000E-002    1.893121231884526E-015
 -3.780000000000000E-002    1.129007862793265E-015
 -3.770000000000000E-002   -8.651189899805850E-016
 -3.760000000000000E-002   -4.744353140225517E-015
 -3.750000000000000E-002   -1.124687160353943E-014
 -3.740000000000000E-002   -2.107857315120873E-014
 -3.730000000000000E-002   -3.472444432992899E-014
 -3.720000000000000E-002   -5.218254695227256E-014
 -3.710000000000000E-002   -7.263095131275057E-014
 -3.700000000000000E-002   -9.405754413460065E-014
 -3.690000000000000E-002   -1.129058905078752E-013
 -3.680000000000000E-002   -1.238140096209053E-013
 -3.670000000000000E-002   -1.195427606070636E-013
 -3.660000000000000E-002   -9.120086523955008E-014
 -3.650000000000000E-002   -2.886867792621911E-014
 -3.640000000000000E-002    7.730200645486540E-014
 -3.630000000000000E-002    2.354835389874447E-013
 -3.620000000000000E-002    4.501065727357076E-013
 -3.610000000000000E-002    7.194671331232440E-013
 -3.600000000000000E-002    1.033242804484994E-012
 -3.590000000000000E-002    1.370253701325108E-012
 -3.580000000000000E-002    1.696883331541385E-012
 -3.570000000000000E-002    1.966616465637012E-012
 -3.560000000000000E-002    2.121137923819737E-012
 -3.550000000000000E-002    2.093352437189545E-012
 -3.540000000000000E-002    1.812531102628862E-012
 -3.530000000000000E-002    1.211557856684184E-012
 -3.520000000000000E-002    2.359684914936321E-013
 -3.510000000000000E-002   -1.145839803647399E-012
 -3.500000000000000E-002   -2.932151000019148E-012
 -3.490000000000000E-002   -5.078398935236052E-012
 -3.480000000000000E-002   -7.489886138993653E-012
 -3.470000000000000E-002   -1.001809072462228E-011
 -3.460000000000000E-002   -1.246174822386434E-011
 -3.450000000000000E-002   -1.457357256688235E-011
 -3.440000000000000E-002   -1.607299680165311E-011
 -3.430000000000000E-002   -1.666470573751357E-011
 -3.420000000000000E-002   -1.606208420684800E-011
 -3.410000000000000E-002   -1.401403315214053E-011
 -3.400000000000000E-002   -1.033308102733019E-011
 -3.390000000000000E-002   -4.922320988603491E-012
 -3.380000000000000E-002    2.201403971142533E-012
 -3.370000000000000E-002    1.089052182007558E-011
 -3.360000000000000E-002    2.085797556744814E-011
 -3.350000000000000E-002    3.167805985224208E-011
 -3.340000000000000E-002    4.279737783919885E-011
 -3.330000000000000E-002    5.355555209504177E-011
 -3.320000000000000E-002    6.321447945986407E-011
 -3.310000000000000E-002    7.099423267902878E-011
 -3.300000000000000E-002    7.611323509526370E-011
 -3.290000000000000E-002    7.783027912810588E-011
 -3.280000000000000E-002    7.548601202312165E-011
 -3.270000000000000E-002    6.854209640653029E-011
 -3.260000000000000E-002    5.661676566458919E-011
 -3.250000000000000E-002    3.951619198260609E-011
 -3.240000000000000E-002    1.726167447135809E-011
 -3.230000000000000E-002   -9.887089423164113E-012
 -3.220000000000000E-002   -4.141232949736865E-011
 -3.210000000000000E-002   -7.652226878744025E-011
 -3.200000000000000E-002   -1.141397548428903E-010
 -3.190000000000000E-002   -1.528973908068039E-010
 -3.180000000000000E-002   -1.911420808245712E-010
 -3.170000000000000E-002   -2.269528683828767E-010
 -3.160000000000000E-002   -2.581765265081049E-010
 -3.150000000000000E-002   -2.824852422901839E-010
 -3.140000000000000E-002   -2.974598910518915E-010
 -3.130000000000000E-002   -3.007007174673576E-010
 -3.120000000000000E-002   -2.899648967110807E-010
 -3.110000000000000E-002   -2.633270342536260E-010
 -3.100000000000000E-002   -2.193556302174259E-010
 -3.090000000000000E-002   -1.572948704218715E-010
 -3.080000000000000E-002   -7.723832154275150E-011
 -3.070000000000000E-002    1.972091321684495E-011
 -3.060000000000000E-002    1.313799402579981E-010
 -3.050000000000000E-002    2.543711468440584E-010
 -3.040000000000000E-002    3.841759679395677E-010
 -3.030000000000000E-002    5.152170531406662E-010
 -3.020000000000000E-002    6.410331052653470E-010
 -3.010000000000000E-002    7.545352605514593E-010
 -3.000000000000000E-002    8.483372116017966E-010
 -2.990000000000000E-002    9.151450969586872E-010
 -2.980000000000000E-002    9.481880130168899E-010
 -2.970000000000000E-002    9.416647726848909E-010
 -2.960000000000000E-002    8.911798025547779E-010
 -2.950000000000000E-002    7.941400183022222E-010
 -2.940000000000000E-002    6.500838053501542E-010
 -2.930000000000000E-002    4.609162092544182E-010
 -2.920000000000000E-002    2.310276483207185E-010
 -2.910000000000000E-002   -3.272124045372394E-011
 -2.900000000000000E-002   -3.211593394108803E-010
 -2.890000000000000E-002   -6.231122207262264E-010
 -2.880000000000000E-002   -9.258516408704219E-010
 -2.870000000000000E-002   -1.215672062916692E-009
 -2.860000000000000E-002   -1.478569538246319E-009
 -2.850000000000000E-002   -1.700990051348558E-009
 -2.840000000000000E-002   -1.870603884907481E-009
 -2.830000000000000E-002   -1.977058330895608E-009
 -2.820000000000000E-002   -2.012654538544286E-009
 -2.810000000000000E-002   -1.972895072782216E-009
 -2.800000000000000E-002   -1.856851382793156E-009
 -2.790000000000000E-002   -1.667309823388833E-009
 -2.780000000000000E-002   -1.410667184388453E-009
 -2.770000000000000E-002   -1.096566170773742E-009
 -2.760000000000000E-002   -7.372824915528689E-010
 -2.750000000000000E-002   -3.468998613155330E-010
 -2.740000000000000E-002    5.966724324183124E-011
 -2.730000000000000E-002    4.677220346105170E-010
 -2.720000000000000E-002    8.638083251337757E-010
 -2.710000000000000E-002    1.236606215025438E-009
 -2.700000000000000E-002    1.577599431639311E-009
 -2.690000000000000E-002    1.881432661661725E-009
 -2.680000000000000E-002    2.145901122572452E-009
 -2.670000000000000E-002    2.371553338315110E-009
 -2.660000000000000E-002    2.560930046953272E-009
 -2.650000000000000E-002    2.717512141545687E-009
 -2.640000000000000E-002    2.844487482909904E-009
 -2.630000000000000E-002    2.943487325248006E-009
 -2.620000000000000E-002    3.013458048947379E-009
 -2.610000000000000E-002    3.049838327553860E-009
 -2.600000000000000E-002    3.044194294027972E-009
 -2.590000000000000E-002    2.984421671250836E-009
 -2.580000000000000E-002    2.855569219126290E-009
 -2.570000000000000E-002    2.641265376570632E-009
 -2.560000000000000E-002    2.325652291320624E-009
 -2.550000000000000E-002    1.895657242767376E-009
 -2.540000000000000E-002    1.343370037654313E-009
 -2.530000000000000E-002    6.682546457936993E-010
 -2.520000000000000E-002   -1.210904984550480E-010
 -2.510000000000000E-002   -1.005885975671718E-009
 -2.500000000000000E-002   -1.957048397743817E-009
 -2.490000000000000E-002   -2.936118639614663E-009
 -2.480000000000000E-002   -3.897257587689319E-009
 -2.470000000000000E-002   -4.790211223167938E-009
 -2.460000000000000E-002   -5.564024326763610E-009
 -2.450000000000000E-002   -6.171187093008747E-009
 -2.440000000000000E-002   -6.571810261850680E-009
 -2.430000000000000E-002   -6.737402291230382E-009
 -2.420000000000000E-002   -6.653821457192128E-009
 -2.410000000000000E-002   -6.323036835840380E-009
 -2.400000000000000E-002   -5.763434360192244E-009
 -2.390000000000000E-002   -5.008539195393835E-009
 -2.380000000000000E-002   -4.104189929882729E-009
 -2.370000000000000E-002   -3.104361215340035E-009
 -2.360000000000000E-002   -2.065992374466920E-009
 -2.350000000000000E-002   -1.043301454288844E-009
 -2.340000000000000E-002   -8.214525622033651E-011
 -2.330000000000000E-002    7.849845361999674E-010
 -2.320000000000000E-002    1.542775221389478E-009
 -2.310000000000000E-002    2.195249974175526E-009
 -2.300000000000000E-002    2.765951959683001E-009
 -2.290000000000000E-002    3.296005247321613E-009
 -2.280000000000000E-002    3.840120118662867E-009
 -2.270000000000000E-002    4.460799537108925E-009
 -2.260000000000000E-002    5.221189747505274E-009
 -2.250000000000000E-002    6.177170702546932E-009
 -2.240000000000000E-002    7.369370671842300E-009
 -2.230000000000000E-002    8.815829048379848E-009
 -2.220000000000000E-002    1.050600567542248E-008
 -2.210000000000000E-002    1.239674678985530E-008
 -2.200000000000000E-002    1.441068152531007E-008
 -2.190000000000000E-002    1.643733882290107E-008
 -2.180000000000000E-002    1.833707809703532E-008
 -2.170000000000000E-002    1.994772132122494E-008
 -2.160000000000000E-002    2.109356105267210E-008
 -2.150000000000000E-002    2.159626576984996E-008
 -2.140000000000000E-002    2.128705780836497E-008
 -2.130000000000000E-002    2.001944406821534E-008
 -2.120000000000000E-002    1.768177240471590E-008
 -2.110000000000000E-002    1.420886600291896E-008
 -2.100000000000000E-002    9.592085357770066E-009
 -2.090000000000000E-002    3.887284502859239E-009
 -2.080000000000000E-002   -2.779747137485700E-009
 -2.070000000000000E-002   -1.021055258535256E-008
 -2.060000000000000E-002   -1.813398753732220E-008
 -2.050000000000000E-002   -2.620874578863558E-008
 -2.040000000000000E-002   -3.402802153355596E-008
 -2.030000000000000E-002   -4.112578407153633E-008
 -2.020000000000000E-002   -4.698397336434159E-008
 -2.010000000000000E-002   -5.103988264673819E-008
 -2.000000000000000E-002   -5.269297321639029E-008
 -1.990000000000000E-002   -5.131037671403010E-008
 -1.980000000000000E-002   -4.623053755054017E-008
 -1.970000000000000E-002   -3.676462064584347E-008
 -1.960000000000000E-002   -2.219549628904944E-008
 -1.950000000000000E-002   -1.774488749332676E-009
 -1.940000000000000E-002    2.528374227722875E-008
 -1.930000000000000E-002    5.980727781054455E-008
 -1.920000000000000E-002    1.026732622304990E-007
 -1.910000000000000E-002    1.548131758159008E-007
 -1.900000000000000E-002    2.172157922764440E-007
 -1.890000000000000E-002    2.909268081270725E-007
 -1.880000000000000E-002    3.770443250849563E-007
 -1.870000000000000E-002    4.767091261372589E-007
 -1.860000000000000E-002    5.910899922790623E-007
 -1.850000000000000E-002    7.213640129727345E-007
 -1.840000000000000E-002    8.686928555377528E-007
 -1.830000000000000E-002    1.034196454032374E-006
 -1.820000000000000E-002    1.218925322104393E-006
 -1.810000000000000E-002    1.423834315099705E-006
 -1.800000000000000E-002    1.649759592612929E-006
 -1.790000000000000E-002    1.897400947393667E-006
 -1.780000000000000E-002    2.167310902929844E-006
 -1.770000000000000E-002    2.459893914509572E-006
 -1.760000000000000E-002    2.775413948540872E-006
 -1.750000000000000E-002    3.114012134014797E-006
 -1.740000000000000E-002    3.475733668433373E-006
 -1.730000000000000E-002    3.860562249171761E-006
 -1.720000000000000E-002    4.268461054455427E-006
 -1.710000000000000E-002    4.699415032220846E-006
 -1.700000000000000E-002    5.153475501949530E-006
 -1.690000000000000E-002    5.630801196218206E-006
 -1.680000000000000E-002    6.131695769750584E-006
 -1.670000000000000E-002    6.656635764508762E-006
 -1.660000000000000E-002    7.206293772973098E-006
 -1.650000000000000E-002    7.781548157953314E-006
 -1.640000000000000E-002    8.383488185543310E-006
 -1.630000000000000E-002    9.013406057412302E-006
 -1.620000000000000E-002    9.672784932643195E-006
 -1.610000000000000E-002    1.036328187767226E-005
 -1.600000000000000E-002    1.108670594186619E-005
 -1.590000000000000E-002    1.184499943083088E-005
 -1.580000000000000E-002    1.264021640841922E-005
 -1.570000000000000E-002    1.347451131399439E-005
 -1.560000000000000E-002    1.435012461698791E-005
 -1.550000000000000E-002    1.526938800528327E-005
 -1.540000000000000E-002    1.623472014012854E-005
 -1.530000000000000E-002    1.724864461425919E-005
 -1.520000000000000E-002    1.831380239579654E-005
 -1.510000000000000E-002    1.943298386538456E-005
 -1.500000000000000E-002    2.060914675315128E-005
 -1.490000000000000E-002    2.184545342520102E-005
 -1.480000000000000E-002    2.314529939105773E-005
 -1.470000000000000E-002    2.451234444848790E-005
 -1.460000000000000E-002    2.595053605670605E-005
 -1.450000000000000E-002    2.746414746538030E-005
 -1.440000000000000E-002    2.905778590008875E-005
 -1.430000000000000E-002    3.073640769392950E-005
 -1.420000000000000E-002    3.250532191985863E-005
 -1.410000000000000E-002    3.437019392851954E-005
 -1.400000000000000E-002    3.633702667563361E-005
 -1.390000000000000E-002    3.841214772662946E-005
 -1.380000000000000E-002    4.060217430035426E-005
 -1.370000000000000E-002    4.291398793693714E-005
 -1.360000000000000E-002    4.535468785108485E-005
 -1.350000000000000E-002    4.793156215200807E-005
 -1.340000000000000E-002    5.065204599686580E-005
 -1.330000000000000E-002    5.352368471321470E-005
 -1.320000000000000E-002    5.655411741901956E-005
 -1.310000000000000E-002    5.975107287260239E-005
 -1.300000000000000E-002    6.312237035201712E-005
 -1.290000000000000E-002    6.667594741601391E-005
 -1.280000000000000E-002    7.041989751685068E-005
 -1.270000000000000E-002    7.436253236538942E-005
 -1.260000000000000E-002    7.851248024607535E-005
 -1.250000000000000E-002    8.287875227545626E-005
 -1.240000000000000E-002    8.747086284037309E-005
 -1.230000000000000E-002    9.229890637399360E-005
 -1.220000000000000E-002    9.737368606719956E-005
 -1.210000000000000E-002    1.027067664307985E-004
 -1.200000000000000E-002    1.083105678793716E-004
 -1.190000000000000E-002    1.141983597129810E-004
 -1.180000000000000E-002    1.203842983062073E-004
 -1.170000000000000E-002    1.268834158756451E-004
 -1.160000000000000E-002    1.337115644508347E-004
 -1.150000000000000E-002    1.408853153698471E-004
 -1.140000000000000E-002    1.484219059737640E-004
 -1.130000000000000E-002    1.563391004811341E-004
 -1.120000000000000E-002    1.646550964468247E-004
 -1.110000000000000E-002    1.733884425147786E-004
 -1.100000000000000E-002    1.825579223721348E-004
 -1.090000000000000E-002    1.921825323017333E-004
 -1.080000000000000E-002    2.022814440002277E-004
 -1.070000000000000E-002    2.128740611839923E-004
 -1.060000000000000E-002    2.239800554072762E-004
 -1.050000000000000E-002    2.356194132183462E-004
 -1.040000000000000E-002    2.478126984000320E-004
 -1.030000000000000E-002    2.605810884814171E-004
 -1.020000000000000E-002    2.739465933160587E-004
 -1.010000000000000E-002    2.879322360489364E-004
 -1.000000000000000E-002    3.025621782785482E-004
 -9.899999999999999E-003    3.178619249594339E-004
 -9.800000000000000E-003    3.338583569014879E-004
 -9.699999999999999E-003    3.505798418380284E-004
 -9.599999999999999E-003    3.680562391653229E-004
 -9.500000000000000E-003    3.863188974932907E-004
 -9.399999999999999E-003    4.054004942847394E-004
 -9.299999999999999E-003    4.253351000178361E-004
 -9.200000000000000E-003    4.461578951188117E-004
 -9.099999999999999E-003    4.679051386273246E-004
 -8.999999999999999E-003    4.906138382512382E-004
 -8.900000000000000E-003    5.143218686202243E-004
 -8.799999999999999E-003    5.390676538089278E-004
 -8.699999999999999E-003    5.648901866959953E-004
 -8.600000000000000E-003    5.918290424119017E-004
 -8.499999999999999E-003    6.199242820734520E-004
 -8.399999999999999E-003    6.492166751429985E-004
 -8.300000000000000E-003    6.797476424863499E-004
 -8.199999999999999E-003    7.115595915296605E-004
 -8.100000000000000E-003    7.446959179320696E-004
 -8.000000000000000E-003    7.792013595570951E-004
 -7.899999999999999E-003    8.151221247051607E-004
 -7.800000000000000E-003    8.525058650793490E-004
 -7.699999999999999E-003    8.914022641292945E-004
 -7.599999999999999E-003    9.318626975245790E-004
 -7.499999999999999E-003    9.739404926871850E-004
 -7.399999999999999E-003    1.017690874090177E-003
 -7.299999999999999E-003    1.063170870776062E-003
 -7.199999999999999E-003    1.110439361503404E-003
 -7.100000000000000E-003    1.159556675818630E-003
 -6.999999999999999E-003    1.210584687877780E-003
 -6.899999999999999E-003    1.263586418770012E-003
 -6.800000000000000E-003    1.318625899377586E-003
 -6.699999999999999E-003    1.375768156342741E-003
 -6.599999999999999E-003    1.435078922247811E-003
 -6.499999999999999E-003    1.496624471532820E-003
 -6.399999999999999E-003    1.560471651293047E-003
 -6.299999999999999E-003    1.626687794925603E-003
 -6.199999999999999E-003    1.695340959467030E-003
 -6.100000000000000E-003    1.766499633191630E-003
 -5.999999999999999E-003    1.840233171119152E-003
 -5.899999999999999E-003    1.916611574287862E-003
 -5.800000000000000E-003    1.995705614152295E-003
 -5.699999999999999E-003    2.077587511924750E-003
 -5.599999999999999E-003    2.162330233916797E-003
 -5.499999999999999E-003    2.250008156262257E-003
 -5.399999999999999E-003    2.340696530606885E-003
 -5.299999999999999E-003    2.434471759124905E-003
 -5.199999999999999E-003    2.531411642262598E-003
 -5.099999999999999E-003    2.631594517121717E-003
 -4.999999999999999E-003    2.735099658911224E-003
 -4.899999999999999E-003    2.842007173423324E-003
 -4.799999999999999E-003    2.952397614062582E-003
 -4.699999999999999E-003    3.066351410248585E-003
 -4.599999999999999E-003    3.183949661128242E-003
 -4.499999999999999E-003    3.305272865595133E-003
 -4.399999999999999E-003    3.430401313876894E-003
 -4.299999999999999E-003    3.559414772085758E-003
 -4.199999999999999E-003    3.692392545121745E-003
 -4.099999999999999E-003    3.829412795602592E-003
 -3.999999999999999E-003    3.970553083518846E-003
 -3.899999999999999E-003    4.115889652633833E-003
 -3.799999999999999E-003    4.265497821043050E-003
 -3.699999999999999E-003    4.419451035045439E-003
 -3.599999999999999E-003    4.577822195590723E-003
 -3.499999999999999E-003    4.740681801421853E-003
 -3.399999999999999E-003    4.908099167756158E-003
 -3.299999999999999E-003    5.080141726749194E-003
 -3.199999999999999E-003    5.256874992136381E-003
 -3.099999999999999E-003    5.438362023168387E-003
 -2.999999999999999E-003    5.624663874927391E-003
 -2.899999999999999E-003    5.815838497006013E-003
 -2.799999999999999E-003    6.011941242177609E-003
 -2.699999999999999E-003    6.213024758873868E-003
 -2.599999999999999E-003    6.419137610893248E-003
 -2.499999999999999E-003    6.630325432931320E-003
 -2.399999999999999E-003    6.846629201404806E-003
 -2.299999999999999E-003    7.068086792321783E-003
 -2.199999999999999E-003    7.294729803110471E-003
 -2.099999999999999E-003    7.526587452480621E-003
 -1.999999999999999E-003    7.763682261131951E-003
 -1.899999999999999E-003    8.006031632553883E-003
 -1.799999999999999E-003    8.253647812144257E-003
 -1.699999999999999E-003    8.506536960260203E-003
 -1.599999999999999E-003    8.764698834670948E-003
 -1.499999999999999E-003    9.028126066967316E-003
 -1.399999999999999E-003    9.296806177196124E-003
 -1.299999999999999E-003    9.570717770394407E-003
 -1.199999999999999E-003    9.849833110453449E-003
 -1.099999999999999E-003    1.013411584201166E-002
 -9.999999999999989E-004    1.042352081283150E-002
 -8.999999999999990E-004    1.071799506363551E-002
 -7.999999999999990E-004    1.101747545494964E-002
 -6.999999999999989E-004    1.132188911148966E-002
 -5.999999999999990E-004    1.163115324500378E-002
 -4.999999999999989E-004    1.194517356565291E-002
 -3.999999999999989E-004    1.226384456164821E-002
 -2.999999999999989E-004    1.258704939826891E-002
 -1.999999999999989E-004    1.291465764935132E-002
 -9.999999999999892E-005    1.324652656937780E-002
  1.084202172485504E-018    1.358250190898838E-002
  1.000000000000011E-004    1.392241252126141E-002
  2.000000000000011E-004    1.426607647637619E-002
  3.000000000000011E-004    1.461329495163213E-002
  4.000000000000011E-004    1.496385575794430E-002
  5.000000000000011E-004    1.531753125611166E-002
  6.000000000000011E-004    1.567407972430745E-002
  7.000000000000011E-004    1.603324271691541E-002
  8.000000000000011E-004    1.639474623625919E-002
  9.000000000000012E-004    1.675830042751672E-002
  1.000000000000001E-003    1.712359703572067E-002
  1.100000000000001E-003    1.749031096179851E-002
  1.200000000000001E-003    1.785810041313754E-002
  1.300000000000001E-003    1.822660233013681E-002
  1.400000000000001E-003    1.859543596018090E-002
  1.500000000000001E-003    1.896419983750825E-002
  1.600000000000001E-003    1.933247143712378E-002
  1.700000000000001E-003    1.969980845874068E-002
  1.800000000000001E-003    2.006574567213841E-002
  1.900000000000001E-003    2.042979548832862E-002
  2.000000000000001E-003    2.079144738133094E-002
  2.100000000000001E-003    2.115016584682430E-002
  2.200000000000001E-003    2.150539515537981E-002
  2.300000000000001E-003    2.185655278659253E-002
  2.400000000000001E-003    2.220303329434322E-002
  2.500000000000001E-003    2.254420574225433E-002
  2.600000000000001E-003    2.287941590916101E-002
  2.700000000000001E-003    2.320798293319529E-002
  2.800000000000001E-003    2.352920158646144E-002
  2.900000000000001E-003    2.384234182932937E-002
  3.000000000000001E-003    2.414664788210432E-002
  3.100000000000001E-003    2.444133864557085E-002
  3.200000000000001E-003    2.472560518638438E-002
  3.300000000000001E-003    2.499861445197487E-002
  3.400000000000001E-003    2.525950786290464E-002
  3.500000000000001E-003    2.550739687979492E-002
  3.600000000000001E-003    2.574136767664858E-002
  3.700000000000001E-003    2.596047939012107E-002
  3.800000000000001E-003    2.616376433926681E-002
  3.900000000000001E-003    2.635022453310128E-002
  4.000000000000001E-003    2.651883669075447E-002
  4.100000000000001E-003    2.666854955857706E-002
  4.200000000000001E-003    2.679828288002322E-002
  4.300000000000001E-003    2.690692909651230E-002
  4.400000000000001E-003    2.699335113918529E-002
  4.500000000000001E-003    2.705638553469175E-002
  4.600000000000002E-003    2.709483864046332E-002
  4.700000000000001E-003    2.710749190037977E-002
  4.800000000000001E-003    2.709309755583439E-002
  4.900000000000002E-003    2.705037948809896E-002
  5.000000000000001E-003    2.697803815083570E-002
  5.100000000000001E-003    2.687474415140976E-002
  5.200000000000001E-003    2.673914333364347E-002
  5.300000000000002E-003    2.656985539093664E-002
  5.400000000000001E-003    2.636547839114963E-002
  5.500000000000001E-003    2.612458240208967E-002
  5.600000000000002E-003    2.584571546424539E-002
  5.700000000000001E-003    2.552740520581435E-002
  5.800000000000001E-003    2.516815506149007E-002
  5.900000000000002E-003    2.476644724159020E-002
  6.000000000000001E-003    2.432074329360363E-002
  6.100000000000001E-003    2.382948904038447E-002
  6.200000000000002E-003    2.329110854090373E-002
  6.300000000000002E-003    2.270400810096282E-002
  6.400000000000001E-003    2.206657499854905E-002
  6.500000000000001E-003    2.137718430417468E-002
  6.600000000000002E-003    2.063419140180473E-002
  6.700000000000001E-003    1.983594000532695E-002
  6.800000000000001E-003    1.898076005483807E-002
  6.900000000000002E-003    1.806697064363393E-002
  7.000000000000001E-003    1.709287765912647E-002
  7.100000000000001E-003    1.605677760830159E-002
  7.200000000000002E-003    1.495696024190815E-002
  7.300000000000002E-003    1.379170881659945E-002
  7.400000000000001E-003    1.255930065786045E-002
  7.500000000000001E-003    1.125800974124933E-002
  7.600000000000002E-003    9.886109269559627E-003
  7.700000000000001E-003    8.441872520117662E-003
  7.800000000000001E-003    6.923575225358525E-003
  7.900000000000001E-003    5.329498399779701E-003
  8.000000000000002E-003    3.657926541979729E-003
  8.100000000000001E-003    1.907152471154476E-003
  8.200000000000001E-003    7.548020310333901E-005
  8.300000000000002E-003   -1.838774165373267E-003
  8.400000000000001E-003   -3.837281172706535E-003
  8.500000000000002E-003   -5.921696027748692E-003
  8.600000000000002E-003   -8.093655111274401E-003
  8.700000000000001E-003   -1.035477348102795E-002
  8.800000000000002E-003   -1.270664495957849E-002
  8.900000000000002E-003   -1.515083909774842E-002
  9.000000000000001E-003   -1.768889814443826E-002
  9.100000000000002E-003   -2.032233627789700E-002
  9.200000000000002E-003   -2.305263402101712E-002
  9.300000000000001E-003   -2.588123858539918E-002
  9.400000000000002E-003   -2.880955886816371E-002
  9.500000000000001E-003   -3.183897001723968E-002
  9.600000000000001E-003   -3.497080289248646E-002
  9.700000000000002E-003   -3.820634375169491E-002
  9.800000000000001E-003   -4.154683826835489E-002
  9.900000000000001E-003   -4.499347084069336E-002
  1.000000000000000E-002   -4.854738561493836E-002
  1.010000000000000E-002   -5.220967185337980E-002
  1.020000000000000E-002   -5.598135629644509E-002
  1.030000000000000E-002   -5.986340521191392E-002
  1.040000000000000E-002   -6.385673350875912E-002
  1.050000000000000E-002   -6.796217642936898E-002
  1.060000000000000E-002   -7.218051671495103E-002
  1.070000000000000E-002   -7.651245751606600E-002
  1.080000000000000E-002   -8.095863029708147E-002
  1.090000000000000E-002   -8.551959555895591E-002
  1.100000000000000E-002   -9.019583568252373E-002
  1.110000000000000E-002   -9.498774465397662E-002
  1.120000000000000E-002   -9.989564955168408E-002
  1.130000000000000E-002   -0.104919775931379     
  1.140000000000000E-002   -0.110060283971526     
  1.150000000000000E-002   -0.115317222449968     
  1.160000000000000E-002   -0.120690542548190     
  1.170000000000000E-002   -0.126180123181919     
  1.180000000000000E-002   -0.131785729359908     
  1.190000000000000E-002   -0.137507026448663     
  1.200000000000000E-002   -0.143343592059410     
  1.210000000000000E-002   -0.149294866045686     
  1.220000000000000E-002   -0.155360217447072     
  1.230000000000000E-002   -0.161538894291997     
  1.240000000000000E-002   -0.167830027355135     
  1.250000000000000E-002   -0.174232637042668     
  1.260000000000000E-002   -0.180745626924159     
  1.270000000000000E-002   -0.187367791764617     
  1.280000000000000E-002   -0.194097807623067     
  1.290000000000000E-002   -0.200934243043393     
  1.300000000000000E-002   -0.207875531933671     
  1.310000000000000E-002   -0.214919982027877     
  1.320000000000000E-002   -0.222065788570316     
  1.330000000000000E-002   -0.229311023402424     
  1.340000000000000E-002   -0.236653618602032     
  1.350000000000000E-002   -0.244091399873932     
  1.360000000000000E-002   -0.251622068191548     
  1.370000000000000E-002   -0.259243173710480     
  1.380000000000000E-002   -0.266952147929685     
  1.390000000000000E-002   -0.274746282052212     
  1.400000000000000E-002   -0.282622743488941     
  1.410000000000000E-002   -0.290578563152221     
  1.420000000000000E-002   -0.298610652562403     
  1.430000000000000E-002   -0.306715789232924     
  1.440000000000000E-002   -0.314890604742531     
  1.450000000000000E-002   -0.323131627180920     
  1.460000000000000E-002   -0.331435204447332     
  1.470000000000000E-002   -0.339797614686300     
  1.480000000000000E-002   -0.348214970401593     
  1.490000000000000E-002   -0.356683261878462     
  1.500000000000000E-002   -0.365198346302240     
  1.510000000000000E-002   -0.373755971674983     
  1.520000000000000E-002   -0.382351730946969     
  1.530000000000000E-002   -0.390981139949210     
  1.540000000000000E-002   -0.399639553952124     
  1.550000000000000E-002   -0.408322204149587     
  1.560000000000000E-002   -0.417024240100780     
  1.570000000000000E-002   -0.425740641132599     
  1.580000000000000E-002   -0.434466315500943     
  1.590000000000000E-002   -0.443196043033169     
  1.600000000000000E-002   -0.451924481197141     
  1.610000000000000E-002   -0.460646173139540     
  1.620000000000000E-002   -0.469355616809263     
  1.630000000000000E-002   -0.478047104191574     
  1.640000000000000E-002   -0.486714935847883     
  1.650000000000000E-002   -0.495353228785552     
  1.660000000000000E-002   -0.503956047502973     
  1.670000000000000E-002   -0.512517347949524     
  1.680000000000000E-002   -0.521031024773122     
  1.690000000000000E-002   -0.529490915408562     
  1.700000000000000E-002   -0.537890692774276     
  1.710000000000000E-002   -0.546224032452692     
  1.720000000000000E-002   -0.554484480754224     
  1.730000000000000E-002   -0.562665588694805     
  1.740000000000000E-002   -0.570760763304740     
  1.750000000000000E-002   -0.578763421936863     
  1.760000000000000E-002   -0.586666876343043     
  1.770000000000000E-002   -0.594464408899862     
  1.780000000000000E-002   -0.602149275219352     
  1.790000000000000E-002   -0.609714670299880     
  1.800000000000000E-002   -0.617153748661953     
  1.810000000000000E-002   -0.624459695161241     
  1.820000000000000E-002   -0.631625551154460     
  1.830000000000000E-002   -0.638644442724069     
  1.840000000000000E-002   -0.645509465021897     
  1.850000000000000E-002   -0.652213685082805     
  1.860000000000000E-002   -0.658750167268174     
  1.870000000000000E-002   -0.665111992069987     