 -4.000000000000000E-002    0.000000000000000E+000
 -3.990000000000000E-002    0.000000000000000E+000
 -3.980000000000000E-002    0.000000000000000E+000
 -3.970000000000000E-002    0.000000000000000E+000
 -3.960000000000000E-002    0.000000000000000E+000
 -3.950000000000000E-002    0.000000000000000E+000
 -3.940000000000000E-002    0.000000000000000E+000
 -3.930000000000000E-002    0.000000000000000E+000
 -3.920000000000000E-002    0.000000000000000E+000
 -3.910000000000000E-002    0.000000000000000E+000
 -3.900000000000000E-002    0.000000000000000E+000
 -3.890000000000000E-002    0.000000000000000E+000
 -3.880000000000000E-002    0.000000000000000E+000
 -3.870000000000000E-002    0.000000000000000E+000
 -3.860000000000000E-002    0.000000000000000E+000
 -3.850000000000000E-002    0.000000000000000E+000
 -3.840000000000000E-002    0.000000000000000E+000
 -3.830000000000000E-002    0.000000000000000E+000
 -3.820000000000000E-002    0.000000000000000E+000
 -3.810000000000000E-002    0.000000000000000E+000
 -3.800000000000000E-002    0.000000000000000E+000
 -3.790000000000000E-002    0.000000000000000E+000
 -3.780000000000000E-002    0.000000000000000E+000
 -3.770000000000000E-002    0.000000000000000E+000
 -3.760000000000000E-002    0.000000000000000E+000
 -3.750000000000000E-002    0.000000000000000E+000
 -3.740000000000000E-002    0.000000000000000E+000
 -3.730000000000000E-002    0.000000000000000E+000
 -3.720000000000000E-002    0.000000000000000E+000
 -3.710000000000000E-002    0.000000000000000E+000
 -3.700000000000000E-002    0.000000000000000E+000
 -3.690000000000000E-002    0.000000000000000E+000
 -3.680000000000000E-002    0.000000000000000E+000
 -3.670000000000000E-002    0.000000000000000E+000
 -3.660000000000000E-002    0.000000000000000E+000
 -3.650000000000000E-002    0.000000000000000E+000
 -3.640000000000000E-002    0.000000000000000E+000
 -3.630000000000000E-002    0.000000000000000E+000
 -3.620000000000000E-002    0.000000000000000E+000
 -3.610000000000000E-002    0.000000000000000E+000
 -3.600000000000000E-002    0.000000000000000E+000
 -3.590000000000000E-002    0.000000000000000E+000
 -3.580000000000000E-002    0.000000000000000E+000
 -3.570000000000000E-002    0.000000000000000E+000
 -3.560000000000000E-002    0.000000000000000E+000
 -3.550000000000000E-002    0.000000000000000E+000
 -3.540000000000000E-002    0.000000000000000E+000
 -3.530000000000000E-002    0.000000000000000E+000
 -3.520000000000000E-002    0.000000000000000E+000
 -3.510000000000000E-002    0.000000000000000E+000
 -3.500000000000000E-002    0.000000000000000E+000
 -3.490000000000000E-002    0.000000000000000E+000
 -3.480000000000000E-002    0.000000000000000E+000
 -3.470000000000000E-002    0.000000000000000E+000
 -3.460000000000000E-002    0.000000000000000E+000
 -3.450000000000000E-002    0.000000000000000E+000
 -3.440000000000000E-002    0.000000000000000E+000
 -3.430000000000000E-002    0.000000000000000E+000
 -3.420000000000000E-002    0.000000000000000E+000
 -3.410000000000000E-002    0.000000000000000E+000
 -3.400000000000000E-002    0.000000000000000E+000
 -3.390000000000000E-002    0.000000000000000E+000
 -3.380000000000000E-002    0.000000000000000E+000
 -3.370000000000000E-002    0.000000000000000E+000
 -3.360000000000000E-002    0.000000000000000E+000
 -3.350000000000000E-002    0.000000000000000E+000
 -3.340000000000000E-002    0.000000000000000E+000
 -3.330000000000000E-002    0.000000000000000E+000
 -3.320000000000000E-002    0.000000000000000E+000
 -3.310000000000000E-002    0.000000000000000E+000
 -3.300000000000000E-002    0.000000000000000E+000
 -3.290000000000000E-002    0.000000000000000E+000
 -3.280000000000000E-002    0.000000000000000E+000
 -3.270000000000000E-002    0.000000000000000E+000
 -3.260000000000000E-002    0.000000000000000E+000
 -3.250000000000000E-002    0.000000000000000E+000
 -3.240000000000000E-002    0.000000000000000E+000
 -3.230000000000000E-002    0.000000000000000E+000
 -3.220000000000000E-002    0.000000000000000E+000
 -3.210000000000000E-002    0.000000000000000E+000
 -3.200000000000000E-002    0.000000000000000E+000
 -3.190000000000000E-002    0.000000000000000E+000
 -3.180000000000000E-002    0.000000000000000E+000
 -3.170000000000000E-002    0.000000000000000E+000
 -3.160000000000000E-002    0.000000000000000E+000
 -3.150000000000000E-002    0.000000000000000E+000
 -3.140000000000000E-002    0.000000000000000E+000
 -3.130000000000000E-002    0.000000000000000E+000
 -3.120000000000000E-002    0.000000000000000E+000
 -3.110000000000000E-002    0.000000000000000E+000
 -3.100000000000000E-002    0.000000000000000E+000
 -3.090000000000000E-002    0.000000000000000E+000
 -3.080000000000000E-002    0.000000000000000E+000
 -3.070000000000000E-002    0.000000000000000E+000
 -3.060000000000000E-002    0.000000000000000E+000
 -3.050000000000000E-002    0.000000000000000E+000
 -3.040000000000000E-002    0.000000000000000E+000
 -3.030000000000000E-002    0.000000000000000E+000
 -3.020000000000000E-002    0.000000000000000E+000
 -3.010000000000000E-002    0.000000000000000E+000
 -3.000000000000000E-002    0.000000000000000E+000
 -2.990000000000000E-002    0.000000000000000E+000
 -2.980000000000000E-002    0.000000000000000E+000
 -2.970000000000000E-002    0.000000000000000E+000
 -2.960000000000000E-002    0.000000000000000E+000
 -2.950000000000000E-002    0.000000000000000E+000
 -2.940000000000000E-002    0.000000000000000E+000
 -2.930000000000000E-002    0.000000000000000E+000
 -2.920000000000000E-002    0.000000000000000E+000
 -2.910000000000000E-002    0.000000000000000E+000
 -2.900000000000000E-002    0.000000000000000E+000
 -2.890000000000000E-002    0.000000000000000E+000
 -2.880000000000000E-002    0.000000000000000E+000
 -2.870000000000000E-002    0.000000000000000E+000
 -2.860000000000000E-002    0.000000000000000E+000
 -2.850000000000000E-002    0.000000000000000E+000
 -2.840000000000000E-002    0.000000000000000E+000
 -2.830000000000000E-002    0.000000000000000E+000
 -2.820000000000000E-002    0.000000000000000E+000
 -2.810000000000000E-002    0.000000000000000E+000
 -2.800000000000000E-002    0.000000000000000E+000
 -2.790000000000000E-002    0.000000000000000E+000
 -2.780000000000000E-002    0.000000000000000E+000
 -2.770000000000000E-002    0.000000000000000E+000
 -2.760000000000000E-002    0.000000000000000E+000
 -2.750000000000000E-002    0.000000000000000E+000
 -2.740000000000000E-002    0.000000000000000E+000
 -2.730000000000000E-002    0.000000000000000E+000
 -2.720000000000000E-002    0.000000000000000E+000
 -2.710000000000000E-002    0.000000000000000E+000
 -2.700000000000000E-002    0.000000000000000E+000
 -2.690000000000000E-002    0.000000000000000E+000
 -2.680000000000000E-002    0.000000000000000E+000
 -2.670000000000000E-002    0.000000000000000E+000
 -2.660000000000000E-002    0.000000000000000E+000
 -2.650000000000000E-002    0.000000000000000E+000
 -2.640000000000000E-002    0.000000000000000E+000
 -2.630000000000000E-002    0.000000000000000E+000
 -2.620000000000000E-002    0.000000000000000E+000
 -2.610000000000000E-002    0.000000000000000E+000
 -2.600000000000000E-002    0.000000000000000E+000
 -2.590000000000000E-002    0.000000000000000E+000
 -2.580000000000000E-002    0.000000000000000E+000
 -2.570000000000000E-002    0.000000000000000E+000
 -2.560000000000000E-002    0.000000000000000E+000
 -2.550000000000000E-002    0.000000000000000E+000
 -2.540000000000000E-002    0.000000000000000E+000
 -2.530000000000000E-002    0.000000000000000E+000
 -2.520000000000000E-002    0.000000000000000E+000
 -2.510000000000000E-002    0.000000000000000E+000
 -2.500000000000000E-002    0.000000000000000E+000
 -2.490000000000000E-002    0.000000000000000E+000
 -2.480000000000000E-002    0.000000000000000E+000
 -2.470000000000000E-002   -5.613496232034979E-048
 -2.460000000000000E-002   -1.307574371156925E-047
 -2.450000000000000E-002   -2.053799119110351E-047
 -2.440000000000000E-002   -3.919550361043742E-047
 -2.430000000000000E-002    2.162293622312944E-048
 -2.420000000000000E-002    5.283108958209686E-047
 -2.410000000000000E-002    1.253981964922545E-046
 -2.400000000000000E-002    1.975285110342641E-046
 -2.390000000000000E-002    3.048990917193040E-046
 -2.380000000000000E-002    3.985311288764884E-046
 -2.370000000000000E-002    5.144351349876200E-046
 -2.360000000000000E-002    5.636377833701918E-046
 -2.350000000000000E-002    5.199312614837646E-046
 -2.340000000000000E-002    2.498676268711454E-046
 -2.330000000000000E-002   -3.159557939724074E-046
 -2.320000000000000E-002   -1.234035672389797E-045
 -2.310000000000000E-002   -2.639053905496016E-045
 -2.300000000000000E-002   -4.321738214892582E-045
 -2.290000000000000E-002   -6.319079216863936E-045
 -2.280000000000000E-002   -8.309985392627731E-045
 -2.270000000000000E-002   -1.003269688927355E-044
 -2.260000000000000E-002   -1.082183282229715E-044
 -2.250000000000000E-002   -9.440610895130057E-045
 -2.240000000000000E-002   -5.308307930968208E-045
 -2.230000000000000E-002    2.063500894364150E-045
 -2.220000000000000E-002    1.463521593096412E-044
 -2.210000000000000E-002    3.167602370811629E-044
 -2.200000000000000E-002    5.342519644048995E-044
 -2.190000000000000E-002    7.807733591094252E-044
 -2.180000000000000E-002    1.014481449866646E-043
 -2.170000000000000E-002    1.203044674007068E-043
 -2.160000000000000E-002    1.296865006197583E-043
 -2.150000000000000E-002    1.239162759994577E-043
 -2.140000000000000E-002    9.588333824813523E-044
 -2.130000000000000E-002    4.099191767367500E-044
 -2.120000000000000E-002   -4.459861228622209E-044
 -2.110000000000000E-002   -1.612780237901623E-043
 -2.100000000000000E-002   -3.070942024427464E-043
 -2.090000000000000E-002   -4.774881111903779E-043
 -2.080000000000000E-002   -6.660921022744310E-043
 -2.070000000000000E-002   -8.677410803874725E-043
 -2.060000000000000E-002   -1.075534551777313E-042
 -2.050000000000000E-002   -1.281156967894137E-042
 -2.040000000000000E-002   -1.473452480993610E-042
 -2.030000000000000E-002   -1.626758397048761E-042
 -2.020000000000000E-002   -1.688848899746643E-042
 -2.010000000000000E-002   -1.566766907135286E-042
 -2.000000000000000E-002   -1.109717451373649E-042
 -1.990000000000000E-002   -9.863924519869867E-044
 -1.980000000000000E-002    1.746480007000270E-042
 -1.970000000000000E-002    4.730964770864612E-042
 -1.960000000000000E-002    9.114411106029147E-042
 -1.950000000000000E-002    1.498838226714613E-041
 -1.940000000000000E-002    2.210799809093013E-041
 -1.930000000000000E-002    2.969813898827474E-041
 -1.920000000000000E-002    3.626570346425472E-041
 -1.910000000000000E-002    3.947729402354450E-041
 -1.900000000000000E-002    3.619021683554624E-041
 -1.890000000000000E-002    2.272092216669019E-041
 -1.880000000000000E-002   -4.555270795532028E-042
 -1.870000000000000E-002   -4.823134779071352E-041
 -1.860000000000000E-002   -1.085513302537887E-040
 -1.850000000000000E-002   -1.818741584695635E-040
 -1.840000000000000E-002   -2.592092770712611E-040
 -1.830000000000000E-002   -3.252512706019809E-040
 -1.820000000000000E-002   -3.584621724877700E-040
 -1.810000000000000E-002   -3.328023042701401E-040
 -1.800000000000000E-002   -2.216238478427434E-040
 -1.790000000000000E-002   -3.948440572584574E-042
 -1.780000000000000E-002    3.271237887961576E-040
 -1.770000000000000E-002    7.548679744266800E-040
 -1.760000000000000E-002    1.230067969160972E-039
 -1.750000000000000E-002    1.665523607968675E-039
 -1.740000000000000E-002    1.937221779758112E-039
 -1.730000000000000E-002    1.895572245393749E-039
 -1.720000000000000E-002    1.389351597683894E-039
 -1.710000000000000E-002    3.031850836698176E-040
 -1.700000000000000E-002   -1.393654123024396E-039
 -1.690000000000000E-002   -3.593464164006827E-039
 -1.680000000000000E-002   -6.002358185431077E-039
 -1.670000000000000E-002   -8.113947287149391E-039
 -1.660000000000000E-002   -9.222653488434614E-039
 -1.650000000000000E-002   -8.494517839114491E-039
 -1.640000000000000E-002   -5.108412720548066E-039
 -1.630000000000000E-002    1.530252479211818E-039
 -1.620000000000000E-002    1.151804964599536E-038
 -1.610000000000000E-002    2.416088992694922E-038
 -1.600000000000000E-002    3.772073683051538E-038
 -1.590000000000000E-002    4.928354412753865E-038
 -1.580000000000000E-002    5.484239405002472E-038
 -1.570000000000000E-002    4.968534405966300E-038
 -1.560000000000000E-002    2.914967575520390E-038
 -1.550000000000000E-002   -1.025211434371433E-038
 -1.540000000000000E-002   -6.941350636583302E-038
 -1.530000000000000E-002   -1.451076344578926E-037
 -1.520000000000000E-002   -2.286521972804251E-037
 -1.510000000000000E-002   -3.051617955548373E-037
 -1.500000000000000E-002   -3.538358146822002E-037
 -1.490000000000000E-002   -3.497035044829478E-037
 -1.480000000000000E-002   -2.671137529798067E-037
 -1.470000000000000E-002   -8.499865658702282E-038
 -1.460000000000000E-002    2.064401906878233E-037
 -1.450000000000000E-002    5.984423192965460E-037
 -1.440000000000000E-002    1.057106479115615E-036
 -1.430000000000000E-002    1.519239560092389E-036
 -1.420000000000000E-002    1.892572245256330E-036
 -1.410000000000000E-002    2.062155550930668E-036
 -1.400000000000000E-002    1.904190644164904E-036
 -1.390000000000000E-002    1.307479249698422E-036
 -1.380000000000000E-002    2.011483456600413E-037
 -1.370000000000000E-002   -1.414562044323370E-036
 -1.360000000000000E-002   -3.439573293943818E-036
 -1.350000000000000E-002   -5.654019329809056E-036
 -1.340000000000000E-002   -7.714562366779089E-036
 -1.330000000000000E-002   -9.173968380790501E-036
 -1.320000000000000E-002   -9.528795157447678E-036
 -1.310000000000000E-002   -8.296075697358515E-036
 -1.300000000000000E-002   -5.114268198963873E-036
 -1.290000000000000E-002    1.429149992901984E-037
 -1.280000000000000E-002    7.257945145519156E-036
 -1.270000000000000E-002    1.558968987275907E-035
 -1.260000000000000E-002    2.404834517904305E-035
 -1.250000000000000E-002    3.114901259361308E-035
 -1.240000000000000E-002    3.516012320448331E-035
 -1.230000000000000E-002    3.434937668096503E-035
 -1.220000000000000E-002    2.731102178908426E-035
 -1.210000000000000E-002    1.333674304098188E-035
 -1.200000000000000E-002   -7.228872500998003E-036
 -1.190000000000000E-002   -3.272315823853767E-035
 -1.180000000000000E-002   -6.007128368466881E-035
 -1.170000000000000E-002   -8.493523875997280E-035
 -1.160000000000000E-002   -1.021516501186648E-034
 -1.150000000000000E-002   -1.064602723788382E-034
 -1.140000000000000E-002   -9.346721280557936E-035
 -1.130000000000000E-002   -6.072284310370669E-035
 -1.120000000000000E-002   -8.735076948102957E-036
 -1.110000000000000E-002    5.830100641289240E-035
 -1.100000000000000E-002    1.322838966633618E-034
 -1.090000000000000E-002    2.016849644885269E-034
 -1.080000000000000E-002    2.528278393378813E-034
 -1.070000000000000E-002    2.719344089586783E-034
 -1.060000000000000E-002    2.477378782568495E-034
 -1.050000000000000E-002    1.742904300061240E-034
 -1.040000000000000E-002    5.344812371002928E-035
 -1.030000000000000E-002   -1.035607688552591E-034
 -1.020000000000000E-002   -2.760526384499691E-034
 -1.010000000000000E-002   -4.357038279977238E-034
 -1.000000000000000E-002   -5.503908207574900E-034
 -9.899999999999999E-003   -5.897847248877443E-034
 -9.800000000000000E-003   -5.319787795232554E-034
 -9.699999999999999E-003   -3.699998975923988E-034
 -9.599999999999999E-003   -1.167600179431577E-034
 -9.500000000000000E-003    1.930691401552372E-034
 -9.399999999999999E-003    5.055285492213976E-034
 -9.299999999999999E-003    7.548622631749994E-034
 -9.200000000000000E-003    8.757758132570896E-034
 -9.099999999999999E-003    8.190612321543460E-034
 -8.999999999999999E-003    5.680046752539144E-034
 -8.900000000000000E-003    1.520196874177774E-034
 -8.799999999999999E-003   -3.465317566522601E-034
 -8.699999999999999E-003   -7.961057954715368E-034
 -8.600000000000000E-003   -1.032919733366821E-033
 -8.499999999999999E-003   -8.915354186250974E-034
 -8.399999999999999E-003   -2.466414618187805E-034
 -8.300000000000000E-003    9.396849188505911E-034
 -8.199999999999999E-003    2.574058272315725E-033
 -8.100000000000000E-003    4.402192569876954E-033
 -8.000000000000000E-003    6.005142882855663E-033
 -7.899999999999999E-003    6.831150529289182E-033
 -7.800000000000000E-003    6.268517765172647E-033
 -7.699999999999999E-003    3.758174875875785E-033
 -7.599999999999999E-003   -1.064012039311074E-033
 -7.499999999999999E-003   -8.214309243648915E-033
 -7.399999999999999E-003   -1.722480019980283E-032
 -7.299999999999999E-003   -2.705605042548661E-032
 -7.199999999999999E-003   -3.609145146587334E-032
 -7.100000000000000E-003   -4.224003730449305E-032
 -6.999999999999999E-003   -4.316200862229478E-032
 -6.899999999999999E-003   -3.661249926997779E-032
 -6.800000000000000E-003   -2.087626816321277E-032
 -6.699999999999999E-003    4.757701156680066E-033
 -6.599999999999999E-003    3.955329780782500E-032
 -6.499999999999999E-003    8.100053613237625E-032
 -6.399999999999999E-003    1.246905122249266E-031
 -6.299999999999999E-003    1.644641665950617E-031
 -6.199999999999999E-003    1.928784915439112E-031
 -6.100000000000000E-003    2.019919538048701E-031
 -5.999999999999999E-003    1.844206683744738E-031
 -5.899999999999999E-003    1.345651747910049E-031
 -5.800000000000000E-003    4.986303913281799E-032
 -5.699999999999999E-003   -6.810651405008621E-032
 -5.599999999999999E-003   -2.128463127337824E-031
 -5.499999999999999E-003   -3.726538022825061E-031
 -5.399999999999999E-003   -5.309378183884328E-031
 -5.299999999999999E-003   -6.671894100171188E-031
 -5.199999999999999E-003   -7.585802164165957E-031
 -5.099999999999999E-003   -7.820882798470270E-031
 -4.999999999999999E-003   -7.169901027786811E-031
 -4.899999999999999E-003   -5.475223638233110E-031
 -4.799999999999999E-003   -2.655073159683636E-031
 -4.699999999999999E-003    1.272476338017006E-031
 -4.599999999999999E-003    6.169370562013556E-031
 -4.499999999999999E-003    1.176266450289875E-030
 -4.399999999999999E-003    1.763615760609306E-030
 -4.299999999999999E-003    2.323024939067898E-030
 -4.199999999999999E-003    2.785245811497682E-030
 -4.099999999999999E-003    3.070212247379360E-030
 -3.999999999999999E-003    3.091384656221981E-030
 -3.899999999999999E-003    2.762478695725329E-030
 -3.799999999999999E-003    2.007024030318974E-030
 -3.699999999999999E-003    7.709569891067062E-031
 -3.599999999999999E-003   -9.620209207225284E-031
 -3.499999999999999E-003   -3.153295178874970E-030
 -3.399999999999999E-003   -5.692278676019460E-030
 -3.299999999999999E-003   -8.382309467959763E-030
 -3.199999999999999E-003   -1.093326555882585E-029
 -3.099999999999999E-003   -1.296520756981379E-029
 -2.999999999999999E-003   -1.402733753400802E-029
 -2.899999999999999E-003   -1.363565573512990E-029
 -2.799999999999999E-003   -1.133083483439279E-029
 -2.699999999999999E-003   -6.754878221280124E-030
 -2.599999999999999E-003    2.586787688820402E-031
 -2.499999999999999E-003    9.590561974231747E-030
 -2.399999999999999E-003    2.075128515410742E-029
 -2.299999999999999E-003    3.282341732808931E-029
 -2.199999999999999E-003    4.444910439175906E-029
 -2.099999999999999E-003    5.388019425164702E-029
 -1.999999999999999E-003    5.910393849185346E-029
 -1.899999999999999E-003    5.804928902337877E-029
 -1.799999999999999E-003    4.886764498484995E-029
 -1.699999999999999E-003    3.026839251259727E-029
 -1.599999999999999E-003    1.875220723949513E-030
 -1.499999999999999E-003   -3.544381501316415E-029
 -1.399999999999999E-003   -7.932896226531241E-029
 -1.299999999999999E-003   -1.258237175779217E-028
 -1.199999999999999E-003   -1.694667798231129E-028
 -1.099999999999999E-003   -2.036211027744191E-028
 -9.999999999999989E-004   -2.210562583937117E-028
 -8.999999999999990E-004   -2.147677486898446E-028
 -7.999999999999990E-004   -1.789796220631376E-028
 -6.999999999999989E-004   -1.102377365714046E-028
 -5.999999999999990E-004   -8.467091801863864E-030
 -4.999999999999989E-004    1.221580001111478E-028
 -3.999999999999989E-004    2.726901759023786E-028
 -2.999999999999989E-004    4.293799139200701E-028
 -1.999999999999989E-004    5.742556972496203E-028
 -9.999999999999892E-005    6.863726749611030E-028
  1.084202172485504E-018    7.437160190618385E-028
  1.000000000000011E-004    7.256589515644017E-028
  2.000000000000011E-004    6.157887840375392E-028
  3.000000000000011E-004    4.048320530466383E-028
  4.000000000000011E-004    9.335029254435005E-029
  5.000000000000011E-004   -3.061559923743423E-028
  6.000000000000011E-004   -7.680925449629211E-028
  7.000000000000011E-004   -1.253877479395138E-027
  8.000000000000011E-004   -1.713531951800873E-027
  9.000000000000012E-004   -2.088857852318327E-027
  1.000000000000001E-003   -2.318149018522532E-027
  1.100000000000001E-003   -2.342216415454076E-027
  1.200000000000001E-003   -2.111337485889266E-027
  1.300000000000001E-003   -1.592582450287315E-027
  1.400000000000001E-003   -7.768452592782354E-028
  1.500000000000001E-003    3.151779605029851E-028
  1.600000000000001E-003    1.628851140290249E-027
  1.700000000000001E-003    3.074055134622748E-027
  1.800000000000001E-003    4.526894154103754E-027
  1.900000000000001E-003    5.835132414634546E-027
  2.000000000000001E-003    6.827601269892902E-027
  2.100000000000001E-003    7.327504903595982E-027
  2.200000000000001E-003    7.169184548623556E-027
  2.300000000000001E-003    6.217481218356205E-027
  2.400000000000001E-003    4.388412378319262E-027
  2.500000000000001E-003    1.669432110417311E-027
  2.600000000000001E-003   -1.862821198476875E-027
  2.700000000000001E-003   -6.029666733163072E-027
  2.800000000000001E-003   -1.054489670308315E-026
  2.900000000000001E-003   -1.501904561859124E-026
  3.000000000000001E-003   -1.897537242434709E-026
  3.100000000000001E-003   -2.187882042987760E-026
  3.200000000000001E-003   -2.317813344646454E-026
  3.300000000000001E-003   -2.235992751245917E-026
  3.400000000000001E-003   -1.901189826243780E-026
  3.500000000000001E-003   -1.289060686581154E-026
  3.600000000000001E-003   -3.987587288001174E-027
  3.700000000000001E-003    7.413877840833615E-027
  3.800000000000001E-003    2.069982131425827E-026
  3.900000000000001E-003    3.491313235914364E-026
  4.000000000000001E-003    4.877532860000153E-026
  4.100000000000001E-003    6.074832220015601E-026
  4.200000000000001E-003    6.913877029920769E-026
  4.300000000000001E-003    7.224346680403543E-026
  4.400000000000001E-003    6.852921773301248E-026
  4.500000000000001E-003    5.683524170168373E-026
  4.600000000000002E-003    3.658103563131930E-026
  4.700000000000001E-003    7.958172122384817E-027
  4.800000000000001E-003   -2.791846703127784E-026
  4.900000000000002E-003   -6.892517910846879E-026
  5.000000000000001E-003   -1.119330961807780E-025
  5.100000000000001E-003   -1.529196219962350E-025
  5.200000000000001E-003   -1.871983282493769E-025
  5.300000000000002E-003   -2.097676598147880E-025
  5.400000000000001E-003   -2.157658825251871E-025
  5.500000000000001E-003   -2.010061303487619E-025
  5.600000000000002E-003   -1.625515908683493E-025
  5.700000000000001E-003   -9.927894659631247E-026
  5.800000000000001E-003   -1.236927410809225E-026
  5.900000000000002E-003    9.433868748450219E-026
  6.000000000000001E-003    2.141962124027470E-025
  6.100000000000001E-003    3.378482272960977E-025
  6.200000000000002E-003    4.536319512132925E-025
  6.300000000000002E-003    5.482878331781957E-025
  6.400000000000001E-003    6.079712133520868E-025
  6.500000000000001E-003    6.195216383679997E-025
  6.600000000000002E-003    5.719124869960889E-025
  6.700000000000001E-003    4.577717204892028E-025
  6.800000000000001E-003    2.748372067729150E-025
  6.900000000000002E-003    2.719047220258118E-026
  7.000000000000001E-003   -2.738940938121724E-025
  7.100000000000001E-003   -6.096411403360733E-025
  7.200000000000002E-003   -9.541405929126147E-025
  7.300000000000002E-003   -1.275480845075044E-024
  7.400000000000001E-003   -1.537685715828514E-024
  7.500000000000001E-003   -1.703420676541677E-024
  7.600000000000002E-003   -1.737353157377597E-024
  7.700000000000001E-003   -1.609968582398183E-024
  7.800000000000001E-003   -1.301559984382489E-024
  7.900000000000001E-003   -8.060412244701794E-025
  8.000000000000002E-003   -1.341816432654582E-025
  8.100000000000001E-003    6.841596069222378E-025
  8.200000000000001E-003    1.599207321972076E-024
  8.300000000000002E-003    2.542201770993155E-024
  8.400000000000001E-003    3.428335738480631E-024
  8.500000000000002E-003    4.161801605626584E-024
  8.600000000000002E-003    4.642865499633393E-024
  8.700000000000001E-003    4.776678035846217E-024
  8.800000000000002E-003    4.483302788676216E-024
  8.900000000000002E-003    3.708230569731659E-024
  9.000000000000001E-003    2.432454271163845E-024
  9.100000000000002E-003    6.810469208367521E-025
  9.200000000000002E-003   -1.470870528044974E-024
  9.300000000000001E-003   -3.895850771175536E-024
  9.400000000000002E-003   -6.416442758380652E-024
  9.500000000000001E-003   -8.812764399787294E-024
  9.600000000000001E-003   -1.083557628235345E-023
  9.700000000000002E-003   -1.222460762180229E-023
  9.800000000000001E-003   -1.273134324246552E-023
  9.900000000000001E-003   -1.214487187158770E-023
  1.000000000000000E-002   -1.031885155296066E-023
  1.010000000000000E-002   -7.197182194050696E-024
  1.020000000000000E-002   -2.835646892314448E-024
  1.030000000000000E-002    2.583290213282908E-024
  1.040000000000000E-002    8.745190328323880E-024
  1.050000000000000E-002    1.521003893246499E-023
  1.060000000000000E-002    2.143176500093482E-023
  1.070000000000000E-002    2.679126465603196E-023
  1.080000000000000E-002    3.064207203413762E-023
  1.090000000000000E-002    3.236640381225949E-023
  1.100000000000000E-002    3.143797794000964E-023
  1.110000000000000E-002    2.748666453621376E-023
  1.120000000000000E-002    2.035912456413103E-023
  1.130000000000000E-002    1.016899401449258E-023
  1.140000000000000E-002   -2.669820827168938E-024
  1.150000000000000E-002   -1.743260592350021E-023
  1.160000000000000E-002   -3.310057729138742E-023
  1.170000000000000E-002   -4.840757283798002E-023
  1.180000000000000E-002   -6.191691737876318E-023
  1.190000000000000E-002   -7.212586504470699E-023
  1.200000000000000E-002   -7.759204592344056E-023
  1.210000000000000E-002   -7.707349426010700E-023
  1.220000000000000E-002   -6.967135981701828E-023
  1.230000000000000E-002   -5.496266260073730E-023
  1.240000000000000E-002   -3.310949692145109E-023
  1.250000000000000E-002   -4.931556375708477E-024
  1.260000000000000E-002    2.806986795196140E-023
  1.270000000000000E-002    6.374516772336701E-023
  1.280000000000000E-002    9.939203168111057E-023
  1.290000000000000E-002    1.319133783117694E-022
  1.300000000000000E-002    1.580320912096477E-022
  1.310000000000000E-002    1.745513408979455E-022
  1.320000000000000E-002    1.786436712769339E-022
  1.330000000000000E-002    1.681474951227327E-022
  1.340000000000000E-002    1.418460974096952E-022
  1.350000000000000E-002    9.970266974283072E-023
  1.360000000000000E-002    4.302510494894540E-023
  1.370000000000000E-002   -2.546268905813305E-023
  1.380000000000000E-002   -1.016614062286200E-022
  1.390000000000000E-002   -1.802598124200972E-022
  1.400000000000000E-002   -2.550230417864633E-022
  1.410000000000000E-002   -3.191969357412316E-022
  1.420000000000000E-002   -3.660087450178584E-022
  1.430000000000000E-002   -3.892336854197280E-022
  1.440000000000000E-002   -3.837871144945735E-022
  1.450000000000000E-002   -3.462954744249682E-022
  1.460000000000000E-002   -2.755940357445958E-022
  1.470000000000000E-002   -1.731008008947352E-022
  1.480000000000000E-002   -4.301915661174413E-023
  1.490000000000000E-002    1.076681768942030E-022
  1.500000000000000E-002    2.694383116303576E-022
  1.510000000000000E-002    4.307069375165012E-022
  1.520000000000000E-002    5.785340592059527E-022
  1.530000000000000E-002    6.995217455157049E-022
  1.540000000000000E-002    7.808497213679595E-022
  1.550000000000000E-002    8.113757865963565E-022
  1.560000000000000E-002    7.827156407942790E-022
  1.570000000000000E-002    6.902093324672825E-022
  1.580000000000000E-002    5.336821686353151E-022
  1.590000000000000E-002    3.179176126312706E-022
  1.600000000000000E-002    5.277607830651059E-023
  1.610000000000000E-002   -2.470809030654985E-022
  1.620000000000000E-002   -5.628722636714649E-022
  1.630000000000000E-002   -8.727617850759912E-022
  1.640000000000000E-002   -1.153247307041498E-021
  1.650000000000000E-002   -1.380788150284308E-021
  1.660000000000000E-002   -1.533556050222672E-021
  1.670000000000000E-002   -1.593178974131826E-021
  1.680000000000000E-002   -1.546341839453554E-021
  1.690000000000000E-002   -1.386113315875331E-021
  1.700000000000000E-002   -1.112883962939720E-021
  1.710000000000000E-002   -7.348291348646925E-022
  1.720000000000000E-002   -2.678467784412069E-022
  1.730000000000000E-002    2.650409747856875E-022
  1.740000000000000E-002    8.347909503117780E-022
  1.750000000000000E-002    1.407877720911625E-021
  1.760000000000000E-002    1.948162067946468E-021
  1.770000000000000E-002    2.418967777522804E-021
  1.780000000000000E-002    2.785226865140647E-021
  1.790000000000000E-002    3.015559715730078E-021
  1.800000000000000E-002    3.084165898432843E-021
  1.810000000000000E-002    2.972426280452275E-021
  1.820000000000000E-002    2.670150435372319E-021
  1.830000000000000E-002    2.176427495925126E-021
  1.840000000000000E-002    1.500084970165513E-021
  1.850000000000000E-002    6.597755358819142E-022
  1.860000000000000E-002   -3.162666073502823E-022
  1.870000000000000E-002   -1.390746128715884E-021