 -4.000000000000000E-002    0.000000000000000E+000
 -3.990000000000000E-002    0.000000000000000E+000
 -3.980000000000000E-002    0.000000000000000E+000
 -3.970000000000000E-002    0.000000000000000E+000
 -3.960000000000000E-002    0.000000000000000E+000
 -3.950000000000000E-002    0.000000000000000E+000
 -3.940000000000000E-002    0.000000000000000E+000
 -3.930000000000000E-002    0.000000000000000E+000
 -3.920000000000000E-002    0.000000000000000E+000
 -3.910000000000000E-002    0.000000000000000E+000
 -3.900000000000000E-002    0.000000000000000E+000
 -3.890000000000000E-002    0.000000000000000E+000
 -3.880000000000000E-002    0.000000000000000E+000
 -3.870000000000000E-002    0.000000000000000E+000
 -3.860000000000000E-002    0.000000000000000E+000
 -3.850000000000000E-002    0.000000000000000E+000
 -3.840000000000000E-002    0.000000000000000E+000
 -3.830000000000000E-002    0.000000000000000E+000
 -3.820000000000000E-002    0.000000000000000E+000
 -3.810000000000000E-002    0.000000000000000E+000
 -3.800000000000000E-002    0.000000000000000E+000
 -3.790000000000000E-002    0.000000000000000E+000
 -3.780000000000000E-002    0.000000000000000E+000
 -3.770000000000000E-002    0.000000000000000E+000
 -3.760000000000000E-002    0.000000000000000E+000
 -3.750000000000000E-002    0.000000000000000E+000
 -3.740000000000000E-002    0.000000000000000E+000
 -3.730000000000000E-002    0.000000000000000E+000
 -3.720000000000000E-002    0.000000000000000E+000
 -3.710000000000000E-002    0.000000000000000E+000
 -3.700000000000000E-002    0.000000000000000E+000
 -3.690000000000000E-002    0.000000000000000E+000
 -3.680000000000000E-002    0.000000000000000E+000
 -3.670000000000000E-002    0.000000000000000E+000
 -3.660000000000000E-002    0.000000000000000E+000
 -3.650000000000000E-002    0.000000000000000E+000
 -3.640000000000000E-002    0.000000000000000E+000
 -3.630000000000000E-002    0.000000000000000E+000
 -3.620000000000000E-002    0.000000000000000E+000
 -3.610000000000000E-002    0.000000000000000E+000
 -3.600000000000000E-002    0.000000000000000E+000
 -3.590000000000000E-002    0.000000000000000E+000
 -3.580000000000000E-002    0.000000000000000E+000
 -3.570000000000000E-002    0.000000000000000E+000
 -3.560000000000000E-002    0.000000000000000E+000
 -3.550000000000000E-002    0.000000000000000E+000
 -3.540000000000000E-002    0.000000000000000E+000
 -3.530000000000000E-002    0.000000000000000E+000
 -3.520000000000000E-002    0.000000000000000E+000
 -3.510000000000000E-002    0.000000000000000E+000
 -3.500000000000000E-002    0.000000000000000E+000
 -3.490000000000000E-002    0.000000000000000E+000
 -3.480000000000000E-002    0.000000000000000E+000
 -3.470000000000000E-002    0.000000000000000E+000
 -3.460000000000000E-002    0.000000000000000E+000
 -3.450000000000000E-002    0.000000000000000E+000
 -3.440000000000000E-002    0.000000000000000E+000
 -3.430000000000000E-002    0.000000000000000E+000
 -3.420000000000000E-002    0.000000000000000E+000
 -3.410000000000000E-002    0.000000000000000E+000
 -3.400000000000000E-002    0.000000000000000E+000
 -3.390000000000000E-002    0.000000000000000E+000
 -3.380000000000000E-002    0.000000000000000E+000
 -3.370000000000000E-002    0.000000000000000E+000
 -3.360000000000000E-002    0.000000000000000E+000
 -3.350000000000000E-002    0.000000000000000E+000
 -3.340000000000000E-002    0.000000000000000E+000
 -3.330000000000000E-002    0.000000000000000E+000
 -3.320000000000000E-002    0.000000000000000E+000
 -3.310000000000000E-002    0.000000000000000E+000
 -3.300000000000000E-002    0.000000000000000E+000
 -3.290000000000000E-002    0.000000000000000E+000
 -3.280000000000000E-002    0.000000000000000E+000
 -3.270000000000000E-002    0.000000000000000E+000
 -3.260000000000000E-002    0.000000000000000E+000
 -3.250000000000000E-002    0.000000000000000E+000
 -3.240000000000000E-002    0.000000000000000E+000
 -3.230000000000000E-002    0.000000000000000E+000
 -3.220000000000000E-002    0.000000000000000E+000
 -3.210000000000000E-002    0.000000000000000E+000
 -3.200000000000000E-002    0.000000000000000E+000
 -3.190000000000000E-002    0.000000000000000E+000
 -3.180000000000000E-002    0.000000000000000E+000
 -3.170000000000000E-002    0.000000000000000E+000
 -3.160000000000000E-002    0.000000000000000E+000
 -3.150000000000000E-002    0.000000000000000E+000
 -3.140000000000000E-002    0.000000000000000E+000
 -3.130000000000000E-002    0.000000000000000E+000
 -3.120000000000000E-002    0.000000000000000E+000
 -3.110000000000000E-002    0.000000000000000E+000
 -3.100000000000000E-002    0.000000000000000E+000
 -3.090000000000000E-002    0.000000000000000E+000
 -3.080000000000000E-002    0.000000000000000E+000
 -3.070000000000000E-002    0.000000000000000E+000
 -3.060000000000000E-002    0.000000000000000E+000
 -3.050000000000000E-002    0.000000000000000E+000
 -3.040000000000000E-002    0.000000000000000E+000
 -3.030000000000000E-002    0.000000000000000E+000
 -3.020000000000000E-002    0.000000000000000E+000
 -3.010000000000000E-002    0.000000000000000E+000
 -3.000000000000000E-002    0.000000000000000E+000
 -2.990000000000000E-002    0.000000000000000E+000
 -2.980000000000000E-002    0.000000000000000E+000
 -2.970000000000000E-002    0.000000000000000E+000
 -2.960000000000000E-002    0.000000000000000E+000
 -2.950000000000000E-002    0.000000000000000E+000
 -2.940000000000000E-002    0.000000000000000E+000
 -2.930000000000000E-002    0.000000000000000E+000
 -2.920000000000000E-002    0.000000000000000E+000
 -2.910000000000000E-002    0.000000000000000E+000
 -2.900000000000000E-002    0.000000000000000E+000
 -2.890000000000000E-002    0.000000000000000E+000
 -2.880000000000000E-002    0.000000000000000E+000
 -2.870000000000000E-002    0.000000000000000E+000
 -2.860000000000000E-002    0.000000000000000E+000
 -2.850000000000000E-002    0.000000000000000E+000
 -2.840000000000000E-002    0.000000000000000E+000
 -2.830000000000000E-002    0.000000000000000E+000
 -2.820000000000000E-002    0.000000000000000E+000
 -2.810000000000000E-002    0.000000000000000E+000
 -2.800000000000000E-002    0.000000000000000E+000
 -2.790000000000000E-002    0.000000000000000E+000
 -2.780000000000000E-002    0.000000000000000E+000
 -2.770000000000000E-002    0.000000000000000E+000
 -2.760000000000000E-002    0.000000000000000E+000
 -2.750000000000000E-002    0.000000000000000E+000
 -2.740000000000000E-002    0.000000000000000E+000
 -2.730000000000000E-002    0.000000000000000E+000
 -2.720000000000000E-002    0.000000000000000E+000
 -2.710000000000000E-002    0.000000000000000E+000
 -2.700000000000000E-002    0.000000000000000E+000
 -2.690000000000000E-002    0.000000000000000E+000
 -2.680000000000000E-002    0.000000000000000E+000
 -2.670000000000000E-002    0.000000000000000E+000
 -2.660000000000000E-002    0.000000000000000E+000
 -2.650000000000000E-002    0.000000000000000E+000
 -2.640000000000000E-002    0.000000000000000E+000
 -2.630000000000000E-002    0.000000000000000E+000
 -2.620000000000000E-002    0.000000000000000E+000
 -2.610000000000000E-002    0.000000000000000E+000
 -2.600000000000000E-002    0.000000000000000E+000
 -2.590000000000000E-002    0.000000000000000E+000
 -2.580000000000000E-002    0.000000000000000E+000
 -2.570000000000000E-002    0.000000000000000E+000
 -2.560000000000000E-002    0.000000000000000E+000
 -2.550000000000000E-002    0.000000000000000E+000
 -2.540000000000000E-002    0.000000000000000E+000
 -2.530000000000000E-002    0.000000000000000E+000
 -2.520000000000000E-002    0.000000000000000E+000
 -2.510000000000000E-002    0.000000000000000E+000
 -2.500000000000000E-002    0.000000000000000E+000
 -2.490000000000000E-002    0.000000000000000E+000
 -2.480000000000000E-002    0.000000000000000E+000
 -2.470000000000000E-002    0.000000000000000E+000
 -2.460000000000000E-002    0.000000000000000E+000
 -2.450000000000000E-002    0.000000000000000E+000
 -2.440000000000000E-002    0.000000000000000E+000
 -2.430000000000000E-002    0.000000000000000E+000
 -2.420000000000000E-002    0.000000000000000E+000
 -2.410000000000000E-002    0.000000000000000E+000
 -2.400000000000000E-002    0.000000000000000E+000
 -2.390000000000000E-002    0.000000000000000E+000
 -2.380000000000000E-002    0.000000000000000E+000
 -2.370000000000000E-002    0.000000000000000E+000
 -2.360000000000000E-002    0.000000000000000E+000
 -2.350000000000000E-002    0.000000000000000E+000
 -2.340000000000000E-002    0.000000000000000E+000
 -2.330000000000000E-002    0.000000000000000E+000
 -2.320000000000000E-002    0.000000000000000E+000
 -2.310000000000000E-002    0.000000000000000E+000
 -2.300000000000000E-002    0.000000000000000E+000
 -2.290000000000000E-002    0.000000000000000E+000
 -2.280000000000000E-002    0.000000000000000E+000
 -2.270000000000000E-002    0.000000000000000E+000
 -2.260000000000000E-002    0.000000000000000E+000
 -2.250000000000000E-002    0.000000000000000E+000
 -2.240000000000000E-002    0.000000000000000E+000
 -2.230000000000000E-002    0.000000000000000E+000
 -2.220000000000000E-002    0.000000000000000E+000
 -2.210000000000000E-002    0.000000000000000E+000
 -2.200000000000000E-002    0.000000000000000E+000
 -2.190000000000000E-002    0.000000000000000E+000
 -2.180000000000000E-002    0.000000000000000E+000
 -2.170000000000000E-002    0.000000000000000E+000
 -2.160000000000000E-002    0.000000000000000E+000
 -2.150000000000000E-002    0.000000000000000E+000
 -2.140000000000000E-002    0.000000000000000E+000
 -2.130000000000000E-002    0.000000000000000E+000
 -2.120000000000000E-002    0.000000000000000E+000
 -2.110000000000000E-002    0.000000000000000E+000
 -2.100000000000000E-002    0.000000000000000E+000
 -2.090000000000000E-002    0.000000000000000E+000
 -2.080000000000000E-002    0.000000000000000E+000
 -2.070000000000000E-002    0.000000000000000E+000
 -2.060000000000000E-002    0.000000000000000E+000
 -2.050000000000000E-002    0.000000000000000E+000
 -2.040000000000000E-002    0.000000000000000E+000
 -2.030000000000000E-002    0.000000000000000E+000
 -2.020000000000000E-002    0.000000000000000E+000
 -2.010000000000000E-002    0.000000000000000E+000
 -2.000000000000000E-002    0.000000000000000E+000
 -1.990000000000000E-002    0.000000000000000E+000
 -1.980000000000000E-002    0.000000000000000E+000
 -1.970000000000000E-002    0.000000000000000E+000
 -1.960000000000000E-002    0.000000000000000E+000
 -1.950000000000000E-002    0.000000000000000E+000
 -1.940000000000000E-002    0.000000000000000E+000
 -1.930000000000000E-002    0.000000000000000E+000
 -1.920000000000000E-002    0.000000000000000E+000
 -1.910000000000000E-002    0.000000000000000E+000
 -1.900000000000000E-002    0.000000000000000E+000
 -1.890000000000000E-002    0.000000000000000E+000
 -1.880000000000000E-002    0.000000000000000E+000
 -1.870000000000000E-002    0.000000000000000E+000
 -1.860000000000000E-002    0.000000000000000E+000
 -1.850000000000000E-002    0.000000000000000E+000
 -1.840000000000000E-002    0.000000000000000E+000
 -1.830000000000000E-002    0.000000000000000E+000
 -1.820000000000000E-002    0.000000000000000E+000
 -1.810000000000000E-002    0.000000000000000E+000
 -1.800000000000000E-002    0.000000000000000E+000
 -1.790000000000000E-002    0.000000000000000E+000
 -1.780000000000000E-002    0.000000000000000E+000
 -1.770000000000000E-002    0.000000000000000E+000
 -1.760000000000000E-002    0.000000000000000E+000
 -1.750000000000000E-002    0.000000000000000E+000
 -1.740000000000000E-002    0.000000000000000E+000
 -1.730000000000000E-002    0.000000000000000E+000
 -1.720000000000000E-002    0.000000000000000E+000
 -1.710000000000000E-002    0.000000000000000E+000
 -1.700000000000000E-002    0.000000000000000E+000
 -1.690000000000000E-002    0.000000000000000E+000
 -1.680000000000000E-002    0.000000000000000E+000
 -1.670000000000000E-002    0.000000000000000E+000
 -1.660000000000000E-002    0.000000000000000E+000
 -1.650000000000000E-002    0.000000000000000E+000
 -1.640000000000000E-002    0.000000000000000E+000
 -1.630000000000000E-002    0.000000000000000E+000
 -1.620000000000000E-002    0.000000000000000E+000
 -1.610000000000000E-002    0.000000000000000E+000
 -1.600000000000000E-002    0.000000000000000E+000
 -1.590000000000000E-002    0.000000000000000E+000
 -1.580000000000000E-002    0.000000000000000E+000
 -1.570000000000000E-002    0.000000000000000E+000
 -1.560000000000000E-002    0.000000000000000E+000
 -1.550000000000000E-002    0.000000000000000E+000
 -1.540000000000000E-002    0.000000000000000E+000
 -1.530000000000000E-002    0.000000000000000E+000
 -1.520000000000000E-002    0.000000000000000E+000
 -1.510000000000000E-002    0.000000000000000E+000
 -1.500000000000000E-002    0.000000000000000E+000
 -1.490000000000000E-002    0.000000000000000E+000
 -1.480000000000000E-002    0.000000000000000E+000
 -1.470000000000000E-002    0.000000000000000E+000
 -1.460000000000000E-002    0.000000000000000E+000
 -1.450000000000000E-002    0.000000000000000E+000
 -1.440000000000000E-002    0.000000000000000E+000
 -1.430000000000000E-002    0.000000000000000E+000
 -1.420000000000000E-002    0.000000000000000E+000
 -1.410000000000000E-002    0.000000000000000E+000
 -1.400000000000000E-002    0.000000000000000E+000
 -1.390000000000000E-002    0.000000000000000E+000
 -1.380000000000000E-002    0.000000000000000E+000
 -1.370000000000000E-002    0.000000000000000E+000
 -1.360000000000000E-002    0.000000000000000E+000
 -1.350000000000000E-002    0.000000000000000E+000
 -1.340000000000000E-002    0.000000000000000E+000
 -1.330000000000000E-002    0.000000000000000E+000
 -1.320000000000000E-002    0.000000000000000E+000
 -1.310000000000000E-002    0.000000000000000E+000
 -1.300000000000000E-002    0.000000000000000E+000
 -1.290000000000000E-002    0.000000000000000E+000
 -1.280000000000000E-002    0.000000000000000E+000
 -1.270000000000000E-002    0.000000000000000E+000
 -1.260000000000000E-002    0.000000000000000E+000
 -1.250000000000000E-002    0.000000000000000E+000
 -1.240000000000000E-002    0.000000000000000E+000
 -1.230000000000000E-002    0.000000000000000E+000
 -1.220000000000000E-002    0.000000000000000E+000
 -1.210000000000000E-002    0.000000000000000E+000
 -1.200000000000000E-002    0.000000000000000E+000
 -1.190000000000000E-002    0.000000000000000E+000
 -1.180000000000000E-002    0.000000000000000E+000
 -1.170000000000000E-002    0.000000000000000E+000
 -1.160000000000000E-002    0.000000000000000E+000
 -1.150000000000000E-002    0.000000000000000E+000
 -1.140000000000000E-002    0.000000000000000E+000
 -1.130000000000000E-002    0.000000000000000E+000
 -1.120000000000000E-002    0.000000000000000E+000
 -1.110000000000000E-002    0.000000000000000E+000
 -1.100000000000000E-002    0.000000000000000E+000
 -1.090000000000000E-002    0.000000000000000E+000
 -1.080000000000000E-002    0.000000000000000E+000
 -1.070000000000000E-002    0.000000000000000E+000
 -1.060000000000000E-002    0.000000000000000E+000
 -1.050000000000000E-002    0.000000000000000E+000
 -1.040000000000000E-002    0.000000000000000E+000
 -1.030000000000000E-002    0.000000000000000E+000
 -1.020000000000000E-002    0.000000000000000E+000
 -1.010000000000000E-002    0.000000000000000E+000
 -1.000000000000000E-002    0.000000000000000E+000
 -9.899999999999999E-003    0.000000000000000E+000
 -9.800000000000000E-003    0.000000000000000E+000
 -9.699999999999999E-003    0.000000000000000E+000
 -9.599999999999999E-003    0.000000000000000E+000
 -9.500000000000000E-003    0.000000000000000E+000
 -9.399999999999999E-003    0.000000000000000E+000
 -9.299999999999999E-003    0.000000000000000E+000
 -9.200000000000000E-003    0.000000000000000E+000
 -9.099999999999999E-003    0.000000000000000E+000
 -8.999999999999999E-003    0.000000000000000E+000
 -8.900000000000000E-003    0.000000000000000E+000
 -8.799999999999999E-003    0.000000000000000E+000
 -8.699999999999999E-003    0.000000000000000E+000
 -8.600000000000000E-003    0.000000000000000E+000
 -8.499999999999999E-003    0.000000000000000E+000
 -8.399999999999999E-003    0.000000000000000E+000
 -8.300000000000000E-003    0.000000000000000E+000
 -8.199999999999999E-003    0.000000000000000E+000
 -8.100000000000000E-003    0.000000000000000E+000
 -8.000000000000000E-003    0.000000000000000E+000
 -7.899999999999999E-003    0.000000000000000E+000
 -7.800000000000000E-003    0.000000000000000E+000
 -7.699999999999999E-003    0.000000000000000E+000
 -7.599999999999999E-003    0.000000000000000E+000
 -7.499999999999999E-003    0.000000000000000E+000
 -7.399999999999999E-003    0.000000000000000E+000
 -7.299999999999999E-003    0.000000000000000E+000
 -7.199999999999999E-003    0.000000000000000E+000
 -7.100000000000000E-003    0.000000000000000E+000
 -6.999999999999999E-003    0.000000000000000E+000
 -6.899999999999999E-003    0.000000000000000E+000
 -6.800000000000000E-003    0.000000000000000E+000
 -6.699999999999999E-003    0.000000000000000E+000
 -6.599999999999999E-003    0.000000000000000E+000
 -6.499999999999999E-003    0.000000000000000E+000
 -6.399999999999999E-003    0.000000000000000E+000
 -6.299999999999999E-003    0.000000000000000E+000
 -6.199999999999999E-003    0.000000000000000E+000
 -6.100000000000000E-003    0.000000000000000E+000
 -5.999999999999999E-003    0.000000000000000E+000
 -5.899999999999999E-003    8.700000408781844E-049
 -5.800000000000000E-003    1.740000081756369E-048
 -5.699999999999999E-003    4.292000243939695E-048
 -5.599999999999999E-003    6.844000406123021E-048
 -5.499999999999999E-003    9.396000568306347E-048
 -5.399999999999999E-003    1.194800073048967E-047
 -5.299999999999999E-003    1.194800073048967E-047
 -5.199999999999999E-003    1.281800077136786E-047
 -5.099999999999999E-003    9.454000528757574E-048
 -4.999999999999999E-003    8.963564967069422E-049
 -4.899999999999999E-003   -1.021328769752702E-047
 -4.799999999999999E-003   -2.474493209482248E-047
 -4.699999999999999E-003   -4.769713016679404E-047
 -4.599999999999999E-003   -2.599325523550933E-047
 -4.499999999999999E-003   -1.176176073353050E-047
 -4.399999999999999E-003   -5.165176281629554E-048
 -4.299999999999999E-003    7.067961840959243E-048
 -4.199999999999999E-003   -4.385491058553189E-048
 -4.099999999999999E-003   -3.643988548029750E-047
 -3.999999999999999E-003   -2.584713823065734E-046
 -3.899999999999999E-003   -4.981698218769552E-046
 -3.799999999999999E-003   -7.568480844948397E-046
 -3.699999999999999E-003   -1.006004737535321E-045
 -3.599999999999999E-003   -1.175753025841291E-045
 -3.499999999999999E-003   -1.096477049078591E-045
 -3.399999999999999E-003   -1.187545553869947E-046
 -3.299999999999999E-003    1.257872504188790E-045
 -3.199999999999999E-003    2.181960284757257E-045
 -3.099999999999999E-003    3.990710479375694E-045
 -2.999999999999999E-003    7.523484671677703E-045
 -2.899999999999999E-003    1.066544499693154E-044
 -2.799999999999999E-003    1.407067443075775E-044
 -2.699999999999999E-003    1.563665371039312E-044
 -2.599999999999999E-003    1.491791937168105E-044
 -2.499999999999999E-003    1.246577190200414E-044
 -2.399999999999999E-003    4.835408885832975E-045
 -2.299999999999999E-003   -7.165655456282197E-045
 -2.199999999999999E-003   -2.298352236860122E-044
 -2.099999999999999E-003   -4.253646767526658E-044
 -1.999999999999999E-003   -6.410523495444387E-044
 -1.899999999999999E-003   -8.423086550474993E-044
 -1.799999999999999E-003   -9.684882212073964E-044
 -1.699999999999999E-003   -9.700162883115673E-044
 -1.599999999999999E-003   -7.964062886097274E-044
 -1.499999999999999E-003   -4.061284699844853E-044
 -1.399999999999999E-003    2.509206495818942E-044
 -1.299999999999999E-003    1.147059770223305E-043
 -1.199999999999999E-003    2.231062471363284E-043
 -1.099999999999999E-003    3.384980560367750E-043
 -9.999999999999989E-004    4.418016409148175E-043
 -8.999999999999990E-004    5.110567669085465E-043
 -7.999999999999990E-004    5.186143269632767E-043
 -6.999999999999989E-004    4.382013339775960E-043
 -5.999999999999990E-004    2.509768871864495E-043
 -4.999999999999989E-004   -5.452057960288262E-044
 -3.999999999999989E-004   -4.677363426774133E-043
 -2.999999999999989E-004   -9.592155941407102E-043
 -1.999999999999989E-004   -1.472254666586509E-042
 -9.999999999999892E-005   -1.926889681232459E-042
  1.084202172485504E-018   -2.225149393338127E-042
  1.000000000000011E-004   -2.260736335274775E-042
  2.000000000000011E-004   -1.935534382048190E-042
  3.000000000000011E-004   -1.180393883513565E-042
  4.000000000000011E-004    2.509977187426436E-044
  5.000000000000011E-004    1.629324664651090E-042
  6.000000000000011E-004    3.498504809754568E-042
  7.000000000000011E-004    5.413726855026778E-042
  8.000000000000011E-004    7.077793681131381E-042
  9.000000000000012E-004    8.145563432294630E-042
  1.000000000000001E-003    8.268522688550993E-042
  1.100000000000001E-003    7.152073406636152E-042
  1.200000000000001E-003    4.620004094713113E-042
  1.300000000000001E-003    6.786847023376409E-043
  1.400000000000001E-003   -4.433901632252090E-042
  1.500000000000001E-003   -1.023093850550635E-041
  1.600000000000001E-003   -1.598751711138590E-041
  1.700000000000001E-003   -2.081048318912513E-041
  1.800000000000001E-003   -2.374650126602550E-041
  1.900000000000001E-003   -2.392897362049229E-041
  2.000000000000001E-003   -2.075017975365165E-041
  2.100000000000001E-003   -1.402275697057411E-041
  2.200000000000001E-003   -4.107037796695768E-042
  2.300000000000001E-003    8.040385897047542E-042
  2.400000000000001E-003    2.091511952739827E-041
  2.500000000000001E-003    3.263469534632103E-041
  2.600000000000001E-003    4.122813722785671E-041
  2.700000000000001E-003    4.500377879501389E-041
  2.800000000000001E-003    4.296016421972383E-041
  2.900000000000001E-003    3.514739380494821E-041
  3.000000000000001E-003    2.288934485963341E-041
  3.100000000000001E-003    8.784589605318176E-042
  3.200000000000001E-003   -3.599554463006283E-042
  3.300000000000001E-003   -1.035130738996378E-041
  3.400000000000001E-003   -8.141375199980009E-042
  3.500000000000001E-003    4.674745062329743E-042
  3.600000000000001E-003    2.695008944455305E-041
  3.700000000000001E-003    5.389632417269864E-041
  3.800000000000001E-003    7.677673962796584E-041
  3.900000000000001E-003    8.340907940120762E-041
  4.000000000000001E-003    5.968245261153653E-041
  4.100000000000001E-003   -7.861687883494591E-042
  4.200000000000001E-003   -1.285158202368604E-040
  4.300000000000001E-003   -3.033498909514903E-040
  4.400000000000001E-003   -5.212421840546779E-040
  4.500000000000001E-003   -7.558334925756723E-040
  4.600000000000002E-003   -9.643723754885061E-040
  4.700000000000001E-003   -1.089372941385496E-039
  4.800000000000001E-003   -1.063825468466801E-039
  4.900000000000002E-003   -8.202667481660812E-040
  5.000000000000001E-003   -3.034321576982288E-040
  5.100000000000001E-003    5.145520530860485E-040
  5.200000000000001E-003    1.618264811462918E-039
  5.300000000000002E-003    2.934953821869988E-039
  5.400000000000001E-003    4.325439610587012E-039
  5.500000000000001E-003    5.583208718937521E-039
  5.600000000000002E-003    6.444580239222076E-039
  5.700000000000001E-003    6.611885609610776E-039
  5.800000000000001E-003    5.790097050178227E-039
  5.900000000000002E-003    3.735277552670596E-039
  6.000000000000001E-003    3.108746376688470E-040
  6.100000000000001E-003   -4.454531979367052E-039
  6.200000000000002E-003   -1.031648928748126E-038
  6.300000000000002E-003   -1.678074278709516E-038
  6.400000000000001E-003   -2.309619423209869E-038
  6.500000000000001E-003   -2.828360553508791E-038
  6.600000000000002E-003   -3.120616317264853E-038
  6.700000000000001E-003   -3.068368797787543E-038
  6.800000000000001E-003   -2.564658318825016E-038
  6.900000000000002E-003   -1.531915186404106E-038
  7.000000000000001E-003    5.847606584407754E-040
  7.100000000000001E-003    2.167678440676525E-038
  7.200000000000002E-003    4.674704903128082E-038
  7.300000000000002E-003    7.368440814853648E-038
  7.400000000000001E-003    9.949165988100469E-038
  7.500000000000001E-003    1.204186269840173E-037
  7.600000000000002E-003    1.322268993725095E-037
  7.700000000000001E-003    1.305878212637310E-037
  7.800000000000001E-003    1.115997936898877E-037
  7.900000000000001E-003    7.239405802946727E-038
  8.000000000000002E-003    1.178047682595038E-038
  8.100000000000001E-003   -6.913127384339595E-038
  8.200000000000001E-003   -1.664128961181514E-037
  8.300000000000002E-003   -2.729867862414038E-037
  8.400000000000001E-003   -3.785707134957102E-037
  8.500000000000002E-003   -4.699777331632804E-037
  8.600000000000002E-003   -5.318345718494600E-037
  8.700000000000001E-003   -5.477534011515110E-037
  8.800000000000002E-003   -5.019537934467974E-037
  8.900000000000002E-003   -3.812818190719386E-037
  9.000000000000001E-003   -1.775155936235052E-037
  9.100000000000002E-003    1.102169935700062E-037
  9.200000000000002E-003    4.731470214080876E-037
  9.300000000000001E-003    8.909964375099931E-037
  9.400000000000002E-003    1.330873574782586E-036
  9.500000000000001E-003    1.747291128434935E-036
  9.600000000000001E-003    2.083650979139043E-036
  9.700000000000002E-003    2.275477254924121E-036
  9.800000000000001E-003    2.255566301130483E-036
  9.900000000000001E-003    1.961048645024552E-036
  1.000000000000000E-002    1.342132675184011E-036
  1.010000000000000E-002    3.720241898256797E-037
  1.020000000000000E-002   -9.427839307883950E-037
  1.030000000000000E-002   -2.552958922886610E-036
  1.040000000000000E-002   -4.358880328936627E-036
  1.050000000000000E-002   -6.206846522987535E-036
  1.060000000000000E-002   -7.890530515824293E-036
  1.070000000000000E-002   -9.159155054230593E-036
  1.080000000000000E-002   -9.733503744457186E-036
  1.090000000000000E-002   -9.330299297200050E-036
  1.100000000000000E-002   -7.694645755174235E-036
  1.110000000000000E-002   -4.639166181086055E-036
  1.120000000000000E-002   -8.725183259027097E-038
  1.130000000000000E-002    5.883451812499538E-036
  1.140000000000000E-002    1.300243524160397E-035
  1.150000000000000E-002    2.077869546879089E-035
  1.160000000000000E-002    2.849080745509024E-035
  1.170000000000000E-002    3.520138835882472E-035
  1.180000000000000E-002    3.980184849489167E-035
  1.190000000000000E-002    4.109157456156779E-035
  1.200000000000000E-002    3.789286922766864E-035
  1.210000000000000E-002    2.919913890881002E-035
  1.220000000000000E-002    1.434899623361945E-035
  1.230000000000000E-002   -6.786497568102963E-036
  1.240000000000000E-002   -3.362191556533793E-035
  1.250000000000000E-002   -6.470467706042276E-035
  1.260000000000000E-002   -9.761928935733016E-035
  1.270000000000000E-002   -1.289786191695038E-034
  1.280000000000000E-002   -1.545311086458403E-034
  1.290000000000000E-002   -1.694079522788116E-034
  1.300000000000000E-002   -1.685244968926394E-034
  1.310000000000000E-002   -1.471354158036868E-034
  1.320000000000000E-002   -1.015236054394222E-034
  1.330000000000000E-002   -2.977914908642327E-035
  1.340000000000000E-002    6.740098179995029E-035
  1.350000000000000E-002    1.859871766951699E-034
  1.360000000000000E-002    3.180810287137318E-034
  1.370000000000000E-002    4.516975332366832E-034
  1.380000000000000E-002    5.709942141920333E-034
  1.390000000000000E-002    6.570589142042114E-034
  1.400000000000000E-002    6.893307141449109E-034
  1.410000000000000E-002    6.476687136571316E-034
  1.420000000000000E-002    5.150042211169373E-034
  1.430000000000000E-002    2.804135052169979E-034
  1.440000000000000E-002   -5.765567830058816E-035
  1.450000000000000E-002   -4.883744790293946E-034
  1.460000000000000E-002   -9.861950754220386E-034
  1.470000000000000E-002   -1.509689739816730E-033
  1.480000000000000E-002   -2.002068797212007E-033
  1.490000000000000E-002   -2.393810022788033E-033
  1.500000000000000E-002   -2.607681533983525E-033
  1.510000000000000E-002   -2.566211734507163E-033
  1.520000000000000E-002   -2.201352250316446E-033
  1.530000000000000E-002   -1.465721613483815E-033
  1.540000000000000E-002   -3.444342879639863E-034
  1.550000000000000E-002    1.133838649497073E-033
  1.560000000000000E-002    2.888214481132621E-033
  1.570000000000000E-002    4.781130122518408E-033
  1.580000000000000E-002    6.619794365133605E-033
  1.590000000000000E-002    8.165005630248722E-033
  1.600000000000000E-002    9.148226197474224E-033
  1.610000000000000E-002    9.296980931691215E-033
  1.620000000000000E-002    8.367602261791933E-033
  1.630000000000000E-002    6.183137846242801E-033
  1.640000000000000E-002    2.673004150818122E-033
  1.650000000000000E-002   -2.090148778924936E-033
  1.660000000000000E-002   -7.861724703225925E-033
  1.670000000000000E-002   -1.421033366096907E-032
  1.680000000000000E-002   -2.052224702757466E-032
  1.690000000000000E-002   -2.602953311435779E-032
  1.700000000000000E-002   -2.986439439455577E-032
  1.710000000000000E-002   -3.113957325446584E-032
  1.720000000000000E-002   -2.905141411155919E-032
  1.730000000000000E-002   -2.299847663724850E-032
  1.740000000000000E-002   -1.270493979783295E-032
  1.750000000000000E-002    1.665201774799043E-033
  1.760000000000000E-002    1.941941422039846E-032
  1.770000000000000E-002    3.929045013391115E-032
  1.780000000000000E-002    5.944861370698335E-032
  1.790000000000000E-002    7.758503233282012E-032
  1.800000000000000E-002    9.107275438583544E-032
  1.810000000000000E-002    9.720460700669749E-032
  1.820000000000000E-002    9.349710829547425E-032
  1.830000000000000E-002    7.803923075779894E-032
  1.840000000000000E-002    4.985437273581231E-032
  1.850000000000000E-002    9.234963380792982E-033
  1.860000000000000E-002   -4.199678414676786E-032
  1.870000000000000E-002   -1.003503306756013E-031