 -4.000000000000000E-002    0.000000000000000E+000
 -3.990000000000000E-002    0.000000000000000E+000
 -3.980000000000000E-002    0.000000000000000E+000
 -3.970000000000000E-002    0.000000000000000E+000
 -3.960000000000000E-002    0.000000000000000E+000
 -3.950000000000000E-002    0.000000000000000E+000
 -3.940000000000000E-002    0.000000000000000E+000
 -3.930000000000000E-002    0.000000000000000E+000
 -3.920000000000000E-002    0.000000000000000E+000
 -3.910000000000000E-002    0.000000000000000E+000
 -3.900000000000000E-002    0.000000000000000E+000
 -3.890000000000000E-002    0.000000000000000E+000
 -3.880000000000000E-002    0.000000000000000E+000
 -3.870000000000000E-002    0.000000000000000E+000
 -3.860000000000000E-002    0.000000000000000E+000
 -3.850000000000000E-002    0.000000000000000E+000
 -3.840000000000000E-002    0.000000000000000E+000
 -3.830000000000000E-002    0.000000000000000E+000
 -3.820000000000000E-002    0.000000000000000E+000
 -3.810000000000000E-002    0.000000000000000E+000
 -3.800000000000000E-002    0.000000000000000E+000
 -3.790000000000000E-002    0.000000000000000E+000
 -3.780000000000000E-002    0.000000000000000E+000
 -3.770000000000000E-002    0.000000000000000E+000
 -3.760000000000000E-002    0.000000000000000E+000
 -3.750000000000000E-002    0.000000000000000E+000
 -3.740000000000000E-002    0.000000000000000E+000
 -3.730000000000000E-002    0.000000000000000E+000
 -3.720000000000000E-002    0.000000000000000E+000
 -3.710000000000000E-002    0.000000000000000E+000
 -3.700000000000000E-002    0.000000000000000E+000
 -3.690000000000000E-002    0.000000000000000E+000
 -3.680000000000000E-002    0.000000000000000E+000
 -3.670000000000000E-002    0.000000000000000E+000
 -3.660000000000000E-002    0.000000000000000E+000
 -3.650000000000000E-002    0.000000000000000E+000
 -3.640000000000000E-002    0.000000000000000E+000
 -3.630000000000000E-002    0.000000000000000E+000
 -3.620000000000000E-002    0.000000000000000E+000
 -3.610000000000000E-002    0.000000000000000E+000
 -3.600000000000000E-002    0.000000000000000E+000
 -3.590000000000000E-002    0.000000000000000E+000
 -3.580000000000000E-002    0.000000000000000E+000
 -3.570000000000000E-002    0.000000000000000E+000
 -3.560000000000000E-002    0.000000000000000E+000
 -3.550000000000000E-002    0.000000000000000E+000
 -3.540000000000000E-002    0.000000000000000E+000
 -3.530000000000000E-002    0.000000000000000E+000
 -3.520000000000000E-002    0.000000000000000E+000
 -3.510000000000000E-002    0.000000000000000E+000
 -3.500000000000000E-002    0.000000000000000E+000
 -3.490000000000000E-002    0.000000000000000E+000
 -3.480000000000000E-002    0.000000000000000E+000
 -3.470000000000000E-002    0.000000000000000E+000
 -3.460000000000000E-002    0.000000000000000E+000
 -3.450000000000000E-002    0.000000000000000E+000
 -3.440000000000000E-002    0.000000000000000E+000
 -3.430000000000000E-002    0.000000000000000E+000
 -3.420000000000000E-002    0.000000000000000E+000
 -3.410000000000000E-002    0.000000000000000E+000
 -3.400000000000000E-002    0.000000000000000E+000
 -3.390000000000000E-002    0.000000000000000E+000
 -3.380000000000000E-002    0.000000000000000E+000
 -3.370000000000000E-002    0.000000000000000E+000
 -3.360000000000000E-002    0.000000000000000E+000
 -3.350000000000000E-002    0.000000000000000E+000
 -3.340000000000000E-002    0.000000000000000E+000
 -3.330000000000000E-002    0.000000000000000E+000
 -3.320000000000000E-002    0.000000000000000E+000
 -3.310000000000000E-002    0.000000000000000E+000
 -3.300000000000000E-002    0.000000000000000E+000
 -3.290000000000000E-002    0.000000000000000E+000
 -3.280000000000000E-002    0.000000000000000E+000
 -3.270000000000000E-002    0.000000000000000E+000
 -3.260000000000000E-002    0.000000000000000E+000
 -3.250000000000000E-002    0.000000000000000E+000
 -3.240000000000000E-002    0.000000000000000E+000
 -3.230000000000000E-002    0.000000000000000E+000
 -3.220000000000000E-002    0.000000000000000E+000
 -3.210000000000000E-002    0.000000000000000E+000
 -3.200000000000000E-002    0.000000000000000E+000
 -3.190000000000000E-002    0.000000000000000E+000
 -3.180000000000000E-002    0.000000000000000E+000
 -3.170000000000000E-002    0.000000000000000E+000
 -3.160000000000000E-002    0.000000000000000E+000
 -3.150000000000000E-002    0.000000000000000E+000
 -3.140000000000000E-002    0.000000000000000E+000
 -3.130000000000000E-002    0.000000000000000E+000
 -3.120000000000000E-002    0.000000000000000E+000
 -3.110000000000000E-002    0.000000000000000E+000
 -3.100000000000000E-002    0.000000000000000E+000
 -3.090000000000000E-002    0.000000000000000E+000
 -3.080000000000000E-002    0.000000000000000E+000
 -3.070000000000000E-002    0.000000000000000E+000
 -3.060000000000000E-002    0.000000000000000E+000
 -3.050000000000000E-002    0.000000000000000E+000
 -3.040000000000000E-002    0.000000000000000E+000
 -3.030000000000000E-002    0.000000000000000E+000
 -3.020000000000000E-002    0.000000000000000E+000
 -3.010000000000000E-002    0.000000000000000E+000
 -3.000000000000000E-002    0.000000000000000E+000
 -2.990000000000000E-002    0.000000000000000E+000
 -2.980000000000000E-002    0.000000000000000E+000
 -2.970000000000000E-002    0.000000000000000E+000
 -2.960000000000000E-002    0.000000000000000E+000
 -2.950000000000000E-002    0.000000000000000E+000
 -2.940000000000000E-002    0.000000000000000E+000
 -2.930000000000000E-002    0.000000000000000E+000
 -2.920000000000000E-002    0.000000000000000E+000
 -2.910000000000000E-002    0.000000000000000E+000
 -2.900000000000000E-002    0.000000000000000E+000
 -2.890000000000000E-002    0.000000000000000E+000
 -2.880000000000000E-002    0.000000000000000E+000
 -2.870000000000000E-002    0.000000000000000E+000
 -2.860000000000000E-002    0.000000000000000E+000
 -2.850000000000000E-002    0.000000000000000E+000
 -2.840000000000000E-002    0.000000000000000E+000
 -2.830000000000000E-002    0.000000000000000E+000
 -2.820000000000000E-002    0.000000000000000E+000
 -2.810000000000000E-002    0.000000000000000E+000
 -2.800000000000000E-002    0.000000000000000E+000
 -2.790000000000000E-002    0.000000000000000E+000
 -2.780000000000000E-002    0.000000000000000E+000
 -2.770000000000000E-002    0.000000000000000E+000
 -2.760000000000000E-002    0.000000000000000E+000
 -2.750000000000000E-002    0.000000000000000E+000
 -2.740000000000000E-002    0.000000000000000E+000
 -2.730000000000000E-002    0.000000000000000E+000
 -2.720000000000000E-002    0.000000000000000E+000
 -2.710000000000000E-002    0.000000000000000E+000
 -2.700000000000000E-002    0.000000000000000E+000
 -2.690000000000000E-002    0.000000000000000E+000
 -2.680000000000000E-002    0.000000000000000E+000
 -2.670000000000000E-002    0.000000000000000E+000
 -2.660000000000000E-002    0.000000000000000E+000
 -2.650000000000000E-002    0.000000000000000E+000
 -2.640000000000000E-002    0.000000000000000E+000
 -2.630000000000000E-002    0.000000000000000E+000
 -2.620000000000000E-002    0.000000000000000E+000
 -2.610000000000000E-002    0.000000000000000E+000
 -2.600000000000000E-002    0.000000000000000E+000
 -2.590000000000000E-002    0.000000000000000E+000
 -2.580000000000000E-002    0.000000000000000E+000
 -2.570000000000000E-002    0.000000000000000E+000
 -2.560000000000000E-002    0.000000000000000E+000
 -2.550000000000000E-002    0.000000000000000E+000
 -2.540000000000000E-002    0.000000000000000E+000
 -2.530000000000000E-002    0.000000000000000E+000
 -2.520000000000000E-002    0.000000000000000E+000
 -2.510000000000000E-002    0.000000000000000E+000
 -2.500000000000000E-002    0.000000000000000E+000
 -2.490000000000000E-002    0.000000000000000E+000
 -2.480000000000000E-002    0.000000000000000E+000
 -2.470000000000000E-002    0.000000000000000E+000
 -2.460000000000000E-002    0.000000000000000E+000
 -2.450000000000000E-002    0.000000000000000E+000
 -2.440000000000000E-002    0.000000000000000E+000
 -2.430000000000000E-002    0.000000000000000E+000
 -2.420000000000000E-002    0.000000000000000E+000
 -2.410000000000000E-002    0.000000000000000E+000
 -2.400000000000000E-002    0.000000000000000E+000
 -2.390000000000000E-002    0.000000000000000E+000
 -2.380000000000000E-002    0.000000000000000E+000
 -2.370000000000000E-002    0.000000000000000E+000
 -2.360000000000000E-002    0.000000000000000E+000
 -2.350000000000000E-002    0.000000000000000E+000
 -2.340000000000000E-002    0.000000000000000E+000
 -2.330000000000000E-002    0.000000000000000E+000
 -2.320000000000000E-002    0.000000000000000E+000
 -2.310000000000000E-002    0.000000000000000E+000
 -2.300000000000000E-002    0.000000000000000E+000
 -2.290000000000000E-002    0.000000000000000E+000
 -2.280000000000000E-002    0.000000000000000E+000
 -2.270000000000000E-002    0.000000000000000E+000
 -2.260000000000000E-002    0.000000000000000E+000
 -2.250000000000000E-002    0.000000000000000E+000
 -2.240000000000000E-002    0.000000000000000E+000
 -2.230000000000000E-002    0.000000000000000E+000
 -2.220000000000000E-002    0.000000000000000E+000
 -2.210000000000000E-002    0.000000000000000E+000
 -2.200000000000000E-002    0.000000000000000E+000
 -2.190000000000000E-002    0.000000000000000E+000
 -2.180000000000000E-002    0.000000000000000E+000
 -2.170000000000000E-002    0.000000000000000E+000
 -2.160000000000000E-002    0.000000000000000E+000
 -2.150000000000000E-002    0.000000000000000E+000
 -2.140000000000000E-002    0.000000000000000E+000
 -2.130000000000000E-002    0.000000000000000E+000
 -2.120000000000000E-002    0.000000000000000E+000
 -2.110000000000000E-002    0.000000000000000E+000
 -2.100000000000000E-002    0.000000000000000E+000
 -2.090000000000000E-002    0.000000000000000E+000
 -2.080000000000000E-002    0.000000000000000E+000
 -2.070000000000000E-002    0.000000000000000E+000
 -2.060000000000000E-002    0.000000000000000E+000
 -2.050000000000000E-002    0.000000000000000E+000
 -2.040000000000000E-002    0.000000000000000E+000
 -2.030000000000000E-002    0.000000000000000E+000
 -2.020000000000000E-002    0.000000000000000E+000
 -2.010000000000000E-002    0.000000000000000E+000
 -2.000000000000000E-002    0.000000000000000E+000
 -1.990000000000000E-002    0.000000000000000E+000
 -1.980000000000000E-002    0.000000000000000E+000
 -1.970000000000000E-002    0.000000000000000E+000
 -1.960000000000000E-002    0.000000000000000E+000
 -1.950000000000000E-002    0.000000000000000E+000
 -1.940000000000000E-002    0.000000000000000E+000
 -1.930000000000000E-002    0.000000000000000E+000
 -1.920000000000000E-002    0.000000000000000E+000
 -1.910000000000000E-002    0.000000000000000E+000
 -1.900000000000000E-002    0.000000000000000E+000
 -1.890000000000000E-002    0.000000000000000E+000
 -1.880000000000000E-002   -2.995564161511391E-048
 -1.870000000000000E-002   -5.991128323022783E-048
 -1.860000000000000E-002   -1.198225664604557E-047
 -1.850000000000000E-002   -2.396451329209113E-047
 -1.840000000000000E-002   -3.594676993813670E-047
 -1.830000000000000E-002   -4.792902658418226E-047
 -1.820000000000000E-002   -4.533841421125185E-047
 -1.810000000000000E-002   -1.588401785298832E-047
 -1.800000000000000E-002   -5.021394558487398E-047
 -1.790000000000000E-002   -5.279397383970891E-047
 -1.780000000000000E-002    1.302827188819421E-047
 -1.770000000000000E-002    1.142114228661300E-046
 -1.760000000000000E-002    3.192167406061234E-046
 -1.750000000000000E-002    3.951345949425762E-046
 -1.740000000000000E-002    9.674939234533824E-046
 -1.730000000000000E-002    1.480934491557028E-045
 -1.720000000000000E-002    1.934872309403394E-045
 -1.710000000000000E-002    1.871538417431864E-045
 -1.700000000000000E-002    1.364486367236193E-045
 -1.690000000000000E-002    1.662906521164187E-046
 -1.680000000000000E-002   -1.286514391212150E-045
 -1.670000000000000E-002   -4.096203979553950E-045
 -1.660000000000000E-002   -6.421616793238081E-045
 -1.650000000000000E-002   -9.830270536090505E-045
 -1.640000000000000E-002   -1.271534879104877E-044
 -1.630000000000000E-002   -1.363319326931165E-044
 -1.620000000000000E-002   -1.223412317080789E-044
 -1.610000000000000E-002   -6.549779909757707E-045
 -1.600000000000000E-002    4.458664802023583E-045
 -1.590000000000000E-002    2.272004757413262E-044
 -1.580000000000000E-002    4.604211804384425E-044
 -1.570000000000000E-002    7.288263891615228E-044
 -1.560000000000000E-002    9.915086081823832E-044
 -1.550000000000000E-002    1.179480454544838E-043
 -1.540000000000000E-002    1.184044133096412E-043
 -1.530000000000000E-002    9.070617782905293E-044
 -1.520000000000000E-002    2.457431931070894E-044
 -1.510000000000000E-002   -8.760888109359102E-044
 -1.500000000000000E-002   -2.462348215329003E-043
 -1.490000000000000E-002   -4.421712909543479E-043
 -1.480000000000000E-002   -6.504465338184249E-043
 -1.470000000000000E-002   -8.309649679786091E-043
 -1.460000000000000E-002   -9.236152196401234E-043
 -1.450000000000000E-002   -8.591092734705508E-043
 -1.440000000000000E-002   -5.626950557554898E-043
 -1.430000000000000E-002    2.785086455536496E-044
 -1.420000000000000E-002    9.404588814916347E-043
 -1.410000000000000E-002    2.147709668257037E-042
 -1.400000000000000E-002    3.538829385470123E-042
 -1.390000000000000E-002    4.904301716636854E-042
 -1.380000000000000E-002    5.930653395855252E-042
 -1.370000000000000E-002    6.215667330983570E-042
 -1.360000000000000E-002    5.311339289332648E-042
 -1.350000000000000E-002    2.802060380158928E-042
 -1.340000000000000E-002   -1.588580282625606E-042
 -1.330000000000000E-002   -7.872880420197966E-042
 -1.320000000000000E-002   -1.565976577952906E-041
 -1.310000000000000E-002   -2.404795011795316E-041
 -1.300000000000000E-002   -3.157005759625496E-041
 -1.290000000000000E-002   -3.623794935251661E-041
 -1.280000000000000E-002   -3.571795975905937E-041
 -1.270000000000000E-002   -2.765916630746996E-041
 -1.260000000000000E-002   -1.018343595785518E-041
 -1.250000000000000E-002    1.751394105216847E-041
 -1.240000000000000E-002    5.450307790912960E-041
 -1.230000000000000E-002    9.754052777875243E-041
 -1.220000000000000E-002    1.407049688768571E-040
 -1.210000000000000E-002    1.754369978161641E-040
 -1.200000000000000E-002    1.911312912988232E-040
 -1.190000000000000E-002    1.764037532631535E-040
 -1.180000000000000E-002    1.210579245852363E-040
 -1.170000000000000E-002    1.862024811965221E-041
 -1.160000000000000E-002   -1.308164508110081E-040
 -1.150000000000000E-002   -3.179214199735407E-040
 -1.140000000000000E-002   -5.222157044501415E-040
 -1.130000000000000E-002   -7.116270039687675E-040
 -1.120000000000000E-002   -8.441699808025530E-040
 -1.110000000000000E-002   -8.722367354475356E-040
 -1.100000000000000E-002   -7.496495789104241E-040
 -1.090000000000000E-002   -4.411151060782172E-040
 -1.080000000000000E-002    6.690616847358116E-041
 -1.070000000000000E-002    7.555200365770491E-040
 -1.060000000000000E-002    1.565106078375016E-039
 -1.050000000000000E-002    2.391892819904606E-039
 -1.040000000000000E-002    3.091795513273049E-039
 -1.030000000000000E-002    3.493334842929134E-039
 -1.020000000000000E-002    3.420241195989892E-039
 -1.010000000000000E-002    2.722665633607064E-039
 -1.000000000000000E-002    1.313831147679220E-039
 -9.899999999999999E-003   -7.931863173378869E-040
 -9.800000000000000E-003   -3.455611091950856E-039
 -9.699999999999999E-003   -6.386082054888115E-039
 -9.599999999999999E-003   -9.160337308796003E-039
 -9.500000000000000E-003   -1.125303914042800E-038
 -9.399999999999999E-003   -1.210344058458107E-038
 -9.299999999999999E-003   -1.120719890084986E-038
 -9.200000000000000E-003   -8.224291173372535E-039
 -9.099999999999999E-003   -3.086666671428527E-039
 -8.999999999999999E-003    3.915511164724230E-039
 -8.900000000000000E-003    1.209205667055592E-038
 -8.799999999999999E-003    2.037630514195465E-038
 -8.699999999999999E-003    2.742738931945740E-038
 -8.600000000000000E-003    3.181234284203304E-038
 -8.499999999999999E-003    3.225285431365620E-038
 -8.399999999999999E-003    2.790312521177172E-038
 -8.300000000000000E-003    1.860962058830643E-038
 -8.199999999999999E-003    5.092336327595872E-039
 -8.100000000000000E-003   -1.101259519779518E-038
 -8.000000000000000E-003   -2.729694016247248E-038
 -7.899999999999999E-003   -4.093111899106955E-038
 -7.800000000000000E-003   -4.920169326806588E-038
 -7.699999999999999E-003   -5.016621827736763E-038
 -7.599999999999999E-003   -4.330767038466520E-038
 -7.499999999999999E-003   -3.003188493848915E-038
 -7.399999999999999E-003   -1.383786931985001E-038
 -7.299999999999999E-003   -8.706258670761931E-042
 -7.199999999999999E-003    5.267603588656746E-039
 -7.100000000000000E-003   -3.665317038287048E-039
 -6.999999999999999E-003   -3.008470914614376E-038
 -6.899999999999999E-003   -7.292762694853746E-038
 -6.800000000000000E-003   -1.251472178873571E-037
 -6.699999999999999E-003   -1.729031246805479E-037
 -6.599999999999999E-003   -1.961029169262565E-037
 -6.499999999999999E-003   -1.706963151591520E-037
 -6.399999999999999E-003   -7.288263983655327E-038
 -6.299999999999999E-003    1.149730063495673E-037
 -6.199999999999999E-003    3.973632157926768E-037
 -6.100000000000000E-003    7.587154414831545E-037
 -5.999999999999999E-003    1.158025425538471E-036
 -5.899999999999999E-003    1.526764457657983E-036
 -5.800000000000000E-003    1.771704798630681E-036
 -5.699999999999999E-003    1.783890117453115E-036
 -5.599999999999999E-003    1.454168312134860E-036
 -5.499999999999999E-003    6.945567346942251E-037
 -5.399999999999999E-003   -5.366636096399543E-037
 -5.299999999999999E-003   -2.209617614165008E-036
 -5.199999999999999E-003   -4.201930122346934E-036
 -5.099999999999999E-003   -6.287526262548316E-036
 -4.999999999999999E-003   -8.140272725061402E-036
 -4.899999999999999E-003   -9.356432712993652E-036
 -4.799999999999999E-003   -9.497749021774038E-036
 -4.699999999999999E-003   -8.153854471568150E-036
 -4.599999999999999E-003   -5.019034232713763E-036
 -4.499999999999999E-003    2.542452739974384E-038
 -4.399999999999999E-003    6.835231125380777E-036
 -4.299999999999999E-003    1.494738453079198E-035
 -4.199999999999999E-003    2.355874913429654E-035
 -4.099999999999999E-003    3.155076074241181E-035
 -3.999999999999999E-003    3.756754755152087E-035
 -3.899999999999999E-003    4.014811994203825E-035
 -3.799999999999999E-003    3.790543647694733E-035
 -3.699999999999999E-003    2.973680433535564E-035
 -3.599999999999999E-003    1.504301737523675E-035
 -3.499999999999999E-003   -6.071418064561384E-036
 -3.399999999999999E-003   -3.264595368493936E-035
 -3.299999999999999E-003   -6.278661060026237E-035
 -3.199999999999999E-003   -9.368414596382754E-035
 -3.099999999999999E-003   -1.217394557554675E-034
 -2.999999999999999E-003   -1.427972022178329E-034
 -2.899999999999999E-003   -1.524780076328776E-034
 -2.799999999999999E-003   -1.465903032580922E-034
 -2.699999999999999E-003   -1.215979574143272E-034
 -2.599999999999999E-003   -7.511576356548459E-035
 -2.499999999999999E-003   -6.406279833729984E-036
 -2.399999999999999E-003    8.314920648213974E-035
 -2.299999999999999E-003    1.896340518535653E-034
 -2.199999999999999E-003    3.062683476604546E-034
 -2.099999999999999E-003    4.232177052150908E-034
 -1.999999999999999E-003    5.276048809980851E-034
 -1.899999999999999E-003    6.038136452896505E-034
 -1.799999999999999E-003    6.341920122619707E-034
 -1.699999999999999E-003    6.002703725712392E-034
 -1.599999999999999E-003    4.845903584771886E-034
 -1.499999999999999E-003    2.731913240720040E-034
 -1.399999999999999E-003   -4.129565589912466E-035
 -1.299999999999999E-003   -4.561296021647486E-034
 -1.199999999999999E-003   -9.548752224874402E-034
 -1.099999999999999E-003   -1.504290645036534E-033
 -9.999999999999989E-004   -2.052394008867526E-033
 -8.999999999999990E-004   -2.528517705342936E-033
 -7.999999999999990E-004   -2.846159897604074E-033
 -6.999999999999989E-004   -2.909288623260095E-033
 -5.999999999999990E-004   -2.622438520046509E-033
 -4.999999999999989E-004   -1.904419087360256E-033
 -3.999999999999989E-004   -7.048040991536579E-034
 -2.999999999999989E-004    9.783753775865476E-034
 -1.999999999999989E-004    3.082047745375332E-033
 -9.999999999999892E-005    5.465517589803104E-033
  1.084202172485504E-018    7.905067296697352E-033
  1.000000000000011E-004    1.009880158118960E-032
  2.000000000000011E-004    1.168413543551637E-032
  3.000000000000011E-004    1.226907168889059E-032
  4.000000000000011E-004    1.147673161560997E-032
  5.000000000000011E-004    9.000449947682807E-033
  6.000000000000011E-004    4.664487809636122E-033
  7.000000000000011E-004   -1.516546604477311E-033
  8.000000000000011E-004   -9.288124508169866E-033
  9.000000000000012E-004   -1.812518595109118E-032
  1.000000000000001E-003   -2.722903486458544E-032
  1.100000000000001E-003   -3.555848881910266E-032
  1.200000000000001E-003   -4.189896556613371E-032
  1.300000000000001E-003   -4.496878920276799E-032
  1.400000000000001E-003   -4.355727857955697E-032
  1.500000000000001E-003   -3.668432982125598E-032
  1.600000000000001E-003   -2.376654214218056E-032
  1.700000000000001E-003   -4.772155008442448E-033
  1.800000000000001E-003    1.965467018892901E-032
  1.900000000000001E-003    4.811869994701353E-032
  2.000000000000001E-003    7.846374259667710E-032
  2.100000000000001E-003    1.078392827012264E-031
  2.200000000000001E-003    1.328484379271080E-031
  2.300000000000001E-003    1.497764512939321E-031
  2.400000000000001E-003    1.548911966240328E-031
  2.500000000000001E-003    1.448013641605185E-031
  2.600000000000001E-003    1.168529253529757E-031
  2.700000000000001E-003    6.954010605487007E-032
  2.800000000000001E-003    2.903480897235960E-033
  2.900000000000001E-003   -8.111582624726536E-032
  3.000000000000001E-003   -1.784003646194780E-031
  3.100000000000001E-003   -2.824979599232322E-031
  3.200000000000001E-003   -3.846245684848321E-031
  3.300000000000001E-003   -4.738749915482469E-031
  3.400000000000001E-003   -5.376898683619143E-031
  3.500000000000001E-003   -5.626209364101474E-031
  3.600000000000001E-003   -5.354223858388144E-031
  3.700000000000001E-003   -4.444709914938078E-031
  3.800000000000001E-003   -2.814760569167626E-031
  3.900000000000001E-003   -4.338702882075179E-032
  4.000000000000001E-003    2.656580666173378E-031
  4.100000000000001E-003    6.325661173396292E-031
  4.200000000000001E-003    1.033993500662913E-030
  4.300000000000001E-003    1.435847064896746E-030
  4.400000000000001E-003    1.793922771414993E-030
  4.500000000000001E-003    2.055979284446501E-030
  4.600000000000002E-003    2.165447199548796E-030
  4.700000000000001E-003    2.066822001118910E-030
  4.800000000000001E-003    1.712559141909709E-030
  4.900000000000002E-003    1.071045331781648E-030
  5.000000000000001E-003    1.349307587231343E-031
  5.100000000000001E-003   -1.071139272862914E-030
  5.200000000000001E-003   -2.484557427871355E-030
  5.300000000000002E-003   -4.001798068356489E-030
  5.400000000000001E-003   -5.479645545088932E-030
  5.500000000000001E-003   -6.741563163228103E-030
  5.600000000000002E-003   -7.589726851479167E-030
  5.700000000000001E-003   -7.822643074575661E-030
  5.800000000000001E-003   -7.257562317465189E-030
  5.900000000000002E-003   -5.756123227580624E-030
  6.000000000000001E-003   -3.250891473715647E-030
  6.100000000000001E-003    2.301388857660530E-031
  6.200000000000002E-003    4.544407954987405E-030
  6.300000000000002E-003    9.424360089375136E-030
  6.400000000000001E-003    1.447875938635294E-029
  6.500000000000001E-003    1.920796717002258E-029
  6.600000000000002E-003    2.303429266416670E-029
  6.700000000000001E-003    2.534699026897365E-029
  6.800000000000001E-003    2.555984273076680E-029
  6.900000000000002E-003    2.317758019968153E-029
  7.000000000000001E-003    1.786574114928302E-029
  7.100000000000001E-003    9.517577412491573E-030
  7.200000000000002E-003   -1.689434231867545E-030
  7.300000000000002E-003   -1.525452033405547E-029
  7.400000000000001E-003   -3.033891177228811E-029
  7.500000000000001E-003   -4.578083242618617E-029
  7.600000000000002E-003   -6.014357237992007E-029
  7.700000000000001E-003   -7.179790041469695E-029
  7.800000000000001E-003   -7.903684170276246E-029
  7.900000000000001E-003   -8.021845068351945E-029
  8.000000000000002E-003   -7.392890079204918E-029
  8.100000000000001E-003   -5.915581436307028E-029
  8.200000000000001E-003   -3.545945620667147E-029
  8.300000000000002E-003   -3.127388793103465E-030
  8.400000000000001E-003    3.670261153178568E-029
  8.500000000000002E-003    8.196717273951246E-029
  8.600000000000002E-003    1.296653467755690E-028
  8.700000000000001E-003    1.759230534303645E-028
  8.800000000000002E-003    2.161457459060933E-028
  8.900000000000002E-003    2.452662845183929E-028
  9.000000000000001E-003    2.580890226814839E-028
  9.100000000000002E-003    2.497237518510324E-028
  9.200000000000002E-003    2.160942980277751E-028
  9.300000000000001E-003    1.544957701478959E-028
  9.400000000000002E-003    6.416300632594259E-029
  9.500000000000001E-003   -5.319910311970306E-029
  9.600000000000001E-003   -1.929803843289699E-028
  9.700000000000002E-003   -3.473917397698192E-028
  9.800000000000001E-003   -5.054230637998670E-028
  9.900000000000001E-003   -6.530922886896927E-028
  1.000000000000000E-002   -7.740412752341009E-028
  1.010000000000000E-002   -8.505087872423530E-028
  1.020000000000000E-002   -8.646812520745181E-028
  1.030000000000000E-002   -8.003857170516193E-028
  1.040000000000000E-002   -6.450434072489929E-028
  1.050000000000000E-002   -3.917554574123747E-028
  1.060000000000000E-002   -4.134632826374417E-029
  1.070000000000000E-002    3.958505753371754E-028
  1.080000000000000E-002    8.987047997806906E-028
  1.090000000000000E-002    1.434747620674069E-027
  1.100000000000000E-002    1.960611631977949E-027
  1.110000000000000E-002    2.423645751061991E-027
  1.120000000000000E-002    2.764816021027604E-027
  1.130000000000000E-002    2.922917060492989E-027
  1.140000000000000E-002    2.839981509824430E-027
  1.150000000000000E-002    2.467634659271962E-027
  1.160000000000000E-002    1.773993097153946E-027
  1.170000000000000E-002    7.505529881237784E-028
  1.180000000000000E-002   -5.815900303184566E-028
  1.190000000000000E-002   -2.166959581834809E-027
  1.200000000000000E-002   -3.913129302855064E-027
  1.210000000000000E-002   -5.691117537861411E-027
  1.220000000000000E-002   -7.339375835548238E-027
  1.230000000000000E-002   -8.671786435260264E-027
  1.240000000000000E-002   -9.489818898782587E-027
  1.250000000000000E-002   -9.598601945585128E-027
  1.260000000000000E-002   -8.826281596337823E-027
  1.270000000000000E-002   -7.045524006236017E-027
  1.280000000000000E-002   -4.195671976340980E-027
  1.290000000000000E-002   -3.035032923009649E-028
  1.300000000000000E-002    4.499584538345799E-027
  1.310000000000000E-002    9.966467680567284E-027
  1.320000000000000E-002    1.573164731464410E-026
  1.330000000000000E-002    2.131922420749703E-026
  1.340000000000000E-002    2.616313488467504E-026
  1.350000000000000E-002    2.964046417725131E-026
  1.360000000000000E-002    3.111764524899129E-026
  1.370000000000000E-002    3.000804456724525E-026
  1.380000000000000E-002    2.583799907818719E-026
  1.390000000000000E-002    1.831690284213154E-026
  1.400000000000000E-002    7.405607810290366E-027
  1.410000000000000E-002   -6.623873809194054E-027
  1.420000000000000E-002   -2.314492682240615E-026
  1.430000000000000E-002   -4.115709995680611E-026
  1.440000000000000E-002   -5.929820345316860E-026
  1.450000000000000E-002   -7.589369281158473E-026
  1.460000000000000E-002   -8.904675676845189E-026
  1.470000000000000E-002   -9.676958972242293E-026
  1.480000000000000E-002   -9.715199943666116E-026
  1.490000000000000E-002   -8.855976038452653E-026
  1.500000000000000E-002   -6.984951199632349E-026
  1.510000000000000E-002   -4.058343622532937E-026
  1.520000000000000E-002   -1.223055881023627E-027
  1.530000000000000E-002    4.672160639482654E-026
  1.540000000000000E-002    1.006109389647046E-025
  1.550000000000000E-002    1.566847680029159E-025
  1.560000000000000E-002    2.101807063105274E-025
  1.570000000000000E-002    2.555722326630040E-025
  1.580000000000000E-002    2.869294112477294E-025
  1.590000000000000E-002    2.983927584317992E-025
  1.600000000000000E-002    2.847385790025061E-025
  1.610000000000000E-002    2.419998603976109E-025
  1.620000000000000E-002    1.680962935964762E-025
  1.630000000000000E-002    6.341345850160737E-026
  1.640000000000000E-002   -6.873130618561506E-026
  1.650000000000000E-002   -2.218050981255753E-025
  1.660000000000000E-002   -3.860191970567047E-025
  1.670000000000000E-002   -5.485836827386715E-025
  1.680000000000000E-002   -6.942918269478299E-025
  1.690000000000000E-002   -8.064425223477537E-025
  1.700000000000000E-002   -8.680805282340913E-025
  1.710000000000000E-002   -8.635020094479632E-025
  1.720000000000000E-002   -7.799341445087032E-025
  1.730000000000000E-002   -6.092720517721530E-025
  1.740000000000000E-002   -3.497204327683657E-025
  1.750000000000000E-002   -7.175097217049418E-027
  1.760000000000000E-002    4.038327771271282E-025
  1.770000000000000E-002    8.597904286942127E-025
  1.780000000000000E-002    1.328606917130798E-024
  1.790000000000000E-002    1.770860289443387E-024
  1.800000000000000E-002    2.141938980138298E-024
  1.810000000000000E-002    2.395044968023117E-024
  1.820000000000000E-002    2.484954629398530E-024
  1.830000000000000E-002    2.372336774834197E-024
  1.840000000000000E-002    2.028353793705363E-024
  1.850000000000000E-002    1.439179260557272E-024
  1.860000000000000E-002    6.100306830268691E-025
  1.870000000000000E-002   -4.317399585390360E-025