 -4.000000000000000E-002    0.000000000000000E+000
 -3.990000000000000E-002    0.000000000000000E+000
 -3.980000000000000E-002    0.000000000000000E+000
 -3.970000000000000E-002    0.000000000000000E+000
 -3.960000000000000E-002    0.000000000000000E+000
 -3.950000000000000E-002    0.000000000000000E+000
 -3.940000000000000E-002    0.000000000000000E+000
 -3.930000000000000E-002    0.000000000000000E+000
 -3.920000000000000E-002    7.680750084528062E-029
 -3.910000000000000E-002    1.189429343328759E-027
 -3.900000000000000E-002    9.627934178583637E-027
 -3.890000000000000E-002    5.410492221111289E-026
 -3.880000000000000E-002    2.365727491315542E-025
 -3.870000000000000E-002    8.552875442161907E-025
 -3.860000000000000E-002    2.652900478520740E-024
 -3.850000000000000E-002    7.231175946653836E-024
 -3.840000000000000E-002    1.759836761149854E-023
 -3.830000000000000E-002    3.862522783659872E-023
 -3.820000000000000E-002    7.683944309793287E-023
 -3.810000000000000E-002    1.384893729517136E-022
 -3.800000000000000E-002    2.242531789481942E-022
 -3.790000000000000E-002    3.185951749570577E-022
 -3.780000000000000E-002    3.719727376918022E-022
 -3.770000000000000E-002    2.753865700241972E-022
 -3.760000000000000E-002   -1.703519921474239E-022
 -3.750000000000000E-002   -1.283513072384196E-021
 -3.740000000000000E-002   -3.515010720513909E-021
 -3.730000000000000E-002   -7.426226183988493E-021
 -3.720000000000000E-002   -1.360527080012223E-020
 -3.710000000000000E-002   -2.249497455417649E-020
 -3.700000000000000E-002   -3.411300205652311E-020
 -3.690000000000000E-002   -4.766274490452950E-020
 -3.680000000000000E-002   -6.106444527104881E-020
 -3.670000000000000E-002   -7.047783808580774E-020
 -3.660000000000000E-002   -6.993419961740095E-020
 -3.650000000000000E-002   -5.123675966202194E-020
 -3.640000000000000E-002   -4.308478998864383E-021
 -3.630000000000000E-002    8.185036726822470E-020
 -3.620000000000000E-002    2.174997969797878E-019
 -3.610000000000000E-002    4.098210373741042E-019
 -3.600000000000000E-002    6.600991186626896E-019
 -3.590000000000000E-002    9.608153308089197E-019
 -3.580000000000000E-002    1.293199727992079E-018
 -3.570000000000000E-002    1.625869278650647E-018
 -3.560000000000000E-002    1.915095842023285E-018
 -3.550000000000000E-002    2.106966781745727E-018
 -3.540000000000000E-002    2.141196819209216E-018
 -3.530000000000000E-002    1.955688377733785E-018
 -3.520000000000000E-002    1.490218094081037E-018
 -3.510000000000000E-002    6.870896006443457E-019
 -3.500000000000000E-002   -5.135322180753687E-019
 -3.490000000000000E-002   -2.185251131416089E-018
 -3.480000000000000E-002   -4.434136916301412E-018
 -3.470000000000000E-002   -7.421892576433173E-018
 -3.460000000000000E-002   -1.138736342638677E-017
 -3.450000000000000E-002   -1.665616515937094E-017
 -3.440000000000000E-002   -2.362450939407406E-017
 -3.430000000000000E-002   -3.270106249771656E-017
 -3.420000000000000E-002   -4.419127477090126E-017
 -3.410000000000000E-002   -5.811331610587875E-017
 -3.400000000000000E-002   -7.394488763159190E-017
 -3.390000000000000E-002   -9.031529769055283E-017
 -3.380000000000000E-002   -1.046778635067375E-016
 -3.370000000000000E-002   -1.130201957365815E-016
 -3.360000000000000E-002   -1.096924730952808E-016
 -3.350000000000000E-002   -8.745011874938820E-017
 -3.340000000000000E-002   -3.781297520360499E-017
 -3.330000000000000E-002    4.816847333274354E-017
 -3.320000000000000E-002    1.786815117843208E-016
 -3.310000000000000E-002    3.594517678491823E-016
 -3.300000000000000E-002    5.916519961819282E-016
 -3.290000000000000E-002    8.695875008524783E-016
 -3.280000000000000E-002    1.178428717677610E-015
 -3.270000000000000E-002    1.492347448739954E-015
 -3.260000000000000E-002    1.773481128122617E-015
 -3.250000000000000E-002    1.972160963911382E-015
 -3.240000000000000E-002    2.028796166732454E-015
 -3.230000000000000E-002    1.877689938341000E-015
 -3.220000000000000E-002    1.452869807432007E-015
 -3.210000000000000E-002    6.957606877171537E-016
 -3.200000000000000E-002   -4.357579896151538E-016
 -3.190000000000000E-002   -1.957665847231381E-015
 -3.180000000000000E-002   -3.850493536372782E-015
 -3.170000000000000E-002   -6.051552940693748E-015
 -3.160000000000000E-002   -8.449904472274677E-015
 -3.150000000000000E-002   -1.088511926490781E-014
 -3.140000000000000E-002   -1.315060900936740E-014
 -3.130000000000000E-002   -1.500182195471905E-014
 -3.120000000000000E-002   -1.616908764083358E-014
 -3.110000000000000E-002   -1.637430880318453E-014
 -3.100000000000000E-002   -1.535019769346463E-014
 -3.090000000000000E-002   -1.286044745853749E-014
 -3.080000000000000E-002   -8.719148440803215E-015
 -3.070000000000000E-002   -2.807985202284571E-015
 -3.060000000000000E-002    4.909694904627528E-015
 -3.050000000000000E-002    1.437808027298985E-014
 -3.040000000000000E-002    2.544060313931276E-014
 -3.030000000000000E-002    3.783264762451104E-014
 -3.020000000000000E-002    5.117310731877615E-014
 -3.010000000000000E-002    6.495286729948017E-014
 -3.000000000000000E-002    7.851878556278748E-014
 -2.990000000000000E-002    9.105341635065119E-014
 -2.980000000000000E-002    1.015528367597520E-013
 -2.970000000000000E-002    1.088077888959685E-013
 -2.960000000000000E-002    1.113960188053882E-013
 -2.950000000000000E-002    1.076963876854336E-013
 -2.940000000000000E-002    9.593658058625361E-014
 -2.930000000000000E-002    7.428594662411632E-014
 -2.920000000000000E-002    4.100274307758794E-014
 -2.910000000000000E-002   -5.360188144957552E-015
 -2.900000000000000E-002   -6.569455052885933E-014
 -2.890000000000000E-002   -1.400334259768616E-013
 -2.880000000000000E-002   -2.272292565727433E-013
 -2.870000000000000E-002   -3.246473375477001E-013
 -2.860000000000000E-002   -4.279177708087060E-013
 -2.850000000000000E-002   -5.307943249378000E-013
 -2.840000000000000E-002   -6.251689779137262E-013
 -2.830000000000000E-002   -7.012847542918028E-013
 -2.820000000000000E-002   -7.481767403384960E-013
 -2.810000000000000E-002   -7.543503323985776E-013
 -2.800000000000000E-002   -7.086810042097873E-013
 -2.790000000000000E-002   -6.014911221569370E-013
 -2.780000000000000E-002   -4.257290051572384E-013
 -2.770000000000000E-002   -1.781509710682058E-013
 -2.760000000000000E-002    1.396120818278782E-013
 -2.750000000000000E-002    5.202293104333010E-013
 -2.740000000000000E-002    9.502055481852943E-013
 -2.730000000000000E-002    1.409877011842496E-012
 -2.720000000000000E-002    1.873932035657117E-012
 -2.710000000000000E-002    2.312473276091233E-012
 -2.700000000000000E-002    2.692587281475895E-012
 -2.690000000000000E-002    2.980328529963984E-012
 -2.680000000000000E-002    3.142978737112658E-012
 -2.670000000000000E-002    3.151400804006752E-012
 -2.660000000000000E-002    2.982292945041885E-012
 -2.650000000000000E-002    2.620144506429897E-012
 -2.640000000000000E-002    2.058727283809821E-012
 -2.630000000000000E-002    1.301999708382679E-012
 -2.620000000000000E-002    3.643662907517977E-013
 -2.610000000000000E-002   -7.296929760288878E-013
 -2.600000000000000E-002   -1.946536751884538E-012
 -2.590000000000000E-002   -3.244677630141191E-012
 -2.580000000000000E-002   -4.576316619169177E-012
 -2.570000000000000E-002   -5.888910321559616E-012
 -2.560000000000000E-002   -7.126608995937120E-012
 -2.550000000000000E-002   -8.231457349840735E-012
 -2.540000000000000E-002   -9.144336589241889E-012
 -2.530000000000000E-002   -9.805720403022259E-012
 -2.520000000000000E-002   -1.015639583921042E-011
 -2.510000000000000E-002   -1.013839886364691E-011
 -2.500000000000000E-002   -9.696424749695641E-012
 -2.490000000000000E-002   -8.779985412923379E-012
 -2.480000000000000E-002   -7.346502422759039E-012
 -2.470000000000000E-002   -5.365415097178256E-012
 -2.460000000000000E-002   -2.823219965309113E-012
 -2.450000000000000E-002    2.708508492898583E-013
 -2.440000000000000E-002    3.878978206367169E-012
 -2.430000000000000E-002    7.929387617222216E-012
 -2.420000000000000E-002    1.231222136539475E-011
 -2.410000000000000E-002    1.687744836780037E-011
 -2.400000000000000E-002    2.143554033636782E-011
 -2.390000000000000E-002    2.576148714832681E-011
 -2.380000000000000E-002    2.960244157742348E-011
 -2.370000000000000E-002    3.268894336440394E-011
 -2.360000000000000E-002    3.474930829104155E-011
 -2.350000000000000E-002    3.552637154532773E-011
 -2.340000000000000E-002    3.479545357002733E-011
 -2.330000000000000E-002    3.238215566330977E-011
 -2.320000000000000E-002    2.817854188587482E-011
 -2.310000000000000E-002    2.215626786650743E-011
 -2.300000000000000E-002    1.437543326983469E-011
 -2.290000000000000E-002    4.988333814749288E-012
 -2.280000000000000E-002   -5.762332449260476E-012
 -2.270000000000000E-002   -1.755064707656137E-011
 -2.260000000000000E-002   -2.997948326428886E-011
 -2.250000000000000E-002   -4.259626580505588E-011
 -2.240000000000000E-002   -5.491118475759150E-011
 -2.230000000000000E-002   -6.641642175492301E-011
 -2.220000000000000E-002   -7.660496508928686E-011
 -2.210000000000000E-002   -8.498793824045154E-011
 -2.200000000000000E-002   -9.110970564541912E-011
 -2.190000000000000E-002   -9.456044890355325E-011
 -2.180000000000000E-002   -9.498654632945094E-011
 -2.170000000000000E-002   -9.209931601202773E-011
 -2.160000000000000E-002   -8.568310167257060E-011
 -2.150000000000000E-002   -7.560370149970517E-011
 -2.140000000000000E-002   -6.181792942514480E-011
 -2.130000000000000E-002   -4.438476912505170E-011
 -2.120000000000000E-002   -2.347802786045182E-011
 -2.110000000000000E-002    6.003069547593977E-013
 -2.100000000000000E-002    2.740744013765026E-011
 -2.090000000000000E-002    5.634983183467339E-011
 -2.080000000000000E-002    8.667832696313482E-011
 -2.070000000000000E-002    1.174906540764560E-010
 -2.060000000000000E-002    1.477433463852327E-010
 -2.050000000000000E-002    1.762745666555673E-010
 -2.040000000000000E-002    2.018383071393316E-010
 -2.030000000000000E-002    2.231493086401531E-010
 -2.020000000000000E-002    2.389369811635034E-010
 -2.010000000000000E-002    2.480055298720561E-010
 -2.000000000000000E-002    2.492964620586511E-010
 -1.990000000000000E-002    2.419495515019309E-010
 -1.980000000000000E-002    2.253580107641244E-010
 -1.970000000000000E-002    1.992141878170925E-010
 -1.960000000000000E-002    1.635429154529617E-010
 -1.950000000000000E-002    1.187208305364799E-010
 -1.940000000000000E-002    6.548112344232722E-011
 -1.930000000000000E-002    4.904601630846975E-012
 -1.920000000000000E-002   -6.160128093553663E-011
 -1.910000000000000E-002   -1.323329405260788E-010
 -1.900000000000000E-002   -2.053283105561875E-010
 -1.890000000000000E-002   -2.784094977166634E-010
 -1.880000000000000E-002   -3.492287181751913E-010
 -1.870000000000000E-002   -4.153177452298667E-010
 -1.860000000000000E-002   -4.741410768812318E-010
 -1.850000000000000E-002   -5.231550592480918E-010
 -1.840000000000000E-002   -5.598747861780946E-010
 -1.830000000000000E-002   -5.819511904445406E-010
 -1.820000000000000E-002   -5.872598379881210E-010
 -1.810000000000000E-002   -5.740007594492563E-010
 -1.800000000000000E-002   -5.408077030974428E-010
 -1.790000000000000E-002   -4.868617724766176E-010
 -1.780000000000000E-002   -4.120022560267759E-010
 -1.770000000000000E-002   -3.168254771777713E-010
 -1.760000000000000E-002   -2.027611446624470E-010
 -1.750000000000000E-002   -7.211521198887466E-011
 -1.740000000000000E-002    7.193050308018384E-011
 -1.730000000000000E-002    2.253688525956363E-010
 -1.720000000000000E-002    3.834723774404235E-010
 -1.710000000000000E-002    5.409510659956355E-010
 -1.700000000000000E-002    6.921572891849064E-010
 -1.690000000000000E-002    8.313267968412814E-010
 -1.680000000000000E-002    9.528405213366000E-010
 -1.670000000000000E-002    1.051489221754999E-009
 -1.660000000000000E-002    1.122722187451087E-009
 -1.650000000000000E-002    1.162861556290220E-009
 -1.640000000000000E-002    1.169266960428299E-009
 -1.630000000000000E-002    1.140440514055179E-009
 -1.620000000000000E-002    1.076067148224854E-009
 -1.610000000000000E-002    9.769922902702354E-010
 -1.600000000000000E-002    8.451448843516622E-010
 -1.590000000000000E-002    6.834187805479908E-010
 -1.580000000000000E-002    4.955289123677069E-010
 -1.570000000000000E-002    2.858593757719476E-010
 -1.560000000000000E-002    5.931945287721584E-011
 -1.550000000000000E-002   -1.787802039237070E-010
 -1.540000000000000E-002   -4.228248343165872E-010
 -1.530000000000000E-002   -6.669662234834053E-010
 -1.520000000000000E-002   -9.051726336180264E-010
 -1.510000000000000E-002   -1.131271147342255E-009
 -1.500000000000000E-002   -1.338997440097029E-009
 -1.490000000000000E-002   -1.522070239853836E-009
 -1.480000000000000E-002   -1.674305810771191E-009
 -1.470000000000000E-002   -1.789782512640412E-009
 -1.460000000000000E-002   -1.863058835178474E-009
 -1.450000000000000E-002   -1.889439135956966E-009
 -1.440000000000000E-002   -1.865271737026670E-009
 -1.430000000000000E-002   -1.788257509561955E-009
 -1.420000000000000E-002   -1.657737405232342E-009
 -1.410000000000000E-002   -1.474928267392476E-009
 -1.400000000000000E-002   -1.243074460046960E-009
 -1.390000000000000E-002   -9.674889480944658E-010
 -1.380000000000000E-002   -6.554662950165263E-010
 -1.370000000000000E-002   -3.160613519385035E-010
 -1.360000000000000E-002    4.025965430778101E-011
 -1.350000000000000E-002    4.020749158493940E-010
 -1.340000000000000E-002    7.575385698279700E-010
 -1.330000000000000E-002    1.094947373904261E-009
 -1.320000000000000E-002    1.403300064666440E-009
 -1.310000000000000E-002    1.672804593968698E-009
 -1.300000000000000E-002    1.895298111849405E-009
 -1.290000000000000E-002    2.064551887352930E-009
 -1.280000000000000E-002    2.176447313275013E-009
 -1.270000000000000E-002    2.229023877571632E-009
 -1.260000000000000E-002    2.222411340369620E-009
 -1.250000000000000E-002    2.158673051702006E-009
 -1.240000000000000E-002    2.041589764122311E-009
 -1.230000000000000E-002    1.876418359298295E-009
 -1.220000000000000E-002    1.669655915625817E-009
 -1.210000000000000E-002    1.428829866311354E-009
 -1.200000000000000E-002    1.162326095061799E-009
 -1.190000000000000E-002    8.792511272915455E-010
 -1.180000000000000E-002    5.893137251576248E-010
 -1.170000000000000E-002    3.027001599876070E-010
 -1.160000000000000E-002    2.991174792400401E-011
 -1.150000000000000E-002   -2.184657003862311E-010
 -1.140000000000000E-002   -4.320850339676592E-010
 -1.130000000000000E-002   -6.012661166854822E-010
 -1.120000000000000E-002   -7.175246620392776E-010
 -1.110000000000000E-002   -7.741782182220115E-010
 -1.100000000000000E-002   -7.669877537228116E-010
 -1.090000000000000E-002   -6.947770296548717E-010
 -1.080000000000000E-002   -5.599625584714954E-010
 -1.070000000000000E-002   -3.689253634865744E-010
 -1.060000000000000E-002   -1.321600868250209E-010
 -1.050000000000000E-002    1.358455808292406E-010
 -1.040000000000000E-002    4.170279679293993E-010
 -1.030000000000000E-002    6.904598637185428E-010
 -1.020000000000000E-002    9.333285759932641E-010
 -1.010000000000000E-002    1.122121857846357E-009
 -1.000000000000000E-002    1.233943555209509E-009
 -9.899999999999999E-003    1.247864681588525E-009
 -9.800000000000000E-003    1.146214432979122E-009
 -9.699999999999999E-003    9.157212442371629E-010
 -9.599999999999999E-003    5.484355599785754E-010
 -9.500000000000000E-003    4.238647134275410E-011
 -9.399999999999999E-003   -5.980340026180182E-010
 -9.299999999999999E-003   -1.361938313121738E-009
 -9.200000000000000E-003   -2.232009533572833E-009
 -9.099999999999999E-003   -3.184682095933630E-009
 -8.999999999999999E-003   -4.190349151513838E-009
 -8.900000000000000E-003   -5.213495851174871E-009
 -8.799999999999999E-003   -6.212674895936056E-009
 -8.699999999999999E-003   -7.140259680510505E-009
 -8.600000000000000E-003   -7.941945650690808E-009
 -8.499999999999999E-003   -8.556003409146533E-009
 -8.399999999999999E-003   -8.912327992366016E-009
 -8.300000000000000E-003   -8.931362723965208E-009
 -8.199999999999999E-003   -8.522999570323133E-009
 -8.100000000000000E-003   -7.585578561379484E-009
 -8.000000000000000E-003   -6.005090834406870E-009
 -7.899999999999999E-003   -3.654702303401626E-009
 -7.800000000000000E-003   -3.946583248205920E-010
 -7.699999999999999E-003    3.927386046585269E-009
 -7.599999999999999E-003    9.475633595308093E-009
 -7.499999999999999E-003    1.642505574759115E-008
 -7.399999999999999E-003    2.496004166739403E-008
 -7.299999999999999E-003    3.527294984193783E-008
 -7.199999999999999E-003    4.756266008257572E-008
 -7.100000000000000E-003    6.203336374737512E-008
 -6.999999999999999E-003    7.889365781775861E-008
 -6.899999999999999E-003    9.835614129916917E-008
 -6.800000000000000E-003    1.206375328149142E-007
 -6.699999999999999E-003    1.459594388051517E-007
 -6.599999999999999E-003    1.745497065567841E-007
 -6.499999999999999E-003    2.066443264224815E-007
 -6.399999999999999E-003    2.424897542975735E-007
 -6.299999999999999E-003    2.823455837631542E-007
 -6.199999999999999E-003    3.264873435723712E-007
 -6.100000000000000E-003    3.752093127257177E-007
 -5.999999999999999E-003    4.288270741664054E-007
 -5.899999999999999E-003    4.876798307856591E-007
 -5.800000000000000E-003    5.521319848084325E-007
 -5.699999999999999E-003    6.225744202052499E-007
 -5.599999999999999E-003    6.994246921880609E-007
 -5.499999999999999E-003    7.831270360663656E-007
 -5.399999999999999E-003    8.741510621262121E-007
 -5.299999999999999E-003    9.729900385036889E-007
 -5.199999999999999E-003    1.080158664764497E-006
 -5.099999999999999E-003    1.196190253986792E-006
 -4.999999999999999E-003    1.321633364735678E-006
 -4.899999999999999E-003    1.457048945944720E-006
 -4.799999999999999E-003    1.603007101561853E-006
 -4.699999999999999E-003    1.760083794315900E-006
 -4.599999999999999E-003    1.928859140199281E-006
 -4.499999999999999E-003    2.109915703599934E-006
 -4.399999999999999E-003    2.303838077547960E-006
 -4.299999999999999E-003    2.511213672893974E-006
 -4.199999999999999E-003    2.732634484573589E-006
 -4.099999999999999E-003    2.968701456908468E-006
 -3.999999999999999E-003    3.220028299543193E-006
 -3.899999999999999E-003    3.487248141490983E-006
 -3.799999999999999E-003    3.771020109937770E-006
 -3.699999999999999E-003    4.072038469583425E-006
 -3.599999999999999E-003    4.391039151328542E-006
 -3.499999999999999E-003    4.728810213842206E-006
 -3.399999999999999E-003    5.086198074385658E-006
 -3.299999999999999E-003    5.464116992627444E-006
 -3.199999999999999E-003    5.863553356249952E-006
 -3.099999999999999E-003    6.285573443961158E-006
 -2.999999999999999E-003    6.731325549496116E-006
 -2.899999999999999E-003    7.202044548496223E-006
 -2.799999999999999E-003    7.699052217956755E-006
 -2.699999999999999E-003    8.223758713520700E-006
 -2.599999999999999E-003    8.777663885651927E-006
 -2.499999999999999E-003    9.362355882771716E-006
 -2.399999999999999E-003    9.979513464719006E-006
 -2.299999999999999E-003    1.063090874596711E-005
 -2.199999999999999E-003    1.131840756065828E-005
 -2.099999999999999E-003    1.204397909190858E-005
 -1.999999999999999E-003    1.280969574867895E-005
 -1.899999999999999E-003    1.361774605781744E-005
 -1.799999999999999E-003    1.447044481621193E-005
 -1.699999999999999E-003    1.537024008551307E-005
 -1.599999999999999E-003    1.631972463325939E-005
 -1.499999999999999E-003    1.732165245222607E-005
 -1.399999999999999E-003    1.837894132478278E-005
 -1.299999999999999E-003    1.949468682678586E-005
 -1.199999999999999E-003    2.067216843496576E-005
 -1.099999999999999E-003    2.191485373805691E-005
 -9.999999999999989E-004    2.322639941746240E-005
 -8.999999999999990E-004    2.461065747559433E-005
 -7.999999999999990E-004    2.607166876536947E-005
 -6.999999999999989E-004    2.761365948237774E-005
 -5.999999999999990E-004    2.924104191127165E-005
 -4.999999999999989E-004    3.095840411634432E-005
 -3.999999999999989E-004    3.277051701095367E-005
 -2.999999999999989E-004    3.468232473880689E-005
 -1.999999999999989E-004    3.669895548517219E-005
 -9.999999999999892E-005    3.882572151878813E-005
  1.084202172485504E-018    4.106813741332709E-005
  1.000000000000011E-004    4.343192901736979E-005
  2.000000000000011E-004    4.592305277966440E-005
  3.000000000000011E-004    4.854772106487790E-005
  4.000000000000011E-004    5.131242509233566E-005
  5.000000000000011E-004    5.422396467595689E-005
  6.000000000000011E-004    5.728947379660411E-005
  7.000000000000011E-004    6.051645324127126E-005
  8.000000000000011E-004    6.391278074499151E-005
  9.000000000000012E-004    6.748675048709398E-005
  1.000000000000001E-003    7.124707658448125E-005
  1.100000000000001E-003    7.520290067112379E-005
  1.200000000000001E-003    7.936381335756781E-005
  1.300000000000001E-003    8.373984190295217E-005
  1.400000000000001E-003    8.834145321493501E-005
  1.500000000000001E-003    9.317953747034287E-005
  1.600000000000001E-003    9.826541399292648E-005
  1.700000000000001E-003    1.036108069472475E-004
  1.800000000000001E-003    1.092278389959184E-004
  1.900000000000001E-003    1.151290203848478E-004
  2.000000000000001E-003    1.213272873954337E-004
  2.100000000000001E-003    1.278359508210860E-004
  2.200000000000001E-003    1.346687568035259E-004
  2.300000000000001E-003    1.418398673910392E-004
  2.400000000000001E-003    1.493639178217485E-004
  2.500000000000001E-003    1.572560398243567E-004
  2.600000000000001E-003    1.655319163745620E-004
  2.700000000000001E-003    1.742078075098492E-004
  2.800000000000001E-003    1.833006020574286E-004
  2.900000000000001E-003    1.928278466822942E-004
  3.000000000000001E-003    2.028078370158755E-004
  3.100000000000001E-003    2.132596091617641E-004
  3.200000000000001E-003    2.242030063432594E-004
  3.300000000000001E-003    2.356586896933892E-004
  3.400000000000001E-003    2.476481334897419E-004
  3.500000000000001E-003    2.601936988120639E-004
  3.600000000000001E-003    2.733185930164492E-004
  3.700000000000001E-003    2.870468514134768E-004
  3.800000000000001E-003    3.014034228729001E-004
  3.900000000000001E-003    3.164140440943545E-004
  4.000000000000001E-003    3.321053518756143E-004
  4.100000000000001E-003    3.485048340548472E-004
  4.200000000000001E-003    3.656408621204737E-004
  4.300000000000001E-003    3.835426565310057E-004
  4.400000000000001E-003    4.022403215273343E-004
  4.500000000000001E-003    4.217649545596387E-004
  4.600000000000002E-003    4.421486639775405E-004
  4.700000000000001E-003    4.634245262454907E-004
  4.800000000000001E-003    4.856267353699186E-004
  4.900000000000002E-003    5.087906174956460E-004
  5.000000000000001E-003    5.329527378256719E-004
  5.100000000000001E-003    5.581509047557007E-004
  5.200000000000001E-003    5.844242783674281E-004
  5.300000000000002E-003    6.118133664246825E-004
  5.400000000000001E-003    6.403600806725733E-004
  5.500000000000001E-003    6.701076878577240E-004
  5.600000000000002E-003    7.011010324377801E-004
  5.700000000000001E-003    7.333862924501578E-004
  5.800000000000001E-003    7.670111529972702E-004
  5.900000000000002E-003    8.020246852141460E-004
  6.000000000000001E-003    8.384774171476829E-004
  6.100000000000001E-003    8.764213715133535E-004
  6.200000000000002E-003    9.159098134648411E-004
  6.300000000000002E-003    9.569973421400920E-004
  6.400000000000001E-003    9.997401670265532E-004
  6.500000000000001E-003    1.044195559102839E-003
  6.600000000000002E-003    1.090422435004367E-003
  6.700000000000001E-003    1.138480896498510E-003
  6.800000000000001E-003    1.188432550540113E-003
  6.900000000000002E-003    1.240340339726316E-003
  7.000000000000001E-003    1.294268750971928E-003
  7.100000000000001E-003    1.350283766978790E-003
  7.200000000000002E-003    1.408452975854323E-003
  7.300000000000002E-003    1.468845499175849E-003
  7.400000000000001E-003    1.531532126358538E-003
  7.500000000000001E-003    1.596585271510579E-003
  7.600000000000002E-003    1.664079020003358E-003
  7.700000000000001E-003    1.734089092348669E-003
  7.800000000000001E-003    1.806693182896833E-003
  7.900000000000001E-003    1.881970398190603E-003
  8.000000000000002E-003    1.960001518639919E-003
  8.100000000000001E-003    2.040869075874921E-003
  8.200000000000001E-003    2.124657173172617E-003
  8.300000000000002E-003    2.211451467887468E-003
  8.400000000000001E-003    2.301339154438873E-003
  8.500000000000002E-003    2.394408669789619E-003
  8.600000000000002E-003    2.490750096989477E-003
  8.700000000000001E-003    2.590454735826193E-003
  8.800000000000002E-003    2.693615359721132E-003
  8.900000000000002E-003    2.800326131555673E-003
  9.000000000000001E-003    2.910682281148158E-003
  9.100000000000002E-003    3.024780872773543E-003
  9.200000000000002E-003    3.142719481768961E-003
  9.300000000000001E-003    3.264597944325983E-003
  9.400000000000002E-003    3.390516594146553E-003
  9.500000000000001E-003    3.520577880155848E-003
  9.600000000000001E-003    3.654885274673633E-003
  9.700000000000002E-003    3.793543916533737E-003
  9.800000000000001E-003    3.936659894053625E-003
  9.900000000000001E-003    4.084341339594615E-003
  1.000000000000000E-002    4.236697276550816E-003
  1.010000000000000E-002    4.393838346456282E-003
  1.020000000000000E-002    4.555876113107674E-003
  1.030000000000000E-002    4.722923990503614E-003
  1.040000000000000E-002    4.895095952845561E-003
  1.050000000000000E-002    5.072507517522462E-003
  1.060000000000000E-002    5.255274734623775E-003
  1.070000000000000E-002    5.443514746791344E-003
  1.080000000000000E-002    5.637345846633498E-003
  1.090000000000000E-002    5.836886420743025E-003
  1.100000000000000E-002    6.042255260921612E-003
  1.110000000000000E-002    6.253571934172399E-003
  1.120000000000000E-002    6.470957107872383E-003
  1.130000000000000E-002    6.694531208339431E-003
  1.140000000000000E-002    6.924413914103766E-003
  1.150000000000000E-002    7.160727286898367E-003
  1.160000000000000E-002    7.403591920211687E-003
  1.170000000000000E-002    7.653129162409636E-003
  1.180000000000000E-002    7.909459738322092E-003
  1.190000000000000E-002    8.172705341944347E-003
  1.200000000000000E-002    8.442986612831490E-003
  1.210000000000000E-002    8.720424733152854E-003
  1.220000000000000E-002    9.005139471140166E-003
  1.230000000000000E-002    9.297251412816319E-003
  1.240000000000000E-002    9.596879439325539E-003
  1.250000000000000E-002    9.904141034292406E-003
  1.260000000000000E-002    1.021915385256747E-002
  1.270000000000000E-002    1.054203354792185E-002
  1.280000000000000E-002    1.087289424138179E-002
  1.290000000000000E-002    1.121184796133067E-002
  1.300000000000000E-002    1.155900518818101E-002
  1.310000000000000E-002    1.191447399757997E-002
  1.320000000000000E-002    1.227835937834102E-002
  1.330000000000000E-002    1.265076469504767E-002
  1.340000000000000E-002    1.303179017184614E-002
  1.350000000000000E-002    1.342153279638187E-002
  1.360000000000000E-002    1.382008504609672E-002
  1.370000000000000E-002    1.422753668785590E-002
  1.380000000000000E-002    1.464397571794726E-002
  1.390000000000000E-002    1.506948427228799E-002
  1.400000000000000E-002    1.550414069459300E-002
  1.410000000000000E-002    1.594802000386849E-002
  1.420000000000000E-002    1.640119283849150E-002
  1.430000000000000E-002    1.686372400510125E-002
  1.440000000000000E-002    1.733567558609304E-002
  1.450000000000000E-002    1.781710287758555E-002
  1.460000000000000E-002    1.830805714768339E-002
  1.470000000000000E-002    1.880858517121836E-002
  1.480000000000000E-002    1.931872563626929E-002
  1.490000000000000E-002    1.983851394852378E-002
  1.500000000000000E-002    2.036797700678996E-002
  1.510000000000000E-002    2.090713832698808E-002
  1.520000000000000E-002    2.145601267151100E-002
  1.530000000000000E-002    2.201460668906119E-002
  1.540000000000000E-002    2.258292275891690E-002
  1.550000000000000E-002    2.316095535165885E-002
  1.560000000000000E-002    2.374869094109967E-002
  1.570000000000000E-002    2.434610795418983E-002
  1.580000000000000E-002    2.495317925131833E-002
  1.590000000000000E-002    2.556986699444477E-002
  1.600000000000000E-002    2.619612614749378E-002
  1.610000000000000E-002    2.683190557201936E-002
  1.620000000000000E-002    2.747714458748019E-002
  1.630000000000000E-002    2.813177454157400E-002
  1.640000000000000E-002    2.879571798277687E-002
  1.650000000000000E-002    2.946888601400049E-002
  1.660000000000000E-002    3.015118609526679E-002
  1.670000000000000E-002    3.084251372867264E-002
  1.680000000000000E-002    3.154275882273216E-002
  1.690000000000000E-002    3.225179807673161E-002
  1.700000000000000E-002    3.296949863927932E-002
  1.710000000000000E-002    3.369571994803214E-002
  1.720000000000000E-002    3.443031437804250E-002
  1.730000000000000E-002    3.517312294206260E-002
  1.740000000000000E-002    3.592397633329063E-002
  1.750000000000000E-002    3.668269859203437E-002
  1.760000000000000E-002    3.744909906467433E-002
  1.770000000000000E-002    3.822298266956783E-002
  1.780000000000000E-002    3.900414041857426E-002
  1.790000000000000E-002    3.979235689882196E-002
  1.800000000000000E-002    4.058740700175520E-002
  1.810000000000000E-002    4.138905286270266E-002
  1.820000000000000E-002    4.219704668768814E-002
  1.830000000000000E-002    4.301113478953823E-002
  1.840000000000000E-002    4.383105329927775E-002
  1.850000000000000E-002    4.465652911527527E-002
  1.860000000000000E-002    4.548727725899257E-002
  1.870000000000000E-002    4.632300541750396E-002