 -4.000000000000000E-002    0.000000000000000E+000
 -3.990000000000000E-002    0.000000000000000E+000
 -3.980000000000000E-002    0.000000000000000E+000
 -3.970000000000000E-002    0.000000000000000E+000
 -3.960000000000000E-002    0.000000000000000E+000
 -3.950000000000000E-002    0.000000000000000E+000
 -3.940000000000000E-002    0.000000000000000E+000
 -3.930000000000000E-002    0.000000000000000E+000
 -3.920000000000000E-002    0.000000000000000E+000
 -3.910000000000000E-002    0.000000000000000E+000
 -3.900000000000000E-002    0.000000000000000E+000
 -3.890000000000000E-002    0.000000000000000E+000
 -3.880000000000000E-002    0.000000000000000E+000
 -3.870000000000000E-002    0.000000000000000E+000
 -3.860000000000000E-002    0.000000000000000E+000
 -3.850000000000000E-002    0.000000000000000E+000
 -3.840000000000000E-002    0.000000000000000E+000
 -3.830000000000000E-002    0.000000000000000E+000
 -3.820000000000000E-002    0.000000000000000E+000
 -3.810000000000000E-002    0.000000000000000E+000
 -3.800000000000000E-002    0.000000000000000E+000
 -3.790000000000000E-002    0.000000000000000E+000
 -3.780000000000000E-002    0.000000000000000E+000
 -3.770000000000000E-002    0.000000000000000E+000
 -3.760000000000000E-002    0.000000000000000E+000
 -3.750000000000000E-002    0.000000000000000E+000
 -3.740000000000000E-002    0.000000000000000E+000
 -3.730000000000000E-002    0.000000000000000E+000
 -3.720000000000000E-002    0.000000000000000E+000
 -3.710000000000000E-002    0.000000000000000E+000
 -3.700000000000000E-002    0.000000000000000E+000
 -3.690000000000000E-002    0.000000000000000E+000
 -3.680000000000000E-002    0.000000000000000E+000
 -3.670000000000000E-002    0.000000000000000E+000
 -3.660000000000000E-002    0.000000000000000E+000
 -3.650000000000000E-002    0.000000000000000E+000
 -3.640000000000000E-002    2.782346665941309E-048
 -3.630000000000000E-002    1.658393596589900E-047
 -3.620000000000000E-002    3.316787193179799E-047
 -3.610000000000000E-002    5.225656784533540E-047
 -3.600000000000000E-002    1.183247829994846E-046
 -3.590000000000000E-002    2.470527166233770E-046
 -3.580000000000000E-002    4.821480166842345E-046
 -3.570000000000000E-002    8.853367421049308E-046
 -3.560000000000000E-002    1.206393222095418E-045
 -3.550000000000000E-002    8.792723545013426E-046
 -3.540000000000000E-002   -3.017597332715829E-046
 -3.530000000000000E-002   -6.363855513953196E-045
 -3.520000000000000E-002   -2.328358010228051E-044
 -3.510000000000000E-002   -6.641273156253306E-044
 -3.500000000000000E-002   -1.633228425292764E-043
 -3.490000000000000E-002   -3.702847435368874E-043
 -3.480000000000000E-002   -7.822634432744840E-043
 -3.470000000000000E-002   -1.557149448956020E-042
 -3.460000000000000E-002   -2.937608698029739E-042
 -3.450000000000000E-002   -5.258857893358648E-042
 -3.440000000000000E-002   -8.918644706155986E-042
 -3.430000000000000E-002   -1.426074821139145E-041
 -3.420000000000000E-002   -2.126898747944599E-041
 -3.410000000000000E-002   -2.895205034076473E-041
 -3.400000000000000E-002   -3.419345466935882E-041
 -3.390000000000000E-002   -2.982143469890339E-041
 -3.380000000000000E-002   -1.619578986944441E-042
 -3.370000000000000E-002    7.591852541523691E-041
 -3.360000000000000E-002    2.450046661275407E-040
 -3.350000000000000E-002    5.704168139345678E-040
 -3.340000000000000E-002    1.143894594095177E-039
 -3.330000000000000E-002    2.083189330464075E-039
 -3.320000000000000E-002    3.518889293142360E-039
 -3.310000000000000E-002    5.558093330824543E-039
 -3.300000000000000E-002    8.209000740781826E-039
 -3.290000000000000E-002    1.124543981927892E-038
 -3.280000000000000E-002    1.398693618316360E-038
 -3.270000000000000E-002    1.497140888399031E-038
 -3.260000000000000E-002    1.150907023019514E-038
 -3.250000000000000E-002   -8.648572438903361E-040
 -3.240000000000000E-002   -2.896485978281886E-038
 -3.230000000000000E-002   -8.238905903015067E-038
 -3.220000000000000E-002   -1.735016528438918E-037
 -3.210000000000000E-002   -3.164577334835545E-037
 -3.200000000000000E-002   -5.245248473409442E-037
 -3.190000000000000E-002   -8.047030526290977E-037
 -3.180000000000000E-002   -1.148449103929737E-036
 -3.170000000000000E-002   -1.517290700975911E-036
 -3.160000000000000E-002   -1.822461431295181E-036
 -3.150000000000000E-002   -1.898652354687823E-036
 -3.140000000000000E-002   -1.473880536693536E-036
 -3.130000000000000E-002   -1.406528710163007E-037
 -3.120000000000000E-002    2.661675787440007E-036
 -3.110000000000000E-002    7.637143529064090E-036
 -3.100000000000000E-002    1.557227001205725E-035
 -3.090000000000000E-002    2.719255905402003E-035
 -3.080000000000000E-002    4.289922035430126E-035
 -3.070000000000000E-002    6.234842938198507E-035
 -3.060000000000000E-002    8.384513912836057E-035
 -3.050000000000000E-002    1.035493034265298E-034
 -3.040000000000000E-002    1.145413866840920E-034
 -3.030000000000000E-002    1.058723236153444E-034
 -3.020000000000000E-002    6.183402889556094E-035
 -3.010000000000000E-002   -3.817222297232177E-035
 -3.000000000000000E-002   -2.186336158641225E-034
 -2.990000000000000E-002   -5.051046496711308E-034
 -2.980000000000000E-002   -9.187881779723934E-034
 -2.970000000000000E-002   -1.467767437432594E-033
 -2.960000000000000E-002   -2.134373098090939E-033
 -2.950000000000000E-002   -2.858710086389467E-033
 -2.940000000000000E-002   -3.519308365222812E-033
 -2.930000000000000E-002   -3.913263275691503E-033
 -2.920000000000000E-002   -3.740094693545790E-033
 -2.910000000000000E-002   -2.595764821687214E-033
 -2.900000000000000E-002    1.442325853386718E-035
 -2.890000000000000E-002    4.633441880441094E-033
 -2.880000000000000E-002    1.176927320786497E-032
 -2.870000000000000E-002    2.176060098429477E-032
 -2.860000000000000E-002    3.458556005037574E-032
 -2.850000000000000E-002    4.961598718009776E-032
 -2.840000000000000E-002    6.533281752952971E-032
 -2.830000000000000E-002    7.903646381338835E-032
 -2.820000000000000E-002    8.660853547258941E-032
 -2.810000000000000E-002    8.240581787575660E-032
 -2.800000000000000E-002    5.939030671692683E-032
 -2.790000000000000E-002    9.614548054705269E-033
 -2.780000000000000E-002   -7.481794959454321E-032
 -2.770000000000000E-002   -2.002202071026459E-031
 -2.760000000000000E-002   -3.691750181822977E-031
 -2.750000000000000E-002   -5.778250886676016E-031
 -2.740000000000000E-002   -8.127861170144619E-031
 -2.730000000000000E-002   -1.048041177858226E-030
 -2.720000000000000E-002   -1.242371597774927E-030
 -2.710000000000000E-002   -1.338076098625136E-030
 -2.700000000000000E-002   -1.261890311777053E-030
 -2.690000000000000E-002   -9.290949800862388E-031
 -2.680000000000000E-002   -2.517397366800302E-031
 -2.670000000000000E-002    8.483453902463667E-031
 -2.660000000000000E-002    2.421570612729120E-030
 -2.650000000000000E-002    4.468210825587806E-030
 -2.640000000000000E-002    6.913203817985933E-030
 -2.630000000000000E-002    9.580874248693902E-030
 -2.620000000000000E-002    1.217357951147846E-029
 -2.610000000000000E-002    1.425940712969076E-029
 -2.600000000000000E-002    1.527482770223918E-029
 -2.590000000000000E-002    1.454837727701903E-029
 -2.580000000000000E-002    1.135072527657157E-029
 -2.570000000000000E-002    4.974684231943848E-030
 -2.560000000000000E-002   -5.154320136096399E-030
 -2.550000000000000E-002   -1.934100817423023E-029
 -2.540000000000000E-002   -3.746509070205339E-029
 -2.530000000000000E-002   -5.882276282229447E-029
 -2.520000000000000E-002   -8.198492195103850E-029
 -2.510000000000000E-002   -1.046967702856563E-028
 -2.500000000000000E-002   -1.238460977343264E-028
 -2.490000000000000E-002   -1.355274122513692E-028
 -2.480000000000000E-002   -1.352255370115448E-028
 -2.470000000000000E-002   -1.181347734640843E-028
 -2.460000000000000E-002   -7.961858965125439E-029
 -2.450000000000000E-002   -1.580051080794286E-029
 -2.440000000000000E-002    7.573935039395877E-029
 -2.430000000000000E-002    1.952043661239770E-028
 -2.420000000000000E-002    3.398156703327471E-028
 -2.410000000000000E-002    5.031106125571159E-028
 -2.400000000000000E-002    6.743838120198932E-028
 -2.390000000000000E-002    8.383531773361691E-028
 -2.380000000000000E-002    9.751328429701211E-028
 -2.370000000000000E-002    1.060592630218480E-027
 -2.360000000000000E-002    1.067178816182830E-027
 -2.350000000000000E-002    9.652680605024294E-028
 -2.340000000000000E-002    7.251224482065774E-028
 -2.330000000000000E-002    3.195098538282472E-028
 -2.320000000000000E-002   -2.729576981110426E-028
 -2.310000000000000E-002   -1.063739333771333E-027
 -2.300000000000000E-002   -2.049558553626941E-027
 -2.290000000000000E-002   -3.206987433618078E-027
 -2.280000000000000E-002   -4.486678175293878E-027
 -2.270000000000000E-002   -5.807698421069816E-027
 -2.260000000000000E-002   -7.052680609087878E-027
 -2.250000000000000E-002   -8.064793985653725E-027
 -2.240000000000000E-002   -8.647846552766517E-027
 -2.230000000000000E-002   -8.571066040978067E-027
 -2.220000000000000E-002   -7.580230839794820E-027
 -2.210000000000000E-002   -5.416716648869916E-027
 -2.200000000000000E-002   -1.845616323457990E-027
 -2.190000000000000E-002    3.306714762281844E-027
 -2.180000000000000E-002    1.010656436191942E-026
 -2.170000000000000E-002    1.846074899881777E-026
 -2.160000000000000E-002    2.806298685262232E-026
 -2.150000000000000E-002    3.834539125499845E-026
 -2.140000000000000E-002    4.844369499200196E-026
 -2.130000000000000E-002    5.718630276881638E-026
 -2.120000000000000E-002    6.311781666192047E-026
 -2.110000000000000E-002    6.456686929853379E-026
 -2.100000000000000E-002    5.976559861338131E-026
 -2.090000000000000E-002    4.702360247584458E-026
 -2.080000000000000E-002    2.495283914832824E-026
 -2.070000000000000E-002   -7.268140146944077E-027
 -2.060000000000000E-002   -4.961121625140424E-026
 -2.050000000000000E-002   -1.009266828656955E-025
 -2.040000000000000E-002   -1.587195196004639E-025
 -2.030000000000000E-002   -2.190163085214566E-025
 -2.020000000000000E-002   -2.763658283015539E-025
 -2.010000000000000E-002   -3.240113932950194E-025
 -2.000000000000000E-002   -3.542616032609425E-025
 -1.990000000000000E-002   -3.590685518923122E-025
 -1.980000000000000E-002   -3.307985140659951E-025
 -1.970000000000000E-002   -2.631526324048102E-025
 -1.960000000000000E-002   -1.521661700614352E-025
 -1.950000000000000E-002    2.811437019028497E-027
 -1.940000000000000E-002    1.982734933955863E-025
 -1.930000000000000E-002    4.259764236505765E-025
 -1.920000000000000E-002    6.727449383309482E-025
 -1.910000000000000E-002    9.207608796149859E-025
 -1.900000000000000E-002    1.148394733607395E-024
 -1.890000000000000E-002    1.331584827969165E-024
 -1.880000000000000E-002    1.445701524117840E-024
 -1.870000000000000E-002    1.467765445197054E-024
 -1.860000000000000E-002    1.378821936629161E-024
 -1.850000000000000E-002    1.166224498133284E-024
 -1.840000000000000E-002    8.255541484929085E-025
 -1.830000000000000E-002    3.619093413436279E-025
 -1.820000000000000E-002   -2.096525883924892E-025
 -1.810000000000000E-002   -8.646582309676151E-025
 -1.800000000000000E-002   -1.570760801007695E-024
 -1.790000000000000E-002   -2.290159611548128E-024
 -1.780000000000000E-002   -2.982626293529853E-024
 -1.770000000000000E-002   -3.608738434628024E-024
 -1.760000000000000E-002   -4.132829936712592E-024
 -1.750000000000000E-002   -4.525139017579367E-024
 -1.740000000000000E-002   -4.762684938382268E-024
 -1.730000000000000E-002   -4.828545431681737E-024
 -1.720000000000000E-002   -4.709435339688574E-024
 -1.710000000000000E-002   -4.391787896250534E-024
 -1.700000000000000E-002   -3.856885504352138E-024
 -1.690000000000000E-002   -3.075929844814491E-024
 -1.680000000000000E-002   -2.006233059372081E-024
 -1.670000000000000E-002   -5.898831697763603E-025
 -1.660000000000000E-002    1.243752995707699E-024
 -1.650000000000000E-002    3.570540872068328E-024
 -1.640000000000000E-002    6.458410450139095E-024
 -1.630000000000000E-002    9.948513741538712E-024
 -1.620000000000000E-002    1.403161542755513E-023
 -1.610000000000000E-002    1.862165860280226E-023
 -1.600000000000000E-002    2.352950386232684E-023
 -1.590000000000000E-002    2.844077375435369E-023
 -1.580000000000000E-002    3.290238594723604E-023
 -1.570000000000000E-002    3.632256832681651E-023
 -1.560000000000000E-002    3.798877239976983E-023
 -1.550000000000000E-002    3.710686458266864E-023
 -1.540000000000000E-002    3.286315920806344E-023
 -1.530000000000000E-002    2.450847303068078E-023
 -1.520000000000000E-002    1.146042102246532E-023
 -1.510000000000000E-002   -6.583038823879829E-024
 -1.500000000000000E-002   -2.952889864183644E-023
 -1.490000000000000E-002   -5.678593630490685E-023
 -1.480000000000000E-002   -8.718750924676453E-023
 -1.470000000000000E-002   -1.189550614243447E-022
 -1.460000000000000E-002   -1.497158295695595E-022
 -1.450000000000000E-002   -1.765849808389562E-022
 -1.440000000000000E-002   -1.963176190356092E-022
 -1.430000000000000E-002   -2.055292371277131E-022
 -1.420000000000000E-002   -2.009757398921869E-022
 -1.410000000000000E-002   -1.798758959564940E-022
 -1.400000000000000E-002   -1.402515410451127E-022
 -1.390000000000000E-002   -8.125475586119648E-023
 -1.380000000000000E-002   -3.447623104957943E-024
 -1.370000000000000E-002    9.100019257482187E-023
 -1.360000000000000E-002    1.982271965168179E-022
 -1.350000000000000E-002    3.127327336099965E-022
 -1.340000000000000E-002    4.275790614249999E-022
 -1.330000000000000E-002    5.347410872206617E-022
 -1.320000000000000E-002    6.255866531174562E-022
 -1.310000000000000E-002    6.914550566145636E-022
 -1.300000000000000E-002    7.242883492791823E-022
 -1.290000000000000E-002    7.172609114892445E-022
 -1.280000000000000E-002    6.653498085934347E-022
 -1.270000000000000E-002    5.657913389243558E-022
 -1.260000000000000E-002    4.183800533243152E-022
 -1.250000000000000E-002    2.255826413553371E-022
 -1.240000000000000E-002   -7.539588894826603E-024
 -1.230000000000000E-002   -2.735828437417783E-022
 -1.220000000000000E-002   -5.631883983030227E-022
 -1.210000000000000E-002   -8.655091634437145E-022
 -1.200000000000000E-002   -1.168687980389885E-021
 -1.190000000000000E-002   -1.460280329520015E-021
 -1.180000000000000E-002   -1.727564850200665E-021
 -1.170000000000000E-002   -1.957706449453418E-021
 -1.160000000000000E-002   -2.137766440235189E-021
 -1.150000000000000E-002   -2.254590338717443E-021
 -1.140000000000000E-002   -2.294639132026222E-021
 -1.130000000000000E-002   -2.243859730077466E-021
 -1.120000000000000E-002   -2.087711435208639E-021
 -1.110000000000000E-002   -1.811468163767426E-021
 -1.100000000000000E-002   -1.400902466028297E-021
 -1.090000000000000E-002   -8.434243683792423E-022
 -1.080000000000000E-002   -1.296970930495034E-022
 -1.070000000000000E-002    7.443117471764906E-022
 -1.060000000000000E-002    1.774954866311417E-021
 -1.050000000000000E-002    2.948384827685355E-021
 -1.040000000000000E-002    4.238124326718562E-021
 -1.030000000000000E-002    5.603002175660245E-021
 -1.020000000000000E-002    6.985746291033960E-021
 -1.010000000000000E-002    8.312509676373695E-021
 -1.000000000000000E-002    9.493571032939981E-021
 -9.899999999999999E-003    1.042538737202868E-020
 -9.800000000000000E-003    1.099409872038176E-020
 -9.699999999999999E-003    1.108050043679969E-020
 -9.599999999999999E-003    1.056641088822046E-020
 -9.500000000000000E-003    9.342279763699577E-021
 -9.399999999999999E-003    7.315816382893825E-021
 -9.299999999999999E-003    4.421351206779693E-021
 -9.200000000000000E-003    6.295890336886508E-022
 -9.099999999999999E-003   -4.042640906749676E-021
 -8.999999999999999E-003   -9.523106443156303E-021
 -8.900000000000000E-003   -1.567590571311780E-020
 -8.799999999999999E-003   -2.229486133568801E-020
 -8.699999999999999E-003   -2.909933904842614E-020
 -8.600000000000000E-003   -3.573335837894046E-020
 -8.499999999999999E-003   -4.176898262239473E-020
 -8.399999999999999E-003   -4.671499054041376E-020
 -8.300000000000000E-003   -5.003181919608363E-020
 -8.199999999999999E-003   -5.115358931043365E-020
 -8.100000000000000E-003   -4.951770814882461E-020
 -8.000000000000000E-003   -4.460207000396663E-020
 -7.899999999999999E-003   -3.596919855547453E-020
 -7.800000000000000E-003   -2.331590353897317E-020
 -7.699999999999999E-003   -6.526076497836937E-021
 -7.599999999999999E-003    1.427664713622574E-020
 -7.499999999999999E-003    3.868050214800196E-020
 -7.399999999999999E-003    6.594634045376243E-020
 -7.299999999999999E-003    9.498274438439233E-020
 -7.199999999999999E-003    1.243408223319167E-019
 -7.100000000000000E-003    1.522335619191042E-019
 -6.999999999999999E-003    1.765837264403480E-019
 -6.899999999999999E-003    1.951029142128781E-019
 -6.800000000000000E-003    2.054025474348920E-019
 -6.699999999999999E-003    2.051352495711810E-019
 -6.599999999999999E-003    1.921627903143202E-019
 -6.499999999999999E-003    1.647439418489500E-019
 -6.399999999999999E-003    1.217331347970320E-019
 -6.299999999999999E-003    6.277834032527721E-020
 -6.199999999999999E-003   -1.149550684055993E-020
 -6.100000000000000E-003   -9.933281427655411E-020
 -5.999999999999999E-003   -1.977396610198241E-019
 -5.899999999999999E-003   -3.024386302978720E-019
 -5.800000000000000E-003   -4.079020148438112E-019
 -5.699999999999999E-003   -5.074771771078552E-019
 -5.599999999999999E-003   -5.936149631864262E-019
 -5.499999999999999E-003   -6.582072775417972E-019
 -5.399999999999999E-003   -6.930335857982297E-019
 -5.299999999999999E-003   -6.903084266653081E-019
 -5.199999999999999E-003   -6.433122389266777E-019
 -5.099999999999999E-003   -5.470773570397787E-019
 -4.999999999999999E-003   -3.990892296213519E-019
 -4.899999999999999E-003   -1.999521294375922E-019
 -4.799999999999999E-003    4.604114395068071E-020
 -4.699999999999999E-003    3.305036675125044E-019
 -4.599999999999999E-003    6.407824639766079E-019
 -4.499999999999999E-003    9.600869215563959E-019
 -4.399999999999999E-003    1.267973107027302E-018
 -4.299999999999999E-003    1.541220128444160E-018
 -4.199999999999999E-003    1.755107064363144E-018
 -4.099999999999999E-003    1.885063347582767E-018
 -3.999999999999999E-003    1.908624895814824E-018
 -3.899999999999999E-003    1.807583890685191E-018
 -3.799999999999999E-003    1.570178181784084E-018
 -3.699999999999999E-003    1.193131066264356E-018
 -3.599999999999999E-003    6.833275545985573E-019
 -3.499999999999999E-003    5.890736438943178E-020
 -3.399999999999999E-003   -6.504306524933610E-019
 -3.299999999999999E-003   -1.404079691523090E-018
 -3.199999999999999E-003   -2.152234409895175E-018
 -3.099999999999999E-003   -2.838677123367704E-018
 -2.999999999999999E-003   -3.404554927490308E-018
 -2.899999999999999E-003   -3.792954223475556E-018
 -2.799999999999999E-003   -3.953963234748482E-018
 -2.699999999999999E-003   -3.849826060536690E-018
 -2.599999999999999E-003   -3.459714698242819E-018
 -2.499999999999999E-003   -2.783620342375021E-018
 -2.399999999999999E-003   -1.844878878903272E-018
 -2.299999999999999E-003   -6.909149616068251E-019
 -2.199999999999999E-003    6.080909993677441E-019
 -2.099999999999999E-003    1.962742848502161E-018
 -1.999999999999999E-003    3.270102787176420E-018
 -1.899999999999999E-003    4.421212653808794E-018
 -1.799999999999999E-003    5.309959664970668E-018
 -1.699999999999999E-003    5.842601386025953E-018
 -1.599999999999999E-003    5.947125364045859E-018
 -1.499999999999999E-003    5.581558738369882E-018
 -1.399999999999999E-003    4.740355433282083E-018
 -1.299999999999999E-003    3.458097649137963E-018
 -1.199999999999999E-003    1.809942311238982E-018
 -1.099999999999999E-003   -9.149553416017090E-020
 -9.999999999999989E-004   -2.102814185494612E-018
 -8.999999999999990E-004   -4.059705726331775E-018
 -7.999999999999990E-004   -5.789381202581057E-018
 -6.999999999999989E-004   -7.124594883545733E-018
 -5.999999999999990E-004   -7.918128647997299E-018
 -4.999999999999989E-004   -8.056495980175680E-018
 -3.999999999999989E-004   -7.471650327822477E-018
 -2.999999999999989E-004   -6.149611240372342E-018
 -1.999999999999989E-004   -4.135166295754251E-018
 -9.999999999999892E-005   -1.532129392415645E-018
  1.084202172485504E-018    1.500993157917552E-018
  1.000000000000011E-004    4.759696622786660E-018
  2.000000000000011E-004    8.005937950312403E-018
  3.000000000000011E-004    1.098348682168756E-017
  4.000000000000011E-004    1.343507942044148E-017
  5.000000000000011E-004    1.512020170288404E-017
  6.000000000000011E-004    1.583232351709780E-017
  7.000000000000011E-004    1.541451894945341E-017
  8.000000000000011E-004    1.377257533729536E-017
  9.000000000000012E-004    1.088489658562504E-017
  1.000000000000001E-003    6.808732378619079E-018
  1.100000000000001E-003    1.682462362055463E-018
  1.200000000000001E-003   -4.276212913773195E-018
  1.300000000000001E-003   -1.077619596295880E-017
  1.400000000000001E-003   -1.746301428733356E-017
  1.500000000000001E-003   -2.393288744662834E-017
  1.600000000000001E-003   -2.975074829917070E-017
  1.700000000000001E-003   -3.447203301244963E-017
  1.800000000000001E-003   -3.766786169616234E-017
  1.900000000000001E-003   -3.895299042710516E-017
  2.000000000000001E-003   -3.801546544767609E-017
  2.100000000000001E-003   -3.464649480142194E-017
  2.200000000000001E-003   -2.876847707086310E-017
  2.300000000000001E-003   -2.045865587271125E-017
  2.400000000000001E-003   -9.965534400775813E-018
  2.500000000000001E-003    2.284954320289909E-018
  2.600000000000001E-003    1.569632982519950E-017
  2.700000000000001E-003    2.952367300546547E-017
  2.800000000000001E-003    4.291208768538424E-017
  2.900000000000001E-003    5.495123830012051E-017
  3.000000000000001E-003    6.474376906776273E-017
  3.100000000000001E-003    7.148358270134551E-017
  3.200000000000001E-003    7.453785956254882E-017
  3.300000000000001E-003    7.352512258825315E-017
  3.400000000000001E-003    6.838040125266945E-017
  3.500000000000001E-003    5.939824346986862E-017
  3.600000000000001E-003    4.724489417364994E-017
  3.700000000000001E-003    3.293272559751267E-017
  3.800000000000001E-003    1.775287008577725E-017
  3.900000000000001E-003    3.165760695860729E-018
  4.000000000000001E-003   -9.345805116903834E-018
  4.100000000000001E-003   -1.845187298313168E-017
  4.200000000000001E-003   -2.316423340234169E-017
  4.300000000000001E-003   -2.302070612840005E-017
  4.400000000000001E-003   -1.824311331423231E-017
  4.500000000000001E-003   -9.846314254467833E-018
  4.600000000000002E-003    3.233692721970475E-019
  4.700000000000001E-003    9.638608937359231E-018
  4.800000000000001E-003    1.484266815280497E-017
  4.900000000000002E-003    1.230609293234198E-017
  5.000000000000001E-003   -1.617524297072443E-018
  5.100000000000001E-003   -3.015413813128418E-017
  5.200000000000001E-003   -7.561858960517503E-017
  5.300000000000002E-003   -1.389102688771060E-016
  5.400000000000001E-003   -2.190427096503327E-016
  5.500000000000001E-003   -3.127603189980241E-016
  5.600000000000002E-003   -4.142972149223511E-016
  5.700000000000001E-003   -5.153295799166721E-016
  5.800000000000001E-003   -6.051646281914018E-016
  5.900000000000002E-003   -6.711957218984377E-016
  6.000000000000001E-003   -6.996350514603474E-016
  6.100000000000001E-003   -6.765124190600398E-016
  6.200000000000002E-003   -5.889049554226252E-016
  6.300000000000002E-003   -4.263349175715207E-016
  6.400000000000001E-003   -1.822494630048341E-016
  6.500000000000001E-003    1.445265474158988E-016
  6.600000000000002E-003    5.484913411347620E-016
  6.700000000000001E-003    1.016455494297213E-015
  6.800000000000001E-003    1.526956065636421E-015
  6.900000000000002E-003    2.050223295950428E-015
  7.000000000000001E-003    2.548804017493387E-015
  7.100000000000001E-003    2.978916323499840E-015
  7.200000000000002E-003    3.292565537888438E-015
  7.300000000000002E-003    3.440397077142050E-015
  7.400000000000001E-003    3.375204911723561E-015
  7.500000000000001E-003    3.055948145750594E-015
  7.600000000000002E-003    2.452063905740775E-015
  7.700000000000001E-003    1.547808183641194E-015
  7.800000000000001E-003    3.463026921715749E-016
  7.900000000000001E-003   -1.127063307129062E-015
  8.000000000000002E-003   -2.822247379340236E-015
  8.100000000000001E-003   -4.663540435690719E-015
  8.200000000000001E-003   -6.550245830438260E-015
  8.300000000000002E-003   -8.359301161130805E-015
  8.400000000000001E-003   -9.949996480151499E-015
  8.500000000000002E-003   -1.117081295190740E-014
  8.600000000000002E-003   -1.186825856114067E-014
  8.700000000000001E-003   -1.189741202673246E-014
  8.800000000000002E-003   -1.113370470986504E-014
  8.900000000000002E-003   -9.485313158912556E-015
  9.000000000000001E-003   -6.905373538581521E-015
  9.100000000000002E-003   -3.403118527091653E-015
  9.200000000000002E-003    9.470439126147643E-016
  9.300000000000001E-003    5.999498304409826E-015
  9.400000000000002E-003    1.153537252106857E-014
  9.500000000000001E-003    1.726527700733774E-014
  9.600000000000001E-003    2.283742710974478E-014
  9.700000000000002E-003    2.785145783364706E-014
  9.800000000000001E-003    3.187788300391495E-014
  9.900000000000001E-003    3.448275062467891E-014
  1.000000000000000E-002    3.525660340187200E-014
  1.010000000000000E-002    3.384642100014340E-014
  1.020000000000000E-002    2.998877973319389E-014
  1.030000000000000E-002    2.354214556383518E-014
  1.040000000000000E-002    1.451592419408817E-014
  1.050000000000000E-002    3.093749036220580E-015
  1.060000000000000E-002   -1.035145590737223E-014
  1.070000000000000E-002   -2.525296748329567E-014
  1.080000000000000E-002   -4.085820663286089E-014
  1.090000000000000E-002   -5.625050926286285E-014
  1.100000000000000E-002   -7.038530413547167E-014
  1.110000000000000E-002   -8.214043971908527E-014
  1.120000000000000E-002   -9.037935182602736E-014
  1.130000000000000E-002   -9.402470089120933E-014
  1.140000000000000E-002   -9.213908143785743E-014
  1.150000000000000E-002   -8.400838264332407E-014
  1.160000000000000E-002   -6.922257874699714E-014
  1.170000000000000E-002   -4.774814431409595E-014
  1.180000000000000E-002   -1.998600338225060E-014
  1.190000000000000E-002    1.319099334276155E-014
  1.200000000000000E-002    5.042653028842568E-014
  1.210000000000000E-002    8.989974968139629E-014
  1.220000000000000E-002    1.293777692845622E-013
  1.230000000000000E-002    1.663030782978670E-013
  1.240000000000000E-002    1.979150074749262E-013
  1.250000000000000E-002    2.214019749306986E-013
  1.260000000000000E-002    2.340787624790359E-013
  1.270000000000000E-002    2.335806049393238E-013
  1.280000000000000E-002    2.180634175645718E-013
  1.290000000000000E-002    1.863978990832613E-013
  1.300000000000000E-002    1.383436091633253E-013
  1.310000000000000E-002    7.468885350024884E-014
  1.320000000000000E-002   -2.657827231767368E-015
  1.330000000000000E-002   -9.063709928458816E-014
  1.340000000000000E-002   -1.850796699519967E-013
  1.350000000000000E-002   -2.808255635684929E-013
  1.360000000000000E-002   -3.719245875309980E-013
  1.370000000000000E-002   -4.519157105542524E-013
  1.380000000000000E-002   -5.141774949703081E-013
  1.390000000000000E-002   -5.523360400405895E-013
  1.400000000000000E-002   -5.607112056067223E-013
  1.410000000000000E-002   -5.347766538095233E-013
  1.420000000000000E-002   -4.716054485425668E-013
  1.430000000000000E-002   -3.702699035741453E-013
  1.440000000000000E-002   -2.321633811149673E-013
  1.450000000000000E-002   -6.121300275767580E-014
  1.460000000000000E-002    1.360449089824824E-013
  1.470000000000000E-002    3.505491716922598E-013
  1.480000000000000E-002    5.709725745257966E-013
  1.490000000000000E-002    7.841605047431764E-013
  1.500000000000000E-002    9.757432200460182E-013
  1.510000000000000E-002    1.130903705943167E-012
  1.520000000000000E-002    1.235270311294012E-012
  1.530000000000000E-002    1.275891256034805E-012
  1.540000000000000E-002    1.242238041111444E-012
  1.550000000000000E-002    1.127175868629327E-012
  1.560000000000000E-002    9.278338662751084E-013
  1.570000000000000E-002    6.463072336053520E-013
  1.580000000000000E-002    2.901249281181636E-013
  1.590000000000000E-002   -1.275749006569773E-013
  1.600000000000000E-002   -5.882076799059232E-013
  1.610000000000000E-002   -1.068272797156580E-012
  1.620000000000000E-002   -1.540260502911767E-012
  1.630000000000000E-002   -1.973920144278637E-012
  1.640000000000000E-002   -2.337851093748642E-012
  1.650000000000000E-002   -2.601349458161239E-012
  1.660000000000000E-002   -2.736423527526206E-012
  1.670000000000000E-002   -2.719865131489882E-012
  1.680000000000000E-002   -2.535253412474547E-012
  1.690000000000000E-002   -2.174753605424692E-012
  1.700000000000000E-002   -1.640572919062927E-012
  1.710000000000000E-002   -9.459440124159030E-013
  1.720000000000000E-002   -1.155207216288482E-013
  1.730000000000000E-002    8.149038544476238E-013
  1.740000000000000E-002    1.799411785373016E-012
  1.750000000000000E-002    2.783722027749605E-012
  1.760000000000000E-002    3.707667994126080E-012
  1.770000000000000E-002    4.508311056040017E-012
  1.780000000000000E-002    5.123557680646185E-012
  1.790000000000000E-002    5.496107586796468E-012
  1.800000000000000E-002    5.577515147584010E-012
  1.810000000000000E-002    5.332121827595320E-012
  1.820000000000000E-002    4.740597266006865E-012
  1.830000000000000E-002    3.802824022043475E-012
  1.840000000000000E-002    2.539879816138259E-012
  1.850000000000000E-002    9.948999813654080E-013
  1.860000000000000E-002   -7.673480138627914E-013
  1.870000000000000E-002   -2.662279591187649E-012