 -4.000000000000000E-002    0.000000000000000E+000
 -3.990000000000000E-002    0.000000000000000E+000
 -3.980000000000000E-002    0.000000000000000E+000
 -3.970000000000000E-002    0.000000000000000E+000
 -3.960000000000000E-002    0.000000000000000E+000
 -3.950000000000000E-002    0.000000000000000E+000
 -3.940000000000000E-002    0.000000000000000E+000
 -3.930000000000000E-002    0.000000000000000E+000
 -3.920000000000000E-002    0.000000000000000E+000
 -3.910000000000000E-002    0.000000000000000E+000
 -3.900000000000000E-002    0.000000000000000E+000
 -3.890000000000000E-002    0.000000000000000E+000
 -3.880000000000000E-002    0.000000000000000E+000
 -3.870000000000000E-002    0.000000000000000E+000
 -3.860000000000000E-002    0.000000000000000E+000
 -3.850000000000000E-002    0.000000000000000E+000
 -3.840000000000000E-002    0.000000000000000E+000
 -3.830000000000000E-002    0.000000000000000E+000
 -3.820000000000000E-002    0.000000000000000E+000
 -3.810000000000000E-002    0.000000000000000E+000
 -3.800000000000000E-002    0.000000000000000E+000
 -3.790000000000000E-002    0.000000000000000E+000
 -3.780000000000000E-002    0.000000000000000E+000
 -3.770000000000000E-002    0.000000000000000E+000
 -3.760000000000000E-002    0.000000000000000E+000
 -3.750000000000000E-002    0.000000000000000E+000
 -3.740000000000000E-002    0.000000000000000E+000
 -3.730000000000000E-002    0.000000000000000E+000
 -3.720000000000000E-002    0.000000000000000E+000
 -3.710000000000000E-002    0.000000000000000E+000
 -3.700000000000000E-002    0.000000000000000E+000
 -3.690000000000000E-002    0.000000000000000E+000
 -3.680000000000000E-002    0.000000000000000E+000
 -3.670000000000000E-002    0.000000000000000E+000
 -3.660000000000000E-002    0.000000000000000E+000
 -3.650000000000000E-002    0.000000000000000E+000
 -3.640000000000000E-002    0.000000000000000E+000
 -3.630000000000000E-002    0.000000000000000E+000
 -3.620000000000000E-002    0.000000000000000E+000
 -3.610000000000000E-002    0.000000000000000E+000
 -3.600000000000000E-002    0.000000000000000E+000
 -3.590000000000000E-002    0.000000000000000E+000
 -3.580000000000000E-002    0.000000000000000E+000
 -3.570000000000000E-002    0.000000000000000E+000
 -3.560000000000000E-002    0.000000000000000E+000
 -3.550000000000000E-002    0.000000000000000E+000
 -3.540000000000000E-002    0.000000000000000E+000
 -3.530000000000000E-002    0.000000000000000E+000
 -3.520000000000000E-002    0.000000000000000E+000
 -3.510000000000000E-002    0.000000000000000E+000
 -3.500000000000000E-002    0.000000000000000E+000
 -3.490000000000000E-002    0.000000000000000E+000
 -3.480000000000000E-002    0.000000000000000E+000
 -3.470000000000000E-002    0.000000000000000E+000
 -3.460000000000000E-002    0.000000000000000E+000
 -3.450000000000000E-002    0.000000000000000E+000
 -3.440000000000000E-002    0.000000000000000E+000
 -3.430000000000000E-002    0.000000000000000E+000
 -3.420000000000000E-002    0.000000000000000E+000
 -3.410000000000000E-002    0.000000000000000E+000
 -3.400000000000000E-002    0.000000000000000E+000
 -3.390000000000000E-002    0.000000000000000E+000
 -3.380000000000000E-002    0.000000000000000E+000
 -3.370000000000000E-002    0.000000000000000E+000
 -3.360000000000000E-002    0.000000000000000E+000
 -3.350000000000000E-002    0.000000000000000E+000
 -3.340000000000000E-002    0.000000000000000E+000
 -3.330000000000000E-002    0.000000000000000E+000
 -3.320000000000000E-002    0.000000000000000E+000
 -3.310000000000000E-002    0.000000000000000E+000
 -3.300000000000000E-002    0.000000000000000E+000
 -3.290000000000000E-002    0.000000000000000E+000
 -3.280000000000000E-002    0.000000000000000E+000
 -3.270000000000000E-002    0.000000000000000E+000
 -3.260000000000000E-002    0.000000000000000E+000
 -3.250000000000000E-002    0.000000000000000E+000
 -3.240000000000000E-002    0.000000000000000E+000
 -3.230000000000000E-002    0.000000000000000E+000
 -3.220000000000000E-002    0.000000000000000E+000
 -3.210000000000000E-002    0.000000000000000E+000
 -3.200000000000000E-002    0.000000000000000E+000
 -3.190000000000000E-002    0.000000000000000E+000
 -3.180000000000000E-002    0.000000000000000E+000
 -3.170000000000000E-002    0.000000000000000E+000
 -3.160000000000000E-002    0.000000000000000E+000
 -3.150000000000000E-002    0.000000000000000E+000
 -3.140000000000000E-002    0.000000000000000E+000
 -3.130000000000000E-002    0.000000000000000E+000
 -3.120000000000000E-002    0.000000000000000E+000
 -3.110000000000000E-002    0.000000000000000E+000
 -3.100000000000000E-002    0.000000000000000E+000
 -3.090000000000000E-002    0.000000000000000E+000
 -3.080000000000000E-002    0.000000000000000E+000
 -3.070000000000000E-002    0.000000000000000E+000
 -3.060000000000000E-002    0.000000000000000E+000
 -3.050000000000000E-002    0.000000000000000E+000
 -3.040000000000000E-002    0.000000000000000E+000
 -3.030000000000000E-002    0.000000000000000E+000
 -3.020000000000000E-002    0.000000000000000E+000
 -3.010000000000000E-002    0.000000000000000E+000
 -3.000000000000000E-002    0.000000000000000E+000
 -2.990000000000000E-002    0.000000000000000E+000
 -2.980000000000000E-002    0.000000000000000E+000
 -2.970000000000000E-002    0.000000000000000E+000
 -2.960000000000000E-002    0.000000000000000E+000
 -2.950000000000000E-002    0.000000000000000E+000
 -2.940000000000000E-002    0.000000000000000E+000
 -2.930000000000000E-002    0.000000000000000E+000
 -2.920000000000000E-002    0.000000000000000E+000
 -2.910000000000000E-002    0.000000000000000E+000
 -2.900000000000000E-002    0.000000000000000E+000
 -2.890000000000000E-002    0.000000000000000E+000
 -2.880000000000000E-002    0.000000000000000E+000
 -2.870000000000000E-002    0.000000000000000E+000
 -2.860000000000000E-002    0.000000000000000E+000
 -2.850000000000000E-002    0.000000000000000E+000
 -2.840000000000000E-002    0.000000000000000E+000
 -2.830000000000000E-002    0.000000000000000E+000
 -2.820000000000000E-002    0.000000000000000E+000
 -2.810000000000000E-002    0.000000000000000E+000
 -2.800000000000000E-002    0.000000000000000E+000
 -2.790000000000000E-002    0.000000000000000E+000
 -2.780000000000000E-002    0.000000000000000E+000
 -2.770000000000000E-002    0.000000000000000E+000
 -2.760000000000000E-002    0.000000000000000E+000
 -2.750000000000000E-002    0.000000000000000E+000
 -2.740000000000000E-002    0.000000000000000E+000
 -2.730000000000000E-002    0.000000000000000E+000
 -2.720000000000000E-002    0.000000000000000E+000
 -2.710000000000000E-002    0.000000000000000E+000
 -2.700000000000000E-002    0.000000000000000E+000
 -2.690000000000000E-002    0.000000000000000E+000
 -2.680000000000000E-002    0.000000000000000E+000
 -2.670000000000000E-002    0.000000000000000E+000
 -2.660000000000000E-002    0.000000000000000E+000
 -2.650000000000000E-002    0.000000000000000E+000
 -2.640000000000000E-002    0.000000000000000E+000
 -2.630000000000000E-002    0.000000000000000E+000
 -2.620000000000000E-002    0.000000000000000E+000
 -2.610000000000000E-002    0.000000000000000E+000
 -2.600000000000000E-002    0.000000000000000E+000
 -2.590000000000000E-002    0.000000000000000E+000
 -2.580000000000000E-002    0.000000000000000E+000
 -2.570000000000000E-002    0.000000000000000E+000
 -2.560000000000000E-002    0.000000000000000E+000
 -2.550000000000000E-002    0.000000000000000E+000
 -2.540000000000000E-002    0.000000000000000E+000
 -2.530000000000000E-002    0.000000000000000E+000
 -2.520000000000000E-002    0.000000000000000E+000
 -2.510000000000000E-002    0.000000000000000E+000
 -2.500000000000000E-002    0.000000000000000E+000
 -2.490000000000000E-002    0.000000000000000E+000
 -2.480000000000000E-002    0.000000000000000E+000
 -2.470000000000000E-002    0.000000000000000E+000
 -2.460000000000000E-002    0.000000000000000E+000
 -2.450000000000000E-002    0.000000000000000E+000
 -2.440000000000000E-002    0.000000000000000E+000
 -2.430000000000000E-002    0.000000000000000E+000
 -2.420000000000000E-002    0.000000000000000E+000
 -2.410000000000000E-002    0.000000000000000E+000
 -2.400000000000000E-002    0.000000000000000E+000
 -2.390000000000000E-002    0.000000000000000E+000
 -2.380000000000000E-002    0.000000000000000E+000
 -2.370000000000000E-002    0.000000000000000E+000
 -2.360000000000000E-002    0.000000000000000E+000
 -2.350000000000000E-002    0.000000000000000E+000
 -2.340000000000000E-002    0.000000000000000E+000
 -2.330000000000000E-002    0.000000000000000E+000
 -2.320000000000000E-002    0.000000000000000E+000
 -2.310000000000000E-002    0.000000000000000E+000
 -2.300000000000000E-002    0.000000000000000E+000
 -2.290000000000000E-002    0.000000000000000E+000
 -2.280000000000000E-002    0.000000000000000E+000
 -2.270000000000000E-002    0.000000000000000E+000
 -2.260000000000000E-002    0.000000000000000E+000
 -2.250000000000000E-002    0.000000000000000E+000
 -2.240000000000000E-002    0.000000000000000E+000
 -2.230000000000000E-002    0.000000000000000E+000
 -2.220000000000000E-002    0.000000000000000E+000
 -2.210000000000000E-002    0.000000000000000E+000
 -2.200000000000000E-002    0.000000000000000E+000
 -2.190000000000000E-002    0.000000000000000E+000
 -2.180000000000000E-002    0.000000000000000E+000
 -2.170000000000000E-002    0.000000000000000E+000
 -2.160000000000000E-002    0.000000000000000E+000
 -2.150000000000000E-002    0.000000000000000E+000
 -2.140000000000000E-002    0.000000000000000E+000
 -2.130000000000000E-002    0.000000000000000E+000
 -2.120000000000000E-002    0.000000000000000E+000
 -2.110000000000000E-002    0.000000000000000E+000
 -2.100000000000000E-002    0.000000000000000E+000
 -2.090000000000000E-002    0.000000000000000E+000
 -2.080000000000000E-002    0.000000000000000E+000
 -2.070000000000000E-002    0.000000000000000E+000
 -2.060000000000000E-002    0.000000000000000E+000
 -2.050000000000000E-002    0.000000000000000E+000
 -2.040000000000000E-002    0.000000000000000E+000
 -2.030000000000000E-002    0.000000000000000E+000
 -2.020000000000000E-002    0.000000000000000E+000
 -2.010000000000000E-002    0.000000000000000E+000
 -2.000000000000000E-002    0.000000000000000E+000
 -1.990000000000000E-002    0.000000000000000E+000
 -1.980000000000000E-002    0.000000000000000E+000
 -1.970000000000000E-002    0.000000000000000E+000
 -1.960000000000000E-002    0.000000000000000E+000
 -1.950000000000000E-002    0.000000000000000E+000
 -1.940000000000000E-002    0.000000000000000E+000
 -1.930000000000000E-002    0.000000000000000E+000
 -1.920000000000000E-002    0.000000000000000E+000
 -1.910000000000000E-002    0.000000000000000E+000
 -1.900000000000000E-002    0.000000000000000E+000
 -1.890000000000000E-002    0.000000000000000E+000
 -1.880000000000000E-002    0.000000000000000E+000
 -1.870000000000000E-002    0.000000000000000E+000
 -1.860000000000000E-002    0.000000000000000E+000
 -1.850000000000000E-002    0.000000000000000E+000
 -1.840000000000000E-002    0.000000000000000E+000
 -1.830000000000000E-002    0.000000000000000E+000
 -1.820000000000000E-002    0.000000000000000E+000
 -1.810000000000000E-002    0.000000000000000E+000
 -1.800000000000000E-002    0.000000000000000E+000
 -1.790000000000000E-002    0.000000000000000E+000
 -1.780000000000000E-002    0.000000000000000E+000
 -1.770000000000000E-002    0.000000000000000E+000
 -1.760000000000000E-002    0.000000000000000E+000
 -1.750000000000000E-002    0.000000000000000E+000
 -1.740000000000000E-002    0.000000000000000E+000
 -1.730000000000000E-002    0.000000000000000E+000
 -1.720000000000000E-002    0.000000000000000E+000
 -1.710000000000000E-002    0.000000000000000E+000
 -1.700000000000000E-002    0.000000000000000E+000
 -1.690000000000000E-002    0.000000000000000E+000
 -1.680000000000000E-002    0.000000000000000E+000
 -1.670000000000000E-002    0.000000000000000E+000
 -1.660000000000000E-002    0.000000000000000E+000
 -1.650000000000000E-002    0.000000000000000E+000
 -1.640000000000000E-002    0.000000000000000E+000
 -1.630000000000000E-002    0.000000000000000E+000
 -1.620000000000000E-002    0.000000000000000E+000
 -1.610000000000000E-002    0.000000000000000E+000
 -1.600000000000000E-002    0.000000000000000E+000
 -1.590000000000000E-002    0.000000000000000E+000
 -1.580000000000000E-002    0.000000000000000E+000
 -1.570000000000000E-002    0.000000000000000E+000
 -1.560000000000000E-002    0.000000000000000E+000
 -1.550000000000000E-002    0.000000000000000E+000
 -1.540000000000000E-002    0.000000000000000E+000
 -1.530000000000000E-002    0.000000000000000E+000
 -1.520000000000000E-002    0.000000000000000E+000
 -1.510000000000000E-002    0.000000000000000E+000
 -1.500000000000000E-002    0.000000000000000E+000
 -1.490000000000000E-002    0.000000000000000E+000
 -1.480000000000000E-002    0.000000000000000E+000
 -1.470000000000000E-002    0.000000000000000E+000
 -1.460000000000000E-002    0.000000000000000E+000
 -1.450000000000000E-002    0.000000000000000E+000
 -1.440000000000000E-002    0.000000000000000E+000
 -1.430000000000000E-002    0.000000000000000E+000
 -1.420000000000000E-002    0.000000000000000E+000
 -1.410000000000000E-002    0.000000000000000E+000
 -1.400000000000000E-002    0.000000000000000E+000
 -1.390000000000000E-002    0.000000000000000E+000
 -1.380000000000000E-002    0.000000000000000E+000
 -1.370000000000000E-002    0.000000000000000E+000
 -1.360000000000000E-002    0.000000000000000E+000
 -1.350000000000000E-002    0.000000000000000E+000
 -1.340000000000000E-002    0.000000000000000E+000
 -1.330000000000000E-002    0.000000000000000E+000
 -1.320000000000000E-002    0.000000000000000E+000
 -1.310000000000000E-002    0.000000000000000E+000
 -1.300000000000000E-002    0.000000000000000E+000
 -1.290000000000000E-002    0.000000000000000E+000
 -1.280000000000000E-002    0.000000000000000E+000
 -1.270000000000000E-002    0.000000000000000E+000
 -1.260000000000000E-002    0.000000000000000E+000
 -1.250000000000000E-002    0.000000000000000E+000
 -1.240000000000000E-002    0.000000000000000E+000
 -1.230000000000000E-002    0.000000000000000E+000
 -1.220000000000000E-002    0.000000000000000E+000
 -1.210000000000000E-002    0.000000000000000E+000
 -1.200000000000000E-002    0.000000000000000E+000
 -1.190000000000000E-002    0.000000000000000E+000
 -1.180000000000000E-002    0.000000000000000E+000
 -1.170000000000000E-002    0.000000000000000E+000
 -1.160000000000000E-002    0.000000000000000E+000
 -1.150000000000000E-002    0.000000000000000E+000
 -1.140000000000000E-002    0.000000000000000E+000
 -1.130000000000000E-002    0.000000000000000E+000
 -1.120000000000000E-002    0.000000000000000E+000
 -1.110000000000000E-002    0.000000000000000E+000
 -1.100000000000000E-002    0.000000000000000E+000
 -1.090000000000000E-002    0.000000000000000E+000
 -1.080000000000000E-002    0.000000000000000E+000
 -1.070000000000000E-002    0.000000000000000E+000
 -1.060000000000000E-002    0.000000000000000E+000
 -1.050000000000000E-002    0.000000000000000E+000
 -1.040000000000000E-002    0.000000000000000E+000
 -1.030000000000000E-002    0.000000000000000E+000
 -1.020000000000000E-002    0.000000000000000E+000
 -1.010000000000000E-002    0.000000000000000E+000
 -1.000000000000000E-002    0.000000000000000E+000
 -9.899999999999999E-003    0.000000000000000E+000
 -9.800000000000000E-003    0.000000000000000E+000
 -9.699999999999999E-003    0.000000000000000E+000
 -9.599999999999999E-003    0.000000000000000E+000
 -9.500000000000000E-003    0.000000000000000E+000
 -9.399999999999999E-003    0.000000000000000E+000
 -9.299999999999999E-003    0.000000000000000E+000
 -9.200000000000000E-003    0.000000000000000E+000
 -9.099999999999999E-003    0.000000000000000E+000
 -8.999999999999999E-003    0.000000000000000E+000
 -8.900000000000000E-003    0.000000000000000E+000
 -8.799999999999999E-003    0.000000000000000E+000
 -8.699999999999999E-003    0.000000000000000E+000
 -8.600000000000000E-003    0.000000000000000E+000
 -8.499999999999999E-003    0.000000000000000E+000
 -8.399999999999999E-003    0.000000000000000E+000
 -8.300000000000000E-003   -1.127955053372103E-048
 -8.199999999999999E-003   -2.255910106744206E-048
 -8.100000000000000E-003   -3.383865160116310E-048
 -8.000000000000000E-003   -4.511820213488413E-048
 -7.899999999999999E-003   -8.948443478226907E-048
 -7.800000000000000E-003   -1.225711168959330E-047
 -7.699999999999999E-003   -1.101293388371466E-047
 -7.599999999999999E-003   -7.512845971091813E-048
 -7.499999999999999E-003    1.067918058757961E-047
 -7.399999999999999E-003    2.944421472501963E-047
 -7.299999999999999E-003    5.181875074996856E-047
 -7.199999999999999E-003    7.407706402241095E-047
 -7.100000000000000E-003    9.396324443560260E-047
 -6.999999999999999E-003    1.188944021581243E-046
 -6.899999999999999E-003    1.313360026860396E-046
 -6.800000000000000E-003    1.114485854838384E-046
 -6.699999999999999E-003    1.271301017419879E-046
 -6.599999999999999E-003    7.987988075312606E-047
 -6.499999999999999E-003   -3.073368821557108E-047
 -6.399999999999999E-003   -1.718840190286571E-046
 -6.299999999999999E-003   -3.110793016374821E-046
 -6.199999999999999E-003   -5.168313850393751E-046
 -6.100000000000000E-003   -6.245613869689675E-046
 -5.999999999999999E-003   -9.252184126114374E-046
 -5.899999999999999E-003   -1.137278973444557E-045
 -5.800000000000000E-003   -1.209992639939215E-045
 -5.699999999999999E-003   -9.994194139660694E-046
 -5.599999999999999E-003   -8.586006968321264E-046
 -5.499999999999999E-003   -5.645776834981021E-046
 -5.399999999999999E-003   -1.130062077904464E-047
 -5.299999999999999E-003    6.084847048258485E-046
 -5.199999999999999E-003    1.769920307840450E-045
 -5.099999999999999E-003    2.501990143426154E-045
 -4.999999999999999E-003    3.377010075043404E-045
 -4.899999999999999E-003    4.186730653868951E-045
 -4.799999999999999E-003    6.098217002219795E-045
 -4.699999999999999E-003    8.021322461170582E-045
 -4.599999999999999E-003    9.987731633288895E-045
 -4.499999999999999E-003    1.062951800569022E-044
 -4.399999999999999E-003    1.119618781151622E-044
 -4.299999999999999E-003    1.127099795320517E-044
 -4.199999999999999E-003    9.071626927914778E-045
 -4.099999999999999E-003    4.850117797010074E-045
 -3.999999999999999E-003   -1.036655149379838E-045
 -3.899999999999999E-003   -1.140764031028932E-044
 -3.799999999999999E-003   -2.616571082761323E-044
 -3.699999999999999E-003   -4.414966312781959E-044
 -3.599999999999999E-003   -6.627850780896815E-044
 -3.499999999999999E-003   -9.029035595526553E-044
 -3.399999999999999E-003   -1.118475219666696E-043
 -3.299999999999999E-003   -1.268043719238545E-043
 -3.199999999999999E-003   -1.294695887433711E-043
 -3.099999999999999E-003   -1.100089105300069E-043
 -2.999999999999999E-003   -6.097487151498672E-044
 -2.899999999999999E-003    2.564633457007825E-044
 -2.799999999999999E-003    1.530478938163297E-043
 -2.699999999999999E-003    3.194268932420079E-043
 -2.599999999999999E-003    5.136374240871882E-043
 -2.499999999999999E-003    7.137742325803996E-043
 -2.399999999999999E-003    8.848654065776607E-043
 -2.299999999999999E-003    9.819378136631162E-043
 -2.199999999999999E-003    9.503388142824087E-043
 -2.099999999999999E-003    7.342094899857132E-043
 -1.999999999999999E-003    2.870690016528156E-043
 -1.899999999999999E-003   -4.174023136561897E-043
 -1.799999999999999E-003   -1.370576199477414E-042
 -1.699999999999999E-003   -2.511905981695286E-042
 -1.599999999999999E-003   -3.721395642777126E-042
 -1.499999999999999E-003   -4.813550126563030E-042
 -1.399999999999999E-003   -5.547281847285134E-042
 -1.299999999999999E-003   -5.640152294352243E-042
 -1.199999999999999E-003   -4.807662858227031E-042
 -1.099999999999999E-003   -2.813351138558810E-042
 -9.999999999999989E-004    4.716416696530829E-043
 -8.999999999999990E-004    5.002781666999612E-042
 -7.999999999999990E-004    1.050171349030257E-041
 -6.999999999999989E-004    1.641633724275368E-041
 -5.999999999999990E-004    2.191374341969772E-041
 -4.999999999999989E-004    2.591862775994744E-041
 -3.999999999999989E-004    2.720991729949288E-041
 -2.999999999999989E-004    2.457811097861173E-041
 -1.999999999999989E-004    1.702942135028727E-041
 -9.999999999999892E-005    4.033636760845774E-042
  1.084202172485504E-018   -1.423052778078534E-041
  1.000000000000011E-004   -3.666358123822663E-041
  2.000000000000011E-004   -6.112303519249627E-041
  3.000000000000011E-004   -8.442962292516138E-041
  4.000000000000011E-004   -1.025529365118581E-040
  5.000000000000011E-004   -1.109929909193517E-040
  6.000000000000011E-004   -1.053584546354998E-040
  7.000000000000011E-004   -8.209852377133534E-041
  8.000000000000011E-004   -3.931527324810744E-041
  9.000000000000012E-004    2.245625837280496E-041
  1.000000000000001E-003    9.963510416112103E-041
  1.100000000000001E-003    1.853021058960535E-040
  1.200000000000001E-003    2.693541076176497E-040
  1.300000000000001E-003    3.391987134353768E-040
  1.400000000000001E-003    3.810193861532478E-040
  1.500000000000001E-003    3.815402081616953E-040
  1.600000000000001E-003    3.301322996379566E-040
  1.700000000000001E-003    2.210000136625123E-040
  1.800000000000001E-003    5.511262748572973E-041
  1.900000000000001E-003   -1.584847102160826E-040
  2.000000000000001E-003   -4.023156926915760E-040
  2.100000000000001E-003   -6.513321118190506E-040
  2.200000000000001E-003   -8.750729634511509E-040
  2.300000000000001E-003   -1.041007276003824E-039
  2.400000000000001E-003   -1.118724826252598E-039
  2.500000000000001E-003   -1.084401738113781E-039
  2.600000000000001E-003   -9.248232100383826E-040
  2.700000000000001E-003   -6.402055898094684E-040
  2.800000000000001E-003   -2.451362379646599E-040
  2.900000000000001E-003    2.327809178378880E-040
  3.000000000000001E-003    7.566139687053757E-040
  3.100000000000001E-003    1.285639525088312E-039
  3.200000000000001E-003    1.781760209768932E-039
  3.300000000000001E-003    2.215386072384195E-039
  3.400000000000001E-003    2.569146967142445E-039
  3.500000000000001E-003    2.837901765734680E-039
  3.600000000000001E-003    3.023973149575448E-039
  3.700000000000001E-003    3.127448001043801E-039
  3.800000000000001E-003    3.132574285618614E-039
  3.900000000000001E-003    2.992721151486048E-039
  4.000000000000001E-003    2.617674768144366E-039
  4.100000000000001E-003    1.868047487587830E-039
  4.200000000000001E-003    5.617950967337213E-040
  4.300000000000001E-003   -1.502868568629590E-039
  4.400000000000001E-003   -4.505843155694001E-039
  4.500000000000001E-003   -8.545615009961504E-039
  4.600000000000002E-003   -1.356681978703792E-038
  4.700000000000001E-003   -1.928455651618090E-038
  4.800000000000001E-003   -2.511961685976397E-038
  4.900000000000002E-003   -3.016219985812378E-038
  5.000000000000001E-003   -3.318295328564161E-038
  5.100000000000001E-003   -3.270855475480390E-038
  5.200000000000001E-003   -2.717361109897825E-038
  5.300000000000002E-003   -1.515149319338684E-038
  5.400000000000001E-003    4.346115785411683E-039
  5.500000000000001E-003    3.152624767269418E-038
  5.600000000000002E-003    6.546944322235421E-038
  5.700000000000001E-003    1.038375842897935E-037
  5.800000000000001E-003    1.426996905651313E-037
  5.900000000000002E-003    1.765429770081065E-037
  6.000000000000001E-003    1.985293655887980E-037
  6.100000000000001E-003    2.010392023194163E-037
  6.200000000000002E-003    1.765141204443924E-037
  6.300000000000002E-003    1.185711918793552E-037
  6.400000000000001E-003    2.331307273089003E-038
  6.500000000000001E-003   -1.092901532090440E-037
  6.600000000000002E-003   -2.741180391681989E-037
  6.700000000000001E-003   -4.599209542338211E-037
  6.800000000000001E-003   -6.488680006683707E-037
  6.900000000000002E-003   -8.168370114236923E-037
  7.000000000000001E-003   -9.346253131848097E-037
  7.100000000000001E-003   -9.701916317163459E-037
  7.200000000000002E-003   -8.919401611921421E-037
  7.300000000000002E-003   -6.729312676110739E-037
  7.400000000000001E-003   -2.957582817723990E-037
  7.500000000000001E-003    2.423219241852559E-037
  7.600000000000002E-003    9.245618027247168E-037
  7.700000000000001E-003    1.710872355210050E-036
  7.800000000000001E-003    2.535696649914325E-036
  7.900000000000001E-003    3.308360297772181E-036
  8.000000000000002E-003    3.916578219679544E-036
  8.100000000000001E-003    4.233621864867180E-036
  8.200000000000001E-003    4.129371431929611E-036
  8.300000000000002E-003    3.485092423437480E-036
  8.400000000000001E-003    2.211289898967118E-036
  8.500000000000002E-003    2.674444366282009E-037
  8.600000000000002E-003   -2.318150424552856E-036
  8.700000000000001E-003   -5.430782236414798E-036
  8.800000000000002E-003   -8.856728217995852E-036
  8.900000000000002E-003   -1.227871526911254E-035
  9.000000000000001E-003   -1.528244951162180E-035
  9.100000000000002E-003   -1.737682102670166E-035
  9.200000000000002E-003   -1.802955432009034E-035
  9.300000000000001E-003   -1.671873658533681E-035
  9.400000000000002E-003   -1.299885389943085E-035
  9.500000000000001E-003   -6.577764236424490E-036
  9.600000000000001E-003    2.601403191343148E-036
  9.700000000000002E-003    1.428188783401078E-035
  9.800000000000001E-003    2.782908360081623E-035
  9.900000000000001E-003    4.219256632392601E-035
  1.000000000000000E-002    5.590687538394803E-035
  1.010000000000000E-002    6.714255527195399E-035
  1.020000000000000E-002    7.381626638445144E-035
  1.030000000000000E-002    7.376413519099205E-035
  1.040000000000000E-002    6.497606053573722E-035
  1.050000000000000E-002    4.588071145579788E-035
  1.060000000000000E-002    1.566179391973232E-035
  1.070000000000000E-002   -2.542305272755420E-035
  1.080000000000000E-002   -7.575790438972854E-035
  1.090000000000000E-002   -1.321623417290733E-034
  1.100000000000000E-002   -1.898099688910372E-034
  1.110000000000000E-002   -2.423168076687000E-034
  1.120000000000000E-002   -2.820373934726844E-034
  1.130000000000000E-002   -3.005929322895573E-034
  1.140000000000000E-002   -2.896358980597537E-034
  1.150000000000000E-002   -2.418294239907210E-034
  1.160000000000000E-002   -1.519893037159172E-034
  1.170000000000000E-002   -1.830350464300192E-035
  1.180000000000000E-002    1.564888141464212E-034
  1.190000000000000E-002    3.641048817800522E-034
  1.200000000000000E-002    5.900790041034011E-034
  1.210000000000000E-002    8.136498892122302E-034
  1.220000000000000E-002    1.008338082029116E-033
  1.230000000000000E-002    1.143345881851347E-033
  1.240000000000000E-002    1.185857031973912E-033
  1.250000000000000E-002    1.104233193260878E-033
  1.260000000000000E-002    8.720019302369670E-034
  1.270000000000000E-002    4.724083753307258E-034
  1.280000000000000E-002   -9.682927439095710E-035
  1.290000000000000E-002   -8.190514088077224E-034
  1.300000000000000E-002   -1.655080018988014E-033
  1.310000000000000E-002   -2.541214471767015E-033
  1.320000000000000E-002   -3.389504135416639E-033
  1.330000000000000E-002   -4.090941216909693E-033
  1.340000000000000E-002   -4.522068252905325E-033
  1.350000000000000E-002   -4.555233645255717E-033
  1.360000000000000E-002   -4.072358046105446E-033
  1.370000000000000E-002   -2.981613008193129E-033
  1.380000000000000E-002   -1.235870441926695E-033
  1.390000000000000E-002    1.148775921986370E-033
  1.400000000000000E-002    4.076633829329150E-033
  1.410000000000000E-002    7.360805815770269E-033
  1.420000000000000E-002    1.071916432893619E-032
  1.430000000000000E-002    1.378062255745140E-032
  1.440000000000000E-002    1.610393327067369E-032
  1.450000000000000E-002    1.721035757245615E-032
  1.460000000000000E-002    1.663019039556202E-032
  1.470000000000000E-002    1.396141949985286E-032
  1.480000000000000E-002    8.936766951093639E-033
  1.490000000000000E-002    1.493267276158295E-033
  1.500000000000000E-002   -8.163469804098057E-033
  1.510000000000000E-002   -1.950967579990439E-032
  1.520000000000000E-002   -3.167868014282527E-032
  1.530000000000000E-002   -4.347089707638904E-032
  1.540000000000000E-002   -5.340679134738481E-032
  1.550000000000000E-002   -5.982803024222264E-032
  1.560000000000000E-002   -6.104737751335369E-032
  1.570000000000000E-002   -5.554208772876878E-032
  1.580000000000000E-002   -4.217869218804148E-032
  1.590000000000000E-002   -2.045009548774772E-032
  1.600000000000000E-002    9.300657940019734E-033
  1.610000000000000E-002    4.570057772672340E-032
  1.620000000000000E-002    8.624394378993123E-032
  1.630000000000000E-002    1.272986251480049E-031
  1.640000000000000E-002    1.642484144880034E-031
  1.650000000000000E-002    1.917883536699316E-031
  1.660000000000000E-002    2.043758278851312E-031
  1.670000000000000E-002    1.968218409501904E-031
  1.680000000000000E-002    1.649863750752931E-031
  1.690000000000000E-002    1.065200686007734E-031
  1.700000000000000E-002    2.157543446325942E-032
  1.710000000000000E-002   -8.660433708263534E-032
  1.720000000000000E-002   -2.113178392116663E-031
  1.730000000000000E-002   -3.423550689106050E-031
  1.740000000000000E-002   -4.663448655159795E-031
  1.750000000000000E-002   -5.675523488581223E-031
  1.760000000000000E-002   -6.291372225606950E-031
  1.770000000000000E-002   -6.348323187675165E-031
  1.780000000000000E-002   -5.709423230850655E-031
  1.790000000000000E-002   -4.285032814205320E-031
  1.800000000000000E-002   -2.053875812529561E-031
  1.810000000000000E-002    9.190125982508127E-032
  1.820000000000000E-002    4.470215338596366E-031
  1.830000000000000E-002    8.334437167834306E-031
  1.840000000000000E-002    1.215187422297385E-030
  1.850000000000000E-002    1.548798836685575E-030
  1.860000000000000E-002    1.786611109798950E-030
  1.870000000000000E-002    1.881192466536718E-030