 -4.000000000000000E-002    0.000000000000000E+000
 -3.990000000000000E-002    0.000000000000000E+000
 -3.980000000000000E-002    0.000000000000000E+000
 -3.970000000000000E-002    0.000000000000000E+000
 -3.960000000000000E-002    0.000000000000000E+000
 -3.950000000000000E-002    0.000000000000000E+000
 -3.940000000000000E-002    0.000000000000000E+000
 -3.930000000000000E-002    0.000000000000000E+000
 -3.920000000000000E-002    0.000000000000000E+000
 -3.910000000000000E-002    0.000000000000000E+000
 -3.900000000000000E-002    0.000000000000000E+000
 -3.890000000000000E-002    0.000000000000000E+000
 -3.880000000000000E-002    0.000000000000000E+000
 -3.870000000000000E-002    0.000000000000000E+000
 -3.860000000000000E-002    3.042711068967541E-048
 -3.850000000000000E-002    9.732136162792983E-047
 -3.840000000000000E-002    1.819531763588234E-045
 -3.830000000000000E-002    2.302197277212882E-044
 -3.820000000000000E-002    2.024481706628967E-043
 -3.810000000000000E-002    1.399008704217380E-042
 -3.800000000000000E-002    8.092081520469154E-042
 -3.790000000000000E-002    4.035674155777132E-041
 -3.780000000000000E-002    1.773762611957120E-040
 -3.770000000000000E-002    6.983470337932925E-040
 -3.760000000000000E-002    2.493653610318079E-039
 -3.750000000000000E-002    8.153996248205971E-039
 -3.740000000000000E-002    2.459960418168713E-038
 -3.730000000000000E-002    6.886808021824983E-038
 -3.720000000000000E-002    1.796847592404174E-037
 -3.710000000000000E-002    4.382147521892310E-037
 -3.700000000000000E-002    1.000496095508748E-036
 -3.690000000000000E-002    2.138249227338487E-036
 -3.680000000000000E-002    4.268077600276312E-036
 -3.670000000000000E-002    7.912216148139493E-036
 -3.660000000000000E-002    1.346511142978414E-035
 -3.650000000000000E-002    2.052889111007103E-035
 -3.640000000000000E-002    2.642756757077140E-035
 -3.630000000000000E-002    2.334263898927296E-035
 -3.620000000000000E-002   -6.588631340519476E-036
 -3.610000000000000E-002   -9.874685585900615E-035
 -3.600000000000000E-002   -3.160007738330565E-034
 -3.590000000000000E-002   -7.596499132495823E-034
 -3.580000000000000E-002   -1.577147452951316E-033
 -3.570000000000000E-002   -2.958272936878377E-033
 -3.560000000000000E-002   -5.105970731314132E-033
 -3.550000000000000E-002   -8.162243208829111E-033
 -3.540000000000000E-002   -1.206544558276784E-032
 -3.530000000000000E-002   -1.631674650428676E-032
 -3.520000000000000E-002   -1.964547438098540E-032
 -3.510000000000000E-002   -1.959132387389353E-032
 -3.500000000000000E-002   -1.207035096009867E-032
 -3.490000000000000E-002    8.938962385786798E-033
 -3.480000000000000E-002    5.137179879394651E-032
 -3.470000000000000E-002    1.244268655056152E-031
 -3.460000000000000E-002    2.369785702721400E-031
 -3.450000000000000E-002    3.948179561767232E-031
 -3.440000000000000E-002    5.967233837656109E-031
 -3.430000000000000E-002    8.297957679332607E-031
 -3.420000000000000E-002    1.065117243479750E-030
 -3.410000000000000E-002    1.255512018271657E-030
 -3.400000000000000E-002    1.337768047036799E-030
 -3.390000000000000E-002    1.241737397734242E-030
 -3.380000000000000E-002    9.077251815397689E-031
 -3.370000000000000E-002    3.109274883257008E-031
 -3.360000000000000E-002   -5.131058776406565E-031
 -3.350000000000000E-002   -1.454926796095440E-030
 -3.340000000000000E-002   -2.350863212479008E-030
 -3.330000000000000E-002   -3.064862242331260E-030
 -3.320000000000000E-002   -3.665001153348044E-030
 -3.310000000000000E-002   -4.721269925739391E-030
 -3.300000000000000E-002   -7.729480395229550E-030
 -3.290000000000000E-002   -1.562256169632098E-029
 -3.280000000000000E-002   -3.326020908218170E-029
 -3.270000000000000E-002   -6.769294970611175E-029
 -3.260000000000000E-002   -1.278849404222862E-028
 -3.250000000000000E-002   -2.234759635371759E-028
 -3.240000000000000E-002   -3.620993912150927E-028
 -3.230000000000000E-002   -5.448046715489897E-028
 -3.220000000000000E-002   -7.593156418690087E-028
 -3.210000000000000E-002   -9.712509002737563E-028
 -3.200000000000000E-002   -1.114082384302965E-027
 -3.190000000000000E-002   -1.079514615237782E-027
 -3.180000000000000E-002   -7.110686512256354E-028
 -3.170000000000000E-002    1.951930686392104E-028
 -3.160000000000000E-002    1.877909439311841E-027
 -3.150000000000000E-002    4.580344583008406E-027
 -3.140000000000000E-002    8.498207418139361E-027
 -3.130000000000000E-002    1.370252525375025E-026
 -3.120000000000000E-002    2.003827748107537E-026
 -3.110000000000000E-002    2.700487798221352E-026
 -3.100000000000000E-002    3.363156722140168E-026
 -3.090000000000000E-002    3.836864410014216E-026
 -3.080000000000000E-002    3.902315517778745E-026
 -3.070000000000000E-002    3.277358354037410E-026
 -3.060000000000000E-002    1.630047043217663E-026
 -3.050000000000000E-002   -1.393312677457486E-026
 -3.040000000000000E-002   -6.122707898639081E-026
 -3.030000000000000E-002   -1.280079676468636E-025
 -3.020000000000000E-002   -2.150263753676917E-025
 -3.010000000000000E-002   -3.204300683624942E-025
 -3.000000000000000E-002   -4.387809832551579E-025
 -2.990000000000000E-002   -5.601084564711649E-025
 -2.980000000000000E-002   -6.691018036831517E-025
 -2.970000000000000E-002   -7.445530842291919E-025
 -2.960000000000000E-002   -7.591518809224885E-025
 -2.950000000000000E-002   -6.797283484691884E-025
 -2.940000000000000E-002   -4.680415265439619E-025
 -2.930000000000000E-002   -8.223859900952182E-026
 -2.920000000000000E-002    5.208232793577895E-025
 -2.910000000000000E-002    1.382074911854670E-024
 -2.900000000000000E-002    2.535072001267752E-024
 -2.890000000000000E-002    3.998485237955854E-024
 -2.880000000000000E-002    5.765405483583683E-024
 -2.870000000000000E-002    7.788601247194840E-024
 -2.860000000000000E-002    9.961079359382042E-024
 -2.850000000000000E-002    1.209197067973639E-023
 -2.840000000000000E-002    1.387892218338940E-023
 -2.830000000000000E-002    1.488006088748484E-023
 -2.820000000000000E-002    1.449106378571980E-023
 -2.810000000000000E-002    1.193582250063926E-023
 -2.800000000000000E-002    6.282280254129650E-024
 -2.790000000000000E-002   -3.502561468285992E-024
 -2.780000000000000E-002   -1.844345362119501E-023
 -2.770000000000000E-002   -3.937995943842239E-023
 -2.760000000000000E-002   -6.671361098457261E-023
 -2.750000000000000E-002   -1.000807495827200E-022
 -2.740000000000000E-002   -1.379678355374061E-022
 -2.730000000000000E-002   -1.773061562662008E-022
 -2.720000000000000E-002   -2.131064149961893E-022
 -2.710000000000000E-002   -2.382183964930807E-022
 -2.700000000000000E-002   -2.433221327883299E-022
 -2.690000000000000E-002   -2.172693280082589E-022
 -2.680000000000000E-002   -1.478912419501761E-022
 -2.670000000000000E-002   -2.336443363849252E-023
 -2.660000000000000E-002    1.658253743960082E-022
 -2.650000000000000E-002    4.243621504544208E-022
 -2.640000000000000E-002    7.491721451164588E-022
 -2.630000000000000E-002    1.126370452252667E-021
 -2.620000000000000E-002    1.528502327801842E-021
 -2.610000000000000E-002    1.912624802013474E-021
 -2.600000000000000E-002    2.219862729939790E-021
 -2.590000000000000E-002    2.377095387189677E-021
 -2.580000000000000E-002    2.301353886358248E-021
 -2.570000000000000E-002    1.907317112259549E-021
 -2.560000000000000E-002    1.117970731136890E-021
 -2.550000000000000E-002   -1.219537710890865E-022
 -2.540000000000000E-002   -1.830687721125047E-021
 -2.530000000000000E-002   -3.973793707809994E-021
 -2.520000000000000E-002   -6.450262961212195E-021
 -2.510000000000000E-002   -9.082825675754328E-021
 -2.500000000000000E-002   -1.161515216803412E-020
 -2.490000000000000E-002   -1.371846488316378E-020
 -2.480000000000000E-002   -1.500951288317683E-020
 -2.470000000000000E-002   -1.508084852682950E-020
 -2.460000000000000E-002   -1.354289715887825E-020
 -2.450000000000000E-002   -1.007554938155807E-020
 -2.440000000000000E-002   -4.485081259304851E-021
 -2.430000000000000E-002    3.239597568395693E-021
 -2.420000000000000E-002    1.287878190849109E-020
 -2.410000000000000E-002    2.395000708738000E-020
 -2.400000000000000E-002    3.570007783065051E-020
 -2.390000000000000E-002    4.712741167663973E-020
 -2.380000000000000E-002    5.703821557651530E-020
 -2.370000000000000E-002    6.413620616156607E-020
 -2.360000000000000E-002    6.714084393375149E-020
 -2.350000000000000E-002    6.492428902601312E-020
 -2.340000000000000E-002    5.665270158636352E-020
 -2.330000000000000E-002    4.191451894552513E-020
 -2.320000000000000E-002    2.081720841245632E-020
 -2.310000000000000E-002   -5.964443194734629E-021
 -2.300000000000000E-002   -3.720084038290297E-020
 -2.290000000000000E-002   -7.118585666921152E-020
 -2.280000000000000E-002   -1.058762027796809E-019
 -2.270000000000000E-002   -1.390765185996884E-019
 -2.260000000000000E-002   -1.686447724989414E-019
 -2.250000000000000E-002   -1.926848937555605E-019
 -2.240000000000000E-002   -2.096905083755387E-019
 -2.230000000000000E-002   -2.186060891883255E-019
 -2.220000000000000E-002   -2.187820685514760E-019
 -2.210000000000000E-002   -2.098169101103037E-019
 -2.200000000000000E-002   -1.913013492335590E-019
 -2.190000000000000E-002   -1.625055110576562E-019
 -2.180000000000000E-002   -1.220736650204991E-019
 -2.170000000000000E-002   -6.781045812221830E-020
 -2.160000000000000E-002    3.349553219806066E-021
 -2.150000000000000E-002    9.510371216115585E-020
 -2.140000000000000E-002    2.112133753703095E-019
 -2.130000000000000E-002    3.545888961349739E-019
 -2.120000000000000E-002    5.260685518550619E-019
 -2.110000000000000E-002    7.230018206858813E-019
 -2.100000000000000E-002    9.378196241058042E-019
 -2.090000000000000E-002    1.156833994643614E-018
 -2.080000000000000E-002    1.359548226044302E-018
 -2.070000000000000E-002    1.518762799024527E-018
 -2.060000000000000E-002    1.601720318430298E-018
 -2.050000000000000E-002    1.572442164631763E-018
 -2.040000000000000E-002    1.395273298041952E-018
 -2.030000000000000E-002    1.039474606365457E-018
 -2.020000000000000E-002    4.845078300916954E-019
 -2.010000000000000E-002   -2.745301194904597E-019
 -2.000000000000000E-002   -1.222021241365516E-018
 -1.990000000000000E-002   -2.318276140470239E-018
 -1.980000000000000E-002   -3.498093203805493E-018
 -1.970000000000000E-002   -4.672091429498296E-018
 -1.960000000000000E-002   -5.731231763266755E-018
 -1.950000000000000E-002   -6.554602499338547E-018
 -1.940000000000000E-002   -7.020116987777131E-018
 -1.930000000000000E-002   -7.017308199135732E-018
 -1.920000000000000E-002   -6.460989339930839E-018
 -1.910000000000000E-002   -5.304202645411921E-018
 -1.900000000000000E-002   -3.548716778336114E-018
 -1.890000000000000E-002   -1.251381659650083E-018
 -1.880000000000000E-002    1.475060315044677E-018
 -1.870000000000000E-002    4.467563441299856E-018
 -1.860000000000000E-002    7.524873985872203E-018
 -1.850000000000000E-002    1.042535452959702E-017
 -1.840000000000000E-002    1.294884431622941E-017
 -1.830000000000000E-002    1.490005784753870E-017
 -1.820000000000000E-002    1.613048316755656E-017
 -1.810000000000000E-002    1.655550581720248E-017
 -1.800000000000000E-002    1.616380009658822E-017
 -1.790000000000000E-002    1.501673250366180E-017
 -1.780000000000000E-002    1.323676437465419E-017
 -1.770000000000000E-002    1.098538333960308E-017
 -1.760000000000000E-002    8.432799877754893E-018
 -1.750000000000000E-002    5.723332681221989E-018
 -1.740000000000000E-002    2.941676560245825E-018
 -1.730000000000000E-002    8.601197535890785E-020
 -1.720000000000000E-002   -2.946164579218059E-018
 -1.710000000000000E-002   -6.354615591287178E-018
 -1.700000000000000E-002   -1.041234476956014E-017
 -1.690000000000000E-002   -1.542071395366762E-017
 -1.680000000000000E-002   -2.164661000390471E-017
 -1.670000000000000E-002   -2.924793387074679E-017
 -1.660000000000000E-002   -3.819656428420180E-017
 -1.650000000000000E-002   -4.821018746178397E-017
 -1.640000000000000E-002   -5.870510018376878E-017
 -1.630000000000000E-002   -6.878127154877774E-017
 -1.620000000000000E-002   -7.724855168232482E-017
 -1.610000000000000E-002   -8.269851100060504E-017
 -1.600000000000000E-002   -8.362108605425173E-017
 -1.590000000000000E-002   -7.855888369525996E-017
 -1.580000000000000E-002   -6.628599249904169E-017
 -1.570000000000000E-002   -4.599290901447795E-017
 -1.560000000000000E-002   -1.745583883748107E-017
 -1.550000000000000E-002    1.883231079895173E-017
 -1.540000000000000E-002    6.158990721669033E-017
 -1.530000000000000E-002    1.087492955021889E-016
 -1.520000000000000E-002    1.575423505215409E-016
 -1.510000000000000E-002    2.046675378507437E-016
 -1.500000000000000E-002    2.465271472093597E-016
 -1.490000000000000E-002    2.795134911513196E-016
 -1.480000000000000E-002    3.003153473060945E-016
 -1.470000000000000E-002    3.062116427645619E-016
 -1.460000000000000E-002    2.953188866745233E-016
 -1.450000000000000E-002    2.667629766572427E-016
 -1.440000000000000E-002    2.207548551160289E-016
 -1.430000000000000E-002    1.585609680947268E-016
 -1.420000000000000E-002    8.237357019254160E-017
 -1.410000000000000E-002   -4.900293368291175E-018
 -1.400000000000000E-002   -9.990042942361277E-017
 -1.390000000000000E-002   -1.990868662554521E-016
 -1.380000000000000E-002   -2.989838449693008E-016
 -1.370000000000000E-002   -3.963568459972064E-016
 -1.360000000000000E-002   -4.882949910078658E-016
 -1.350000000000000E-002   -5.721867588180889E-016
 -1.340000000000000E-002   -6.455945254160562E-016
 -1.330000000000000E-002   -7.060539707202920E-016
 -1.320000000000000E-002   -7.508395180607620E-016
 -1.310000000000000E-002   -7.767507749369844E-016
 -1.300000000000000E-002   -7.799767461788949E-016
 -1.290000000000000E-002   -7.560919356121948E-016
 -1.280000000000000E-002   -7.002232045493562E-016
 -1.270000000000000E-002   -6.074052809042782E-016
 -1.260000000000000E-002   -4.731148407474457E-016
 -1.250000000000000E-002   -2.939445527265250E-016
 -1.240000000000000E-002   -6.835215015389606E-017
 -1.230000000000000E-002    2.026013317007446E-016
 -1.220000000000000E-002    5.146186624256775E-016
 -1.210000000000000E-002    8.597323198790267E-016
 -1.200000000000000E-002    1.226145038062265E-015
 -1.190000000000000E-002    1.598396766154604E-015
 -1.180000000000000E-002    1.957871692312167E-015
 -1.170000000000000E-002    2.283622274083481E-015
 -1.160000000000000E-002    2.553449235929460E-015
 -1.150000000000000E-002    2.745148433936637E-015
 -1.140000000000000E-002    2.837817205411820E-015
 -1.130000000000000E-002    2.813113978882529E-015
 -1.120000000000000E-002    2.656376044804282E-015
 -1.110000000000000E-002    2.357530572702722E-015
 -1.100000000000000E-002    1.911768154904307E-015
 -1.090000000000000E-002    1.319989331832213E-015
 -1.080000000000000E-002    5.890657097229542E-016
 -1.070000000000000E-002   -2.680207767003065E-016
 -1.060000000000000E-002   -1.232094375113582E-015
 -1.050000000000000E-002   -2.277709480762577E-015
 -1.040000000000000E-002   -3.373071868074926E-015
 -1.030000000000000E-002   -4.479995835157742E-015
 -1.020000000000000E-002   -5.553995125649308E-015
 -1.010000000000000E-002   -6.544654753226751E-015
 -1.000000000000000E-002   -7.396464555458237E-015
 -9.899999999999999E-003   -8.050289082935121E-015
 -9.800000000000000E-003   -8.445630549415695E-015
 -9.699999999999999E-003   -8.523745651746395E-015
 -9.599999999999999E-003   -8.231581593633704E-015
 -9.500000000000000E-003   -7.526354839196490E-015
 -9.399999999999999E-003   -6.380447517406256E-015
 -9.299999999999999E-003   -4.786179931424290E-015
 -9.200000000000000E-003   -2.759912403640383E-015
 -9.099999999999999E-003   -3.449062365024939E-016
 -8.999999999999999E-003    2.387590620837374E-015
 -8.900000000000000E-003    5.339442255345979E-015
 -8.799999999999999E-003    8.389113477105609E-015
 -8.699999999999999E-003    1.139750904408873E-014
 -8.600000000000000E-003    1.421582504371504E-014
 -8.499999999999999E-003    1.669478596643788E-014
 -8.399999999999999E-003    1.869442900298651E-014
 -8.300000000000000E-003    2.009342163986739E-014
 -8.199999999999999E-003    2.079691577768727E-014
 -8.100000000000000E-003    2.074199936076404E-014
 -8.000000000000000E-003    1.990010759882153E-014
 -7.899999999999999E-003    1.827610697961663E-014
 -7.800000000000000E-003    1.590420276918350E-014
 -7.699999999999999E-003    1.284131117904958E-014
 -7.599999999999999E-003    9.158936917845291E-015
 -7.499999999999999E-003    4.934925183505420E-015
 -7.399999999999999E-003    2.465672157269206E-016
 -7.299999999999999E-003   -4.833529306285892E-015
 -7.199999999999999E-003   -1.023771932091907E-014
 -7.100000000000000E-003   -1.589918225300686E-014
 -6.999999999999999E-003   -2.174349161728925E-014
 -6.899999999999999E-003   -2.767680110490072E-014
 -6.800000000000000E-003   -3.357224683223428E-014
 -6.699999999999999E-003   -3.925683105418120E-014
 -6.599999999999999E-003   -4.450137226283129E-014
 -6.499999999999999E-003   -4.901616006011771E-014
 -6.399999999999999E-003   -5.245458333077576E-014
 -6.299999999999999E-003   -5.442630802237745E-014
 -6.199999999999999E-003   -5.452052950988883E-014
 -6.100000000000000E-003   -5.233851488847296E-014
 -5.999999999999999E-003   -4.753336045059953E-014
 -5.899999999999999E-003   -3.985359545851779E-014
 -5.800000000000000E-003   -2.918626204622015E-014
 -5.699999999999999E-003   -1.559459553097227E-014
 -5.599999999999999E-003    6.546412521206645E-016
 -5.499999999999999E-003    1.907850937602852E-014
 -5.399999999999999E-003    3.898309241014062E-014
 -5.299999999999999E-003    5.948806485218672E-014
 -5.199999999999999E-003    7.957015293344013E-014
 -5.099999999999999E-003    9.812294908729663E-014
 -4.999999999999999E-003    1.140285781197101E-013
 -4.899999999999999E-003    1.262351972374370E-013
 -4.799999999999999E-003    1.338333519187685E-013
 -4.699999999999999E-003    1.361240764416409E-013
 -4.599999999999999E-003    1.326721680010879E-013
 -4.499999999999999E-003    1.233396034921714E-013
 -4.399999999999999E-003    1.082959547732929E-013
 -4.299999999999999E-003    8.800520689505381E-014
 -4.199999999999999E-003    6.319087202994247E-014
 -4.099999999999999E-003    3.478354332127917E-014
 -3.999999999999999E-003    3.856955695468401E-015
 -3.899999999999999E-003   -2.844040894054870E-014
 -3.799999999999999E-003   -6.095094955538116E-014
 -3.699999999999999E-003   -9.256437122411449E-014
 -3.599999999999999E-003   -1.222600965130622E-013
 -3.499999999999999E-003   -1.491330548119641E-013
 -3.399999999999999E-003   -1.724028009939476E-013
 -3.299999999999999E-003   -1.914084213602299E-013
 -3.199999999999999E-003   -2.055937816971962E-013
 -3.099999999999999E-003   -2.144890636497492E-013
 -2.999999999999999E-003   -2.176949664850834E-013
 -2.899999999999999E-003   -2.148753514884032E-013
 -2.799999999999999E-003   -2.057626255838268E-013
 -2.699999999999999E-003   -1.901776691569077E-013
 -2.599999999999999E-003   -1.680635835456567E-013
 -2.499999999999999E-003   -1.395293821737780E-013
 -2.399999999999999E-003   -1.048974716567037E-013
 -2.299999999999999E-003   -6.474718697958267E-014
 -2.199999999999999E-003   -1.994563618452678E-014
 -2.099999999999999E-003    2.834186005267641E-014
 -1.999999999999999E-003    7.866784713082059E-014
 -1.899999999999999E-003    1.293486037166364E-013
 -1.799999999999999E-003    1.785393671211064E-013
 -1.699999999999999E-003    2.243346461678592E-013
 -1.599999999999999E-003    2.648858999102467E-013
 -1.499999999999999E-003    2.985257114672045E-013
 -1.399999999999999E-003    3.238863537874315E-013
 -1.299999999999999E-003    3.399996820390069E-013
 -1.199999999999999E-003    3.463672569894827E-013
 -1.099999999999999E-003    3.429916172154639E-013
 -9.999999999999989E-004    3.303640150771502E-013
 -8.999999999999990E-004    3.094077332451708E-013
 -7.999999999999990E-004    2.813814065530940E-013
 -6.999999999999989E-004    2.477509947148010E-013
 -5.999999999999990E-004    2.100418138161750E-013
 -4.999999999999989E-004    1.696854551764310E-013
 -3.999999999999989E-004    1.278764095082478E-013
 -2.999999999999989E-004    8.545247553941715E-014
 -1.999999999999989E-004    4.281164351343251E-014
 -9.999999999999892E-005   -1.255900569312996E-016
  1.084202172485504E-018   -4.390295878672250E-014
  1.000000000000011E-004   -8.946271284538925E-014
  2.000000000000011E-004   -1.380307711957544E-013
  3.000000000000011E-004   -1.909579403511738E-013
  4.000000000000011E-004   -2.495278474011256E-013
  5.000000000000011E-004   -3.147423231808856E-013
  6.000000000000011E-004   -3.870988305991247E-013
  7.000000000000011E-004   -4.663743608812007E-013
  8.000000000000011E-004   -5.514332102230244E-013
  9.000000000000012E-004   -6.400736241749950E-013
  1.000000000000001E-003   -7.289326487772661E-013
  1.100000000000001E-003   -8.134637662918597E-013
  1.200000000000001E-003   -8.880038701881787E-013
  1.300000000000001E-003   -9.459418121258467E-013
  1.400000000000001E-003   -9.799960157425421E-013
  1.500000000000001E-003   -9.826032486793608E-013
  1.600000000000001E-003   -9.464111307779802E-013
  1.700000000000001E-003   -8.648568049589272E-013
  1.800000000000001E-003   -7.328028829272337E-013
  1.900000000000001E-003   -5.471901853975528E-013
  2.000000000000001E-003   -3.076553953914312E-013
  2.100000000000001E-003   -1.705595774335210E-014
  2.200000000000001E-003    3.181612184399886E-013
  2.300000000000001E-003    6.878050721047193E-013
  2.400000000000001E-003    1.078052217212141E-012
  2.500000000000001E-003    1.471856812967057E-012
  2.600000000000001E-003    1.849672748107030E-012
  2.700000000000001E-003    2.190469632571067E-012
  2.800000000000001E-003    2.472996074024660E-012
  2.900000000000001E-003    2.677213568534696E-012
  3.000000000000001E-003    2.785795568622202E-012
  3.100000000000001E-003    2.785568625953267E-012
  3.200000000000001E-003    2.668761566930871E-012
  3.300000000000001E-003    2.433932665365809E-012
  3.400000000000001E-003    2.086460834079158E-012
  3.500000000000001E-003    1.638517270537199E-012
  3.600000000000001E-003    1.108478215659572E-012
  3.700000000000001E-003    5.197855559692580E-013
  3.800000000000001E-003   -1.006769914137360E-013
  3.900000000000001E-003   -7.245782839553321E-013
  4.000000000000001E-003   -1.324338597885336E-012
  4.100000000000001E-003   -1.875339475052826E-012
  4.200000000000001E-003   -2.357931444291286E-012
  4.300000000000001E-003   -2.759029828386835E-012
  4.400000000000001E-003   -3.073119545061374E-012
  4.500000000000001E-003   -3.302525253952919E-012
  4.600000000000002E-003   -3.456875455397677E-012
  4.700000000000001E-003   -3.551753723861590E-012
  4.800000000000001E-003   -3.606613820332334E-012
  4.900000000000002E-003   -3.642105738777921E-012
  5.000000000000001E-003   -3.677034741820074E-012
  5.100000000000001E-003   -3.725214752299274E-012
  5.200000000000001E-003   -3.792515359506652E-012
  5.300000000000002E-003   -3.874403368499374E-012
  5.400000000000001E-003   -3.954260710730349E-012
  5.500000000000001E-003   -4.002713023567307E-012
  5.600000000000002E-003   -3.978141513145877E-012
  5.700000000000001E-003   -3.828475405617896E-012
  5.800000000000001E-003   -3.494254193306210E-012
  5.900000000000002E-003   -2.912880008690670E-012
  6.000000000000001E-003   -2.023868736576898E-012
  6.100000000000001E-003   -7.748362087370198E-013
  6.200000000000002E-003    8.721193278386584E-013
  6.300000000000002E-003    2.934024419608277E-012
  6.400000000000001E-003    5.401059788892976E-012
  6.500000000000001E-003    8.231451781985924E-012
  6.600000000000002E-003    1.134767418958731E-011
  6.700000000000001E-003    1.463436839835458E-011
  6.800000000000001E-003    1.793837245846540E-011
  6.900000000000002E-003    2.107115167360371E-011
  7.000000000000001E-003    2.381386925821602E-011
  7.100000000000001E-003    2.592520796649749E-011
  7.200000000000002E-003    2.715190943764580E-011
  7.300000000000002E-003    2.724188043144559E-011
  7.400000000000001E-003    2.595949163053449E-011
  7.500000000000001E-003    2.310256057928134E-011
  7.600000000000002E-003    1.852027011391033E-011
  7.700000000000001E-003    1.213113508776814E-011
  7.800000000000001E-003    3.939927947355749E-012
  7.900000000000001E-003   -5.947607433499129E-012
  8.000000000000002E-003   -1.731351913754775E-011
  8.100000000000001E-003   -2.982114326059074E-011
  8.200000000000001E-003   -4.301451036567164E-011
  8.300000000000002E-003   -5.632457611602510E-011
  8.400000000000001E-003   -6.908303671988478E-011
  8.500000000000002E-003   -8.054401621109047E-011
  8.600000000000002E-003   -8.991345298503717E-011
  8.700000000000001E-003   -9.638556513714428E-011
  8.800000000000002E-003   -9.918519877060424E-011
  8.900000000000002E-003   -9.761427098248927E-011
  9.000000000000001E-003   -9.110014678658961E-011
  9.100000000000002E-003   -7.924328397083934E-011
  9.200000000000002E-003   -6.186123952407505E-011
  9.300000000000001E-003   -3.902611024331963E-011
  9.400000000000002E-003   -1.109231029771429E-011
  9.500000000000001E-003    2.128780826578005E-011
  9.600000000000001E-003    5.716284875912324E-011
  9.700000000000002E-003    9.529716479378302E-011
  9.800000000000001E-003    1.342024454932333E-010
  9.900000000000001E-003    1.721857570923388E-010
  1.000000000000000E-002    2.074128954131076E-010
  1.010000000000000E-002    2.379847578735519E-010
  1.020000000000000E-002    2.620237480675932E-010
  1.030000000000000E-002    2.777659608229284E-010
  1.040000000000000E-002    2.836547007251744E-010
  1.050000000000000E-002    2.784302279451598E-010
  1.060000000000000E-002    2.612105790669355E-010
  1.070000000000000E-002    2.315584864692184E-010
  1.080000000000000E-002    1.895299102598734E-010
  1.090000000000000E-002    1.357006456388221E-010
  1.100000000000000E-002    7.116821469895750E-011
  1.110000000000000E-002   -2.471848651708349E-012
  1.120000000000000E-002   -8.317530779594877E-011
  1.130000000000000E-002   -1.685222702654676E-010
  1.140000000000000E-002   -2.558103438419182E-010
  1.150000000000000E-002   -3.421635381232306E-010
  1.160000000000000E-002   -4.246503775849380E-010
  1.170000000000000E-002   -5.004047178670363E-010
  1.180000000000000E-002   -5.667415891381295E-010
  1.190000000000000E-002   -6.212609346418959E-010
  1.200000000000000E-002   -6.619318266010157E-010
  1.210000000000000E-002   -6.871518295515035E-010
  1.220000000000000E-002   -6.957764882863583E-010
  1.230000000000000E-002   -6.871167725425564E-010
  1.240000000000000E-002   -6.609038526849696E-010
  1.250000000000000E-002   -6.172238701696331E-010
  1.260000000000000E-002   -5.564268559927021E-010
  1.270000000000000E-002   -4.790173915890468E-010
  1.280000000000000E-002   -3.855354384012605E-010
  1.290000000000000E-002   -2.764391686247368E-010
  1.300000000000000E-002   -1.520010308171452E-010
  1.310000000000000E-002   -1.222868859619323E-011
  1.320000000000000E-002    1.431762524049085E-010
  1.330000000000000E-002    3.148132054284627E-010
  1.340000000000000E-002    5.035230752126685E-010
  1.350000000000000E-002    7.102692633740293E-010
  1.360000000000000E-002    9.359591906589191E-010
  1.370000000000000E-002    1.181209867410822E-009
  1.380000000000000E-002    1.446065521264792E-009
  1.390000000000000E-002    1.729679745683376E-009
  1.400000000000000E-002    2.029979852421918E-009
  1.410000000000000E-002    2.343333583280855E-009
  1.420000000000000E-002    2.664240750093220E-009
  1.430000000000000E-002    2.985077065427031E-009
  1.440000000000000E-002    3.295912144904280E-009
  1.450000000000000E-002    3.584430571904133E-009
  1.460000000000000E-002    3.835973509653408E-009
  1.470000000000000E-002    4.033724284873835E-009
  1.480000000000000E-002    4.159046268423789E-009
  1.490000000000000E-002    4.191984658537850E-009
  1.500000000000000E-002    4.111931229249131E-009
  1.510000000000000E-002    3.898445036896142E-009
  1.520000000000000E-002    3.532217332062943E-009
  1.530000000000000E-002    2.996159178885433E-009
  1.540000000000000E-002    2.276583109631058E-009
  1.550000000000000E-002    1.364453328287264E-009
  1.560000000000000E-002    2.566603633102649E-010
  1.570000000000000E-002   -1.042706529767623E-009
  1.580000000000000E-002   -2.521137388654911E-009
  1.590000000000000E-002   -4.156558562916512E-009
  1.600000000000000E-002   -5.916304061879347E-009
  1.610000000000000E-002   -7.756227576301757E-009
  1.620000000000000E-002   -9.619979417395535E-009
  1.630000000000000E-002   -1.143845671264894E-008
  1.640000000000000E-002   -1.312943604621253E-008
  1.650000000000000E-002   -1.459738529817193E-008
  1.660000000000000E-002   -1.573343732481984E-008
  1.670000000000000E-002   -1.641551482236852E-008
  1.680000000000000E-002   -1.650857232136808E-008
  1.690000000000000E-002   -1.586492690234061E-008
  1.700000000000000E-002   -1.432463546388859E-008
  1.710000000000000E-002   -1.171589470405807E-008
  1.720000000000000E-002   -7.855411614919745E-009
  1.730000000000000E-002   -2.548707394901555E-009
  1.740000000000000E-002    4.409655014920525E-009
  1.750000000000000E-002    1.323598179088881E-008
  1.760000000000000E-002    2.415747430446506E-008
  1.770000000000000E-002    3.741244305334839E-008
  1.780000000000000E-002    5.325062926097519E-008
  1.790000000000000E-002    7.193371719677538E-008
  1.800000000000000E-002    9.373598313913403E-008
  1.810000000000000E-002    1.189450073609422E-007
  1.820000000000000E-002    1.478625569169281E-007
  1.830000000000000E-002    1.808054646531340E-007
  1.840000000000000E-002    2.181065630353822E-007
  1.850000000000000E-002    2.601155852633432E-007
  1.860000000000000E-002    3.072000959775652E-007
  1.870000000000000E-002    3.597461919056558E-007