 -4.000000000000000E-002    0.000000000000000E+000
 -3.990000000000000E-002    0.000000000000000E+000
 -3.980000000000000E-002    0.000000000000000E+000
 -3.970000000000000E-002    0.000000000000000E+000
 -3.960000000000000E-002    0.000000000000000E+000
 -3.950000000000000E-002    0.000000000000000E+000
 -3.940000000000000E-002    0.000000000000000E+000
 -3.930000000000000E-002    0.000000000000000E+000
 -3.920000000000000E-002    0.000000000000000E+000
 -3.910000000000000E-002    0.000000000000000E+000
 -3.900000000000000E-002    0.000000000000000E+000
 -3.890000000000000E-002    0.000000000000000E+000
 -3.880000000000000E-002    0.000000000000000E+000
 -3.870000000000000E-002    0.000000000000000E+000
 -3.860000000000000E-002    0.000000000000000E+000
 -3.850000000000000E-002    0.000000000000000E+000
 -3.840000000000000E-002    2.764912689289821E-047
 -3.830000000000000E-002    6.695916523448600E-046
 -3.820000000000000E-002    6.767766108479371E-045
 -3.810000000000000E-002    5.023968429648536E-044
 -3.800000000000000E-002    3.029295912633154E-043
 -3.790000000000000E-002    1.547920052468489E-042
 -3.780000000000000E-002    6.891617194860476E-042
 -3.770000000000000E-002    2.720049263427531E-041
 -3.760000000000000E-002    9.643993788280112E-041
 -3.750000000000000E-002    3.101167824238765E-040
 -3.740000000000000E-002    9.104124473103943E-040
 -3.730000000000000E-002    2.449195020661264E-039
 -3.720000000000000E-002    6.041588649700959E-039
 -3.710000000000000E-002    1.361632460798764E-038
 -3.700000000000000E-002    2.774067857772203E-038
 -3.690000000000000E-002    4.980055415811748E-038
 -3.680000000000000E-002    7.366260418368246E-038
 -3.670000000000000E-002    6.894334201345005E-038
 -3.660000000000000E-002   -5.675151150965437E-038
 -3.650000000000000E-002   -5.336463636438253E-037
 -3.640000000000000E-002   -1.867191755894699E-036
 -3.630000000000000E-002   -5.062879731689833E-036
 -3.620000000000000E-002   -1.195386062728420E-035
 -3.610000000000000E-002   -2.560911409363554E-035
 -3.600000000000000E-002   -5.071501865400700E-035
 -3.590000000000000E-002   -9.366825293376072E-035
 -3.580000000000000E-002   -1.618767272690187E-034
 -3.570000000000000E-002   -2.614436896149884E-034
 -3.560000000000000E-002   -3.920622040987355E-034
 -3.550000000000000E-002   -5.377020678808511E-034
 -3.540000000000000E-002   -6.517649876934090E-034
 -3.530000000000000E-002   -6.361549896552365E-034
 -3.520000000000000E-002   -3.155751988909507E-034
 -3.510000000000000E-002    5.883139819890409E-034
 -3.500000000000000E-002    2.473334629261137E-033
 -3.490000000000000E-002    5.848207601741088E-033
 -3.480000000000000E-002    1.127739003227931E-032
 -3.470000000000000E-002    1.925443063408145E-032
 -3.460000000000000E-002    2.998182143481575E-032
 -3.450000000000000E-002    4.304880385116103E-032
 -3.440000000000000E-002    5.702636981886171E-032
 -3.430000000000000E-002    6.904210103637350E-032
 -3.420000000000000E-002    7.445164700363089E-032
 -3.410000000000000E-002    6.677511151602254E-032
 -3.400000000000000E-002    3.809081085088792E-032
 -3.390000000000000E-002   -1.996140455019028E-032
 -3.380000000000000E-002   -1.145611591685845E-031
 -3.370000000000000E-002   -2.497537648746842E-031
 -3.360000000000000E-002   -4.248842321487425E-031
 -3.350000000000000E-002   -6.346791037179560E-031
 -3.340000000000000E-002   -8.727488471690030E-031
 -3.330000000000000E-002   -1.140502016237038E-030
 -3.320000000000000E-002   -1.463022532596511E-030
 -3.310000000000000E-002   -1.911897735261252E-030
 -3.300000000000000E-002   -2.631826037006247E-030
 -3.290000000000000E-002   -3.862799255088567E-030
 -3.280000000000000E-002   -5.942854429833933E-030
 -3.270000000000000E-002   -9.268621773726119E-030
 -3.260000000000000E-002   -1.418405776154475E-029
 -3.250000000000000E-002   -2.076467179213707E-029
 -3.240000000000000E-002   -2.846972941820863E-029
 -3.230000000000000E-002   -3.565264265265469E-029
 -3.220000000000000E-002   -3.895573649013305E-029
 -3.210000000000000E-002   -3.267174151838747E-029
 -3.200000000000000E-002   -8.231460738902592E-030
 -3.190000000000000E-002    4.593258910566397E-029
 -3.180000000000000E-002    1.438063240175121E-028
 -3.170000000000000E-002    3.000917308122617E-028
 -3.160000000000000E-002    5.269667783006898E-028
 -3.150000000000000E-002    8.289773486714101E-028
 -3.140000000000000E-002    1.195950357653925E-027
 -3.130000000000000E-002    1.594199189056038E-027
 -3.120000000000000E-002    1.956840467114827E-027
 -3.110000000000000E-002    2.174739650731352E-027
 -3.100000000000000E-002    2.090362614638318E-027
 -3.090000000000000E-002    1.497532157879812E-027
 -3.080000000000000E-002    1.505748461571504E-028
 -3.070000000000000E-002   -2.213577589624498E-027
 -3.060000000000000E-002   -5.837313190099680E-027
 -3.050000000000000E-002   -1.088659937786189E-026
 -3.040000000000000E-002   -1.737805081817360E-026
 -3.030000000000000E-002   -2.509223084282737E-026
 -3.020000000000000E-002   -3.348004631274275E-026
 -3.010000000000000E-002   -4.157279526658995E-026
 -3.000000000000000E-002   -4.790950940983510E-026
 -2.990000000000000E-002   -5.049766464457211E-026
 -2.980000000000000E-002   -4.682421441802951E-026
 -2.970000000000000E-002   -3.393348077015067E-026
 -2.960000000000000E-002   -8.586566591927519E-027
 -2.950000000000000E-002    3.248488874714494E-026
 -2.940000000000000E-002    9.221931507467457E-026
 -2.930000000000000E-002    1.727487880681704E-025
 -2.920000000000000E-002    2.747907294163992E-025
 -2.910000000000000E-002    3.968886036361951E-025
 -2.900000000000000E-002    5.344785463029435E-025
 -2.890000000000000E-002    6.787600011715484E-025
 -2.880000000000000E-002    8.153671755970146E-025
 -2.870000000000000E-002    9.228772300486719E-025
 -2.860000000000000E-002    9.712739859702229E-025
 -2.850000000000000E-002    9.206101759491753E-025
 -2.840000000000000E-002    7.202876274547725E-025
 -2.830000000000000E-002    3.095933345551209E-025
 -2.820000000000000E-002   -3.796418274874928E-025
 -2.810000000000000E-002   -1.417190958498742E-024
 -2.800000000000000E-002   -2.864238547205544E-024
 -2.790000000000000E-002   -4.757795779465050E-024
 -2.780000000000000E-002   -7.089107099237283E-024
 -2.770000000000000E-002   -9.776247878943456E-024
 -2.760000000000000E-002   -1.263241976120933E-023
 -2.750000000000000E-002   -1.533321864388128E-023
 -2.740000000000000E-002   -1.738832089650814E-023
 -2.730000000000000E-002   -1.812532288757484E-023
 -2.720000000000000E-002   -1.669557895299538E-023
 -2.710000000000000E-002   -1.211319230073411E-023
 -2.700000000000000E-002   -3.338270266840133E-024
 -2.690000000000000E-002    1.058659082844849E-023
 -2.680000000000000E-002    3.034242276264230E-023
 -2.670000000000000E-002    5.608636201915768E-023
 -2.660000000000000E-002    8.716518625437749E-023
 -2.650000000000000E-002    1.218180682293444E-022
 -2.640000000000000E-002    1.569115440142683E-022
 -2.630000000000000E-002    1.877634794971324E-022
 -2.620000000000000E-002    2.081233395470290E-022
 -2.610000000000000E-002    2.103797589540503E-022
 -2.600000000000000E-002    1.860600058130611E-022
 -2.590000000000000E-002    1.266664466344893E-022
 -2.580000000000000E-002    2.486110063697703E-023
 -2.570000000000000E-002   -1.240400133547616E-022
 -2.560000000000000E-002   -3.203620773958131E-022
 -2.550000000000000E-002   -5.583244568295553E-022
 -2.540000000000000E-002   -8.244865734142298E-022
 -2.530000000000000E-002   -1.096675442486835E-021
 -2.520000000000000E-002   -1.343714907633260E-021
 -2.510000000000000E-002   -1.526264898557282E-021
 -2.500000000000000E-002   -1.599023683380794E-021
 -2.490000000000000E-002   -1.514431121354515E-021
 -2.480000000000000E-002   -1.227844064496662E-021
 -2.470000000000000E-002   -7.039394252673868E-022
 -2.460000000000000E-002    7.613778656101729E-023
 -2.450000000000000E-002    1.107604845051510E-021
 -2.440000000000000E-002    2.355770780684331E-021
 -2.430000000000000E-002    3.751706424018351E-021
 -2.420000000000000E-002    5.190901930781892E-021
 -2.410000000000000E-002    6.535805307939518E-021
 -2.400000000000000E-002    7.622841621336393E-021
 -2.390000000000000E-002    8.274031319270125E-021
 -2.380000000000000E-002    8.312766420795114E-021
 -2.370000000000000E-002    7.582633270348644E-021
 -2.360000000000000E-002    5.967582724147582E-021
 -2.350000000000000E-002    3.411237419969888E-021
 -2.340000000000000E-002   -6.711853934749633E-023
 -2.330000000000000E-002   -4.362272151509123E-021
 -2.320000000000000E-002   -9.280496039158933E-021
 -2.310000000000000E-002   -1.454581671183164E-020
 -2.300000000000000E-002   -1.981515676254812E-020
 -2.290000000000000E-002   -2.470109665646119E-020
 -2.280000000000000E-002   -2.879967684754262E-020
 -2.270000000000000E-002   -3.171959136608114E-020
 -2.260000000000000E-002   -3.310857526849012E-020
 -2.250000000000000E-002   -3.267290951759824E-020
 -2.240000000000000E-002   -3.018688137955833E-020
 -2.230000000000000E-002   -2.549090215919396E-020
 -2.220000000000000E-002   -1.847944642151582E-020
 -2.210000000000000E-002   -9.082869761194998E-021
 -2.200000000000000E-002    2.750073938437917E-021
 -2.190000000000000E-002    1.706003795518953E-020
 -2.180000000000000E-002    3.386556580430396E-020
 -2.170000000000000E-002    5.312352344088081E-020
 -2.160000000000000E-002    7.465630713019431E-020
 -2.150000000000000E-002    9.804595728825933E-020
 -2.140000000000000E-002    1.225030391729208E-019
 -2.130000000000000E-002    1.467267851568587E-019
 -2.120000000000000E-002    1.687813205966690E-019
 -2.110000000000000E-002    1.860197585718017E-019
 -2.100000000000000E-002    1.950914396923535E-019
 -2.090000000000000E-002    1.920657624897076E-019
 -2.080000000000000E-002    1.726983505707958E-019
 -2.070000000000000E-002    1.328509358959643E-019
 -2.060000000000000E-002    6.905509812031227E-020
 -2.050000000000000E-002   -2.081433904309175E-020
 -2.040000000000000E-002   -1.368182453713826E-019
 -2.030000000000000E-002   -2.762709706079223E-019
 -2.020000000000000E-002   -4.332012785174387E-019
 -2.010000000000000E-002   -5.980693311267018E-019
 -2.000000000000000E-002   -7.578441140945164E-019
 -1.990000000000000E-002   -8.965219783072232E-019
 -1.980000000000000E-002   -9.961259514779194E-019
 -1.970000000000000E-002   -1.038167779484923E-018
 -1.960000000000000E-002   -1.005490014779179E-018
 -1.950000000000000E-002   -8.843368663013618E-019
 -1.940000000000000E-002   -6.664425693075260E-019
 -1.930000000000000E-002   -3.508837192788152E-019
 -1.920000000000000E-002    5.457163203651495E-020
 -1.910000000000000E-002    5.328645736316791E-019
 -1.900000000000000E-002    1.057983224082179E-018
 -1.890000000000000E-002    1.596328363343445E-018
 -1.880000000000000E-002    2.109073506671191E-018
 -1.870000000000000E-002    2.555346718964874E-018
 -1.860000000000000E-002    2.895924191621667E-018
 -1.850000000000000E-002    3.097016531262267E-018
 -1.840000000000000E-002    3.133660322335874E-018
 -1.830000000000000E-002    2.992229277565081E-018
 -1.820000000000000E-002    2.671646209609915E-018
 -1.810000000000000E-002    2.183031339705396E-018
 -1.800000000000000E-002    1.547725011429475E-018
 -1.790000000000000E-002    7.938834336156562E-019
 -1.780000000000000E-002   -4.790020229475333E-020
 -1.770000000000000E-002   -9.492650846800510E-019
 -1.760000000000000E-002   -1.888209717570631E-018
 -1.750000000000000E-002   -2.851798958413519E-018
 -1.740000000000000E-002   -3.836681931189045E-018
 -1.730000000000000E-002   -4.846892951187825E-018
 -1.720000000000000E-002   -5.888786507943370E-018
 -1.710000000000000E-002   -6.963449345320386E-018
 -1.700000000000000E-002   -8.057435820146753E-018
 -1.690000000000000E-002   -9.133162271604098E-018
 -1.680000000000000E-002   -1.012064940920961E-017
 -1.670000000000000E-002   -1.091246004977991E-017
 -1.660000000000000E-002   -1.136358259504617E-017
 -1.650000000000000E-002   -1.129761044042720E-017
 -1.640000000000000E-002   -1.051990039756280E-017
 -1.630000000000000E-002   -8.837475998811131E-018
 -1.620000000000000E-002   -6.084414819766919E-018
 -1.610000000000000E-002   -2.150418980924588E-018
 -1.600000000000000E-002    2.990614987742236E-018
 -1.590000000000000E-002    9.255776977584627E-018
 -1.580000000000000E-002    1.643595897718939E-017
 -1.570000000000000E-002    2.418979400331569E-017
 -1.560000000000000E-002    3.205126892603729E-017
 -1.550000000000000E-002    3.945215128916721E-017
 -1.540000000000000E-002    4.575858911946465E-017
 -1.530000000000000E-002    5.031936854022861E-017
 -1.520000000000000E-002    5.252152567680462E-017
 -1.510000000000000E-002    5.184769254661191E-017
 -1.500000000000000E-002    4.792873831791762E-017
 -1.490000000000000E-002    4.058543959412701E-017
 -1.480000000000000E-002    2.985387991314250E-017
 -1.470000000000000E-002    1.599108531679933E-017
 -1.460000000000000E-002   -5.400779584826051E-019
 -1.450000000000000E-002   -1.910491760694705E-017
 -1.440000000000000E-002   -3.894523343544486E-017
 -1.430000000000000E-002   -5.923506696566054E-017
 -1.420000000000000E-002   -7.913567566308664E-017
 -1.410000000000000E-002   -9.784136097075776E-017
 -1.400000000000000E-002   -1.146090297488305E-016
 -1.390000000000000E-002   -1.287671040270807E-016
 -1.380000000000000E-002   -1.397027747075497E-016
 -1.370000000000000E-002   -1.468311794571935E-016
 -1.360000000000000E-002   -1.495540204394001E-016
 -1.350000000000000E-002   -1.472187875389350E-016
 -1.340000000000000E-002   -1.390915543765909E-016
 -1.330000000000000E-002   -1.243566245779457E-016
 -1.320000000000000E-002   -1.021536370322342E-016
 -1.310000000000000E-002   -7.165862616660997E-017
 -1.300000000000000E-002   -3.220879305408226E-017
 -1.290000000000000E-002    1.653659586930990E-017
 -1.280000000000000E-002    7.441448218643510E-017
 -1.270000000000000E-002    1.405773021210380E-016
 -1.260000000000000E-002    2.133395189589375E-016
 -1.250000000000000E-002    2.900786708261946E-016
 -1.240000000000000E-002    3.672156976263284E-016
 -1.230000000000000E-002    4.402928105094965E-016
 -1.220000000000000E-002    5.041569470702053E-016
 -1.210000000000000E-002    5.532451780880070E-016
 -1.200000000000000E-002    5.819545269876657E-016
 -1.190000000000000E-002    5.850675710373782E-016
 -1.180000000000000E-002    5.581947688998697E-016
 -1.170000000000000E-002    4.981909617198126E-016
 -1.160000000000000E-002    4.035029838314200E-016
 -1.150000000000000E-002    2.744122523866578E-016
 -1.140000000000000E-002    1.131481564125032E-016
 -1.130000000000000E-002   -7.613693262175462E-017
 -1.120000000000000E-002   -2.875231691176363E-016
 -1.110000000000000E-002   -5.135847529185468E-016
 -1.100000000000000E-002   -7.457206350647750E-016
 -1.090000000000000E-002   -9.745115443047653E-016
 -1.080000000000000E-002   -1.190061431124644E-015
 -1.070000000000000E-002   -1.382289315521187E-015
 -1.060000000000000E-002   -1.541154064309503E-015
 -1.050000000000000E-002   -1.656815467382740E-015
 -1.040000000000000E-002   -1.719755893078421E-015
 -1.030000000000000E-002   -1.720905150509215E-015
 -1.020000000000000E-002   -1.651825415969297E-015
 -1.010000000000000E-002   -1.505011550208517E-015
 -1.000000000000000E-002   -1.274354722348399E-015
 -9.899999999999999E-003   -9.557912372708295E-016
 -9.800000000000000E-003   -5.481261994957622E-016
 -9.699999999999999E-003   -5.397911262656238E-017
 -9.599999999999999E-003    5.192429111035524E-016
 -9.500000000000000E-003    1.158473703748138E-015
 -9.399999999999999E-003    1.844370966799230E-015
 -9.299999999999999E-003    2.551110509132894E-015
 -9.200000000000000E-003    3.246728481427743E-015
 -9.099999999999999E-003    3.894102869746710E-015
 -8.999999999999999E-003    4.452605241389625E-015
 -8.900000000000000E-003    4.880368969716578E-015
 -8.799999999999999E-003    5.137039638158973E-015
 -8.699999999999999E-003    5.186791661553160E-015
 -8.600000000000000E-003    5.001337392149017E-015
 -8.499999999999999E-003    4.562624492152221E-015
 -8.399999999999999E-003    3.864922913184612E-015
 -8.300000000000000E-003    2.916054328538977E-015
 -8.199999999999999E-003    1.737596943463581E-015
 -8.100000000000000E-003    3.640181988669093E-016
 -8.000000000000000E-003   -1.159181251749653E-015
 -7.899999999999999E-003   -2.778106923128482E-015
 -7.800000000000000E-003   -4.433576918496199E-015
 -7.699999999999999E-003   -6.064310329545886E-015
 -7.599999999999999E-003   -7.609808579871179E-015
 -7.499999999999999E-003   -9.012580468754043E-015
 -7.399999999999999E-003   -1.021947531197861E-014
 -7.299999999999999E-003   -1.118203774505915E-014
 -7.199999999999999E-003   -1.185598706398810E-014
 -7.100000000000000E-003   -1.220010344848542E-014
 -6.999999999999999E-003   -1.217495790921152E-014
 -6.899999999999999E-003   -1.174202775946226E-014
 -6.800000000000000E-003   -1.086374528715217E-014
 -6.699999999999999E-003   -9.504954208583476E-015
 -6.599999999999999E-003   -7.636074559734469E-015
 -6.499999999999999E-003   -5.238007988878673E-015
 -6.399999999999999E-003   -2.308526918959908E-015
 -6.299999999999999E-003    1.130456660112817E-015
 -6.199999999999999E-003    5.025611725276070E-015
 -6.100000000000000E-003    9.285989265825869E-015
 -5.999999999999999E-003    1.377905520695768E-014
 -5.899999999999999E-003    1.833005249184357E-014
 -5.800000000000000E-003    2.272552211824515E-014
 -5.699999999999999E-003    2.672143725022440E-014
 -5.599999999999999E-003    3.005589786382382E-014
 -5.499999999999999E-003    3.246574900860040E-014
 -5.399999999999999E-003    3.370592670606842E-014
 -5.299999999999999E-003    3.356989842243197E-014
 -5.199999999999999E-003    3.190919591961004E-014
 -5.099999999999999E-003    2.864999159113355E-014
 -4.999999999999999E-003    2.380480473342003E-014
 -4.899999999999999E-003    1.747781944484512E-014
 -4.799999999999999E-003    9.862929401756764E-015
 -4.699999999999999E-003    1.234392496154901E-015
 -4.599999999999999E-003   -8.069197054738181E-015
 -4.499999999999999E-003   -1.766612545699376E-014
 -4.399999999999999E-003   -2.715583793316004E-014
 -4.299999999999999E-003   -3.614378208662793E-014
 -4.199999999999999E-003   -4.426422019913193E-014
 -4.099999999999999E-003   -5.119874456456955E-014
 -3.999999999999999E-003   -5.668873488850700E-014
 -3.899999999999999E-003   -6.054086785966285E-014
 -3.799999999999999E-003   -6.262579278125044E-014
 -3.699999999999999E-003   -6.287097546461980E-014
 -3.599999999999999E-003   -6.124968743181702E-014
 -3.499999999999999E-003   -5.776853345656195E-014
 -3.399999999999999E-003   -5.245629070176529E-014
 -3.299999999999999E-003   -4.535648795102491E-014
 -3.199999999999999E-003   -3.652561446218411E-014
 -3.099999999999999E-003   -2.603785055772729E-014
 -2.999999999999999E-003   -1.399604034139703E-014
 -2.899999999999999E-003   -5.474352601992164E-016
 -2.799999999999999E-003    1.409843169585435E-014
 -2.699999999999999E-003    2.965304723200793E-014
 -2.599999999999999E-003    4.573708352397814E-014
 -2.499999999999999E-003    6.187685629982480E-014
 -2.399999999999999E-003    7.751163022939662E-014
 -2.299999999999999E-003    9.201315142978783E-014
 -2.199999999999999E-003    1.047170410555881E-013
 -2.099999999999999E-003    1.149639396897894E-013
 -1.999999999999999E-003    1.221467463080315E-013
 -1.899999999999999E-003    1.257588482309813E-013
 -1.799999999999999E-003    1.254378124504912E-013
 -1.699999999999999E-003    1.209987319900852E-013
 -1.599999999999999E-003    1.124527275985441E-013
 -1.499999999999999E-003    1.000071376165488E-013
 -1.399999999999999E-003    8.404665393563127E-014
 -1.299999999999999E-003    6.509659041028132E-014
 -1.199999999999999E-003    4.377230004052419E-014
 -1.099999999999999E-003    2.072063012481152E-014
 -9.999999999999989E-004   -3.439252831757713E-015
 -8.999999999999990E-004   -2.816774064473427E-014
 -7.999999999999990E-004   -5.304206921780823E-014
 -6.999999999999989E-004   -7.777318790854270E-014
 -5.999999999999990E-004   -1.021988168428965E-013
 -4.999999999999989E-004   -1.262523963961765E-013
 -3.999999999999989E-004   -1.499107698064249E-013
 -2.999999999999989E-004   -1.731265074071796E-013
 -1.999999999999989E-004   -1.957531932664350E-013
 -9.999999999999892E-005   -2.174735627791535E-013
  1.084202172485504E-018   -2.377404918456309E-013
  1.000000000000011E-004   -2.557401113307284E-013
  2.000000000000011E-004   -2.703838088411599E-013
  3.000000000000011E-004   -2.803333288728311E-013
  4.000000000000011E-004   -2.840594804820655E-013
  5.000000000000011E-004   -2.799309044738597E-013
  6.000000000000011E-004   -2.663270786522513E-013
  7.000000000000011E-004   -2.417661774691758E-013
  8.000000000000011E-004   -2.050381996329315E-013
  9.000000000000012E-004   -1.553324588350712E-013
  1.000000000000001E-003   -9.235052796441624E-014
  1.100000000000001E-003   -1.639713113802683E-014
  1.200000000000001E-003    7.155605353004186E-014
  1.300000000000001E-003    1.698364350976794E-013
  1.400000000000001E-003    2.760660300687402E-013
  1.500000000000001E-003    3.871854077946524E-013
  1.600000000000001E-003    4.995041471209213E-013
  1.700000000000001E-003    6.087759980666496E-013
  1.800000000000001E-003    7.102978223414161E-013
  1.900000000000001E-003    7.990334181554544E-013
  2.000000000000001E-003    8.697636481269554E-013
  2.100000000000001E-003    9.172658835347121E-013
  2.200000000000001E-003    9.365251340854003E-013
  2.300000000000001E-003    9.229765429945823E-013
  2.400000000000001E-003    8.727768063920124E-013
  2.500000000000001E-003    7.830964975585607E-013
  2.600000000000001E-003    6.524194725027012E-013
  2.700000000000001E-003    4.808304160401891E-013
  2.800000000000001E-003    2.702663607156200E-013
  2.900000000000001E-003    2.470450773181587E-014
  3.000000000000001E-003   -2.497415141094147E-013
  3.100000000000001E-003   -5.448422199370511E-013
  3.200000000000001E-003   -8.504087520558457E-013
  3.300000000000001E-003   -1.154595228691458E-012
  3.400000000000001E-003   -1.444344171584108E-012
  3.500000000000001E-003   -1.705958741753724E-012
  3.600000000000001E-003   -1.925773516145362E-012
  3.700000000000001E-003   -2.090879752026626E-012
  3.800000000000001E-003   -2.189857759213928E-012
  3.900000000000001E-003   -2.213459530981885E-012
  4.000000000000001E-003   -2.155189671669122E-012
  4.100000000000001E-003   -2.011738027562838E-012
  4.200000000000001E-003   -1.783229414247131E-012
  4.300000000000001E-003   -1.473272822977459E-012
  4.400000000000001E-003   -1.088810775217011E-012
  4.500000000000001E-003   -6.397872432474762E-013
  4.600000000000002E-003   -1.386716467094652E-013
  4.700000000000001E-003    4.001124933232101E-013
  4.800000000000001E-003    9.607985402868893E-013
  4.900000000000002E-003    1.526871279853488E-012
  5.000000000000001E-003    2.081593226403713E-012
  5.100000000000001E-003    2.608427921361393E-012
  5.200000000000001E-003    3.091338607754831E-012
  5.300000000000002E-003    3.514963357251201E-012
  5.400000000000001E-003    3.864683693789826E-012
  5.500000000000001E-003    4.126627427407977E-012
  5.600000000000002E-003    4.287650001959662E-012
  5.700000000000001E-003    4.335351497637069E-012
  5.800000000000001E-003    4.258181872452958E-012
  5.900000000000002E-003    4.045676332148957E-012
  6.000000000000001E-003    3.688852911670077E-012
  6.100000000000001E-003    3.180779158680338E-012
  6.200000000000002E-003    2.517298315121400E-012
  6.300000000000002E-003    1.697881554151831E-012
  6.400000000000001E-003    7.265561590358007E-013
  6.500000000000001E-003   -3.871510255239034E-013
  6.600000000000002E-003   -1.627330560973271E-012
  6.700000000000001E-003   -2.970935474447118E-012
  6.800000000000001E-003   -4.387227978179037E-012
  6.900000000000002E-003   -5.837486723659025E-012
  7.000000000000001E-003   -7.275031572960097E-012
  7.100000000000001E-003   -8.645606771432734E-012
  7.200000000000002E-003   -9.888162266330464E-012
  7.300000000000002E-003   -1.093606360755151E-011
  7.400000000000001E-003   -1.171875321591440E-011
  7.500000000000001E-003   -1.216388947940162E-011
  7.600000000000002E-003   -1.219997885166551E-011
  7.700000000000001E-003   -1.175950290947493E-011
  7.800000000000001E-003   -1.078252826648993E-011
  7.900000000000001E-003   -9.220757400612722E-012
  8.000000000000002E-003   -7.041934261473969E-012
  8.100000000000001E-003   -4.234471688605262E-012
  8.200000000000001E-003   -8.121065417101699E-013
  8.300000000000002E-003    3.181681992254136E-012
  8.400000000000001E-003    7.669805230913859E-012
  8.500000000000002E-003    1.253862648170450E-011
  8.600000000000002E-003    1.763635860052134E-011
  8.700000000000001E-003    2.277320805354041E-011
  8.800000000000002E-003    2.772364880069488E-011
  8.900000000000002E-003    3.223114617944553E-011
  9.000000000000001E-003    3.601553711229061E-011
  9.100000000000002E-003    3.878313295279841E-011
  9.200000000000002E-003    4.023942358028713E-011
  9.300000000000001E-003    4.010408383943783E-011
  9.400000000000002E-003    3.812773473574298E-011
  9.500000000000001E-003    3.410977811137496E-011
  9.600000000000001E-003    2.791636941337994E-011
  9.700000000000002E-003    1.949752412666244E-011
  9.800000000000001E-003    8.902245119796464E-012
  9.900000000000001E-003   -3.709448618435598E-012
  1.000000000000000E-002   -1.805867145659644E-011
  1.010000000000000E-002   -3.374492048292961E-011
  1.020000000000000E-002   -5.024915054549942E-011
  1.030000000000000E-002   -6.694318313585830E-011
  1.040000000000000E-002   -8.310558719960883E-011
  1.050000000000000E-002   -9.794390502328847E-011
  1.060000000000000E-002   -1.106226840340695E-010
  1.070000000000000E-002   -1.202965225904146E-010
  1.080000000000000E-002   -1.261469108898828E-010
  1.090000000000000E-002   -1.274215652499019E-010
  1.100000000000000E-002   -1.234745136459932E-010
  1.110000000000000E-002   -1.138053046710487E-010
  1.120000000000000E-002   -9.809542795749647E-011
  1.130000000000000E-002   -7.624022878134921E-011
  1.140000000000000E-002   -4.837458690816722E-011
  1.150000000000000E-002   -1.489089939152227E-011
  1.160000000000000E-002    2.355197464215377E-011
  1.170000000000000E-002    6.602963164896781E-011
  1.180000000000000E-002    1.113636169730278E-010
  1.190000000000000E-002    1.581435376861815E-010
  1.200000000000000E-002    2.047596084527099E-010
  1.210000000000000E-002    2.494449686974073E-010
  1.220000000000000E-002    2.903265674395878E-010
  1.230000000000000E-002    3.254831271916094E-010
  1.240000000000000E-002    3.530086163186464E-010
  1.250000000000000E-002    3.710786666689019E-010
  1.260000000000000E-002    3.780181490580884E-010
  1.270000000000000E-002    3.723673084244272E-010
  1.280000000000000E-002    3.529443114350010E-010
  1.290000000000000E-002    3.189021521220659E-010
  1.300000000000000E-002    2.697778767960596E-010
  1.310000000000000E-002    2.055327733842392E-010
  1.320000000000000E-002    1.265825406481554E-010
  1.330000000000000E-002    3.381641287590099E-011
  1.340000000000000E-002   -7.139450310879817E-011
  1.350000000000000E-002   -1.871998565144306E-010
  1.360000000000000E-002   -3.112830335137592E-010
  1.370000000000000E-002   -4.408837924668694E-010
  1.380000000000000E-002   -5.728297504418020E-010
  1.390000000000000E-002   -7.035758937248533E-010
  1.400000000000000E-002   -8.292518568583884E-010
  1.410000000000000E-002   -9.457163404317473E-010
  1.420000000000000E-002   -1.048619122278556E-009
  1.430000000000000E-002   -1.133470704479981E-009
  1.440000000000000E-002   -1.195720952820733E-009
  1.450000000000000E-002   -1.230847958372304E-009
  1.460000000000000E-002   -1.234457590479752E-009
  1.470000000000000E-002   -1.202396597047532E-009
  1.480000000000000E-002   -1.130878386737325E-009
  1.490000000000000E-002   -1.016623520985603E-009
  1.500000000000000E-002   -8.570138641867830E-010
  1.510000000000000E-002   -6.502587454439468E-010
  1.520000000000000E-002   -3.955713872602773E-010
  1.530000000000000E-002   -9.335008551608901E-011
  1.540000000000000E-002    2.546399063742991E-010
  1.550000000000000E-002    6.450922189172818E-010
  1.560000000000000E-002    1.073000087401644E-009
  1.570000000000000E-002    1.531522502952452E-009
  1.580000000000000E-002    2.011885089759894E-009
  1.590000000000000E-002    2.503327521822011E-009
  1.600000000000000E-002    2.993106103346978E-009
  1.610000000000000E-002    3.466563080344652E-009
  1.620000000000000E-002    3.907270922520049E-009
  1.630000000000000E-002    4.297257973771924E-009
  1.640000000000000E-002    4.617320861343065E-009
  1.650000000000000E-002    4.847427570935119E-009
  1.660000000000000E-002    4.967207640487618E-009
  1.670000000000000E-002    4.956529897222675E-009
  1.680000000000000E-002    4.796158939626769E-009
  1.690000000000000E-002    4.468483715407798E-009
  1.700000000000000E-002    3.958305160735597E-009
  1.710000000000000E-002    3.253669194674541E-009
  1.720000000000000E-002    2.346732149101932E-009
  1.730000000000000E-002    1.234637703738660E-009
  1.740000000000000E-002   -7.960497463347744E-011
  1.750000000000000E-002   -1.586266865967099E-009
  1.760000000000000E-002   -3.268077166291916E-009
  1.770000000000000E-002   -5.099451295032115E-009
  1.780000000000000E-002   -7.045781956864933E-009
  1.790000000000000E-002   -9.062800153650212E-009
  1.800000000000000E-002   -1.109601548435216E-008
  1.810000000000000E-002   -1.308023760738838E-008
  1.820000000000000E-002   -1.493917734424067E-008
  1.830000000000000E-002   -1.658512882432307E-008
  1.840000000000000E-002   -1.791872394036174E-008
  1.850000000000000E-002   -1.882874270641675E-008
  1.860000000000000E-002   -1.919198825191751E-008
  1.870000000000000E-002   -1.887318146954402E-008