 -4.000000000000000E-002    0.000000000000000E+000
 -3.990000000000000E-002    0.000000000000000E+000
 -3.980000000000000E-002    0.000000000000000E+000
 -3.970000000000000E-002    0.000000000000000E+000
 -3.960000000000000E-002    0.000000000000000E+000
 -3.950000000000000E-002    0.000000000000000E+000
 -3.940000000000000E-002    6.154343099349834E-024
 -3.930000000000000E-002    7.431099923273520E-023
 -3.920000000000000E-002    4.771788832757001E-022
 -3.910000000000000E-002    2.160403210683384E-021
 -3.900000000000000E-002    7.718288646561952E-021
 -3.890000000000000E-002    2.309819589599220E-020
 -3.880000000000000E-002    6.003912820480811E-020
 -3.870000000000000E-002    1.387861067569543E-019
 -3.860000000000000E-002    2.898882547971217E-019
 -3.850000000000000E-002    5.529976941988893E-019
 -3.840000000000000E-002    9.698042494366182E-019
 -3.830000000000000E-002    1.567971219979979E-018
 -3.820000000000000E-002    2.333646543933678E-018
 -3.810000000000000E-002    3.172207630880872E-018
 -3.800000000000000E-002    3.860508225136318E-018
 -3.790000000000000E-002    3.998775368356714E-018
 -3.780000000000000E-002    2.975673973865865E-018
 -3.770000000000000E-002   -3.538051767808240E-020
 -3.760000000000000E-002   -6.028458472970301E-018
 -3.750000000000000E-002   -1.604770377542895E-017
 -3.740000000000000E-002   -3.098946862977051E-017
 -3.730000000000000E-002   -5.132632066171334E-017
 -3.720000000000000E-002   -7.677318720109442E-017
 -3.710000000000000E-002   -1.059360298093566E-016
 -3.700000000000000E-002   -1.360021211736951E-016
 -3.690000000000000E-002   -1.625431328465441E-016
 -3.680000000000000E-002   -1.795030831731352E-016
 -3.670000000000000E-002   -1.794296816164478E-016
 -3.660000000000000E-002   -1.539768950827849E-016
 -3.650000000000000E-002   -9.466358771039839E-017
 -3.640000000000000E-002    6.179673310328712E-018
 -3.630000000000000E-002    1.543929419084004E-016
 -3.620000000000000E-002    3.530512781897549E-016
 -3.610000000000000E-002    6.017740926287895E-016
 -3.600000000000000E-002    8.964123481950812E-016
 -3.590000000000000E-002    1.229178307591999E-015
 -3.580000000000000E-002    1.589172021151335E-015
 -3.570000000000000E-002    1.963123548889479E-015
 -3.560000000000000E-002    2.336032519781839E-015
 -3.550000000000000E-002    2.691277973841090E-015
 -3.540000000000000E-002    3.009721845319254E-015
 -3.530000000000000E-002    3.267391632991084E-015
 -3.520000000000000E-002    3.431491199510935E-015
 -3.510000000000000E-002    3.454812269165344E-015
 -3.500000000000000E-002    3.269038794050572E-015
 -3.490000000000000E-002    2.777949902887709E-015
 -3.480000000000000E-002    1.852058190630305E-015
 -3.470000000000000E-002    3.266481686032212E-016
 -3.460000000000000E-002   -1.994503220433180E-015
 -3.450000000000000E-002   -5.327503792063390E-015
 -3.440000000000000E-002   -9.886920994526741E-015
 -3.430000000000000E-002   -1.585346856519156E-014
 -3.420000000000000E-002   -2.333093347973164E-014
 -3.410000000000000E-002   -3.229408708820609E-014
 -3.400000000000000E-002   -4.253113234360416E-014
 -3.390000000000000E-002   -5.358616810441176E-014
 -3.380000000000000E-002   -6.470892315900282E-014
 -3.370000000000000E-002   -7.482032843856104E-014
 -3.360000000000000E-002   -8.250307818028630E-014
 -3.350000000000000E-002   -8.602608882480600E-014
 -3.340000000000000E-002   -8.341026056572848E-014
 -3.330000000000000E-002   -7.254044063145548E-014
 -3.320000000000000E-002   -5.132477693605983E-014
 -3.310000000000000E-002   -1.789773626473806E-014
 -3.300000000000000E-002    2.914164277496170E-014
 -3.290000000000000E-002    9.047056257421831E-014
 -3.280000000000000E-002    1.657815099268744E-013
 -3.270000000000000E-002    2.535421429744407E-013
 -3.260000000000000E-002    3.508017276307740E-013
 -3.250000000000000E-002    4.530696535887588E-013
 -3.240000000000000E-002    5.542897447409226E-013
 -3.230000000000000E-002    6.469286879201114E-013
 -3.220000000000000E-002    7.221914496975940E-013
 -3.210000000000000E-002    7.703663866823355E-013
 -3.200000000000000E-002    7.812931655014162E-013
 -3.190000000000000E-002    7.449367537316839E-013
 -3.180000000000000E-002    6.520406243619844E-013
 -3.170000000000000E-002    4.948256450365554E-013
 -3.160000000000000E-002    2.676944140698415E-013
 -3.150000000000000E-002   -3.209651113232272E-014
 -3.140000000000000E-002   -4.038360979106764E-013
 -3.130000000000000E-002   -8.428585736157844E-013
 -3.120000000000000E-002   -1.340169193905281E-012
 -3.110000000000000E-002   -1.882203242812080E-012
 -3.100000000000000E-002   -2.450724387359387E-012
 -3.090000000000000E-002   -3.022854615426350E-012
 -3.080000000000000E-002   -3.571227926341881E-012
 -3.070000000000000E-002   -4.064266369157137E-012
 -3.060000000000000E-002   -4.466577695294572E-012
 -3.050000000000000E-002   -4.739503245718701E-012
 -3.040000000000000E-002   -4.841854441545578E-012
 -3.030000000000000E-002   -4.730907495917566E-012
 -3.020000000000000E-002   -4.363738872302904E-012
 -3.010000000000000E-002   -3.699001399565756E-012
 -3.000000000000000E-002   -2.699236531983456E-012
 -2.990000000000000E-002   -1.333793833203872E-012
 -2.980000000000000E-002    4.176192372746069E-013
 -2.970000000000000E-002    2.560791782734028E-012
 -2.960000000000000E-002    5.082418895270172E-012
 -2.950000000000000E-002    7.945302064184315E-012
 -2.940000000000000E-002    1.108371364414652E-011
 -2.930000000000000E-002    1.439940828971973E-011
 -2.920000000000000E-002    1.775885040522349E-011
 -2.910000000000000E-002    2.099227846925335E-011
 -2.900000000000000E-002    2.389523047379446E-011
 -2.890000000000000E-002    2.623308351053274E-011
 -2.880000000000000E-002    2.774900284189791E-011
 -2.870000000000000E-002    2.817546865254562E-011
 -2.860000000000000E-002    2.724929264889958E-011
 -2.850000000000000E-002    2.472965832562474E-011
 -2.840000000000000E-002    2.041834087149125E-011
 -2.830000000000000E-002    1.418101162315989E-011
 -2.820000000000000E-002    5.968106404188204E-012
 -2.810000000000000E-002   -4.166330492345007E-012
 -2.800000000000000E-002   -1.604964046242113E-011
 -2.790000000000000E-002   -2.938098788625383E-011
 -2.780000000000000E-002   -4.372870153209059E-011
 -2.770000000000000E-002   -5.853559837513413E-011
 -2.760000000000000E-002   -7.313280700855903E-011
 -2.750000000000000E-002   -8.676205744255253E-011
 -2.740000000000000E-002   -9.860574663281456E-011
 -2.730000000000000E-002   -1.078234846226088E-010
 -2.720000000000000E-002   -1.135932311858837E-010
 -2.710000000000000E-002   -1.151549082971641E-010
 -2.700000000000000E-002   -1.118539344040747E-010
 -2.690000000000000E-002   -1.031822635491649E-010
 -2.680000000000000E-002   -8.881481747766629E-011
 -2.670000000000000E-002   -6.863923566599085E-011
 -2.660000000000000E-002   -4.277771897289350E-011
 -2.650000000000000E-002   -1.160011800647009E-011
 -2.640000000000000E-002    2.427190740045529E-011
 -2.630000000000000E-002    6.396960080700443E-011
 -2.620000000000000E-002    1.063900188238047E-010
 -2.610000000000000E-002    1.502163506187382E-010
 -2.600000000000000E-002    1.939451296816828E-010
 -2.590000000000000E-002    2.359197628290119E-010
 -2.580000000000000E-002    2.743700437357202E-010
 -2.570000000000000E-002    3.074578884096102E-010
 -2.560000000000000E-002    3.333294863713276E-010
 -2.550000000000000E-002    3.501742324597368E-010
 -2.540000000000000E-002    3.562906049357117E-010
 -2.530000000000000E-002    3.501587075812155E-010
 -2.520000000000000E-002    3.305182621228540E-010
 -2.510000000000000E-002    2.964502273209667E-010
 -2.500000000000000E-002    2.474584720384347E-010
 -2.490000000000000E-002    1.835473629965916E-010
 -2.480000000000000E-002    1.052897803071864E-010
 -2.470000000000000E-002    1.387970656496262E-011
 -2.460000000000000E-002   -8.883708021712852E-011
 -2.450000000000000E-002   -2.003594431804533E-010
 -2.440000000000000E-002   -3.175595511202749E-010
 -2.430000000000000E-002   -4.367461932191940E-010
 -2.420000000000000E-002   -5.537635987016446E-010
 -2.410000000000000E-002   -6.641234599810875E-010
 -2.400000000000000E-002   -7.631657637506755E-010
 -2.390000000000000E-002   -8.462411168199985E-010
 -2.380000000000000E-002   -9.089050672014381E-010
 -2.370000000000000E-002   -9.471142488348278E-010
 -2.360000000000000E-002   -9.574132355009337E-010
 -2.350000000000000E-002   -9.371014318710718E-010
 -2.340000000000000E-002   -8.843714837441076E-010
 -2.330000000000000E-002   -7.984116975225717E-010
 -2.320000000000000E-002   -6.794695627413748E-010
 -2.310000000000000E-002   -5.288741482298188E-010
 -2.300000000000000E-002   -3.490205806795881E-010
 -2.290000000000000E-002   -1.433200775943907E-010
 -2.280000000000000E-002    8.387814834352401E-011
 -2.270000000000000E-002    3.273860052117592E-010
 -2.260000000000000E-002    5.812903832345953E-010
 -2.250000000000000E-002    8.390766211269796E-010
 -2.240000000000000E-002    1.093757355117312E-009
 -2.230000000000000E-002    1.338005740340342E-009
 -2.220000000000000E-002    1.564294082610881E-009
 -2.210000000000000E-002    1.765040565182590E-009
 -2.200000000000000E-002    1.932767843010602E-009
 -2.190000000000000E-002    2.060277687064137E-009
 -2.180000000000000E-002    2.140844943156152E-009
 -2.170000000000000E-002    2.168431588354054E-009
 -2.160000000000000E-002    2.137918835008804E-009
 -2.150000000000000E-002    2.045352420601325E-009
 -2.140000000000000E-002    1.888191221469614E-009
 -2.130000000000000E-002    1.665546578787625E-009
 -2.120000000000000E-002    1.378397400096205E-009
 -2.110000000000000E-002    1.029763931601216E-009
 -2.100000000000000E-002    6.248242568139577E-010
 -2.090000000000000E-002    1.709561421571758E-010
 -2.080000000000000E-002   -3.223062004807980E-010
 -2.070000000000000E-002   -8.434097596907554E-010
 -2.060000000000000E-002   -1.379018801366209E-009
 -2.050000000000000E-002   -1.914345946708661E-009
 -2.040000000000000E-002   -2.433571247144980E-009
 -2.030000000000000E-002   -2.920336104367427E-009
 -2.020000000000000E-002   -3.358294101906375E-009
 -2.010000000000000E-002   -3.731699728321967E-009
 -2.000000000000000E-002   -4.026006364170264E-009
 -1.990000000000000E-002   -4.228453719184946E-009
 -1.980000000000000E-002   -4.328614703986240E-009
 -1.970000000000000E-002   -4.318879275875355E-009
 -1.960000000000000E-002   -4.194847627932436E-009
 -1.950000000000000E-002   -3.955613635053666E-009
 -1.940000000000000E-002   -3.603917182874525E-009
 -1.930000000000000E-002   -3.146152608026104E-009
 -1.920000000000000E-002   -2.592221412103947E-009
 -1.910000000000000E-002   -1.955227136751922E-009
 -1.900000000000000E-002   -1.251017600425846E-009
 -1.890000000000000E-002   -4.975869229476585E-010
 -1.880000000000000E-002    2.856404013166979E-010
 -1.870000000000000E-002    1.078606430918786E-009
 -1.860000000000000E-002    1.861461330703252E-009
 -1.850000000000000E-002    2.615395680426553E-009
 -1.840000000000000E-002    3.323413926413678E-009
 -1.830000000000000E-002    3.970991640825938E-009
 -1.820000000000000E-002    4.546570677216810E-009
 -1.810000000000000E-002    5.041847272187493E-009
 -1.800000000000000E-002    5.451830914477579E-009
 -1.790000000000000E-002    5.774662855421688E-009
 -1.780000000000000E-002    6.011208030664455E-009
 -1.770000000000000E-002    6.164457027235341E-009
 -1.760000000000000E-002    6.238789479948845E-009
 -1.750000000000000E-002    6.239175010448223E-009
 -1.740000000000000E-002    6.170390781744580E-009
 -1.730000000000000E-002    6.036342381692477E-009
 -1.720000000000000E-002    5.839565031596088E-009
 -1.710000000000000E-002    5.580967828262427E-009
 -1.700000000000000E-002    5.259857370726026E-009
 -1.690000000000000E-002    4.874248045586368E-009
 -1.680000000000000E-002    4.421431181416477E-009
 -1.670000000000000E-002    3.898745572664896E-009
 -1.660000000000000E-002    3.304455522312272E-009
 -1.650000000000000E-002    2.638629332945613E-009
 -1.640000000000000E-002    1.903900512770519E-009
 -1.630000000000000E-002    1.105995153340881E-009
 -1.620000000000000E-002    2.539351554373095E-010
 -1.610000000000000E-002   -6.401444910415774E-010
 -1.600000000000000E-002   -1.561579617456606E-009
 -1.590000000000000E-002   -2.494131219646106E-009
 -1.580000000000000E-002   -3.421219571720249E-009
 -1.570000000000000E-002   -4.327310031767713E-009
 -1.560000000000000E-002   -5.199279780998052E-009
 -1.550000000000000E-002   -6.027572565697088E-009
 -1.540000000000000E-002   -6.806954567623246E-009
 -1.530000000000000E-002   -7.536698362729035E-009
 -1.520000000000000E-002   -8.220064588368323E-009
 -1.510000000000000E-002   -8.863007826940767E-009
 -1.500000000000000E-002   -9.472115605201925E-009
 -1.490000000000000E-002   -1.005184223719692E-008
 -1.480000000000000E-002   -1.060121599225432E-008
 -1.470000000000000E-002   -1.111021544608457E-008
 -1.460000000000000E-002   -1.155611728304862E-008
 -1.450000000000000E-002   -1.190009329573852E-008
 -1.440000000000000E-002   -1.208436059610035E-008
 -1.430000000000000E-002   -1.203015952018400E-008
 -1.420000000000000E-002   -1.163678062301773E-008
 -1.410000000000000E-002   -1.078174009715337E-008
 -1.400000000000000E-002   -9.322178288785862E-009
 -1.390000000000000E-002   -7.097384998029634E-009
 -1.380000000000000E-002   -3.932291825240883E-009
 -1.370000000000000E-002    3.583732526318452E-010
 -1.360000000000000E-002    5.965557405556731E-009
 -1.350000000000000E-002    1.308138546812352E-008
 -1.340000000000000E-002    2.189515645597125E-008
 -1.330000000000000E-002    3.259010733948693E-008
 -1.320000000000000E-002    4.534132079333046E-008
 -1.310000000000000E-002    6.031502986275944E-008
 -1.300000000000000E-002    7.766941322659149E-008
 -1.290000000000000E-002    9.755686500461948E-008
 -1.280000000000000E-002    1.201277142391183E-007
 -1.270000000000000E-002    1.455349012732410E-007
 -1.260000000000000E-002    1.739396020386355E-007
 -1.250000000000000E-002    2.055170110859673E-007
 -1.240000000000000E-002    2.404620594668556E-007
 -1.230000000000000E-002    2.789944851912512E-007
 -1.220000000000000E-002    3.213628084946296E-007
 -1.210000000000000E-002    3.678467523621972E-007
 -1.200000000000000E-002    4.187581455890932E-007
 -1.190000000000000E-002    4.744397991101847E-007
 -1.180000000000000E-002    5.352627851092041E-007
 -1.170000000000000E-002    6.016219364419884E-007
 -1.160000000000000E-002    6.739304777857875E-007
 -1.150000000000000E-002    7.526133451370391E-007
 -1.140000000000000E-002    8.381010132634508E-007
 -1.130000000000000E-002    9.308236569747239E-007
 -1.120000000000000E-002    1.031206080804667E-006
 -1.110000000000000E-002    1.139665081218705E-006
 -1.100000000000000E-002    1.256608599554852E-006
 -1.090000000000000E-002    1.382437544206240E-006
 -1.080000000000000E-002    1.517550534701349E-006
 -1.070000000000000E-002    1.662350944787524E-006
 -1.060000000000000E-002    1.817256545401604E-006
 -1.050000000000000E-002    1.982710488486435E-006
 -1.040000000000000E-002    2.159193930928911E-006
 -1.030000000000000E-002    2.347238124673040E-006
 -1.020000000000000E-002    2.547435863801768E-006
 -1.010000000000000E-002    2.760451762939112E-006
 -1.000000000000000E-002    2.987029402211777E-006
 -9.899999999999999E-003    3.227995616430532E-006
 -9.800000000000000E-003    3.484260876425467E-006
 -9.699999999999999E-003    3.756816007066677E-006
 -9.599999999999999E-003    4.046725667191915E-006
 -9.500000000000000E-003    4.355118966789341E-006
 -9.399999999999999E-003    4.683176913285010E-006
 -9.299999999999999E-003    5.032119859201334E-006
 -9.200000000000000E-003    5.403193013706315E-006
 -9.099999999999999E-003    5.797657247913725E-006
 -8.999999999999999E-003    6.216778163053540E-006
 -8.900000000000000E-003    6.661822060627579E-006
 -8.799999999999999E-003    7.134054647756070E-006
 -8.699999999999999E-003    7.634744832708457E-006
 -8.600000000000000E-003    8.165176160168184E-006
 -8.499999999999999E-003    8.726660307212595E-006
 -8.399999999999999E-003    9.320555575922509E-006
 -8.300000000000000E-003    9.948290353959070E-006
 -8.199999999999999E-003    1.061138665481782E-005
 -8.100000000000000E-003    1.131148340406245E-005
 -8.000000000000000E-003    1.205036065800551E-005
 -7.899999999999999E-003    1.282996022816261E-005
 -7.800000000000000E-003    1.365240033877024E-005
 -7.699999999999999E-003    1.451998704369810E-005
 -7.599999999999999E-003    1.543522189189741E-005
 -7.499999999999999E-003    1.640079837535791E-005
 -7.399999999999999E-003    1.741959606980246E-005
 -7.299999999999999E-003    1.849467363642177E-005
 -7.199999999999999E-003    1.962924878636522E-005
 -7.100000000000000E-003    2.082668775010407E-005
 -6.999999999999999E-003    2.209048234113337E-005
 -6.899999999999999E-003    2.342424122979826E-005
 -6.800000000000000E-003    2.483167511593162E-005
 -6.699999999999999E-003    2.631659244761385E-005
 -6.599999999999999E-003    2.788289712163053E-005
 -6.499999999999999E-003    2.953459469793110E-005
 -6.399999999999999E-003    3.127581372305884E-005
 -6.299999999999999E-003    3.311082106823237E-005
 -6.199999999999999E-003    3.504405559956038E-005
 -6.100000000000000E-003    3.708015966259460E-005
 -5.999999999999999E-003    3.922401856016790E-005
 -5.899999999999999E-003    4.148081141179765E-005
 -5.800000000000000E-003    4.385603502023586E-005
 -5.699999999999999E-003    4.635555530168928E-005
 -5.599999999999999E-003    4.898563884841305E-005
 -5.499999999999999E-003    5.175297428348807E-005
 -5.399999999999999E-003    5.466470744698858E-005
 -5.299999999999999E-003    5.772844217139452E-005
 -5.199999999999999E-003    6.095224493739085E-005
 -5.099999999999999E-003    6.434464204055671E-005
 -4.999999999999999E-003    6.791460775440513E-005
 -4.899999999999999E-003    7.167154402725261E-005
 -4.799999999999999E-003    7.562527640423400E-005
 -4.699999999999999E-003    7.978600057693616E-005
 -4.599999999999999E-003    8.416428964917567E-005
 -4.499999999999999E-003    8.877107345988754E-005
 -4.399999999999999E-003    9.361762179271781E-005
 -4.299999999999999E-003    9.871554484027943E-005
 -4.199999999999999E-003    1.040768171186685E-004
 -4.099999999999999E-003    1.097137808006670E-004
 -3.999999999999999E-003    1.156391869111068E-004
 -3.899999999999999E-003    1.218662193712822E-004
 -3.799999999999999E-003    1.284085729859778E-004
 -3.699999999999999E-003    1.352804527390372E-004
 -3.599999999999999E-003    1.424966801067674E-004
 -3.499999999999999E-003    1.500727022932314E-004
 -3.399999999999999E-003    1.580246593759714E-004
 -3.299999999999999E-003    1.663693888580990E-004
 -3.199999999999999E-003    1.751245107890515E-004
 -3.099999999999999E-003    1.843083749444263E-004
 -2.999999999999999E-003    1.939401153051044E-004
 -2.899999999999999E-003    2.040395858211548E-004
 -2.799999999999999E-003    2.146274067229255E-004
 -2.699999999999999E-003    2.257248838233520E-004
 -2.599999999999999E-003    2.373539792205203E-004
 -2.499999999999999E-003    2.495373118746630E-004
 -2.399999999999999E-003    2.622981257991459E-004
 -2.299999999999999E-003    2.756602091607121E-004
 -2.199999999999999E-003    2.896479370548428E-004
 -2.099999999999999E-003    3.042862996399678E-004
 -1.999999999999999E-003    3.196008368891195E-004
 -1.899999999999999E-003    3.356177381598638E-004
 -1.799999999999999E-003    3.523638952462197E-004
 -1.699999999999999E-003    3.698669078220215E-004
 -1.599999999999999E-003    3.881552002661945E-004
 -1.499999999999999E-003    4.072581390358773E-004
 -1.399999999999999E-003    4.272060645688096E-004
 -1.299999999999999E-003    4.480304724450809E-004
 -1.199999999999999E-003    4.697640088742281E-004
 -1.099999999999999E-003    4.924405827741216E-004
 -9.999999999999989E-004    5.160955496432780E-004
 -8.999999999999990E-004    5.407655460637253E-004
 -7.999999999999990E-004    5.664887762658181E-004
 -6.999999999999989E-004    5.933048818513898E-004
 -5.999999999999990E-004    6.212550434554124E-004
 -4.999999999999989E-004    6.503819972710349E-004
 -3.999999999999989E-004    6.807299365436866E-004
 -2.999999999999989E-004    7.123445837670165E-004
 -1.999999999999989E-004    7.452731422975540E-004
 -9.999999999999892E-005    7.795643040607713E-004
  1.084202172485504E-018    8.152682603139157E-004
  1.000000000000011E-004    8.524366588227011E-004
  2.000000000000011E-004    8.911226030838703E-004
  3.000000000000011E-004    9.313807300748488E-004
  4.000000000000011E-004    9.732672180888365E-004
  5.000000000000011E-004    1.016839931939367E-003
  6.000000000000011E-004    1.062158321062358E-003
  7.000000000000011E-004    1.109283593787708E-003
  8.000000000000011E-004    1.158278772138499E-003
  9.000000000000012E-004    1.209208881668237E-003
  1.000000000000001E-003    1.262141004441414E-003
  1.100000000000001E-003    1.317144228480661E-003
  1.200000000000001E-003    1.374289754689201E-003
  1.300000000000001E-003    1.433651106451112E-003
  1.400000000000001E-003    1.495304019889687E-003
  1.500000000000001E-003    1.559326372291130E-003
  1.600000000000001E-003    1.625798409781109E-003
  1.700000000000001E-003    1.694802579354478E-003
  1.800000000000001E-003    1.766423477862776E-003
  1.900000000000001E-003    1.840747945029914E-003
  2.000000000000001E-003    1.917864803840246E-003
  2.100000000000001E-003    1.997865030743529E-003
  2.200000000000001E-003    2.080841350983977E-003
  2.300000000000001E-003    2.166888489896937E-003
  2.400000000000001E-003    2.256103245368313E-003
  2.500000000000001E-003    2.348583677516603E-003
  2.600000000000001E-003    2.444430091985589E-003
  2.700000000000001E-003    2.543744466214961E-003
  2.800000000000001E-003    2.646630445884804E-003
  2.900000000000001E-003    2.753193642771275E-003
  3.000000000000001E-003    2.863541299143998E-003
  3.100000000000001E-003    2.977782533690018E-003
  3.200000000000001E-003    3.096028292006118E-003
  3.300000000000001E-003    3.218391571510318E-003
  3.400000000000001E-003    3.344987135849909E-003
  3.500000000000001E-003    3.475931509851750E-003
  3.600000000000001E-003    3.611343319741823E-003
  3.700000000000001E-003    3.751343063873637E-003
  3.800000000000001E-003    3.896052764738284E-003
  3.900000000000001E-003    4.045596367148241E-003
  4.000000000000001E-003    4.200099642377157E-003
  4.100000000000001E-003    4.359689667415862E-003
  4.200000000000001E-003    4.524495469477685E-003
  4.300000000000001E-003    4.694646954559532E-003
  4.400000000000001E-003    4.870276106547072E-003
  4.500000000000001E-003    5.051515309378737E-003
  4.600000000000002E-003    5.238498951796308E-003
  4.700000000000001E-003    5.431362485531644E-003
  4.800000000000001E-003    5.630242760665031E-003
  4.900000000000002E-003    5.835277507558562E-003
  5.000000000000001E-003    6.046605985941662E-003
  5.100000000000001E-003    6.264368196141665E-003
  5.200000000000001E-003    6.488705687733961E-003
  5.300000000000002E-003    6.719760952453816E-003
  5.400000000000001E-003    6.957678292875418E-003
  5.500000000000001E-003    7.202602745799355E-003
  5.600000000000002E-003    7.454680544334154E-003
  5.700000000000001E-003    7.714059232875220E-003
  5.800000000000001E-003    7.980887813306341E-003
  5.900000000000002E-003    8.255315631603184E-003
  6.000000000000001E-003    8.537493998107205E-003
  6.100000000000001E-003    8.827575352574141E-003
  6.200000000000002E-003    9.125713091438154E-003
  6.300000000000002E-003    9.432060696559370E-003
  6.400000000000001E-003    9.746772861072331E-003
  6.500000000000001E-003    1.007000533521639E-002
  6.600000000000002E-003    1.040191503090660E-002
  6.700000000000001E-003    1.074265846315971E-002
  6.800000000000001E-003    1.109239344764181E-002
  6.900000000000002E-003    1.145127695586886E-002
  7.000000000000001E-003    1.181946871485962E-002
  7.100000000000001E-003    1.219712642787695E-002
  7.200000000000002E-003    1.258440820815154E-002
  7.300000000000002E-003    1.298147386830019E-002
  7.400000000000001E-003    1.338848122421625E-002
  7.500000000000001E-003    1.380558903961539E-002
  7.600000000000002E-003    1.423295621027950E-002
  7.700000000000001E-003    1.467074005783067E-002
  7.800000000000001E-003    1.511909808165780E-002
  7.900000000000001E-003    1.557818708690293E-002
  8.000000000000002E-003    1.604816336264597E-002
  8.100000000000001E-003    1.652918144921248E-002
  8.200000000000001E-003    1.702139659445052E-002
  8.300000000000002E-003    1.752496108418110E-002
  8.400000000000001E-003    1.804002495668234E-002
  8.500000000000002E-003    1.856673970944610E-002
  8.600000000000002E-003    1.910525323497844E-002
  8.700000000000001E-003    1.965571052782001E-002
  8.800000000000002E-003    2.021825589436205E-002
  8.900000000000002E-003    2.079303038885146E-002
  9.000000000000001E-003    2.138017446305285E-002
  9.100000000000002E-003    2.197982624785906E-002
  9.200000000000002E-003    2.259211795778615E-002
  9.300000000000001E-003    2.321718437585474E-002
  9.400000000000002E-003    2.385515205063496E-002
  9.500000000000001E-003    2.450614741262616E-002
  9.600000000000001E-003    2.517029421864995E-002
  9.700000000000002E-003    2.584771179984864E-002
  9.800000000000001E-003    2.653851792410004E-002
  9.900000000000001E-003    2.724282450022451E-002
  1.000000000000000E-002    2.796074215329656E-002
  1.010000000000000E-002    2.869237568337052E-002
  1.020000000000000E-002    2.943782735652262E-002
  1.030000000000000E-002    3.019719356696376E-002
  1.040000000000000E-002    3.097056765653859E-002
  1.050000000000000E-002    3.175803690325033E-002
  1.060000000000000E-002    3.255968776466218E-002
  1.070000000000000E-002    3.337559493897172E-002
  1.080000000000000E-002    3.420583423661044E-002
  1.090000000000000E-002    3.505047430812577E-002
  1.100000000000000E-002    3.590957923434752E-002
  1.110000000000000E-002    3.678320814771888E-002
  1.120000000000000E-002    3.767141320293239E-002
  1.130000000000000E-002    3.857424245717980E-002
  1.140000000000000E-002    3.949174118707867E-002
  1.150000000000000E-002    4.042394394642550E-002
  1.160000000000000E-002    4.137088649254286E-002
  1.170000000000000E-002    4.233260107643805E-002
  1.180000000000000E-002    4.330910699396957E-002
  1.190000000000000E-002    4.430042891335021E-002
  1.200000000000000E-002    4.530657787522711E-002
  1.210000000000000E-002    4.632757057960892E-002
  1.220000000000000E-002    4.736340723752662E-002
  1.230000000000000E-002    4.841409129658285E-002
  1.240000000000000E-002    4.947962073562455E-002
  1.250000000000000E-002    5.055998712267159E-002
  1.260000000000000E-002    5.165517842893517E-002
  1.270000000000000E-002    5.276517901031219E-002
  1.280000000000000E-002    5.388996869344311E-002
  1.290000000000000E-002    5.502952023908882E-002
  1.300000000000000E-002    5.618380064840665E-002
  1.310000000000000E-002    5.735277581585901E-002
  1.320000000000000E-002    5.853640483836427E-002
  1.330000000000000E-002    5.973464450134820E-002
  1.340000000000000E-002    6.094744871989285E-002
  1.350000000000000E-002    6.217476272835588E-002
  1.360000000000000E-002    6.341653439583202E-002
  1.370000000000000E-002    6.467270117628718E-002
  1.380000000000000E-002    6.594320013198826E-002
  1.390000000000000E-002    6.722796615292438E-002
  1.400000000000000E-002    6.852693857325903E-002
  1.410000000000000E-002    6.984003462943847E-002
  1.420000000000000E-002    7.116718640887758E-002
  1.430000000000000E-002    7.250832009903893E-002
  1.440000000000000E-002    7.386335666889619E-002
  1.450000000000000E-002    7.523221991723107E-002
  1.460000000000000E-002    7.661481459889884E-002
  1.470000000000000E-002    7.801106839558954E-002
  1.480000000000000E-002    7.942088721460670E-002
  1.490000000000000E-002    8.084418788963996E-002
  1.500000000000000E-002    8.228088110000358E-002
  1.510000000000000E-002    8.373087399379696E-002
  1.520000000000000E-002    8.519407176403739E-002
  1.530000000000000E-002    8.667037685687763E-002
  1.540000000000000E-002    8.815969854512795E-002
  1.550000000000000E-002    8.966194023028116E-002
  1.560000000000000E-002    9.117700374222656E-002
  1.570000000000000E-002    9.270479481493606E-002
  1.580000000000000E-002    9.424520585676478E-002
  1.590000000000000E-002    9.579815013680452E-002
  1.600000000000000E-002    9.736352300510534E-002
  1.610000000000000E-002    9.894122646967818E-002
  1.620000000000000E-002    0.100531165003394     
  1.630000000000000E-002    0.102133242371660     
  1.640000000000000E-002    0.103747356641424     
  1.650000000000000E-002    0.105373420081852     
  1.660000000000000E-002    0.107011330151454     
  1.670000000000000E-002    0.108660992735592     
  1.680000000000000E-002    0.110322316372130     
  1.690000000000000E-002    0.111995200141358     
  1.700000000000000E-002    0.113679559724738     
  1.710000000000000E-002    0.115375298061101     
  1.720000000000000E-002    0.117082325868662     
  1.730000000000000E-002    0.118800554864230     
  1.740000000000000E-002    0.120529892695397     
  1.750000000000000E-002    0.122270245683106     
  1.760000000000000E-002    0.124021521199115     
  1.770000000000000E-002    0.125783629672138     
  1.780000000000000E-002    0.127556471141676     
  1.790000000000000E-002    0.129339971150454     
  1.800000000000000E-002    0.131134023301640     
  1.810000000000000E-002    0.132938536912324     
  1.820000000000000E-002    0.134753413225929     
  1.830000000000000E-002    0.136578553441848     
  1.840000000000000E-002    0.138413862541569     
  1.850000000000000E-002    0.140259239009498     
  1.860000000000000E-002    0.142114569550762     
  1.870000000000000E-002    0.143979747266042     