 -4.000000000000000E-002    0.000000000000000E+000
 -3.990000000000000E-002    0.000000000000000E+000
 -3.980000000000000E-002    0.000000000000000E+000
 -3.970000000000000E-002    0.000000000000000E+000
 -3.960000000000000E-002    0.000000000000000E+000
 -3.950000000000000E-002    0.000000000000000E+000
 -3.940000000000000E-002    0.000000000000000E+000
 -3.930000000000000E-002    0.000000000000000E+000
 -3.920000000000000E-002    0.000000000000000E+000
 -3.910000000000000E-002    0.000000000000000E+000
 -3.900000000000000E-002    0.000000000000000E+000
 -3.890000000000000E-002    0.000000000000000E+000
 -3.880000000000000E-002    0.000000000000000E+000
 -3.870000000000000E-002    0.000000000000000E+000
 -3.860000000000000E-002    0.000000000000000E+000
 -3.850000000000000E-002    0.000000000000000E+000
 -3.840000000000000E-002    0.000000000000000E+000
 -3.830000000000000E-002    0.000000000000000E+000
 -3.820000000000000E-002    0.000000000000000E+000
 -3.810000000000000E-002    0.000000000000000E+000
 -3.800000000000000E-002    0.000000000000000E+000
 -3.790000000000000E-002    0.000000000000000E+000
 -3.780000000000000E-002    0.000000000000000E+000
 -3.770000000000000E-002    0.000000000000000E+000
 -3.760000000000000E-002    0.000000000000000E+000
 -3.750000000000000E-002    0.000000000000000E+000
 -3.740000000000000E-002    0.000000000000000E+000
 -3.730000000000000E-002    0.000000000000000E+000
 -3.720000000000000E-002    0.000000000000000E+000
 -3.710000000000000E-002    0.000000000000000E+000
 -3.700000000000000E-002    0.000000000000000E+000
 -3.690000000000000E-002    0.000000000000000E+000
 -3.680000000000000E-002    0.000000000000000E+000
 -3.670000000000000E-002    0.000000000000000E+000
 -3.660000000000000E-002    0.000000000000000E+000
 -3.650000000000000E-002    0.000000000000000E+000
 -3.640000000000000E-002    0.000000000000000E+000
 -3.630000000000000E-002    0.000000000000000E+000
 -3.620000000000000E-002    0.000000000000000E+000
 -3.610000000000000E-002    0.000000000000000E+000
 -3.600000000000000E-002    0.000000000000000E+000
 -3.590000000000000E-002    0.000000000000000E+000
 -3.580000000000000E-002    0.000000000000000E+000
 -3.570000000000000E-002    0.000000000000000E+000
 -3.560000000000000E-002    0.000000000000000E+000
 -3.550000000000000E-002    0.000000000000000E+000
 -3.540000000000000E-002    0.000000000000000E+000
 -3.530000000000000E-002    0.000000000000000E+000
 -3.520000000000000E-002    0.000000000000000E+000
 -3.510000000000000E-002    0.000000000000000E+000
 -3.500000000000000E-002    0.000000000000000E+000
 -3.490000000000000E-002    0.000000000000000E+000
 -3.480000000000000E-002    0.000000000000000E+000
 -3.470000000000000E-002    0.000000000000000E+000
 -3.460000000000000E-002    0.000000000000000E+000
 -3.450000000000000E-002    0.000000000000000E+000
 -3.440000000000000E-002    0.000000000000000E+000
 -3.430000000000000E-002    0.000000000000000E+000
 -3.420000000000000E-002    0.000000000000000E+000
 -3.410000000000000E-002    0.000000000000000E+000
 -3.400000000000000E-002    0.000000000000000E+000
 -3.390000000000000E-002    0.000000000000000E+000
 -3.380000000000000E-002    0.000000000000000E+000
 -3.370000000000000E-002    0.000000000000000E+000
 -3.360000000000000E-002    0.000000000000000E+000
 -3.350000000000000E-002    0.000000000000000E+000
 -3.340000000000000E-002    0.000000000000000E+000
 -3.330000000000000E-002    0.000000000000000E+000
 -3.320000000000000E-002    0.000000000000000E+000
 -3.310000000000000E-002    0.000000000000000E+000
 -3.300000000000000E-002    0.000000000000000E+000
 -3.290000000000000E-002    0.000000000000000E+000
 -3.280000000000000E-002    0.000000000000000E+000
 -3.270000000000000E-002    0.000000000000000E+000
 -3.260000000000000E-002    0.000000000000000E+000
 -3.250000000000000E-002    0.000000000000000E+000
 -3.240000000000000E-002    0.000000000000000E+000
 -3.230000000000000E-002    0.000000000000000E+000
 -3.220000000000000E-002    0.000000000000000E+000
 -3.210000000000000E-002    0.000000000000000E+000
 -3.200000000000000E-002    0.000000000000000E+000
 -3.190000000000000E-002    0.000000000000000E+000
 -3.180000000000000E-002    0.000000000000000E+000
 -3.170000000000000E-002    0.000000000000000E+000
 -3.160000000000000E-002    0.000000000000000E+000
 -3.150000000000000E-002    0.000000000000000E+000
 -3.140000000000000E-002    0.000000000000000E+000
 -3.130000000000000E-002    0.000000000000000E+000
 -3.120000000000000E-002    0.000000000000000E+000
 -3.110000000000000E-002    0.000000000000000E+000
 -3.100000000000000E-002    0.000000000000000E+000
 -3.090000000000000E-002    0.000000000000000E+000
 -3.080000000000000E-002    0.000000000000000E+000
 -3.070000000000000E-002    0.000000000000000E+000
 -3.060000000000000E-002    0.000000000000000E+000
 -3.050000000000000E-002    0.000000000000000E+000
 -3.040000000000000E-002    0.000000000000000E+000
 -3.030000000000000E-002    0.000000000000000E+000
 -3.020000000000000E-002    0.000000000000000E+000
 -3.010000000000000E-002    0.000000000000000E+000
 -3.000000000000000E-002    0.000000000000000E+000
 -2.990000000000000E-002    0.000000000000000E+000
 -2.980000000000000E-002    0.000000000000000E+000
 -2.970000000000000E-002    0.000000000000000E+000
 -2.960000000000000E-002    0.000000000000000E+000
 -2.950000000000000E-002    0.000000000000000E+000
 -2.940000000000000E-002    0.000000000000000E+000
 -2.930000000000000E-002    0.000000000000000E+000
 -2.920000000000000E-002    0.000000000000000E+000
 -2.910000000000000E-002    0.000000000000000E+000
 -2.900000000000000E-002    0.000000000000000E+000
 -2.890000000000000E-002    0.000000000000000E+000
 -2.880000000000000E-002    0.000000000000000E+000
 -2.870000000000000E-002    0.000000000000000E+000
 -2.860000000000000E-002    0.000000000000000E+000
 -2.850000000000000E-002    0.000000000000000E+000
 -2.840000000000000E-002    0.000000000000000E+000
 -2.830000000000000E-002    0.000000000000000E+000
 -2.820000000000000E-002    0.000000000000000E+000
 -2.810000000000000E-002    0.000000000000000E+000
 -2.800000000000000E-002    0.000000000000000E+000
 -2.790000000000000E-002    0.000000000000000E+000
 -2.780000000000000E-002    0.000000000000000E+000
 -2.770000000000000E-002    0.000000000000000E+000
 -2.760000000000000E-002    0.000000000000000E+000
 -2.750000000000000E-002    0.000000000000000E+000
 -2.740000000000000E-002    0.000000000000000E+000
 -2.730000000000000E-002    0.000000000000000E+000
 -2.720000000000000E-002    0.000000000000000E+000
 -2.710000000000000E-002    0.000000000000000E+000
 -2.700000000000000E-002    0.000000000000000E+000
 -2.690000000000000E-002    0.000000000000000E+000
 -2.680000000000000E-002    0.000000000000000E+000
 -2.670000000000000E-002    0.000000000000000E+000
 -2.660000000000000E-002    0.000000000000000E+000
 -2.650000000000000E-002    0.000000000000000E+000
 -2.640000000000000E-002    0.000000000000000E+000
 -2.630000000000000E-002    0.000000000000000E+000
 -2.620000000000000E-002    0.000000000000000E+000
 -2.610000000000000E-002    0.000000000000000E+000
 -2.600000000000000E-002    0.000000000000000E+000
 -2.590000000000000E-002    0.000000000000000E+000
 -2.580000000000000E-002    0.000000000000000E+000
 -2.570000000000000E-002    0.000000000000000E+000
 -2.560000000000000E-002    0.000000000000000E+000
 -2.550000000000000E-002    0.000000000000000E+000
 -2.540000000000000E-002    0.000000000000000E+000
 -2.530000000000000E-002    0.000000000000000E+000
 -2.520000000000000E-002    0.000000000000000E+000
 -2.510000000000000E-002    0.000000000000000E+000
 -2.500000000000000E-002    0.000000000000000E+000
 -2.490000000000000E-002    0.000000000000000E+000
 -2.480000000000000E-002    0.000000000000000E+000
 -2.470000000000000E-002    0.000000000000000E+000
 -2.460000000000000E-002    0.000000000000000E+000
 -2.450000000000000E-002    0.000000000000000E+000
 -2.440000000000000E-002    0.000000000000000E+000
 -2.430000000000000E-002    0.000000000000000E+000
 -2.420000000000000E-002    0.000000000000000E+000
 -2.410000000000000E-002    0.000000000000000E+000
 -2.400000000000000E-002    0.000000000000000E+000
 -2.390000000000000E-002    0.000000000000000E+000
 -2.380000000000000E-002    0.000000000000000E+000
 -2.370000000000000E-002    0.000000000000000E+000
 -2.360000000000000E-002    0.000000000000000E+000
 -2.350000000000000E-002    0.000000000000000E+000
 -2.340000000000000E-002    0.000000000000000E+000
 -2.330000000000000E-002   -1.872547055212745E-048
 -2.320000000000000E-002   -5.617641165638235E-048
 -2.310000000000000E-002   -9.362735276063725E-048
 -2.300000000000000E-002   -1.860063417276847E-047
 -2.290000000000000E-002   -2.409343895904772E-047
 -2.280000000000000E-002   -2.046474171973122E-047
 -2.270000000000000E-002   -5.532654162226429E-048
 -2.260000000000000E-002    2.425497345762134E-047
 -2.250000000000000E-002    7.271134323714939E-047
 -2.240000000000000E-002    1.481653526521139E-046
 -2.230000000000000E-002    2.762340445929430E-046
 -2.220000000000000E-002    3.786550770252456E-046
 -2.210000000000000E-002    4.581725518689097E-046
 -2.200000000000000E-002    5.317553460754903E-046
 -2.190000000000000E-002    4.963163837594319E-046
 -2.180000000000000E-002    3.463851052651532E-046
 -2.170000000000000E-002   -1.040625544915394E-046
 -2.160000000000000E-002   -6.899519769367729E-046
 -2.150000000000000E-002   -1.596039281093210E-045
 -2.140000000000000E-002   -2.666816864150306E-045
 -2.130000000000000E-002   -3.894190730534667E-045
 -2.120000000000000E-002   -5.425463309808371E-045
 -2.110000000000000E-002   -5.991191941371176E-045
 -2.100000000000000E-002   -6.051840090055661E-045
 -2.090000000000000E-002   -5.870921930211288E-045
 -2.080000000000000E-002   -4.282573595143914E-045
 -2.070000000000000E-002   -2.428202708413087E-045
 -2.060000000000000E-002    9.546305736978737E-046
 -2.050000000000000E-002    5.844972039572638E-045
 -2.040000000000000E-002    1.180864968279114E-044
 -2.030000000000000E-002    1.843225807529741E-044
 -2.020000000000000E-002    2.700616758703900E-044
 -2.010000000000000E-002    3.808155487707222E-044
 -2.000000000000000E-002    5.345892425375259E-044
 -1.990000000000000E-002    7.521714166501736E-044
 -1.980000000000000E-002    1.014308771228040E-043
 -1.970000000000000E-002    1.313661984360863E-043
 -1.960000000000000E-002    1.588291344563233E-043
 -1.950000000000000E-002    1.714956690514237E-043
 -1.940000000000000E-002    1.513391565708384E-043
 -1.930000000000000E-002    7.371674206107120E-044
 -1.920000000000000E-002   -9.022388500170454E-044
 -1.910000000000000E-002   -3.670334907643103E-043
 -1.900000000000000E-002   -7.709917757446949E-043
 -1.890000000000000E-002   -1.289086433241352E-042
 -1.880000000000000E-002   -1.865960779795140E-042
 -1.870000000000000E-002   -2.389950615548052E-042
 -1.860000000000000E-002   -2.682329924191649E-042
 -1.850000000000000E-002   -2.505364785011657E-042
 -1.840000000000000E-002   -1.584791545082386E-042
 -1.830000000000000E-002    3.348009047608755E-043
 -1.820000000000000E-002    3.408464704513331E-042
 -1.810000000000000E-002    7.580855751258429E-042
 -1.800000000000000E-002    1.246525940914900E-041
 -1.790000000000000E-002    1.723690810741556E-041
 -1.780000000000000E-002    2.058488045871941E-041
 -1.770000000000000E-002    2.075675553022766E-041
 -1.760000000000000E-002    1.576766796724408E-041
 -1.750000000000000E-002    3.785333550183669E-042
 -1.740000000000000E-002   -1.627280675990099E-041
 -1.730000000000000E-002   -4.399641494566714E-041
 -1.720000000000000E-002   -7.667686242632990E-041
 -1.710000000000000E-002   -1.086487597450456E-040
 -1.700000000000000E-002   -1.310101195293044E-040
 -1.690000000000000E-002   -1.320536273376648E-040
 -1.680000000000000E-002   -9.867722869929799E-041
 -1.670000000000000E-002   -1.900779825822480E-041
 -1.660000000000000E-002    1.137737996998370E-040
 -1.650000000000000E-002    2.966890025145301E-040
 -1.640000000000000E-002    5.120096111865456E-040
 -1.630000000000000E-002    7.232325931454938E-040
 -1.620000000000000E-002    8.735489081907793E-040
 -1.610000000000000E-002    8.885540959453700E-040
 -1.600000000000000E-002    6.848845858925910E-040
 -1.590000000000000E-002    1.858730682440522E-040
 -1.580000000000000E-002   -6.558223485360855E-040
 -1.570000000000000E-002   -1.830408049140746E-039
 -1.560000000000000E-002   -3.241950355991231E-039
 -1.550000000000000E-002   -4.684532937926068E-039
 -1.540000000000000E-002   -5.832000811699883E-039
 -1.530000000000000E-002   -6.250745808544713E-039
 -1.520000000000000E-002   -5.444356830539657E-039
 -1.510000000000000E-002   -2.935868703842947E-039
 -1.500000000000000E-002    1.612601753474658E-039
 -1.490000000000000E-002    8.251815405254007E-039
 -1.480000000000000E-002    1.658890491718599E-038
 -1.470000000000000E-002    2.565386720052326E-038
 -1.460000000000000E-002    3.383032717919142E-038
 -1.450000000000000E-002    3.889677418767461E-038
 -1.440000000000000E-002    3.822118541597416E-038
 -1.430000000000000E-002    2.913752122422748E-038
 -1.420000000000000E-002    9.505091955453827E-039
 -1.410000000000000E-002   -2.158812233109374E-038
 -1.400000000000000E-002   -6.306642111849579E-038
 -1.390000000000000E-002   -1.111908793702735E-037
 -1.380000000000000E-002   -1.591498750288377E-037
 -1.370000000000000E-002   -1.971194900046184E-037
 -1.360000000000000E-002   -2.129840285916138E-037
 -1.350000000000000E-002   -1.938458469302883E-037
 -1.340000000000000E-002   -1.283396423322518E-037
 -1.330000000000000E-002   -9.601229114884968E-039
 -1.320000000000000E-002    1.614592784713319E-037
 -1.310000000000000E-002    3.731371399229679E-037
 -1.300000000000000E-002    6.008932999960263E-037
 -1.290000000000000E-002    8.071090662480464E-037
 -1.280000000000000E-002    9.433942546044496E-037
 -1.270000000000000E-002    9.559740224772166E-037
 -1.260000000000000E-002    7.942450208709314E-037
 -1.250000000000000E-002    4.219707507534794E-037
 -1.240000000000000E-002   -1.701581016264744E-037
 -1.230000000000000E-002   -9.526248931642079E-037
 -1.220000000000000E-002   -1.848495812628271E-036
 -1.210000000000000E-002   -2.731070806692941E-036
 -1.200000000000000E-002   -3.430502073662824E-036
 -1.190000000000000E-002   -3.751264077599302E-036
 -1.180000000000000E-002   -3.500820929552089E-036
 -1.170000000000000E-002   -2.527700067755226E-036
 -1.160000000000000E-002   -7.646529629294436E-037
 -1.150000000000000E-002    1.729904781538566E-036
 -1.140000000000000E-002    4.740964445909819E-036
 -1.130000000000000E-002    7.886118156115442E-036
 -1.120000000000000E-002    1.063363773584585E-035
 -1.110000000000000E-002    1.235529413439244E-035
 -1.100000000000000E-002    1.241470109391037E-035
 -1.090000000000000E-002    1.028511531366435E-035
 -1.080000000000000E-002    5.682784979670414E-036
 -1.070000000000000E-002   -1.305529277535195E-036
 -1.060000000000000E-002   -1.012774365629638E-035
 -1.050000000000000E-002   -1.973292604004853E-035
 -1.040000000000000E-002   -2.862405447342517E-035
 -1.030000000000000E-002   -3.501225869399661E-035
 -1.020000000000000E-002   -3.707179754834718E-035
 -1.010000000000000E-002   -3.327451910950737E-035
 -1.000000000000000E-002   -2.276010328908158E-035
 -9.899999999999999E-003   -5.678364245897037E-036
 -9.800000000000000E-003    1.657288956042209E-035
 -9.699999999999999E-003    4.129166339966885E-035
 -9.599999999999999E-003    6.465930417051967E-035
 -9.500000000000000E-003    8.220095110299035E-035
 -9.399999999999999E-003    8.949974663864408E-035
 -9.299999999999999E-003    8.308683428511426E-035
 -9.200000000000000E-003    6.136960111309757E-035
 -9.099999999999999E-003    2.541289438891022E-035
 -8.999999999999999E-003   -2.063439959732579E-035
 -8.900000000000000E-003   -6.965942164338449E-035
 -8.799999999999999E-003   -1.123820457945872E-034
 -8.699999999999999E-003   -1.388497717986236E-034
 -8.600000000000000E-003   -1.405059962328959E-034
 -8.499999999999999E-003   -1.125424750395093E-034
 -8.399999999999999E-003   -5.609621859051801E-035
 -8.300000000000000E-003    2.025309225096643E-035
 -8.199999999999999E-003    1.002445176017409E-034
 -8.100000000000000E-003    1.614165550269438E-034
 -8.000000000000000E-003    1.785368987342623E-034
 -7.899999999999999E-003    1.288574919300153E-034
 -7.800000000000000E-003   -1.367500252650519E-036
 -7.699999999999999E-003   -2.101209846900341E-034
 -7.599999999999999E-003   -4.740289782545512E-034
 -7.499999999999999E-003   -7.455554858895331E-034
 -7.399999999999999E-003   -9.545539965866126E-034
 -7.299999999999999E-003   -1.015345064218115E-033
 -7.199999999999999E-003   -8.397282688811466E-034
 -7.100000000000000E-003   -3.552556188964654E-034
 -6.999999999999999E-003    4.731857693486381E-034
 -6.899999999999999E-003    1.621714475738520E-033
 -6.800000000000000E-003    2.989987490805696E-033
 -6.699999999999999E-003    4.392707630556244E-033
 -6.599999999999999E-003    5.564637867032619E-033
 -6.499999999999999E-003    6.182475701200774E-033
 -6.399999999999999E-003    5.904802668082876E-033
 -6.299999999999999E-003    4.428368805801264E-033
 -6.199999999999999E-003    1.555526916915361E-033
 -6.100000000000000E-003   -2.735798431991528E-033
 -5.999999999999999E-003   -8.231016642420451E-033
 -5.899999999999999E-003   -1.443957346247992E-032
 -5.800000000000000E-003   -2.059004217290042E-032
 -5.699999999999999E-003   -2.566965342955134E-032
 -5.599999999999999E-003   -2.851351902212561E-032
 -5.499999999999999E-003   -2.794208951416950E-032
 -5.399999999999999E-003   -2.293749907139218E-032
 -5.299999999999999E-003   -1.284139144399641E-032
 -5.199999999999999E-003    2.450027481838556E-033
 -5.099999999999999E-003    2.232247495842615E-032
 -4.999999999999999E-003    4.534137375444138E-032
 -4.899999999999999E-003    6.923761320593913E-032
 -4.799999999999999E-003    9.100076240959307E-032
 -4.699999999999999E-003    1.070885196135609E-031
 -4.599999999999999E-003    1.137481391825628E-031
 -4.499999999999999E-003    1.074320316543952E-031
 -4.399999999999999E-003    8.527707114729269E-032
 -4.299999999999999E-003    4.560732594003332E-032
 -4.199999999999999E-003   -1.158659041307735E-032
 -4.099999999999999E-003   -8.424093075306605E-032
 -3.999999999999999E-003   -1.679338631232318E-031
 -3.899999999999999E-003   -2.557685797566219E-031
 -3.799999999999999E-003   -3.384676350817793E-031
 -3.699999999999999E-003   -4.047186999043264E-031
 -3.599999999999999E-003   -4.418082212460956E-031
 -3.499999999999999E-003   -4.365745170338583E-031
 -3.399999999999999E-003   -3.766997489525543E-031
 -3.299999999999999E-003   -2.523386897092034E-031
 -3.199999999999999E-003   -5.804315528993593E-032
 -3.099999999999999E-003    2.051163650619941E-031
 -2.999999999999999E-003    5.274104638759184E-031
 -2.899999999999999E-003    8.885634259828091E-031
 -2.799999999999999E-003    1.256489147736455E-030
 -2.699999999999999E-003    1.587102575092041E-030
 -2.599999999999999E-003    1.825697861450657E-030
 -2.499999999999999E-003    1.910355295797804E-030
 -2.399999999999999E-003    1.777705920992834E-030
 -2.299999999999999E-003    1.371137154248901E-030
 -2.199999999999999E-003    6.511493311559353E-031
 -2.099999999999999E-003   -3.928982057166826E-031
 -1.999999999999999E-003   -1.730944440461252E-030
 -1.899999999999999E-003   -3.282090761417630E-030
 -1.799999999999999E-003   -4.908371843260768E-030
 -1.699999999999999E-003   -6.414795779485461E-030
 -1.599999999999999E-003   -7.557849904890388E-030
 -1.499999999999999E-003   -8.064066240551071E-030
 -1.399999999999999E-003   -7.659191744527592E-030
 -1.299999999999999E-003   -6.107013095578643E-030
 -1.199999999999999E-003   -3.255077682998172E-030
 -1.099999999999999E-003    9.173675300590870E-031
 -9.999999999999989E-004    6.255680726776820E-030
 -8.999999999999990E-004    1.239810422662927E-029
 -7.999999999999990E-004    1.876420514952275E-029
 -6.999999999999989E-004    2.457098520235965E-029
 -5.999999999999990E-004    2.888217454691337E-029
 -4.999999999999989E-004    3.069283615169842E-029
 -3.999999999999989E-004    2.904689660294215E-029
 -2.999999999999989E-004    2.317980585084652E-029
 -1.999999999999989E-004    1.267304258808890E-029
 -9.999999999999892E-005   -2.397831540562356E-030
  1.084202172485504E-018   -2.134338288235240E-029
  1.000000000000011E-004   -4.279187069367687E-029
  2.000000000000011E-004   -6.469361831478627E-029
  3.000000000000011E-004   -8.441469381059752E-029
  4.000000000000011E-004   -9.892813158518114E-029
  5.000000000000011E-004   -1.051000333098353E-028
  6.000000000000011E-004   -1.000549185704334E-028
  7.000000000000011E-004   -8.159145218365673E-029
  8.000000000000011E-004   -4.860772660111412E-029
  9.000000000000012E-004   -1.485867792261295E-030
  1.000000000000001E-003    5.761855573155708E-029
  1.100000000000001E-003    1.246356171634012E-028
  1.200000000000001E-003    1.936342363756674E-028
  1.300000000000001E-003    2.571006958871171E-028
  1.400000000000001E-003    3.064534214771121E-028
  1.500000000000001E-003    3.327810160993930E-028
  1.600000000000001E-003    3.277644528243654E-028
  1.700000000000001E-003    2.847173729562273E-028
  1.800000000000001E-003    1.996576567854209E-028
  1.900000000000001E-003    7.230395227816107E-029
  2.000000000000001E-003   -9.311678145209752E-029
  2.100000000000001E-003   -2.873659070540794E-028
  2.200000000000001E-003   -4.960993994088044E-028
  2.300000000000001E-003   -7.002689737983336E-028
  2.400000000000001E-003   -8.770740701383475E-028
  2.500000000000001E-003   -1.001481348940626E-027
  2.600000000000001E-003   -1.048282518081017E-027
  2.700000000000001E-003   -9.946080712064312E-028
  2.800000000000001E-003   -8.227589589395841E-028
  2.900000000000001E-003   -5.231592165689247E-028
  3.000000000000001E-003   -9.717884858819011E-029
  3.100000000000001E-003    4.404724353993788E-028
  3.200000000000001E-003    1.060113027598928E-027
  3.300000000000001E-003    1.716565059822553E-027
  3.400000000000001E-003    2.350063350518728E-027
  3.500000000000001E-003    2.888873419812497E-027
  3.600000000000001E-003    3.253788196774506E-027
  3.700000000000001E-003    3.364528262830744E-027
  3.800000000000001E-003    3.147871941651452E-027
  3.900000000000001E-003    2.547107437819626E-027
  4.000000000000001E-003    1.532139628478310E-027
  4.100000000000001E-003    1.093244261491693E-028
  4.200000000000001E-003   -1.670115120693380E-027
  4.300000000000001E-003   -3.704398055860061E-027
  4.400000000000001E-003   -5.839551592591769E-027
  4.500000000000001E-003   -7.873082749169775E-027
  4.600000000000002E-003   -9.563889735381126E-027
  4.700000000000001E-003   -1.064889984747851E-026
  4.800000000000001E-003   -1.086625557290494E-026
  4.900000000000002E-003   -9.984073923632552E-027
  5.000000000000001E-003   -7.832921327037578E-027
  5.100000000000001E-003   -4.339266604322876E-027
  5.200000000000001E-003    4.435982619225892E-028
  5.300000000000002E-003    6.311240876791406E-027
  5.400000000000001E-003    1.289462159739898E-026
  5.500000000000001E-003    1.966152852890305E-026
  5.600000000000002E-003    2.593616159867841E-026
  5.700000000000001E-003    3.093886405067109E-026
  5.800000000000001E-003    3.384618183858080E-026
  5.900000000000002E-003    3.386921734214234E-026
  6.000000000000001E-003    3.034580542503570E-026
  6.100000000000001E-003    2.283956134737532E-026
  6.200000000000002E-003    1.123661729102741E-026
  6.300000000000002E-003   -4.170832649302532E-027
  6.400000000000001E-003   -2.262590250614095E-026
  6.500000000000001E-003   -4.288484428567831E-026
  6.600000000000002E-003   -6.324138450248910E-026
  6.700000000000001E-003   -8.160477749869022E-026
  6.800000000000001E-003   -9.563463380013634E-026
  6.900000000000002E-003   -1.029303085356755E-025
  7.000000000000001E-003   -1.012665525931773E-025
  7.100000000000001E-003   -8.886055981106838E-026
  7.200000000000002E-003   -6.464951573579525E-026
  7.300000000000002E-003   -2.855225502272159E-026
  7.400000000000001E-003    1.831491309381479E-026
  7.500000000000001E-003    7.349964148451074E-026
  7.600000000000002E-003    1.331820715663711E-025
  7.700000000000001E-003    1.922757173937952E-025
  7.800000000000001E-003    2.446774993148281E-025
  7.900000000000001E-003    2.836723211349813E-025
  8.000000000000002E-003    3.024831089219223E-025
  8.100000000000001E-003    2.949408153536724E-025
  8.200000000000001E-003    2.562317843862210E-025
  8.300000000000002E-003    1.836631900168092E-025
  8.400000000000001E-003    7.737375473444934E-026
  8.500000000000002E-003   -5.909284068570920E-026
  8.600000000000002E-003   -2.184375015569578E-025
  8.700000000000001E-003   -3.895590220871161E-025
  8.800000000000002E-003   -5.578780650606764E-025
  8.900000000000002E-003   -7.060762004258125E-025
  9.000000000000001E-003   -8.152598685441207E-025
  9.100000000000002E-003   -8.665216783586375E-025
  9.200000000000002E-003   -8.428221505729735E-025
  9.300000000000001E-003   -7.310702028213646E-025
  9.400000000000002E-003   -5.242336065659733E-025
  9.500000000000001E-003   -2.232743077002739E-025
  9.600000000000001E-003    1.613219910295447E-025
  9.700000000000002E-003    6.086575018089313E-025
  9.800000000000001E-003    1.087395018489058E-024
  9.900000000000001E-003    1.556767755515024E-024
  1.000000000000000E-002    1.968734444227007E-024
  1.010000000000000E-002    2.271293204494611E-024
  1.020000000000000E-002    2.412851549482746E-024
  1.030000000000000E-002    2.347425206355080E-024
  1.040000000000000E-002    2.040305361642042E-024
  1.050000000000000E-002    1.473719708591889E-024
  1.060000000000000E-002    6.519143170226450E-025
  1.070000000000000E-002   -3.949648369762055E-025
  1.080000000000000E-002   -1.608816038555469E-024
  1.090000000000000E-002   -2.903907621900993E-024
  1.100000000000000E-002   -4.170013777460312E-024
  1.110000000000000E-002   -5.278579932909997E-024
  1.120000000000000E-002   -6.091876446933889E-024
  1.130000000000000E-002   -6.474788404663332E-024
  1.140000000000000E-002   -6.308561529346119E-024
  1.150000000000000E-002   -5.505492700442289E-024
  1.160000000000000E-002   -4.023283018504339E-024
  1.170000000000000E-002   -1.877569029909963E-024
  1.180000000000000E-002    8.489474552531138E-025
  1.190000000000000E-002    4.002279630818103E-024
  1.200000000000000E-002    7.359146944692911E-024
  1.210000000000000E-002    1.063608295527706E-023
  1.220000000000000E-002    1.350602025402430E-023
  1.230000000000000E-002    1.562204751368758E-023
  1.240000000000000E-002    1.664725979778716E-023
  1.250000000000000E-002    1.628885048323971E-023
  1.260000000000000E-002    1.433387161996177E-023
  1.270000000000000E-002    1.068348571165526E-023
  1.280000000000000E-002    5.382146314966687E-024
  1.290000000000000E-002   -1.361938615828882E-024
  1.300000000000000E-002   -9.168489393130660E-024
  1.310000000000000E-002   -1.749177490665520E-023
  1.320000000000000E-002   -2.564402642215293E-023
  1.330000000000000E-002   -3.283616476604228E-023
  1.340000000000000E-002   -3.823482049307780E-023
  1.350000000000000E-002   -4.103293884405642E-023
  1.360000000000000E-002   -4.052949879542932E-023
  1.370000000000000E-002   -3.621236211646054E-023
  1.380000000000000E-002   -2.783701426300071E-023
  1.390000000000000E-002   -1.549319756158578E-023
  1.400000000000000E-002    3.486939050654156E-025
  1.410000000000000E-002    1.881899216945672E-023
  1.420000000000000E-002    3.866402588776159E-023
  1.430000000000000E-002    5.829922087225226E-023
  1.440000000000000E-002    7.590116685057053E-023
  1.450000000000000E-002    8.953625215442447E-023
  1.460000000000000E-002    9.731985057665386E-023
  1.470000000000000E-002    9.759619721689471E-023
  1.480000000000000E-002    8.912577054136408E-023
  1.490000000000000E-002    7.126410978006646E-023
  1.500000000000000E-002    4.411444332348190E-023
  1.510000000000000E-002    8.636044010783425E-024
  1.520000000000000E-002   -3.330844420359441E-023
  1.530000000000000E-002   -7.898047105263887E-023
  1.540000000000000E-002   -1.248769077855912E-022
  1.550000000000000E-002   -1.669278903571579E-022
  1.560000000000000E-002   -2.007764845151357E-022
  1.570000000000000E-002   -2.221271588352775E-022
  1.580000000000000E-002   -2.271417220326731E-022
  1.590000000000000E-002   -2.128538884511384E-022
  1.600000000000000E-002   -1.775675068027475E-022
  1.610000000000000E-002   -1.211999893861197E-022
  1.620000000000000E-002   -4.553144986039909E-023
  1.630000000000000E-002    4.567707340372954E-023
  1.640000000000000E-002    1.467257476249105E-022
  1.650000000000000E-002    2.501984988976971E-022
  1.660000000000000E-002    3.473715321740657E-022
  1.670000000000000E-002    4.287976492514108E-022
  1.680000000000000E-002    4.850389795068948E-022
  1.690000000000000E-002    5.075027380277386E-022
  1.700000000000000E-002    4.893199344447465E-022
  1.710000000000000E-002    4.261938222931715E-022
  1.720000000000000E-002    3.171387056877505E-022
  1.730000000000000E-002    1.650280672644526E-022
  1.740000000000000E-002   -2.312228024128705E-023
  1.750000000000000E-002   -2.361962463769336E-022
  1.760000000000000E-002   -4.593845572776871E-022
  1.770000000000000E-002   -6.749684561044184E-022
  1.780000000000000E-002   -8.634605909558069E-022
  1.790000000000000E-002   -1.005049353736816E-021
  1.800000000000000E-002   -1.081259952482776E-021
  1.810000000000000E-002   -1.076714838660944E-021
  1.820000000000000E-002   -9.808546876714367E-022
  1.830000000000000E-002   -7.894655991971638E-022
  1.840000000000000E-002   -5.058581618189316E-022
  1.850000000000000E-002   -1.415542102816054E-022
  1.860000000000000E-002    2.836376659212821E-022
  1.870000000000000E-002    7.422383548838232E-022