 -4.000000000000000E-002    0.000000000000000E+000
 -3.990000000000000E-002    0.000000000000000E+000
 -3.980000000000000E-002    0.000000000000000E+000
 -3.970000000000000E-002    0.000000000000000E+000
 -3.960000000000000E-002    0.000000000000000E+000
 -3.950000000000000E-002    0.000000000000000E+000
 -3.940000000000000E-002    0.000000000000000E+000
 -3.930000000000000E-002    0.000000000000000E+000
 -3.920000000000000E-002    0.000000000000000E+000
 -3.910000000000000E-002    0.000000000000000E+000
 -3.900000000000000E-002    0.000000000000000E+000
 -3.890000000000000E-002    0.000000000000000E+000
 -3.880000000000000E-002    0.000000000000000E+000
 -3.870000000000000E-002    0.000000000000000E+000
 -3.860000000000000E-002    0.000000000000000E+000
 -3.850000000000000E-002    0.000000000000000E+000
 -3.840000000000000E-002    0.000000000000000E+000
 -3.830000000000000E-002    0.000000000000000E+000
 -3.820000000000000E-002    0.000000000000000E+000
 -3.810000000000000E-002    0.000000000000000E+000
 -3.800000000000000E-002    0.000000000000000E+000
 -3.790000000000000E-002    0.000000000000000E+000
 -3.780000000000000E-002    0.000000000000000E+000
 -3.770000000000000E-002    0.000000000000000E+000
 -3.760000000000000E-002    0.000000000000000E+000
 -3.750000000000000E-002    0.000000000000000E+000
 -3.740000000000000E-002    0.000000000000000E+000
 -3.730000000000000E-002    0.000000000000000E+000
 -3.720000000000000E-002    0.000000000000000E+000
 -3.710000000000000E-002    0.000000000000000E+000
 -3.700000000000000E-002    0.000000000000000E+000
 -3.690000000000000E-002    0.000000000000000E+000
 -3.680000000000000E-002    0.000000000000000E+000
 -3.670000000000000E-002    0.000000000000000E+000
 -3.660000000000000E-002    0.000000000000000E+000
 -3.650000000000000E-002    0.000000000000000E+000
 -3.640000000000000E-002    0.000000000000000E+000
 -3.630000000000000E-002    0.000000000000000E+000
 -3.620000000000000E-002    0.000000000000000E+000
 -3.610000000000000E-002    0.000000000000000E+000
 -3.600000000000000E-002    0.000000000000000E+000
 -3.590000000000000E-002    0.000000000000000E+000
 -3.580000000000000E-002    0.000000000000000E+000
 -3.570000000000000E-002    0.000000000000000E+000
 -3.560000000000000E-002    0.000000000000000E+000
 -3.550000000000000E-002    0.000000000000000E+000
 -3.540000000000000E-002    0.000000000000000E+000
 -3.530000000000000E-002    0.000000000000000E+000
 -3.520000000000000E-002    0.000000000000000E+000
 -3.510000000000000E-002    0.000000000000000E+000
 -3.500000000000000E-002    0.000000000000000E+000
 -3.490000000000000E-002    0.000000000000000E+000
 -3.480000000000000E-002    0.000000000000000E+000
 -3.470000000000000E-002    0.000000000000000E+000
 -3.460000000000000E-002    0.000000000000000E+000
 -3.450000000000000E-002    0.000000000000000E+000
 -3.440000000000000E-002    0.000000000000000E+000
 -3.430000000000000E-002    0.000000000000000E+000
 -3.420000000000000E-002    0.000000000000000E+000
 -3.410000000000000E-002    0.000000000000000E+000
 -3.400000000000000E-002    0.000000000000000E+000
 -3.390000000000000E-002    0.000000000000000E+000
 -3.380000000000000E-002    0.000000000000000E+000
 -3.370000000000000E-002   -1.690416674957506E-047
 -3.360000000000000E-002   -4.554350462051140E-047
 -3.350000000000000E-002   -1.965339853618295E-046
 -3.340000000000000E-002   -5.100405148918907E-046
 -3.330000000000000E-002   -9.276957392561081E-046
 -3.320000000000000E-002   -1.502342064644414E-045
 -3.310000000000000E-002   -2.178046045532396E-045
 -3.300000000000000E-002   -2.629534625573529E-045
 -3.290000000000000E-002   -2.960632526901173E-045
 -3.280000000000000E-002   -2.471190245409857E-045
 -3.270000000000000E-002    1.995320643359186E-047
 -3.260000000000000E-002    5.405857120133291E-045
 -3.250000000000000E-002    1.856509134494555E-044
 -3.240000000000000E-002    4.388140124690265E-044
 -3.230000000000000E-002    8.862197193388746E-044
 -3.220000000000000E-002    1.644971443036611E-043
 -3.210000000000000E-002    2.827130957455782E-043
 -3.200000000000000E-002    4.547867467535107E-043
 -3.190000000000000E-002    6.863022594930528E-043
 -3.180000000000000E-002    9.631899611088655E-043
 -3.170000000000000E-002    1.236574756049947E-042
 -3.160000000000000E-002    1.387095477666075E-042
 -3.150000000000000E-002    1.187608455054614E-042
 -3.140000000000000E-002    2.436184000181896E-043
 -3.130000000000000E-002   -2.064679426249987E-042
 -3.120000000000000E-002   -6.635710886758552E-042
 -3.110000000000000E-002   -1.464952560790387E-041
 -3.100000000000000E-002   -2.748789797190206E-041
 -3.090000000000000E-002   -4.646545532862693E-041
 -3.080000000000000E-002   -7.228385467970930E-041
 -3.070000000000000E-002   -1.040659884656184E-040
 -3.060000000000000E-002   -1.378398723552093E-040
 -3.050000000000000E-002   -1.643943918965559E-040
 -3.040000000000000E-002   -1.665382709719875E-040
 -3.030000000000000E-002   -1.160462731166641E-040
 -3.020000000000000E-002    2.903826207868268E-041
 -3.010000000000000E-002    3.255094370427309E-040
 -3.000000000000000E-002    8.425455872807742E-040
 -2.990000000000000E-002    1.652893647130300E-039
 -2.980000000000000E-002    2.814173145206598E-039
 -2.970000000000000E-002    4.336391821533230E-039
 -2.960000000000000E-002    6.132291157173821E-039
 -2.950000000000000E-002    7.949042058876233E-039
 -2.940000000000000E-002    9.283963285443447E-039
 -2.930000000000000E-002    9.293901590147594E-039
 -2.920000000000000E-002    6.718237282978862E-039
 -2.910000000000000E-002   -1.510286316219253E-040
 -2.900000000000000E-002   -1.340301951139916E-038
 -2.890000000000000E-002   -3.528137896357630E-038
 -2.880000000000000E-002   -6.772305190049223E-038
 -2.870000000000000E-002   -1.115897717807952E-037
 -2.860000000000000E-002   -1.655415878469858E-037
 -2.850000000000000E-002   -2.245541663832410E-037
 -2.840000000000000E-002   -2.781736835106401E-037
 -2.830000000000000E-002   -3.087410958167721E-037
 -2.820000000000000E-002   -2.900003511937571E-037
 -2.810000000000000E-002   -1.867197341912624E-037
 -2.800000000000000E-002    4.382913894529297E-038
 -2.790000000000000E-002    4.475241230024681E-037
 -2.780000000000000E-002    1.065124719901183E-036
 -2.770000000000000E-002    1.919208461185685E-036
 -2.760000000000000E-002    2.995934366088056E-036
 -2.750000000000000E-002    4.222176887190394E-036
 -2.740000000000000E-002    5.439968313633641E-036
 -2.730000000000000E-002    6.382058463680167E-036
 -2.720000000000000E-002    6.654612665469796E-036
 -2.710000000000000E-002    5.735362936825902E-036
 -2.700000000000000E-002    2.997421897473920E-036
 -2.690000000000000E-002   -2.230127732325327E-036
 -2.680000000000000E-002   -1.055466929278945E-035
 -2.670000000000000E-002   -2.235886269857244E-035
 -2.660000000000000E-002   -3.758612808345236E-035
 -2.650000000000000E-002   -5.548386903723204E-035
 -2.640000000000000E-002   -7.433005294498312E-035
 -2.630000000000000E-002   -9.118619134315668E-035
 -2.620000000000000E-002   -1.017379768479904E-034
 -2.610000000000000E-002   -1.003011095549231E-034
 -2.600000000000000E-002   -8.007937378399202E-035
 -2.590000000000000E-002   -3.376062039923217E-035
 -2.580000000000000E-002    4.548185797653248E-035
 -2.570000000000000E-002    1.625539022027749E-034
 -2.560000000000000E-002    3.186045290648410E-034
 -2.550000000000000E-002    5.089075058351981E-034
 -2.540000000000000E-002    7.206798933023523E-034
 -2.530000000000000E-002    9.311650958983259E-034
 -2.520000000000000E-002    1.106407348430706E-033
 -2.510000000000000E-002    1.201212439129971E-033
 -2.500000000000000E-002    1.160806557451303E-033
 -2.490000000000000E-002    9.246478299777502E-034
 -2.480000000000000E-002    4.326966575888574E-034
 -2.470000000000000E-002   -3.657942228142021E-034
 -2.460000000000000E-002   -1.501241337466631E-033
 -2.450000000000000E-002   -2.971114526612449E-033
 -2.440000000000000E-002   -4.726828805592194E-033
 -2.430000000000000E-002   -6.661620169336899E-033
 -2.420000000000000E-002   -8.601163070919117E-033
 -2.410000000000000E-002   -1.029883099755754E-032
 -2.400000000000000E-002   -1.143744122141080E-032
 -2.390000000000000E-002   -1.163908212131488E-032
 -2.380000000000000E-002   -1.048420591783830E-032
 -2.370000000000000E-002   -7.540670593405956E-033
 -2.360000000000000E-002   -2.402924983148437E-033
 -2.350000000000000E-002    5.258832296203618E-033
 -2.340000000000000E-002    1.563986904192344E-032
 -2.330000000000000E-002    2.873288951231523E-032
 -2.320000000000000E-002    4.425107912399648E-032
 -2.310000000000000E-002    6.154286159350574E-032
 -2.300000000000000E-002    7.950003291343655E-032
 -2.290000000000000E-002    9.646329153957349E-032
 -2.280000000000000E-002    1.101336300267608E-031
 -2.270000000000000E-002    1.175047015167046E-031
 -2.260000000000000E-002    1.148405061962612E-031
 -2.250000000000000E-002    9.773357146831947E-032
 -2.240000000000000E-002    6.128986885038621E-032
 -2.230000000000000E-002    4.950943072444504E-034
 -2.220000000000000E-002   -8.918093822778484E-032
 -2.210000000000000E-002   -2.108939786082432E-031
 -2.200000000000000E-002   -3.652258995734066E-031
 -2.190000000000000E-002   -5.486977430764388E-031
 -2.180000000000000E-002   -7.520835797379101E-031
 -2.170000000000000E-002   -9.587010288300960E-031
 -2.160000000000000E-002   -1.142956832418228E-030
 -2.150000000000000E-002   -1.269530005809271E-030
 -2.140000000000000E-002   -1.293664604248193E-030
 -2.130000000000000E-002   -1.163089731413880E-030
 -2.120000000000000E-002   -8.220650495359785E-031
 -2.110000000000000E-002   -2.179272021993510E-031
 -2.100000000000000E-002    6.897264057945462E-031
 -2.090000000000000E-002    1.917458036582440E-030
 -2.080000000000000E-002    3.444754408653014E-030
 -2.070000000000000E-002    5.200476373919558E-030
 -2.060000000000000E-002    7.050960231954200E-030
 -2.050000000000000E-002    8.792305346468960E-030
 -2.040000000000000E-002    1.014977251599162E-029
 -2.030000000000000E-002    1.078728521352491E-029
 -2.020000000000000E-002    1.032964635054374E-029
 -2.010000000000000E-002    8.399128585480969E-030
 -2.000000000000000E-002    4.666543497657359E-030
 -1.990000000000000E-002   -1.085290699863899E-030
 -1.980000000000000E-002   -8.890383067730060E-030
 -1.970000000000000E-002   -1.852826036154370E-029
 -1.960000000000000E-002   -2.946275160827775E-029
 -1.950000000000000E-002   -4.080314786953508E-029
 -1.940000000000000E-002   -5.130083575582236E-029
 -1.930000000000000E-002   -5.939368741136636E-029
 -1.920000000000000E-002   -6.330742526329976E-029
 -1.910000000000000E-002   -6.121778336223635E-029
 -1.900000000000000E-002   -5.146963299960790E-029
 -1.890000000000000E-002   -3.283979899091343E-029
 -1.880000000000000E-002   -4.819768958190258E-030
 -1.870000000000000E-002    3.211516010096612E-029
 -1.860000000000000E-002    7.629173710825633E-029
 -1.850000000000000E-002    1.247245556393567E-028
 -1.840000000000000E-002    1.731448943745433E-028
 -1.830000000000000E-002    2.162063087886223E-028
 -1.820000000000000E-002    2.478839412864258E-028
 -1.810000000000000E-002    2.620602661479276E-028
 -1.800000000000000E-002    2.532602887338995E-028
 -1.790000000000000E-002    2.174674763308129E-028
 -1.780000000000000E-002    1.529223698023613E-028
 -1.770000000000000E-002    6.078337269513999E-029
 -1.760000000000000E-002   -5.447858029354378E-029
 -1.750000000000000E-002   -1.850699918673883E-028
 -1.740000000000000E-002   -3.203362224852100E-028
 -1.730000000000000E-002   -4.477261966190372E-028
 -1.720000000000000E-002   -5.542182804680580E-028
 -1.710000000000000E-002   -6.280785853207568E-028
 -1.700000000000000E-002   -6.607339293132591E-028
 -1.690000000000000E-002   -6.484674685840862E-028
 -1.680000000000000E-002   -5.935991908477392E-028
 -1.670000000000000E-002   -5.048145665711381E-028
 -1.660000000000000E-002   -3.963634632481963E-028
 -1.650000000000000E-002   -2.859759299889480E-028
 -1.640000000000000E-002   -1.915306380911960E-028
 -1.630000000000000E-002   -1.267431475541222E-028
 -1.620000000000000E-002   -9.640054990540355E-029
 -1.610000000000000E-002   -9.190731838376310E-029
 -1.600000000000000E-002   -8.808593308204360E-029
 -1.590000000000000E-002   -4.224196827514240E-029
 -1.580000000000000E-002    1.035823959704816E-028
 -1.570000000000000E-002    4.165086392371439E-028
 -1.560000000000000E-002    9.626781266181118E-028
 -1.550000000000000E-002    1.793486292332351E-027
 -1.540000000000000E-002    2.929353573809013E-027
 -1.530000000000000E-002    4.342941599903946E-027
 -1.520000000000000E-002    5.944383735009200E-027
 -1.510000000000000E-002    7.571533429654081E-027
 -1.500000000000000E-002    8.988306707935732E-027
 -1.490000000000000E-002    9.893822076544883E-027
 -1.480000000000000E-002    9.944161906215581E-027
 -1.470000000000000E-002    8.787161434095797E-027
 -1.460000000000000E-002    6.108864003285364E-027
 -1.450000000000000E-002    1.688232911382564E-027
 -1.440000000000000E-002   -4.545307788915060E-027
 -1.430000000000000E-002   -1.245860883671907E-026
 -1.420000000000000E-002   -2.167396649242034E-026
 -1.410000000000000E-002   -3.154902458455005E-026
 -1.400000000000000E-002   -4.118469848123570E-026
 -1.390000000000000E-002   -4.946619869309994E-026
 -1.380000000000000E-002   -5.513894491838367E-026
 -1.370000000000000E-002   -5.691704609302231E-026
 -1.360000000000000E-002   -5.361748260904591E-026
 -1.350000000000000E-002   -4.430883025170586E-026
 -1.340000000000000E-002   -2.845991406058854E-026
 -1.330000000000000E-002   -6.071586246640540E-027
 -1.320000000000000E-002    2.222520893113171E-026
 -1.310000000000000E-002    5.512015627758392E-026
 -1.300000000000000E-002    9.063407453550990E-026
 -1.290000000000000E-002    1.261946234954160E-025
 -1.280000000000000E-002    1.587759408764523E-025
 -1.270000000000000E-002    1.850942191721152E-025
 -1.260000000000000E-002    2.018452532636922E-025
 -1.250000000000000E-002    2.059658730492886E-025
 -1.240000000000000E-002    1.948991491535194E-025
 -1.230000000000000E-002    1.668442016806735E-025
 -1.220000000000000E-002    1.209739087566693E-025
 -1.210000000000000E-002    5.760860641116250E-026
 -1.200000000000000E-002   -2.166169637070027E-026
 -1.190000000000000E-002   -1.139105525784798E-025
 -1.180000000000000E-002   -2.148655844581023E-025
 -1.170000000000000E-002   -3.189605588966735E-025
 -1.160000000000000E-002   -4.194562250013512E-025
 -1.150000000000000E-002   -5.086445605363627E-025
 -1.140000000000000E-002   -5.781559620340951E-025
 -1.130000000000000E-002   -6.193924621301656E-025
 -1.120000000000000E-002   -6.241070740198738E-025
 -1.110000000000000E-002   -5.851376844110221E-025
 -1.100000000000000E-002   -4.972813812269578E-025
 -1.090000000000000E-002   -3.582633359708523E-025
 -1.080000000000000E-002   -1.697139714080826E-025
 -1.070000000000000E-002    6.197500148891506E-026
 -1.060000000000000E-002    3.250807858145906E-025
 -1.050000000000000E-002    6.024522882151245E-025
 -1.040000000000000E-002    8.720682384709892E-025
 -1.030000000000000E-002    1.108394521234761E-024
 -1.020000000000000E-002    1.284605350240306E-024
 -1.010000000000000E-002    1.375617729606049E-024
 -1.000000000000000E-002    1.361738165093125E-024
 -9.899999999999999E-003    1.232557512806359E-024
 -9.800000000000000E-003    9.905754469059825E-025
 -9.699999999999999E-003    6.539152152808409E-025
 -9.599999999999999E-003    2.574392199379548E-025
 -9.500000000000000E-003   -1.483753602827156E-025
 -9.399999999999999E-003   -5.012841898548951E-025
 -9.299999999999999E-003   -7.340358340162502E-025
 -9.200000000000000E-003   -7.838387413324962E-025
 -9.099999999999999E-003   -6.038462439853157E-025
 -8.999999999999999E-003   -1.754677085408536E-025
 -8.900000000000000E-003    4.801458319692077E-025
 -8.799999999999999E-003    1.293428520759629E-024
 -8.699999999999999E-003    2.142641413421335E-024
 -8.600000000000000E-003    2.856961763485926E-024
 -8.499999999999999E-003    3.227880750414572E-024
 -8.399999999999999E-003    3.029510289870994E-024
 -8.300000000000000E-003    2.047315922648279E-024
 -8.199999999999999E-003    1.134250423527469E-025
 -8.100000000000000E-003   -2.854675945938429E-024
 -8.000000000000000E-003   -6.816546775186791E-024
 -7.899999999999999E-003   -1.157767935671218E-023
 -7.800000000000000E-003   -1.677067774948950E-023
 -7.699999999999999E-003   -2.185423991367524E-023
 -7.599999999999999E-003   -2.613437122616622E-023
 -7.499999999999999E-003   -2.881033661015607E-023
 -7.399999999999999E-003   -2.904528425137065E-023
 -7.299999999999999E-003   -2.605825594327982E-023
 -7.199999999999999E-003   -1.923105848672042E-023
 -7.100000000000000E-003   -8.220245988454460E-024
 -6.999999999999999E-003    6.938032691310198E-024
 -6.899999999999999E-003    2.574402947588799E-023
 -6.800000000000000E-003    4.718501816390414E-023
 -6.699999999999999E-003    6.973270599907780E-023
 -6.599999999999999E-003    9.139631502063667E-023
 -6.499999999999999E-003    1.098353028095333E-022
 -6.399999999999999E-003    1.225297164059911E-022
 -6.299999999999999E-003    1.269993380860916E-022
 -6.199999999999999E-003    1.210561583997517E-022
 -6.100000000000000E-003    1.030691772498679E-022
 -5.999999999999999E-003    7.221604129813739E-023
 -5.899999999999999E-003    2.869462214557413E-023
 -5.800000000000000E-003   -2.613159160004507E-023
 -5.699999999999999E-003   -8.967640414022286E-023
 -5.599999999999999E-003   -1.581774968709163E-022
 -5.499999999999999E-003   -2.268534617519468E-022
 -5.399999999999999E-003   -2.901676910859983E-022
 -5.299999999999999E-003   -3.421850494548349E-022
 -5.199999999999999E-003   -3.769982415100428E-022
 -5.099999999999999E-003   -3.891930151037985E-022
 -4.999999999999999E-003   -3.743174045354106E-022
 -4.899999999999999E-003   -3.293187136152651E-022
 -4.799999999999999E-003   -2.529156507409037E-022
 -4.699999999999999E-003   -1.458780717595939E-022
 -4.599999999999999E-003   -1.119478833625068E-023
 -4.499999999999999E-003    1.458807823070942E-022
 -4.399999999999999E-003    3.179095562495767E-022
 -4.299999999999999E-003    4.954668081673498E-022
 -4.199999999999999E-003    6.674552357457582E-022
 -4.099999999999999E-003    8.215248524774564E-022
 -3.999999999999999E-003    9.445944144640520E-022
 -3.899999999999999E-003    1.023474738475491E-021
 -3.799999999999999E-003    1.045597945261062E-021
 -3.699999999999999E-003    9.998563804960161E-022
 -3.599999999999999E-003    8.775519519079504E-022
 -3.499999999999999E-003    6.734416376412002E-022
 -3.399999999999999E-003    3.868454411395341E-022
 -3.299999999999999E-003    2.275146479344139E-023
 -3.199999999999999E-003   -4.071831121022259E-022
 -3.099999999999999E-003   -8.838726618639578E-022
 -2.999999999999999E-003   -1.380456913380189E-021
 -2.899999999999999E-003   -1.862553352355170E-021
 -2.799999999999999E-003   -2.289299672955972E-021
 -2.699999999999999E-003   -2.615332606466130E-021
 -2.599999999999999E-003   -2.793793262110761E-021
 -2.499999999999999E-003   -2.780340379461650E-021
 -2.399999999999999E-003   -2.538018787011506E-021
 -2.299999999999999E-003   -2.042677885076376E-021
 -2.199999999999999E-003   -1.288464243561364E-021
 -2.099999999999999E-003   -2.927765378591846E-022
 -1.999999999999999E-003    9.000434490643523E-022
 -1.899999999999999E-003    2.217047132767536E-021
 -1.799999999999999E-003    3.557757527323944E-021
 -1.699999999999999E-003    4.798544269905290E-021
 -1.599999999999999E-003    5.800599497793476E-021
 -1.499999999999999E-003    6.421435212314455E-021
 -1.399999999999999E-003    6.529381966023735E-021
 -1.299999999999999E-003    6.020089722144702E-021
 -1.199999999999999E-003    4.833543874010381E-021
 -1.099999999999999E-003    2.969737557334167E-021
 -9.999999999999989E-004    5.008803388472974E-022
 -8.999999999999990E-004   -2.422011143241249E-021
 -7.999999999999990E-004   -5.570078274071160E-021
 -6.999999999999989E-004   -8.646582810046490E-021
 -5.999999999999990E-004   -1.130652105715427E-020
 -4.999999999999989E-004   -1.318556340145616E-020
 -3.999999999999989E-004   -1.393679601450642E-020
 -2.999999999999989E-004   -1.327256314947394E-020
 -1.999999999999989E-004   -1.100759803431971E-020
 -9.999999999999892E-005   -7.098750240574808E-021
  1.084202172485504E-018   -1.676189949494891E-021
  1.000000000000011E-004    4.939020720718290E-021
  2.000000000000011E-004    1.223536394260071E-020
  3.000000000000011E-004    1.953250184737398E-020
  4.000000000000011E-004    2.602532574586803E-020
  5.000000000000011E-004    3.084939238814620E-020
  6.000000000000011E-004    3.316416467840461E-020
  7.000000000000011E-004    3.224783416211684E-020
  8.000000000000011E-004    2.759530136942487E-020
  9.000000000000012E-004    1.900927205766240E-020
  1.000000000000001E-003    6.673520329345909E-021
  1.100000000000001E-003   -8.802196295088925E-021
  1.200000000000001E-003   -2.637465431985415E-020
  1.300000000000001E-003   -4.460346439429838E-020
  1.400000000000001E-003   -6.173382571241070E-020
  1.500000000000001E-003   -7.582388358458534E-020
  1.600000000000001E-003   -8.490996062726884E-020
  1.700000000000001E-003   -8.719823506747060E-020
  1.800000000000001E-003   -8.126739737089464E-020
  1.900000000000001E-003   -6.626368835241991E-020
  2.000000000000001E-003   -4.206844754087232E-020
  2.100000000000001E-003   -9.418699843251948E-021
  2.200000000000001E-003    3.003637944719205E-020
  2.300000000000001E-003    7.375593247475963E-020
  2.400000000000001E-003    1.184119547514243E-019
  2.500000000000001E-003    1.600778624246314E-019
  2.600000000000001E-003    1.944937114951115E-019
  2.700000000000001E-003    2.173934492137125E-019
  2.800000000000001E-003    2.248725186875948E-019
  2.900000000000001E-003    2.137700949604301E-019
  3.000000000000001E-003    1.820357581811665E-019
  3.100000000000001E-003    1.290507859267143E-019
  3.200000000000001E-003    5.587410561847022E-020
  3.300000000000001E-003   -3.461220637562069E-020
  3.400000000000001E-003   -1.376789097853035E-019
  3.500000000000001E-003   -2.468605234346995E-019
  3.600000000000001E-003   -3.542074849539614E-019
  3.700000000000001E-003   -4.506775528035138E-019
  3.800000000000001E-003   -5.266565256089585E-019
  3.900000000000001E-003   -5.725898285760652E-019
  4.000000000000001E-003   -5.796986227794290E-019
  4.100000000000001E-003   -5.407479447183646E-019
  4.200000000000001E-003   -4.508257615477174E-019
  4.300000000000001E-003   -3.080868858365505E-019
  4.400000000000001E-003   -1.144074158675851E-019
  4.500000000000001E-003    1.241053498359202E-019
  4.600000000000002E-003    3.968102484709600E-019
  4.700000000000001E-003    6.884961181317303E-019
  4.800000000000001E-003    9.796688797239222E-019
  4.900000000000002E-003    1.247208807429707E-018
  5.000000000000001E-003    1.465430711293992E-018
  5.100000000000001E-003    1.607553119772318E-018
  5.200000000000001E-003    1.647556006515506E-018
  5.300000000000002E-003    1.562368182527202E-018
  5.400000000000001E-003    1.334277933351869E-018
  5.500000000000001E-003    9.534275965596310E-019
  5.600000000000002E-003    4.201988301492857E-019
  5.700000000000001E-003   -2.527329948473638E-019
  5.800000000000001E-003   -1.038920275246013E-018
  5.900000000000002E-003   -1.897493497459025E-018
  6.000000000000001E-003   -2.773571028373579E-018
  6.100000000000001E-003   -3.599921753748037E-018
  6.200000000000002E-003   -4.299993882736226E-018
  6.300000000000002E-003   -4.792335231624513E-018
  6.400000000000001E-003   -4.996310145890749E-018
  6.500000000000001E-003   -4.838875255236415E-018
  6.600000000000002E-003   -4.262049316228728E-018
  6.700000000000001E-003   -3.230571971427061E-018
  6.800000000000001E-003   -1.739140589453401E-018
  6.900000000000002E-003    1.814675385009432E-019
  7.000000000000001E-003    2.460103809435619E-018
  7.100000000000001E-003    4.983489621979979E-018
  7.200000000000002E-003    7.597578373416790E-018
  7.300000000000002E-003    1.011248812246842E-017
  7.400000000000001E-003    1.231122078192849E-017
  7.500000000000001E-003    1.396210860447992E-017
  7.600000000000002E-003    1.483461056917722E-017
  7.700000000000001E-003    1.471776629274570E-017
  7.800000000000001E-003    1.344024364027656E-017
  7.900000000000001E-003    1.089069051612062E-017
  8.000000000000002E-003    7.036800605144728E-018
  8.100000000000001E-003    1.941387796083755E-018
  8.200000000000001E-003   -4.226238499621106E-018
  8.300000000000002E-003   -1.118526184969325E-017
  8.400000000000001E-003   -1.854609921231334E-017
  8.500000000000002E-003   -2.582189673422497E-017
  8.600000000000002E-003   -3.244930067779794E-017
  8.700000000000001E-003   -3.781837456147893E-017
  8.800000000000002E-003   -4.131084225576730E-017
  8.900000000000002E-003   -4.234506496966419E-017
  9.000000000000001E-003   -4.042546139030643E-017
  9.100000000000002E-003   -3.519337947461423E-017
  9.200000000000002E-003   -2.647586054722048E-017
  9.300000000000001E-003   -1.432842228361253E-017
  9.400000000000002E-003    9.322619509036399E-019
  9.500000000000001E-003    1.870968862161991E-017
  9.600000000000001E-003    3.812638861960606E-017
  9.700000000000002E-003    5.804308226088405E-017
  9.800000000000001E-003    7.709987036092814E-017
  9.900000000000001E-003    9.377983629564019E-017
  1.000000000000000E-002    1.064938614411729E-016
  1.010000000000000E-002    1.136838979184646E-016
  1.020000000000000E-002    1.139399219917894E-016
  1.030000000000000E-002    1.061243496720010E-016
  1.040000000000000E-002    8.949620457280801E-017
  1.050000000000000E-002    6.382597358193613E-017
  1.060000000000000E-002    2.949164338611000E-017
  1.070000000000000E-002   -1.245387777667651E-017
  1.080000000000000E-002   -6.025297413129137E-017
  1.090000000000000E-002   -1.114591184163083E-016
  1.100000000000000E-002   -1.630038709083894E-016
  1.110000000000000E-002   -2.113182657665810E-016
  1.120000000000000E-002   -2.525078361879523E-016
  1.130000000000000E-002   -2.825772573499978E-016
  1.140000000000000E-002   -2.976960268925418E-016
  1.150000000000000E-002   -2.944924766647285E-016
  1.160000000000000E-002   -2.703599661101990E-016
  1.170000000000000E-002   -2.237547920670912E-016
  1.180000000000000E-002   -1.544644991236454E-016
  1.190000000000000E-002   -6.382278807446591E-017
  1.200000000000000E-002    4.515188321389107E-017
  1.210000000000000E-002    1.677146947817044E-016
  1.220000000000000E-002    2.974670197918424E-016
  1.230000000000000E-002    4.265551208547907E-016
  1.240000000000000E-002    5.459990073647340E-016
  1.250000000000000E-002    6.461477747457216E-016
  1.260000000000000E-002    7.172475910235044E-016
  1.270000000000000E-002    7.501001429751605E-016
  1.280000000000000E-002    7.367770451870669E-016
  1.290000000000000E-002    6.713512077988428E-016
  1.300000000000000E-002    5.505943130055883E-016
  1.310000000000000E-002    3.745895822992795E-016
  1.320000000000000E-002    1.472041934984826E-016
  1.330000000000000E-002   -1.236300372945123E-016
  1.340000000000000E-002   -4.258754590273210E-016
  1.350000000000000E-002   -7.436219523295128E-016
  1.360000000000000E-002   -1.057618326624993E-015
  1.370000000000000E-002   -1.346106755908609E-015
  1.380000000000000E-002   -1.585945964642293E-015
  1.390000000000000E-002   -1.753986418430877E-015
  1.400000000000000E-002   -1.828638036827106E-015
  1.410000000000000E-002   -1.791552455500132E-015
  1.420000000000000E-002   -1.629319171090942E-015
  1.430000000000000E-002   -1.335063268677208E-015
  1.440000000000000E-002   -9.098222715158647E-016
  1.450000000000000E-002   -3.635793363785319E-016
  1.460000000000000E-002    2.841662692432487E-016
  1.470000000000000E-002    1.004390815502237E-015
  1.480000000000000E-002    1.759180825081412E-015
  1.490000000000000E-002    2.503052867321710E-015
  1.500000000000000E-002    3.184965016246686E-015
  1.510000000000000E-002    3.750974078772145E-015
  1.520000000000000E-002    4.147456109386432E-015
  1.530000000000000E-002    4.324736803857443E-015
  1.540000000000000E-002    4.240954324698394E-015
  1.550000000000000E-002    3.865917953573570E-015
  1.560000000000000E-002    3.184705667382517E-015
  1.570000000000000E-002    2.200722349644399E-015
  1.580000000000000E-002    9.379395302859898E-016
  1.590000000000000E-002   -5.579417378983023E-016
  1.600000000000000E-002   -2.219627547006300E-015
  1.610000000000000E-002   -3.959834069300610E-015
  1.620000000000000E-002   -5.674434925176561E-015
  1.630000000000000E-002   -7.247161309501764E-015
  1.640000000000000E-002   -8.555724343461318E-015
  1.650000000000000E-002   -9.479148025855803E-015
  1.660000000000000E-002   -9.905981568305448E-015
  1.670000000000000E-002   -9.742933465702668E-015
  1.680000000000000E-002   -8.923437061358934E-015
  1.690000000000000E-002   -7.415528990756325E-015
  1.700000000000000E-002   -5.228445596415736E-015
  1.710000000000000E-002   -2.417318501937762E-015
  1.720000000000000E-002    9.145839263734027E-016
  1.730000000000000E-002    4.616533788432408E-015
  1.740000000000000E-002    8.494268594033026E-015
  1.750000000000000E-002    1.231730382807011E-014
  1.760000000000000E-002    1.582959145265464E-014
  1.770000000000000E-002    1.876319735190289E-014
  1.780000000000000E-002    2.085449916992981E-014
  1.790000000000000E-002    2.186209872294369E-014
  1.800000000000000E-002    2.158549653118913E-014
  1.810000000000000E-002    1.988334286037181E-014
  1.820000000000000E-002    1.669001953818611E-014
  1.830000000000000E-002    1.202921873987005E-014
  1.840000000000000E-002    6.023275988092027E-015
  1.850000000000000E-002   -1.102917670408623E-015
  1.860000000000000E-002   -9.024309469440088E-015
  1.870000000000000E-002   -1.732499751769214E-014