 -4.000000000000000E-002    0.000000000000000E+000
 -3.990000000000000E-002    0.000000000000000E+000
 -3.980000000000000E-002    0.000000000000000E+000
 -3.970000000000000E-002    0.000000000000000E+000
 -3.960000000000000E-002    0.000000000000000E+000
 -3.950000000000000E-002    0.000000000000000E+000
 -3.940000000000000E-002    0.000000000000000E+000
 -3.930000000000000E-002    0.000000000000000E+000
 -3.920000000000000E-002    0.000000000000000E+000
 -3.910000000000000E-002    0.000000000000000E+000
 -3.900000000000000E-002    0.000000000000000E+000
 -3.890000000000000E-002    0.000000000000000E+000
 -3.880000000000000E-002    0.000000000000000E+000
 -3.870000000000000E-002    0.000000000000000E+000
 -3.860000000000000E-002    0.000000000000000E+000
 -3.850000000000000E-002    0.000000000000000E+000
 -3.840000000000000E-002    0.000000000000000E+000
 -3.830000000000000E-002    0.000000000000000E+000
 -3.820000000000000E-002    0.000000000000000E+000
 -3.810000000000000E-002    0.000000000000000E+000
 -3.800000000000000E-002    0.000000000000000E+000
 -3.790000000000000E-002    0.000000000000000E+000
 -3.780000000000000E-002    0.000000000000000E+000
 -3.770000000000000E-002    0.000000000000000E+000
 -3.760000000000000E-002    0.000000000000000E+000
 -3.750000000000000E-002    0.000000000000000E+000
 -3.740000000000000E-002    0.000000000000000E+000
 -3.730000000000000E-002    0.000000000000000E+000
 -3.720000000000000E-002    0.000000000000000E+000
 -3.710000000000000E-002    0.000000000000000E+000
 -3.700000000000000E-002    0.000000000000000E+000
 -3.690000000000000E-002    0.000000000000000E+000
 -3.680000000000000E-002    0.000000000000000E+000
 -3.670000000000000E-002    0.000000000000000E+000
 -3.660000000000000E-002    0.000000000000000E+000
 -3.650000000000000E-002    0.000000000000000E+000
 -3.640000000000000E-002    1.936034510730512E-047
 -3.630000000000000E-002    1.153956577257173E-046
 -3.620000000000000E-002    2.307913154514346E-046
 -3.610000000000000E-002    3.636157923788847E-046
 -3.600000000000000E-002    8.233368838106292E-046
 -3.590000000000000E-002    1.688211048133897E-045
 -3.580000000000000E-002    3.140186599287161E-045
 -3.570000000000000E-002    6.127435453792951E-045
 -3.560000000000000E-002    1.122599062643861E-044
 -3.550000000000000E-002    1.752049573092044E-044
 -3.540000000000000E-002    2.022971721069499E-044
 -3.530000000000000E-002    7.307064025429148E-045
 -3.520000000000000E-002   -5.476246806213009E-044
 -3.510000000000000E-002   -2.432580784085271E-043
 -3.500000000000000E-002   -7.210251307508076E-043
 -3.490000000000000E-002   -1.805103821300384E-042
 -3.480000000000000E-002   -4.080503670570101E-042
 -3.470000000000000E-002   -8.550862707298702E-042
 -3.460000000000000E-002   -1.683198197864668E-041
 -3.450000000000000E-002   -3.132434052660825E-041
 -3.440000000000000E-002   -5.525435925918005E-041
 -3.430000000000000E-002   -9.230155218103183E-041
 -3.420000000000000E-002   -1.453566459444317E-040
 -3.410000000000000E-002   -2.136050613899803E-040
 -3.400000000000000E-002   -2.867588219805180E-040
 -3.390000000000000E-002   -3.348161472130544E-040
 -3.380000000000000E-002   -2.914215724881318E-040
 -3.370000000000000E-002   -2.900103322125844E-041
 -3.360000000000000E-002    6.751151128285419E-040
 -3.350000000000000E-002    2.179629534838135E-039
 -3.340000000000000E-002    5.019765283728952E-039
 -3.330000000000000E-002    9.930075368881685E-039
 -3.320000000000000E-002    1.781708025425380E-038
 -3.310000000000000E-002    2.962743150076810E-038
 -3.300000000000000E-002    4.602926991143492E-038
 -3.290000000000000E-002    6.679309333358510E-038
 -3.280000000000000E-002    8.973111794848182E-038
 -3.270000000000000E-002    1.090454615549699E-037
 -3.260000000000000E-002    1.129691323788175E-037
 -3.250000000000000E-002    8.069607089754338E-038
 -3.240000000000000E-002   -2.116451181165924E-038
 -3.230000000000000E-002   -2.419504711260544E-037
 -3.220000000000000E-002   -6.488010195793290E-037
 -3.210000000000000E-002   -1.324729724836103E-036
 -3.200000000000000E-002   -2.359425838300325E-036
 -3.190000000000000E-002   -3.827915451274578E-036
 -3.180000000000000E-002   -5.750949787352010E-036
 -3.170000000000000E-002   -8.030343834051498E-036
 -3.160000000000000E-002   -1.035328492665421E-035
 -3.150000000000000E-002   -1.206302975021739E-035
 -3.140000000000000E-002   -1.200090740183577E-035
 -3.130000000000000E-002   -8.337816783237521E-036
 -3.120000000000000E-002    1.566006393792622E-036
 -3.110000000000000E-002    2.120559354722105E-035
 -3.100000000000000E-002    5.477698352409217E-035
 -3.090000000000000E-002    1.066816349940636E-034
 -3.080000000000000E-002    1.805123331211373E-034
 -3.070000000000000E-002    2.773267695044241E-034
 -3.060000000000000E-002    3.930372210763351E-034
 -3.050000000000000E-002    5.148319163645626E-034
 -3.040000000000000E-002    6.167280547552391E-034
 -3.030000000000000E-002    6.546689458156252E-034
 -3.020000000000000E-002    5.620398620969831E-034
 -3.010000000000000E-002    2.470915826477095E-034
 -3.000000000000000E-002   -4.055134051320413E-034
 -2.990000000000000E-002   -1.526074122736946E-033
 -2.980000000000000E-002   -3.240600169256113E-033
 -2.970000000000000E-002   -5.637233105449499E-033
 -2.960000000000000E-002   -8.715251103504992E-033
 -2.950000000000000E-002   -1.231539087490077E-032
 -2.940000000000000E-002   -1.603367957695763E-032
 -2.930000000000000E-002   -1.912641661386346E-032
 -2.920000000000000E-002   -2.042150837599268E-032
 -2.910000000000000E-002   -1.826074053337809E-032
 -2.900000000000000E-002   -1.050786199513040E-032
 -2.890000000000000E-002    5.333179681447028E-033
 -2.880000000000000E-002    3.183943851055045E-032
 -2.870000000000000E-002    7.118035840142671E-032
 -2.860000000000000E-002    1.243824942612074E-031
 -2.850000000000000E-002    1.903391268466477E-031
 -2.840000000000000E-002    2.646044441732720E-031
 -2.830000000000000E-002    3.380816966909328E-031
 -2.820000000000000E-002    3.958047782756316E-031
 -2.810000000000000E-002    4.161156103487504E-031
 -2.800000000000000E-002    3.706434440751897E-031
 -2.790000000000000E-002    2.255741414825736E-031
 -2.780000000000000E-002   -5.526910634899136E-032
 -2.770000000000000E-002   -5.050630661144302E-031
 -2.760000000000000E-002   -1.146039355047660E-030
 -2.750000000000000E-002   -1.978977147543016E-030
 -2.740000000000000E-002   -2.970645165380089E-030
 -2.730000000000000E-002   -4.040360131607900E-030
 -2.720000000000000E-002   -5.047610954517126E-030
 -2.710000000000000E-002   -5.783523944646250E-030
 -2.700000000000000E-002   -5.969687234809194E-030
 -2.690000000000000E-002   -5.268328100662402E-030
 -2.680000000000000E-002   -3.307846335989510E-030
 -2.670000000000000E-002    2.729927699361073E-031
 -2.660000000000000E-002    5.760487840292486E-030
 -2.650000000000000E-002    1.328195777778120E-029
 -2.640000000000000E-002    2.270678686170488E-029
 -2.630000000000000E-002    3.354161873999611E-029
 -2.620000000000000E-002    4.483376184421253E-029
 -2.610000000000000E-002    5.510165657914177E-029
 -2.600000000000000E-002    6.231508320336939E-029
 -2.590000000000000E-002    6.394951059598862E-029
 -2.580000000000000E-002    5.713759433668748E-029
 -2.570000000000000E-002    3.893543067906427E-029
 -2.560000000000000E-002    6.710887769450527E-030
 -2.550000000000000E-002   -4.135372060175540E-029
 -2.540000000000000E-002   -1.056716933260429E-028
 -2.530000000000000E-002   -1.846241186817370E-028
 -2.520000000000000E-002   -2.739662233837703E-028
 -2.510000000000000E-002   -3.663599301255050E-028
 -2.500000000000000E-002   -4.511385742282537E-028
 -2.490000000000000E-002   -5.144130986140430E-028
 -2.480000000000000E-002   -5.396196790621354E-028
 -2.470000000000000E-002   -5.085830293017799E-028
 -2.460000000000000E-002   -4.031281890901555E-028
 -2.450000000000000E-002   -2.072177666242129E-028
 -2.440000000000000E-002    9.047489862074177E-029
 -2.430000000000000E-002    4.937175721852372E-028
 -2.420000000000000E-002    9.958238241310636E-028
 -2.410000000000000E-002    1.576996191481171E-027
 -2.400000000000000E-002    2.202228964056383E-027
 -2.390000000000000E-002    2.820106952134087E-027
 -2.380000000000000E-002    3.362821208296339E-027
 -2.370000000000000E-002    3.747686993342370E-027
 -2.360000000000000E-002    3.880387772104002E-027
 -2.350000000000000E-002    3.660103176422009E-027
 -2.340000000000000E-002    2.986597618354332E-027
 -2.330000000000000E-002    1.769278401458413E-027
 -2.320000000000000E-002   -6.185250152129143E-029
 -2.310000000000000E-002   -2.543514271284622E-027
 -2.300000000000000E-002   -5.665018107655636E-027
 -2.290000000000000E-002   -9.353163277358472E-027
 -2.280000000000000E-002   -1.345691150619433E-026
 -2.270000000000000E-002   -1.773299919274352E-026
 -2.260000000000000E-002   -2.183417799401278E-026
 -2.250000000000000E-002   -2.530243852105868E-026
 -2.240000000000000E-002   -2.757027250558154E-026
 -2.230000000000000E-002   -2.797368071864889E-026
 -2.220000000000000E-002   -2.578103018544276E-026
 -2.210000000000000E-002   -2.024183863252437E-026
 -2.200000000000000E-002   -1.065881076427417E-026
 -2.190000000000000E-002    3.515236157748975E-027
 -2.180000000000000E-002    2.255669147038026E-026
 -2.170000000000000E-002    4.633179783285846E-026
 -2.160000000000000E-002    7.414867070833312E-026
 -2.150000000000000E-002    1.046163948409638E-025
 -2.140000000000000E-002    1.355325055465487E-025
 -2.130000000000000E-002    1.638250559497518E-025
 -2.120000000000000E-002    1.855782762853064E-025
 -2.110000000000000E-002    1.961706455384559E-025
 -2.100000000000000E-002    1.905496653716304E-025
 -2.090000000000000E-002    1.636580969751407E-025
 -2.080000000000000E-002    1.110113154769823E-025
 -2.070000000000000E-002    2.940524689852524E-026
 -2.060000000000000E-002   -8.228964568866814E-026
 -2.050000000000000E-002   -2.223190981444089E-025
 -2.040000000000000E-002   -3.853151786730870E-025
 -2.030000000000000E-002   -5.617607306529086E-025
 -2.020000000000000E-002   -7.377719847322190E-025
 -2.010000000000000E-002   -8.953208828378760E-025
 -2.000000000000000E-002   -1.012996768370228E-024
 -1.990000000000000E-002   -1.067370141789627E-024
 -1.980000000000000E-002   -1.034960867403009E-024
 -1.970000000000000E-002   -8.947427305728282E-025
 -1.960000000000000E-002   -6.310300907657730E-025
 -1.950000000000000E-002   -2.365094035633821E-025
 -1.940000000000000E-002    2.848994639415688E-025
 -1.930000000000000E-002    9.157210610141998E-025
 -1.920000000000000E-002    1.623532565782635E-024
 -1.910000000000000E-002    2.360871225449090E-024
 -1.900000000000000E-002    3.066736033607653E-024
 -1.890000000000000E-002    3.669854801172109E-024
 -1.880000000000000E-002    4.093709101354900E-024
 -1.870000000000000E-002    4.263104181989610E-024
 -1.860000000000000E-002    4.111839017186803E-024
 -1.850000000000000E-002    3.590812353671213E-024
 -1.840000000000000E-002    2.675725927930363E-024
 -1.830000000000000E-002    1.373431589584328E-024
 -1.820000000000000E-002   -2.740323218637365E-025
 -1.810000000000000E-002   -2.188565333710085E-024
 -1.800000000000000E-002   -4.258883515369984E-024
 -1.790000000000000E-002   -6.347376109355413E-024
 -1.780000000000000E-002   -8.300689427195533E-024
 -1.770000000000000E-002   -9.963250111630976E-024
 -1.760000000000000E-002   -1.119239524488540E-023
 -1.750000000000000E-002   -1.187333085665859E-023
 -1.740000000000000E-002   -1.193183827843836E-023
 -1.730000000000000E-002   -1.134258260594184E-023
 -1.720000000000000E-002   -1.013113120595164E-023
 -1.710000000000000E-002   -8.368364463746026E-024
 -1.700000000000000E-002   -6.156889834439479E-024
 -1.690000000000000E-002   -3.610264717017262E-024
 -1.680000000000000E-002   -8.272185224074233E-025
 -1.670000000000000E-002    2.135577109562441E-024
 -1.660000000000000E-002    5.287427057180057E-024
 -1.650000000000000E-002    8.718735944932053E-024
 -1.640000000000000E-002    1.260176611055009E-023
 -1.630000000000000E-002    1.717224262946759E-023
 -1.620000000000000E-002    2.268881024428271E-023
 -1.610000000000000E-002    2.937008706088688E-023
 -1.600000000000000E-002    3.731267275184377E-023
 -1.590000000000000E-002    4.639764384927342E-023
 -1.580000000000000E-002    5.619721065990960E-023
 -1.570000000000000E-002    6.589683376404362E-023
 -1.560000000000000E-002    7.425054259558535E-023
 -1.550000000000000E-002    7.958743041256467E-023
 -1.540000000000000E-002    7.988512136315618E-023
 -1.530000000000000E-002    7.292088155457265E-023
 -1.520000000000000E-002    5.650272491853085E-023
 -1.510000000000000E-002    2.877219664328081E-023
 -1.500000000000000E-002   -1.144213172567932E-023
 -1.490000000000000E-002   -6.425405176978775E-023
 -1.480000000000000E-002   -1.283771912718781E-022
 -1.470000000000000E-002   -2.008633409106925E-022
 -1.460000000000000E-002   -2.769772437924965E-022
 -1.450000000000000E-002   -3.502582170969087E-022
 -1.440000000000000E-002   -4.128066124543287E-022
 -1.430000000000000E-002   -4.558114843333944E-022
 -1.420000000000000E-002   -4.703081694217949E-022
 -1.410000000000000E-002   -4.481211374563627E-022
 -1.400000000000000E-002   -3.829142394092151E-022
 -1.390000000000000E-002   -2.712397137877158E-022
 -1.380000000000000E-002   -1.134568646069491E-022
 -1.370000000000000E-002    8.561709325079740E-023
 -1.360000000000000E-002    3.164511897769894E-022
 -1.350000000000000E-002    5.650377885802731E-022
 -1.340000000000000E-002    8.136716462435688E-022
 -1.330000000000000E-002    1.042256424971971E-021
 -1.320000000000000E-002    1.230049509272132E-021
 -1.310000000000000E-002    1.357683979493286E-021
 -1.300000000000000E-002    1.409242566404964E-021
 -1.290000000000000E-002    1.374118660460847E-021
 -1.280000000000000E-002    1.248391829577038E-021
 -1.270000000000000E-002    1.035475494002584E-021
 -1.260000000000000E-002    7.458696622617139E-022
 -1.250000000000000E-002    3.959598106079169E-022
 -1.240000000000000E-002    5.944802910311796E-024
 -1.230000000000000E-002   -4.028776323092355E-022
 -1.220000000000000E-002   -8.110980524239548E-022
 -1.210000000000000E-002   -1.203985068129398E-021
 -1.200000000000000E-002   -1.573560124822990E-021
 -1.190000000000000E-002   -1.919472068287495E-021
 -1.180000000000000E-002   -2.248300331351191E-021
 -1.170000000000000E-002   -2.571118256348903E-021
 -1.160000000000000E-002   -2.899406452228481E-021
 -1.150000000000000E-002   -3.239714815345336E-021
 -1.140000000000000E-002   -3.587766801719709E-021
 -1.130000000000000E-002   -3.922942512239559E-021
 -1.120000000000000E-002   -4.204224261518019E-021
 -1.110000000000000E-002   -4.368685147112139E-021
 -1.100000000000000E-002   -4.333432144361119E-021
 -1.090000000000000E-002   -4.001567209850016E-021
 -1.080000000000000E-002   -3.272231445700594E-021
 -1.070000000000000E-002   -2.054189197544357E-021
 -1.060000000000000E-002   -2.817677026293542E-022
 -1.050000000000000E-002    2.068600861748469E-021
 -1.040000000000000E-002    4.963422762963284E-021
 -1.030000000000000E-002    8.301118942153616E-021
 -1.020000000000000E-002    1.190715481404341E-020
 -1.010000000000000E-002    1.553705535045070E-020
 -1.000000000000000E-002    1.888823601946848E-020
 -9.899999999999999E-003    2.162052998073959E-020
 -9.800000000000000E-003    2.338410143694895E-020
 -9.699999999999999E-003    2.385228529409276E-020
 -9.599999999999999E-003    2.275594392181215E-020
 -9.500000000000000E-003    1.991535171879909E-020
 -9.399999999999999E-003    1.526556533670309E-020
 -9.299999999999999E-003    8.871758728733937E-021
 -9.200000000000000E-003    9.321022140739025E-022
 -9.099999999999999E-003   -8.232659888529142E-021
 -8.999999999999999E-003   -1.820192526041055E-020
 -8.900000000000000E-003   -2.848733584643489E-020
 -8.799999999999999E-003   -3.856979613094530E-020
 -8.699999999999999E-003   -4.793591909775842E-020
 -8.600000000000000E-003   -5.610822728271860E-020
 -8.499999999999999E-003   -6.266424098856977E-020
 -8.399999999999999E-003   -6.724138154868712E-020
 -8.300000000000000E-003   -6.952715376932170E-020
 -8.199999999999999E-003   -6.923719801221712E-020
 -8.100000000000000E-003   -6.608682643142094E-020
 -8.000000000000000E-003   -5.976431012923103E-020
 -7.899999999999999E-003   -4.991555552859182E-020
 -7.800000000000000E-003   -3.615000236299901E-020
 -7.699999999999999E-003   -1.807551243741142E-020
 -7.599999999999999E-003    4.633439677056959E-021
 -7.499999999999999E-003    3.213525988959031E-020
 -7.399999999999999E-003    6.429562898013671E-020
 -7.299999999999999E-003    1.005503845498519E-019
 -7.199999999999999E-003    1.397761382975371E-019
 -7.100000000000000E-003    1.801914396834303E-019
 -6.999999999999999E-003    2.193126704943307E-019
 -6.899999999999999E-003    2.539860815588930E-019
 -6.800000000000000E-003    2.805116726023697E-019
 -6.699999999999999E-003    2.948652679151725E-019
 -6.599999999999999E-003    2.930134118533760E-019
 -6.499999999999999E-003    2.713027661610165E-019
 -6.399999999999999E-003    2.268933701381398E-019
 -6.299999999999999E-003    1.581947202575790E-019
 -6.199999999999999E-003    6.525778759929939E-020
 -6.100000000000000E-003   -4.992543159554902E-020
 -5.999999999999999E-003   -1.832577244292625E-019
 -5.899999999999999E-003   -3.285407046818040E-019
 -5.800000000000000E-003   -4.776643451141096E-019
 -5.699999999999999E-003   -6.209805223195020E-019
 -5.599999999999999E-003   -7.478405177722107E-019
 -5.499999999999999E-003   -8.472587289042891E-019
 -5.399999999999999E-003   -9.086524598163589E-019
 -5.299999999999999E-003   -9.226002436052012E-019
 -5.199999999999999E-003   -8.815628329575978E-019
 -5.099999999999999E-003   -7.805172848750952E-019
 -4.999999999999999E-003   -6.174686591363432E-019
 -4.899999999999999E-003   -3.938196408964620E-019
 -4.799999999999999E-003   -1.145952600647726E-019
 -4.699999999999999E-003    2.114701535845329E-019
 -4.599999999999999E-003    5.719673217636798E-019
 -4.499999999999999E-003    9.509575289787529E-019
 -4.399999999999999E-003    1.329229665243362E-018
 -4.299999999999999E-003    1.684686170093742E-018
 -4.199999999999999E-003    1.992900534384943E-018
 -4.099999999999999E-003    2.227904926283158E-018
 -3.999999999999999E-003    2.363277800075793E-018
 -3.899999999999999E-003    2.373596785889802E-018
 -3.799999999999999E-003    2.236294041251065E-018
 -3.699999999999999E-003    1.933904838766073E-018
 -3.599999999999999E-003    1.456629311122427E-018
 -3.499999999999999E-003    8.050388176264390E-019
 -3.399999999999999E-003   -7.327828981178764E-021
 -3.299999999999999E-003   -9.518212738076251E-019
 -3.199999999999999E-003   -1.983385325564968E-018
 -3.099999999999999E-003   -3.040526656198688E-018
 -2.999999999999999E-003   -4.046918649643646E-018
 -2.899999999999999E-003   -4.914922214534172E-018
 -2.799999999999999E-003   -5.551112832873007E-018
 -2.699999999999999E-003   -5.863713553265719E-018
 -2.599999999999999E-003   -5.771539553641712E-018
 -2.499999999999999E-003   -5.213807959097166E-018
 -2.399999999999999E-003   -4.159909898297219E-018
 -2.299999999999999E-003   -2.618060727341101E-018
 -2.199999999999999E-003   -6.416559265182749E-019
 -2.099999999999999E-003    1.667801923158102E-018
 -1.999999999999999E-003    4.162149685177982E-018
 -1.899999999999999E-003    6.652985090505198E-018
 -1.799999999999999E-003    8.923220065128846E-018
 -1.699999999999999E-003    1.074335183865326E-017
 -1.599999999999999E-003    1.189144973502511E-017
 -1.499999999999999E-003    1.217528947505376E-017
 -1.399999999999999E-003    1.145463305309991E-017
 -1.299999999999999E-003    9.661333172449415E-018
 -1.199999999999999E-003    6.814917172331872E-018
 -1.099999999999999E-003    3.031503664201803E-018
 -9.999999999999989E-004   -1.475620236794792E-018
 -8.999999999999990E-004   -6.404697238710044E-018
 -7.999999999999990E-004   -1.138353506859388E-017
 -6.999999999999989E-004   -1.599592968079935E-017
 -5.999999999999990E-004   -1.981456766896241E-017
 -4.999999999999989E-004   -2.243766862499267E-017
 -3.999999999999989E-004   -2.352603556914667E-017
 -2.999999999999989E-004   -2.283695821287744E-017
 -1.999999999999989E-004   -2.025149732430261E-017
 -9.999999999999892E-005   -1.579226924629859E-017
  1.084202172485504E-018   -9.629687978823075E-018
  1.000000000000011E-004   -2.075790665568228E-018
  2.000000000000011E-004    6.433963428419167E-018
  3.000000000000011E-004    1.536928420073709E-017
  4.000000000000011E-004    2.414129968443613E-017
  5.000000000000011E-004    3.214300395551453E-017
  6.000000000000011E-004    3.879012744756758E-017
  7.000000000000011E-004    4.355876054486993E-017
  8.000000000000011E-004    4.601678359783775E-017
  9.000000000000012E-004    4.584701801636663E-017
  1.000000000000001E-003    4.286137593763128E-017
  1.100000000000001E-003    3.700652582337984E-017
  1.200000000000001E-003    2.836269358263254E-017
  1.300000000000001E-003    1.713805380883000E-017
  1.400000000000001E-003    3.661472380622173E-018
  1.500000000000001E-003   -1.162401167996074E-017
  1.600000000000001E-003   -2.816532237378900E-017
  1.700000000000001E-003   -4.530091534797336E-017
  1.800000000000001E-003   -6.226107529978121E-017
  1.900000000000001E-003   -7.816996411596034E-017
  2.000000000000001E-003   -9.205367173742270E-017
  2.100000000000001E-003   -1.028592953062525E-016
  2.200000000000001E-003   -1.094899014426042E-016
  2.300000000000001E-003   -1.108591692531741E-016
  2.400000000000001E-003   -1.059672232331637E-016
  2.500000000000001E-003   -9.399641348997063E-017
  2.600000000000001E-003   -7.442173657975025E-017
  2.700000000000001E-003   -4.712742747412280E-017
  2.800000000000001E-003   -1.251722769817477E-017
  2.900000000000001E-003    2.839620383306696E-017
  3.000000000000001E-003    7.393843603312156E-017
  3.100000000000001E-003    1.217719123969786E-016
  3.200000000000001E-003    1.689581360378726E-016
  3.300000000000001E-003    2.120902360638818E-016
  3.400000000000001E-003    2.474963652364584E-016
  3.500000000000001E-003    2.715064747225709E-016
  3.600000000000001E-003    2.807661310082566E-016
  3.700000000000001E-003    2.725737652812046E-016
  3.800000000000001E-003    2.452114168170942E-016
  3.900000000000001E-003    1.982343586790833E-016
  4.000000000000001E-003    1.326853837620132E-016
  4.100000000000001E-003    5.120176077084174E-017
  4.200000000000001E-003   -4.201004269215062E-017
  4.300000000000001E-003   -1.413462747669040E-016
  4.400000000000001E-003   -2.401262095993213E-016
  4.500000000000001E-003   -3.310474571647093E-016
  4.600000000000002E-003   -4.067482999193435E-016
  4.700000000000001E-003   -4.604350725357824E-016
  4.800000000000001E-003   -4.865220001327156E-016
  4.900000000000002E-003   -4.812246791715420E-016
  5.000000000000001E-003   -4.430464156756448E-016
  5.100000000000001E-003   -3.731014609449996E-016
  5.200000000000001E-003   -2.752300435542178E-016
  5.300000000000002E-003   -1.558748859856952E-016
  5.400000000000001E-003   -2.370919597659522E-017
  5.500000000000001E-003    1.109713758145895E-016
  5.600000000000002E-003    2.370580913258071E-016
  5.700000000000001E-003    3.435830086452794E-016
  5.800000000000001E-003    4.207430030788642E-016
  5.900000000000002E-003    4.609072600465822E-016
  6.000000000000001E-003    4.595150679003745E-016
  6.100000000000001E-003    4.157738777071158E-016
  6.200000000000002E-003    3.330758806100700E-016
  6.300000000000002E-003    2.190701469770595E-016
  6.400000000000001E-003    8.535051275415215E-017
  6.500000000000001E-003   -5.325230443104957E-017
  6.600000000000002E-003   -1.797523766449315E-016
  6.700000000000001E-003   -2.764116695738877E-016
  6.800000000000001E-003   -3.263784301236285E-016
  6.900000000000002E-003   -3.154485184923882E-016
  7.000000000000001E-003   -2.338183265137566E-016
  7.100000000000001E-003   -7.767846432971819E-017
  7.200000000000002E-003    1.495001255133671E-016
  7.300000000000002E-003    4.361359801970549E-016
  7.400000000000001E-003    7.622873086510702E-016
  7.500000000000001E-003    1.100087261163291E-015
  7.600000000000002E-003    1.414922703888692E-015
  7.700000000000001E-003    1.667372401660969E-015
  7.800000000000001E-003    1.815859600219915E-015
  7.900000000000001E-003    1.819922179765209E-015
  8.000000000000002E-003    1.643936727835950E-015
  8.100000000000001E-003    1.261070270355311E-015
  8.200000000000001E-003    6.571930465893614E-016
  8.300000000000002E-003   -1.655672704277831E-016
  8.400000000000001E-003   -1.185962440774530E-015
  8.500000000000002E-003   -2.361794125378696E-015
  8.600000000000002E-003   -3.629430087509796E-015
  8.700000000000001E-003   -4.904935972794659E-015
  8.800000000000002E-003   -6.087001384776253E-015
  8.900000000000002E-003   -7.061747711718861E-015
  9.000000000000001E-003   -7.709353466876504E-015
  9.100000000000002E-003   -7.912301916358017E-015
  9.200000000000002E-003   -7.564897987145743E-015
  9.300000000000001E-003   -6.583519979582669E-015
  9.400000000000002E-003   -4.916966666103784E-015
  9.500000000000001E-003   -2.556121949969224E-015
  9.600000000000001E-003    4.579105658335847E-016
  9.700000000000002E-003    4.028064250911452E-015
  9.800000000000001E-003    7.998782383708849E-015
  9.900000000000001E-003    1.215740074165266E-014
  1.000000000000000E-002    1.623999887305707E-014
  1.010000000000000E-002    1.994196997330342E-014
  1.020000000000000E-002    2.293327107738988E-014
  1.030000000000000E-002    2.487801376624885E-014
  1.040000000000000E-002    2.545760433169965E-014
  1.050000000000000E-002    2.439630251218176E-014
  1.060000000000000E-002    2.148778474918453E-014
  1.070000000000000E-002    1.662086084326809E-014
  1.080000000000000E-002    9.802491741651950E-015
  1.090000000000000E-002    1.175991620635529E-015
  1.100000000000000E-002   -8.967539860378680E-015
  1.110000000000000E-002   -2.018639107187135E-014
  1.120000000000000E-002   -3.189544788149277E-014
  1.130000000000000E-002   -4.338444379935398E-014
  1.140000000000000E-002   -5.384751036952796E-014
  1.150000000000000E-002   -6.242375901687924E-014
  1.160000000000000E-002   -6.824754203092987E-014
  1.170000000000000E-002   -7.050640374377641E-014
  1.180000000000000E-002   -6.850389963527230E-014
  1.190000000000000E-002   -6.172362171233170E-014
  1.200000000000000E-002   -4.989029975279131E-014
  1.210000000000000E-002   -3.302341454281014E-014
  1.220000000000000E-002   -1.147865997393613E-014
  1.230000000000000E-002    1.402730096119208E-014
  1.240000000000000E-002    4.241268016353266E-014
  1.250000000000000E-002    7.225025567340437E-014
  1.260000000000000E-002    1.018128772409070E-013
  1.270000000000000E-002    1.291453229100920E-013
  1.280000000000000E-002    1.521611559102954E-013
  1.290000000000000E-002    1.687619254047117E-013
  1.300000000000000E-002    1.769734497100565E-013
  1.310000000000000E-002    1.750925590940326E-013
  1.320000000000000E-002    1.618360461134482E-013
  1.330000000000000E-002    1.364817989699827E-013
  1.340000000000000E-002    9.899235355589777E-014
  1.350000000000000E-002    5.010954396277514E-014
  1.360000000000000E-002   -8.589259373577344E-015
  1.370000000000000E-002   -7.468271584836954E-014
  1.380000000000000E-002   -1.449512691016113E-013
  1.390000000000000E-002   -2.154814587334611E-013
  1.400000000000000E-002   -2.818293645226145E-013
  1.410000000000000E-002   -3.392402054862137E-013
  1.420000000000000E-002   -3.829163796493553E-013
  1.430000000000000E-002   -4.083230712948008E-013
  1.440000000000000E-002   -4.115151153767954E-013
  1.450000000000000E-002   -3.894669133154686E-013
  1.460000000000000E-002   -3.403838675097263E-013
  1.470000000000000E-002   -2.639719177668091E-013
  1.480000000000000E-002   -1.616429759094513E-013
  1.490000000000000E-002   -3.663440555179257E-014
  1.500000000000000E-002    1.059758422948418E-013
  1.510000000000000E-002    2.593718768610528E-013
  1.520000000000000E-002    4.152277597330889E-013
  1.530000000000000E-002    5.640615418724067E-013
  1.540000000000000E-002    6.957053246865593E-013
  1.550000000000000E-002    7.998763726885032E-013
  1.560000000000000E-002    8.668230334537255E-013
  1.570000000000000E-002    8.880105277082502E-013
  1.580000000000000E-002    8.568097362718925E-013
  1.590000000000000E-002    7.691410209046012E-013
  1.600000000000000E-002    6.240284211675441E-013
  1.610000000000000E-002    4.240172672991425E-013
  1.620000000000000E-002    1.754121070988076E-013
  1.630000000000000E-002   -1.116999029702162E-013
  1.640000000000000E-002   -4.236656373723842E-013
  1.650000000000000E-002   -7.437358625905118E-013
  1.660000000000000E-002   -1.052785974944175E-012
  1.670000000000000E-002   -1.330268722905451E-012
  1.680000000000000E-002   -1.555362690663616E-012
  1.690000000000000E-002   -1.708264525112894E-012
  1.700000000000000E-002   -1.771559324179864E-012
  1.710000000000000E-002   -1.731585543793435E-012
  1.720000000000000E-002   -1.579712768803141E-012
  1.730000000000000E-002   -1.313435465809332E-012
  1.740000000000000E-002   -9.371975615014842E-013
  1.750000000000000E-002   -4.628653085381117E-013
  1.760000000000000E-002    9.022069399984521E-014
  1.770000000000000E-002    6.956591874733907E-013
  1.780000000000000E-002    1.320893794685294E-012
  1.790000000000000E-002    1.928603040948322E-012
  1.800000000000000E-002    2.478540443223978E-012
  1.810000000000000E-002    2.929756577972973E-012
  1.820000000000000E-002    3.243098697144097E-012
  1.830000000000000E-002    3.383871864313813E-012
  1.840000000000000E-002    3.324499174833513E-012
  1.850000000000000E-002    3.047024556615431E-012
  1.860000000000000E-002    2.545281271533663E-012
  1.870000000000000E-002    1.826559219258671E-012