 -4.000000000000000E-002    0.000000000000000E+000
 -3.990000000000000E-002    0.000000000000000E+000
 -3.980000000000000E-002    0.000000000000000E+000
 -3.970000000000000E-002    0.000000000000000E+000
 -3.960000000000000E-002    0.000000000000000E+000
 -3.950000000000000E-002    0.000000000000000E+000
 -3.940000000000000E-002    0.000000000000000E+000
 -3.930000000000000E-002    0.000000000000000E+000
 -3.920000000000000E-002    0.000000000000000E+000
 -3.910000000000000E-002    0.000000000000000E+000
 -3.900000000000000E-002    8.826849453512018E-036
 -3.890000000000000E-002    1.669185210608655E-034
 -3.880000000000000E-002    1.633871630850447E-033
 -3.870000000000000E-002    1.100692947989356E-032
 -3.860000000000000E-002    5.725097499115801E-032
 -3.850000000000000E-002    2.445359816145044E-031
 -3.840000000000000E-002    8.907188261865800E-031
 -3.830000000000000E-002    2.836183287616511E-030
 -3.820000000000000E-002    8.027191207845307E-030
 -3.810000000000000E-002    2.041552490144889E-029
 -3.800000000000000E-002    4.694076878193605E-029
 -3.790000000000000E-002    9.766761527656903E-029
 -3.780000000000000E-002    1.827877536500258E-028
 -3.770000000000000E-002    3.019686204604239E-028
 -3.760000000000000E-002    4.184920656856355E-028
 -3.750000000000000E-002    4.073618410113432E-028
 -3.740000000000000E-002   -3.548160281835524E-029
 -3.730000000000000E-002   -1.533969165267356E-027
 -3.720000000000000E-002   -5.224711769914681E-027
 -3.710000000000000E-002   -1.298302797929295E-026
 -3.700000000000000E-002   -2.762745761062944E-026
 -3.690000000000000E-002   -5.299595648289434E-026
 -3.680000000000000E-002   -9.372289837628587E-026
 -3.670000000000000E-002   -1.544819309790111E-025
 -3.660000000000000E-002   -2.384169007268527E-025
 -3.650000000000000E-002   -3.444919954746020E-025
 -3.640000000000000E-002   -4.635891375300564E-025
 -3.630000000000000E-002   -5.734000752252173E-025
 -3.620000000000000E-002   -6.325225369489541E-025
 -3.610000000000000E-002   -5.746670280414719E-025
 -3.600000000000000E-002   -3.044631735498612E-025
 -3.590000000000000E-002    3.030826094444116E-025
 -3.580000000000000E-002    1.397044623550987E-024
 -3.570000000000000E-002    3.136506117751026E-024
 -3.560000000000000E-002    5.666089822098061E-024
 -3.550000000000000E-002    9.080541958486029E-024
 -3.540000000000000E-002    1.337988140482494E-023
 -3.530000000000000E-002    1.841933630712543E-023
 -3.520000000000000E-002    2.386110422015259E-023
 -3.510000000000000E-002    2.913729906027918E-023
 -3.500000000000000E-002    3.343403992067791E-023
 -3.490000000000000E-002    3.570467468627973E-023
 -3.480000000000000E-002    3.471408555632270E-023
 -3.470000000000000E-002    2.910582910066135E-023
 -3.460000000000000E-002    1.746926828992133E-023
 -3.450000000000000E-002   -1.632888276630662E-024
 -3.440000000000000E-002   -2.973155840538926E-023
 -3.430000000000000E-002   -6.867622279504126E-023
 -3.420000000000000E-002   -1.210733400794458E-022
 -3.410000000000000E-002   -1.909629478127939E-022
 -3.400000000000000E-002   -2.846910303469272E-022
 -3.390000000000000E-002   -4.118316706774671E-022
 -3.380000000000000E-002   -5.858625007220917E-022
 -3.370000000000000E-002   -8.241233674451433E-022
 -3.360000000000000E-002   -1.146400454507371E-021
 -3.350000000000000E-002   -1.571327831896551E-021
 -3.340000000000000E-002   -2.109742936791451E-021
 -3.330000000000000E-002   -2.754240942219771E-021
 -3.320000000000000E-002   -3.464537203236882E-021
 -3.310000000000000E-002   -4.148939504115373E-021
 -3.300000000000000E-002   -4.643269925513366E-021
 -3.290000000000000E-002   -4.690052673539607E-021
 -3.280000000000000E-002   -3.922445764567225E-021
 -3.270000000000000E-002   -1.859211664676314E-021
 -3.260000000000000E-002    2.081376296315155E-021
 -3.250000000000000E-002    8.539947700080080E-021
 -3.240000000000000E-002    1.813826344930391E-020
 -3.230000000000000E-002    3.135876308473857E-020
 -3.220000000000000E-002    4.837917763710141E-020
 -3.210000000000000E-002    6.886659911209680E-020
 -3.200000000000000E-002    9.174470827239489E-020
 -3.190000000000000E-002    1.149585550997598E-019
 -3.180000000000000E-002    1.352736858215486E-019
 -3.170000000000000E-002    1.481564372817595E-019
 -3.160000000000000E-002    1.477907535417035E-019
 -3.150000000000000E-002    1.272882969846011E-019
 -3.140000000000000E-002    7.914247830747561E-020
 -3.130000000000000E-002   -4.039692987218035E-021
 -3.120000000000000E-002   -1.285213907045772E-019
 -3.110000000000000E-002   -2.981672712070166E-019
 -3.100000000000000E-002   -5.129996773457976E-019
 -3.090000000000000E-002   -7.677056225696404E-019
 -3.080000000000000E-002   -1.050265158918517E-018
 -3.070000000000000E-002   -1.340902372926932E-018
 -3.060000000000000E-002   -1.611571393295267E-018
 -3.050000000000000E-002   -1.826175218235019E-018
 -3.040000000000000E-002   -1.941662950063303E-018
 -3.030000000000000E-002   -1.910076014494726E-018
 -3.020000000000000E-002   -1.681515112121980E-018
 -3.010000000000000E-002   -1.207887349958964E-018
 -3.000000000000000E-002   -4.472021251327566E-019
 -2.990000000000000E-002    6.318872650257789E-019
 -2.980000000000000E-002    2.045596648765137E-018
 -2.970000000000000E-002    3.790818156151511E-018
 -2.960000000000000E-002    5.841338493617522E-018
 -2.950000000000000E-002    8.144378960957701E-018
 -2.940000000000000E-002    1.061717044525035E-017
 -2.930000000000000E-002    1.314309640172297E-017
 -2.920000000000000E-002    1.556690111682785E-017
 -2.910000000000000E-002    1.768856537470275E-017
 -2.900000000000000E-002    1.925588427957026E-017
 -2.890000000000000E-002    1.995648708530251E-017
 -2.880000000000000E-002    1.941100224030611E-017
 -2.870000000000000E-002    1.717033998332270E-017
 -2.860000000000000E-002    1.272129058139108E-017
 -2.850000000000000E-002    5.505666300606999E-018
 -2.840000000000000E-002   -5.041213402083470E-018
 -2.830000000000000E-002   -1.942726023921143E-017
 -2.820000000000000E-002   -3.801181950147803E-017
 -2.810000000000000E-002   -6.088453853034885E-017
 -2.800000000000000E-002   -8.771883619502026E-017
 -2.790000000000000E-002   -1.176098942519046E-016
 -2.780000000000000E-002   -1.489142901281294E-016
 -2.770000000000000E-002   -1.791152563450014E-016
 -2.760000000000000E-002   -2.047440421453176E-016
 -2.750000000000000E-002   -2.213919570870848E-016
 -2.740000000000000E-002   -2.238473083885112E-016
 -2.730000000000000E-002   -2.063873186375146E-016
 -2.720000000000000E-002   -1.632439254834839E-016
 -2.710000000000000E-002   -8.924512855367148E-017
 -2.700000000000000E-002    1.938920343529185E-017
 -2.690000000000000E-002    1.641459033884660E-016
 -2.680000000000000E-002    3.432890823938676E-016
 -2.670000000000000E-002    5.510076243015025E-016
 -2.660000000000000E-002    7.767651677205024E-016
 -2.650000000000000E-002    1.004989013613807E-015
 -2.640000000000000E-002    1.215228253479229E-015
 -2.630000000000000E-002    1.382888708908326E-015
 -2.620000000000000E-002    1.480610453374247E-015
 -2.610000000000000E-002    1.480289587268664E-015
 -2.600000000000000E-002    1.355672240183434E-015
 -2.590000000000000E-002    1.085363404999946E-015
 -2.580000000000000E-002    6.560100657923599E-016
 -2.570000000000000E-002    6.534939298666725E-017
 -2.560000000000000E-002   -6.752357453067944E-016
 -2.550000000000000E-002   -1.539019244905844E-015
 -2.540000000000000E-002   -2.483427433281993E-015
 -2.530000000000000E-002   -3.450980909482569E-015
 -2.520000000000000E-002   -4.371816381210816E-015
 -2.510000000000000E-002   -5.167753385950168E-015
 -2.500000000000000E-002   -5.757699169694672E-015
 -2.490000000000000E-002   -6.063996159184482E-015
 -2.480000000000000E-002   -6.019160826728336E-015
 -2.470000000000000E-002   -5.572361584835225E-015
 -2.460000000000000E-002   -4.694933905269829E-015
 -2.450000000000000E-002   -3.384291799232138E-015
 -2.440000000000000E-002   -1.665730522708773E-015
 -2.430000000000000E-002    4.081589556470632E-016
 -2.420000000000000E-002    2.760457323629557E-015
 -2.410000000000000E-002    5.294934558732349E-015
 -2.400000000000000E-002    7.902491245538612E-015
 -2.390000000000000E-002    1.046815046523540E-014
 -2.380000000000000E-002    1.287759466392222E-014
 -2.370000000000000E-002    1.502226186520339E-014
 -2.360000000000000E-002    1.680217761013181E-014
 -2.350000000000000E-002    1.812607401739443E-014
 -2.340000000000000E-002    1.890878049279382E-014
 -2.330000000000000E-002    1.906650314206427E-014
 -2.320000000000000E-002    1.851108524622980E-014
 -2.310000000000000E-002    1.714491627225619E-014
 -2.300000000000000E-002    1.485837196768604E-014
 -2.290000000000000E-002    1.153174584065069E-014
 -2.280000000000000E-002    7.043295367665747E-015
 -2.270000000000000E-002    1.284421247333820E-015
 -2.260000000000000E-002   -5.818002080659219E-015
 -2.250000000000000E-002   -1.427330719919330E-014
 -2.240000000000000E-002   -2.399518079553889E-014
 -2.230000000000000E-002   -3.476994998379410E-014
 -2.220000000000000E-002   -4.622965525284651E-014
 -2.210000000000000E-002   -5.783500850019489E-014
 -2.200000000000000E-002   -6.887325916955418E-014
 -2.190000000000000E-002   -7.847510809350253E-014
 -2.180000000000000E-002   -8.565330015286995E-014
 -2.170000000000000E-002   -8.936324872856918E-014
 -2.160000000000000E-002   -8.858348638807712E-014
 -2.150000000000000E-002   -8.241081070550653E-014
 -2.140000000000000E-002   -7.016245866599188E-014
 -2.130000000000000E-002   -5.147547657022514E-014
 -2.120000000000000E-002   -2.639230706331349E-014
 -2.110000000000000E-002    4.578384295044401E-015
 -2.100000000000000E-002    4.043525125113219E-014
 -2.090000000000000E-002    7.969906551646047E-014
 -2.080000000000000E-002    1.204718259155990E-013
 -2.070000000000000E-002    1.605385479755554E-013
 -2.060000000000000E-002    1.975049956090273E-013
 -2.050000000000000E-002    2.289603021707760E-013
 -2.040000000000000E-002    2.526492065891233E-013
 -2.030000000000000E-002    2.666371342442660E-013
 -2.020000000000000E-002    2.694505222028650E-013
 -2.010000000000000E-002    2.601772312885222E-013
 -2.000000000000000E-002    2.385159281542432E-013
 -1.990000000000000E-002    2.047691682388549E-013
 -1.980000000000000E-002    1.597819380334583E-013
 -1.970000000000000E-002    1.048349271586072E-013
 -1.960000000000000E-002    4.150791086842447E-014
 -1.950000000000000E-002   -2.846574207531044E-014
 -1.940000000000000E-002   -1.033309670591565E-013
 -1.930000000000000E-002   -1.814070204283748E-013
 -1.920000000000000E-002   -2.611298965024123E-013
 -1.910000000000000E-002   -3.410305060456801E-013
 -1.900000000000000E-002   -4.196476200560906E-013
 -1.890000000000000E-002   -4.953854694399764E-013
 -1.880000000000000E-002   -5.663371374946002E-013
 -1.870000000000000E-002   -6.301025197311710E-013
 -1.860000000000000E-002   -6.836373080126798E-013
 -1.850000000000000E-002   -7.231697904859806E-013
 -1.840000000000000E-002   -7.442184077920353E-013
 -1.830000000000000E-002   -7.417357960815954E-013
 -1.820000000000000E-002   -7.103896128255479E-013
 -1.810000000000000E-002   -6.449763224543540E-013
 -1.800000000000000E-002   -5.409434411034448E-013
 -1.790000000000000E-002   -3.949816911837017E-013
 -1.780000000000000E-002   -2.056304939567022E-013
 -1.770000000000000E-002    2.616472522342386E-014
 -1.760000000000000E-002    2.966109636356881E-013
 -1.750000000000000E-002    5.988011712636775E-013
 -1.740000000000000E-002    9.226718403009212E-013
 -1.730000000000000E-002    1.255212897474626E-012
 -1.720000000000000E-002    1.580935494430158E-012
 -1.710000000000000E-002    1.882577998280624E-012
 -1.700000000000000E-002    2.142004005485630E-012
 -1.690000000000000E-002    2.341230663841815E-012
 -1.680000000000000E-002    2.463505160027267E-012
 -1.670000000000000E-002    2.494349081127256E-012
 -1.660000000000000E-002    2.422489048656049E-012
 -1.650000000000000E-002    2.240608702366912E-012
 -1.640000000000000E-002    1.945872274437103E-012
 -1.630000000000000E-002    1.540198856027548E-012
 -1.620000000000000E-002    1.030288865681671E-012
 -1.610000000000000E-002    4.274283897832401E-013
 -1.600000000000000E-002   -2.528875085833994E-013
 -1.590000000000000E-002   -9.914582608922791E-013
 -1.580000000000000E-002   -1.765956451639046E-012
 -1.570000000000000E-002   -2.551536354947354E-012
 -1.560000000000000E-002   -3.321442639589862E-012
 -1.550000000000000E-002   -4.047610556906672E-012
 -1.540000000000000E-002   -4.701268326329296E-012
 -1.530000000000000E-002   -5.253567366502035E-012
 -1.520000000000000E-002   -5.676281274339750E-012
 -1.510000000000000E-002   -5.942608307709002E-012
 -1.500000000000000E-002   -6.028109031838622E-012
 -1.490000000000000E-002   -5.911784186614245E-012
 -1.480000000000000E-002   -5.577273406101446E-012
 -1.470000000000000E-002   -5.014118242991551E-012
 -1.460000000000000E-002   -4.219008774587060E-012
 -1.450000000000000E-002   -3.196903750100195E-012
 -1.440000000000000E-002   -1.961898541689115E-012
 -1.430000000000000E-002   -5.377238510255441E-013
 -1.420000000000000E-002    1.042226681017324E-012
 -1.410000000000000E-002    2.735412277958900E-012
 -1.400000000000000E-002    4.491219443372715E-012
 -1.390000000000000E-002    6.252562574705593E-012
 -1.380000000000000E-002    7.957924117285724E-012
 -1.370000000000000E-002    9.543696672972235E-012
 -1.360000000000000E-002    1.094666045262351E-011
 -1.350000000000000E-002    1.210642004110408E-011
 -1.340000000000000E-002    1.296762959157486E-011
 -1.330000000000000E-002    1.348188279695467E-011
 -1.320000000000000E-002    1.360917378225034E-011
 -1.310000000000000E-002    1.331893365880270E-011
 -1.300000000000000E-002    1.259067854751941E-011
 -1.290000000000000E-002    1.141438882358834E-011
 -1.280000000000000E-002    9.790758115096772E-012
 -1.270000000000000E-002    7.731470424067740E-012
 -1.260000000000000E-002    5.259634424911533E-012
 -1.250000000000000E-002    2.410460437842407E-012
 -1.240000000000000E-002   -7.678341787545494E-013
 -1.230000000000000E-002   -4.212981101653580E-012
 -1.220000000000000E-002   -7.847688802316260E-012
 -1.210000000000000E-002   -1.157901495321762E-011
 -1.200000000000000E-002   -1.529842753363681E-011
 -1.190000000000000E-002   -1.888288716263885E-011
 -1.180000000000000E-002   -2.219727151648583E-011
 -1.170000000000000E-002   -2.509830860941224E-011
 -1.160000000000000E-002   -2.744009533507931E-011
 -1.150000000000000E-002   -2.908105331213120E-011
 -1.140000000000000E-002   -2.989196720674258E-011
 -1.130000000000000E-002   -2.976461052710485E-011
 -1.120000000000000E-002   -2.862025057798937E-011
 -1.110000000000000E-002   -2.641726842999433E-011
 -1.100000000000000E-002   -2.315710074538745E-011
 -1.090000000000000E-002   -1.888780252733137E-011
 -1.080000000000000E-002   -1.370471228189471E-011
 -1.070000000000000E-002   -7.747897154292877E-012
 -1.060000000000000E-002   -1.196430208836597E-012
 -1.050000000000000E-002    5.740179211097131E-012
 -1.040000000000000E-002    1.283274587846025E-011
 -1.030000000000000E-002    1.984444901802392E-011
 -1.020000000000000E-002    2.654310447522271E-011
 -1.010000000000000E-002    3.271254196235241E-011
 -1.000000000000000E-002    3.816206589691254E-011
 -9.899999999999999E-003    4.273318629866552E-011
 -9.800000000000000E-003    4.630310652433714E-011
 -9.699999999999999E-003    4.878487114298300E-011
 -9.599999999999999E-003    5.012443350230386E-011
 -9.500000000000000E-003    5.029538836975533E-011
 -9.399999999999999E-003    4.929229042129569E-011
 -9.299999999999999E-003    4.712383603359432E-011
 -9.200000000000000E-003    4.380703317755930E-011
 -9.099999999999999E-003    3.936351919961902E-011
 -8.999999999999999E-003    3.381882316524859E-011
 -8.900000000000000E-003    2.720491165615491E-011
 -8.799999999999999E-003    1.956596563371074E-011
 -8.699999999999999E-003    1.096672126256139E-011
 -8.600000000000000E-003    1.502285158082165E-012
 -8.499999999999999E-003   -8.692042783308857E-012
 -8.399999999999999E-003   -1.943259771518469E-011
 -8.300000000000000E-003   -3.048246042971839E-011
 -8.199999999999999E-003   -4.155127399072733E-011
 -8.100000000000000E-003   -5.230073938450880E-011
 -8.000000000000000E-003   -6.235617789124525E-011
 -7.899999999999999E-003   -7.132386185021395E-011
 -7.800000000000000E-003   -7.881307755286463E-011
 -7.699999999999999E-003   -8.446120644819972E-011
 -7.599999999999999E-003   -8.795970748242643E-011
 -7.499999999999999E-003   -8.907845883897148E-011
 -7.399999999999999E-003   -8.768596219993885E-011
 -7.299999999999999E-003   -8.376318530339820E-011
 -7.199999999999999E-003   -7.740919350481396E-011
 -7.100000000000000E-003   -6.883771111914753E-011
 -6.999999999999999E-003   -5.836431484561252E-011
 -6.899999999999999E-003   -4.638514125373332E-011
 -6.800000000000000E-003   -3.334874802992011E-011
 -6.699999999999999E-003   -1.972356096278098E-011
 -6.599999999999999E-003   -5.963793577618981E-012
 -6.499999999999999E-003    7.523007098320584E-012
 -6.399999999999999E-003    2.040372922290795E-011
 -6.299999999999999E-003    3.244020104748228E-011
 -6.199999999999999E-003    4.350042461401616E-011
 -6.100000000000000E-003    5.355947804902520E-011
 -5.999999999999999E-003    6.269000602200526E-011
 -5.899999999999999E-003    7.104319746491338E-011
 -5.800000000000000E-003    7.882200837912040E-011
 -5.699999999999999E-003    8.624917410028906E-011
 -5.599999999999999E-003    9.353293819733254E-011
 -5.499999999999999E-003    1.008335855549530E-010
 -5.399999999999999E-003    1.082338190070842E-010
 -5.299999999999999E-003    1.157154117631469E-010
 -5.199999999999999E-003    1.231442504437551E-010
 -5.099999999999999E-003    1.302646857423113E-010
 -4.999999999999999E-003    1.367037049123796E-010
 -4.899999999999999E-003    1.419843260428332E-010
 -4.799999999999999E-003    1.455469445045157E-010
 -4.699999999999999E-003    1.467771105190586E-010
 -4.599999999999999E-003    1.450374176740257E-010
 -4.499999999999999E-003    1.397015545635164E-010
 -4.399999999999999E-003    1.301882097704492E-010
 -4.299999999999999E-003    1.159932684144905E-010
 -4.199999999999999E-003    9.671868392780005E-011
 -4.099999999999999E-003    7.209717944735664E-011
 -3.999999999999999E-003    4.201222997401086E-011
 -3.899999999999999E-003    6.513375142909469E-012
 -3.799999999999999E-003   -3.417296997987952E-011
 -3.699999999999999E-003   -7.963658376989363E-011
 -3.599999999999999E-003   -1.292797514017460E-010
 -3.499999999999999E-003   -1.823161604976332E-010
 -3.399999999999999E-003   -2.377718588352416E-010
 -3.299999999999999E-003   -2.944876097228904E-010
 -3.199999999999999E-003   -3.511228246626565E-010
 -3.099999999999999E-003   -4.061606244776148E-010
 -2.999999999999999E-003   -4.579146003334134E-010
 -2.899999999999999E-003   -5.045375461724475E-010
 -2.799999999999999E-003   -5.440329499949527E-010
 -2.699999999999999E-003   -5.742698026470801E-010
 -2.599999999999999E-003   -5.930023428056576E-010
 -2.499999999999999E-003   -5.978954093902486E-010
 -2.399999999999999E-003   -5.865571207422345E-010
 -2.299999999999999E-003   -5.565801504539007E-010
 -2.199999999999999E-003   -5.055934788880525E-010
 -2.099999999999999E-003   -4.313259792451813E-010
 -1.999999999999999E-003   -3.316834141639211E-010
 -1.899999999999999E-003   -2.048397946152097E-010
 -1.799999999999999E-003   -4.934379499705152E-011
 -1.699999999999999E-003    1.357600517298668E-010
 -1.599999999999999E-003    3.507966666754456E-010
 -1.499999999999999E-003    5.953147093251512E-010
 -1.399999999999999E-003    8.679337362864069E-010
 -1.299999999999999E-003    1.166190429528133E-009
 -1.199999999999999E-003    1.486390781096428E-009
 -1.099999999999999E-003    1.823477578028245E-009
 -9.999999999999989E-004    2.170924431540690E-009
 -8.999999999999990E-004    2.520666515694216E-009
 -7.999999999999990E-004    2.863081811387497E-009
 -6.999999999999989E-004    3.187035426849247E-009
 -5.999999999999990E-004    3.479997134223189E-009
 -4.999999999999989E-004    3.728243627135983E-009
 -3.999999999999989E-004    3.917154185392754E-009
 -2.999999999999989E-004    4.031602676927404E-009
 -1.999999999999989E-004    4.056448612595851E-009
 -9.999999999999892E-005    3.977123590466129E-009
  1.084202172485504E-018    3.780306222235577E-009
  1.000000000000011E-004    3.454671068075993E-009
  2.000000000000011E-004    2.991698859512603E-009
  3.000000000000011E-004    2.386525238530156E-009
  4.000000000000011E-004    1.638804125882993E-009
  5.000000000000011E-004    7.535677773589929E-010
  6.000000000000011E-004   -2.579459850559773E-010
  7.000000000000011E-004   -1.377522748354802E-009
  8.000000000000011E-004   -2.579268826834099E-009
  9.000000000000012E-004   -3.828996724664762E-009
  1.000000000000001E-003   -5.083704657812410E-009
  1.100000000000001E-003   -6.291150590895251E-009
  1.200000000000001E-003   -7.389517433843394E-009
  1.300000000000001E-003   -8.307157670313802E-009
  1.400000000000001E-003   -8.962387053368090E-009
  1.500000000000001E-003   -9.263322951499810E-009
  1.600000000000001E-003   -9.107722401637840E-009
  1.700000000000001E-003   -8.382806104301651E-009
  1.800000000000001E-003   -6.965039990846963E-009
  1.900000000000001E-003   -4.719852007481288E-009
  2.000000000000001E-003   -1.501278436012697E-009
  2.100000000000001E-003    2.848466864405159E-009
  2.200000000000001E-003    8.499496378610626E-009
  2.300000000000001E-003    1.563480628106721E-008
  2.400000000000001E-003    2.445085140730441E-008
  2.500000000000001E-003    3.515813902388548E-008
  2.600000000000001E-003    4.798174721469319E-008
  2.700000000000001E-003    6.316178953356447E-008
  2.800000000000001E-003    8.095374304606834E-008
  2.900000000000001E-003    1.016286221998166E-007
  3.000000000000001E-003    1.254730004563056E-007
  3.100000000000001E-003    1.527888360474386E-007
  3.200000000000001E-003    1.838931070047772E-007
  3.300000000000001E-003    2.191172819467148E-007
  3.400000000000001E-003    2.588067057869685E-007
  3.500000000000001E-003    3.033198993753027E-007
  3.600000000000001E-003    3.530277510866829E-007
  3.700000000000001E-003    4.083127885762803E-007
  3.800000000000001E-003    4.695685796588387E-007
  3.900000000000001E-003    5.371991135848934E-007
  4.000000000000001E-003    6.116185725157672E-007
  4.100000000000001E-003    6.932510778005704E-007
  4.200000000000001E-003    7.825308152881840E-007
  4.300000000000001E-003    8.799022051159863E-007
  4.400000000000001E-003    9.858205470443964E-007
  4.500000000000001E-003    1.100752528622551E-006
  4.600000000000002E-003    1.225177204897385E-006
  4.700000000000001E-003    1.359586751044185E-006
  4.800000000000001E-003    1.504487422118368E-006
  4.900000000000002E-003    1.660401002812490E-006
  5.000000000000001E-003    1.827865623807940E-006
  5.100000000000001E-003    2.007436924990804E-006
  5.200000000000001E-003    2.199689940921880E-006
  5.300000000000002E-003    2.405219881298858E-006
  5.400000000000001E-003    2.624644684916363E-006
  5.500000000000001E-003    2.858606189073871E-006
  5.600000000000002E-003    3.107773598395341E-006
  5.700000000000001E-003    3.372845533943126E-006
  5.800000000000001E-003    3.654553569808706E-006
  5.900000000000002E-003    3.953665889396036E-006
  6.000000000000001E-003    4.270992974375937E-006
  6.100000000000001E-003    4.607390499851412E-006
  6.200000000000002E-003    4.963766453263021E-006
  6.300000000000002E-003    5.341085379760612E-006
  6.400000000000001E-003    5.740375924198522E-006
  6.500000000000001E-003    6.162735497905972E-006
  6.600000000000002E-003    6.609336506297666E-006
  6.700000000000001E-003    7.081433559369110E-006
  6.800000000000001E-003    7.580366792297214E-006
  6.900000000000002E-003    8.107568611363246E-006
  7.000000000000001E-003    8.664567599227856E-006
  7.100000000000001E-003    9.252991816745271E-006
  7.200000000000002E-003    9.874573683304384E-006
  7.300000000000002E-003    1.053115173179559E-005
  7.400000000000001E-003    1.122467459910766E-005
  7.500000000000001E-003    1.195720111454781E-005
  7.600000000000002E-003    1.273090678038957E-005
  7.700000000000001E-003    1.354808037376439E-005
  7.800000000000001E-003    1.441113261437631E-005
  7.900000000000001E-003    1.532259709041798E-005
  8.000000000000002E-003    1.628513236941553E-005
  8.100000000000001E-003    1.730153220744577E-005
  8.200000000000001E-003    1.837472675219646E-005
  8.300000000000002E-003    1.950779047624514E-005
  8.400000000000001E-003    2.070395267901902E-005
  8.500000000000002E-003    2.196659814289847E-005
  8.600000000000002E-003    2.329928581611839E-005
  8.700000000000001E-003    2.470575272556728E-005
  8.800000000000002E-003    2.618992200921677E-005
  8.900000000000002E-003    2.775591459634127E-005
  9.000000000000001E-003    2.940806166448364E-005
  9.100000000000002E-003    3.115090521680969E-005
  9.200000000000002E-003    3.298921472173196E-005
  9.300000000000001E-003    3.492798923233753E-005
  9.400000000000002E-003    3.697246394768934E-005
  9.500000000000001E-003    3.912812010731408E-005
  9.600000000000001E-003    4.140069345327426E-005
  9.700000000000002E-003    4.379616610875712E-005
  9.800000000000001E-003    4.632078650510564E-005
  9.900000000000001E-003    4.898107052639287E-005
  1.000000000000000E-002    5.178381005121147E-005
  1.010000000000000E-002    5.473607155626472E-005
  1.020000000000000E-002    5.784521461282443E-005
  1.030000000000000E-002    6.111890639808131E-005
  1.040000000000000E-002    6.456511089756358E-005
  1.050000000000000E-002    6.819213717849400E-005
  1.060000000000000E-002    7.200862084682446E-005
  1.070000000000000E-002    7.602355905510976E-005
  1.080000000000000E-002    8.024633333705134E-005
  1.090000000000000E-002    8.468671762717014E-005
  1.100000000000000E-002    8.935489492288191E-005
  1.110000000000000E-002    9.426149756440627E-005
  1.120000000000000E-002    9.941760987927290E-005
  1.130000000000000E-002    1.048348032223347E-004
  1.140000000000000E-002    1.105251274578978E-004
  1.150000000000000E-002    1.165011720114837E-004
  1.160000000000000E-002    1.227760464209375E-004
  1.170000000000000E-002    1.293634200246787E-004
  1.180000000000000E-002    1.362775230479840E-004
  1.190000000000000E-002    1.435331625222433E-004
  1.200000000000000E-002    1.511457604086732E-004
  1.210000000000000E-002    1.591313265856092E-004
  1.220000000000000E-002    1.675065081335018E-004
  1.230000000000000E-002    1.762885867226249E-004
  1.240000000000000E-002    1.854955019523916E-004
  1.250000000000000E-002    1.951458578569609E-004
  1.260000000000000E-002    2.052589456655587E-004
  1.270000000000000E-002    2.158547758528833E-004
  1.280000000000000E-002    2.269540965236660E-004
  1.290000000000000E-002    2.385784072043359E-004
  1.300000000000000E-002    2.507499911710663E-004
  1.310000000000000E-002    2.634918983204161E-004
  1.320000000000000E-002    2.768280805146779E-004
  1.330000000000000E-002    2.907833156913614E-004
  1.340000000000000E-002    3.053832634948362E-004
  1.350000000000000E-002    3.206545146396224E-004
  1.360000000000000E-002    3.366245938235945E-004
  1.370000000000000E-002    3.533220188760869E-004
  1.380000000000000E-002    3.707762244210156E-004
  1.390000000000000E-002    3.890176974624331E-004
  1.400000000000000E-002    4.080779585087998E-004
  1.410000000000000E-002    4.279895362461990E-004
  1.420000000000000E-002    4.487860067143079E-004
  1.430000000000000E-002    4.705020409554680E-004
  1.440000000000000E-002    4.931734174422866E-004
  1.450000000000000E-002    5.168369563787773E-004
  1.460000000000000E-002    5.415306697190396E-004
  1.470000000000000E-002    5.672936227938281E-004
  1.480000000000000E-002    5.941661800120576E-004
  1.490000000000000E-002    6.221897574976410E-004
  1.500000000000000E-002    6.514071326758708E-004
  1.510000000000000E-002    6.818622273719021E-004
  1.520000000000000E-002    7.136003433739014E-004
  1.530000000000000E-002    7.466680535439657E-004
  1.540000000000000E-002    7.811132914024859E-004
  1.550000000000000E-002    8.169853753434987E-004
  1.560000000000000E-002    8.543351574309053E-004
  1.570000000000000E-002    8.932148363563874E-004
  1.580000000000000E-002    9.336782138746016E-004
  1.590000000000000E-002    9.757805686998824E-004
  1.600000000000000E-002    1.019578615198032E-003
  1.610000000000000E-002    1.065130865478511E-003
  1.620000000000000E-002    1.112497265050534E-003
  1.630000000000000E-002    1.161739400533059E-003
  1.640000000000000E-002    1.212920360272807E-003
  1.650000000000000E-002    1.266104803743952E-003
  1.660000000000000E-002    1.321359035553660E-003
  1.670000000000000E-002    1.378750919319719E-003
  1.680000000000000E-002    1.438350029009112E-003
  1.690000000000000E-002    1.500227332706448E-003
  1.700000000000000E-002    1.564455346808108E-003
  1.710000000000000E-002    1.631108334643661E-003
  1.720000000000000E-002    1.700261916758881E-003
  1.730000000000000E-002    1.771993608548668E-003
  1.740000000000000E-002    1.846382269308708E-003
  1.750000000000000E-002    1.923508599706527E-003
  1.760000000000000E-002    2.003454820582570E-003
  1.770000000000000E-002    2.086304830125861E-003
  1.780000000000000E-002    2.172144109393263E-003
  1.790000000000000E-002    2.261059965839133E-003
  1.800000000000000E-002    2.353141534617094E-003
  1.810000000000000E-002    2.448479218277622E-003
  1.820000000000000E-002    2.547165473269962E-003
  1.830000000000000E-002    2.649294403588053E-003
  1.840000000000000E-002    2.754961532251768E-003
  1.850000000000000E-002    2.864263983264062E-003
  1.860000000000000E-002    2.977300642367681E-003
  1.870000000000000E-002    3.094171865611946E-003