 -4.000000000000000E-002    0.000000000000000E+000
 -3.990000000000000E-002    0.000000000000000E+000
 -3.980000000000000E-002    0.000000000000000E+000
 -3.970000000000000E-002    0.000000000000000E+000
 -3.960000000000000E-002    0.000000000000000E+000
 -3.950000000000000E-002    0.000000000000000E+000
 -3.940000000000000E-002    0.000000000000000E+000
 -3.930000000000000E-002    0.000000000000000E+000
 -3.920000000000000E-002    0.000000000000000E+000
 -3.910000000000000E-002   -6.418932647373943E-032
 -3.900000000000000E-002   -1.162229842744556E-030
 -3.890000000000000E-002   -1.099584762577625E-029
 -3.880000000000000E-002   -7.225786537565134E-029
 -3.870000000000000E-002   -3.699718645238715E-028
 -3.860000000000000E-002   -1.570099817602108E-027
 -3.850000000000000E-002   -5.737955618191023E-027
 -3.840000000000000E-002   -1.852645023395719E-026
 -3.830000000000000E-002   -5.381463378461746E-026
 -3.820000000000000E-002   -1.425041695164111E-025
 -3.810000000000000E-002   -3.474103764429139E-025
 -3.800000000000000E-002   -7.854506013861560E-025
 -3.790000000000000E-002   -1.655598876061011E-024
 -3.780000000000000E-002   -3.265061878163726E-024
 -3.770000000000000E-002   -6.035717017701780E-024
 -3.760000000000000E-002   -1.045786223713502E-023
 -3.750000000000000E-002   -1.694063219338739E-023
 -3.740000000000000E-002   -2.549316659627941E-023
 -3.730000000000000E-002   -3.516709258916001E-023
 -3.720000000000000E-002   -4.321237258078626E-023
 -3.710000000000000E-002   -4.396044919879016E-023
 -3.700000000000000E-002   -2.756371844255144E-023
 -3.690000000000000E-002    2.110765645484059E-023
 -3.680000000000000E-002    1.228960099055201E-022
 -3.670000000000000E-002    3.033815007097544E-022
 -3.660000000000000E-002    5.896216911050491E-022
 -3.650000000000000E-002    1.003741240947079E-021
 -3.640000000000000E-002    1.552794835955051E-021
 -3.630000000000000E-002    2.214973459105435E-021
 -3.620000000000000E-002    2.923252321597263E-021
 -3.610000000000000E-002    3.548914084519795E-021
 -3.600000000000000E-002    3.888779047790345E-021
 -3.590000000000000E-002    3.661080113101529E-021
 -3.580000000000000E-002    2.515185084932624E-021
 -3.570000000000000E-002    5.930769968737876E-023
 -3.560000000000000E-002   -4.092445149230624E-021
 -3.550000000000000E-002   -1.025693012349460E-020
 -3.540000000000000E-002   -1.861175919147397E-020
 -3.530000000000000E-002   -2.913281686625430E-020
 -3.520000000000000E-002   -4.155800982592718E-020
 -3.510000000000000E-002   -5.539480252027399E-020
 -3.500000000000000E-002   -6.998089712472986E-020
 -3.490000000000000E-002   -8.459012555816294E-020
 -3.480000000000000E-002   -9.854916958446094E-020
 -3.470000000000000E-002   -1.112980076147066E-019
 -3.460000000000000E-002   -1.222944732049008E-019
 -3.450000000000000E-002   -1.306415254394514E-019
 -3.440000000000000E-002   -1.343189452991035E-019
 -3.430000000000000E-002   -1.289438934744715E-019
 -3.420000000000000E-002   -1.060798043996536E-019
 -3.410000000000000E-002   -5.126846474568609E-020
 -3.400000000000000E-002    5.783228167475947E-020
 -3.390000000000000E-002    2.525825703937150E-019
 -3.380000000000000E-002    5.729133028630862E-019
 -3.370000000000000E-002    1.064285614554767E-018
 -3.360000000000000E-002    1.771032084243952E-018
 -3.350000000000000E-002    2.725266909914155E-018
 -3.340000000000000E-002    3.931057511513861E-018
 -3.330000000000000E-002    5.344386715393990E-018
 -3.320000000000000E-002    6.850585089859301E-018
 -3.310000000000000E-002    8.242267884879191E-018
 -3.300000000000000E-002    9.202256664643504E-018
 -3.290000000000000E-002    9.297154556949508E-018
 -3.280000000000000E-002    7.987957789799550E-018
 -3.270000000000000E-002    4.663902781452597E-018
 -3.260000000000000E-002   -1.295567011181495E-018
 -3.250000000000000E-002   -1.042857994333962E-017
 -3.240000000000000E-002   -2.307027356450127E-017
 -3.230000000000000E-002   -3.921119111577966E-017
 -3.220000000000000E-002   -5.834775797437863E-017
 -3.210000000000000E-002   -7.934409571988303E-017
 -3.200000000000000E-002   -1.003288986707400E-016
 -3.190000000000000E-002   -1.186539682111935E-016
 -3.180000000000000E-002   -1.309401957763733E-016
 -3.170000000000000E-002   -1.332321383192512E-016
 -3.160000000000000E-002   -1.212731621760572E-016
 -3.150000000000000E-002   -9.090028105869506E-017
 -3.140000000000000E-002   -3.854157617597460E-017
 -3.130000000000000E-002    3.821771759407973E-017
 -3.120000000000000E-002    1.400502136159419E-016
 -3.110000000000000E-002    2.653435889587036E-016
 -3.100000000000000E-002    4.097663041139919E-016
 -3.090000000000000E-002    5.660035783203414E-016
 -3.080000000000000E-002    7.237138558264950E-016
 -3.070000000000000E-002    8.697322709503280E-016
 -3.060000000000000E-002    9.885230859150869E-016
 -3.050000000000000E-002    1.062852131956653E-015
 -3.040000000000000E-002    1.074628392104813E-015
 -3.030000000000000E-002    1.005847959512644E-015
 -3.020000000000000E-002    8.395762616115064E-016
 -3.010000000000000E-002    5.609240759480496E-016
 -3.000000000000000E-002    1.580081930375413E-016
 -2.990000000000000E-002   -3.770612578382382E-016
 -2.980000000000000E-002   -1.047072335900662E-015
 -2.970000000000000E-002   -1.848347769149408E-015
 -2.960000000000000E-002   -2.768976228462816E-015
 -2.950000000000000E-002   -3.786517567838709E-015
 -2.940000000000000E-002   -4.865149877069288E-015
 -2.930000000000000E-002   -5.952368921934207E-015
 -2.920000000000000E-002   -6.975553565386573E-015
 -2.910000000000000E-002   -7.838961538778134E-015
 -2.900000000000000E-002   -8.421951392655231E-015
 -2.890000000000000E-002   -8.579442635920907E-015
 -2.880000000000000E-002   -8.145741073309101E-015
 -2.870000000000000E-002   -6.942806825773082E-015
 -2.860000000000000E-002   -4.793816776127225E-015
 -2.850000000000000E-002   -1.542411925037198E-015
 -2.840000000000000E-002    2.922683631976146E-015
 -2.830000000000000E-002    8.638841410027128E-015
 -2.820000000000000E-002    1.553871938729479E-014
 -2.810000000000000E-002    2.342064736596114E-014
 -2.800000000000000E-002    3.192425110315373E-014
 -2.790000000000000E-002    4.051594412071412E-014
 -2.780000000000000E-002    4.848894722868401E-014
 -2.770000000000000E-002    5.498201055601071E-014
 -2.760000000000000E-002    5.901976052325557E-014
 -2.750000000000000E-002    5.957577210076473E-014
 -2.740000000000000E-002    5.565697064273245E-014
 -2.730000000000000E-002    4.640516963038796E-014
 -2.720000000000000E-002    3.120859647093598E-014
 -2.710000000000000E-002    9.813718436483114E-015
 -2.700000000000000E-002   -1.757429934254853E-014
 -2.690000000000000E-002   -5.021504932665097E-014
 -2.680000000000000E-002   -8.679224525598791E-014
 -2.670000000000000E-002   -1.254190039671989E-013
 -2.660000000000000E-002   -1.636956539638505E-013
 -2.650000000000000E-002   -1.988215763986297E-013
 -2.640000000000000E-002   -2.277574151663421E-013
 -2.630000000000000E-002   -2.474275840150217E-013
 -2.620000000000000E-002   -2.549481870302930E-013
 -2.610000000000000E-002   -2.478610300534274E-013
 -2.600000000000000E-002   -2.243522524549008E-013
 -2.590000000000000E-002   -1.834347740277783E-013
 -2.580000000000000E-002   -1.250762297071351E-013
 -2.570000000000000E-002   -5.026007433927382E-014
 -2.560000000000000E-002    3.902551157059169E-014
 -2.550000000000000E-002    1.398674032402371E-013
 -2.540000000000000E-002    2.485639803059932E-013
 -2.530000000000000E-002    3.607997098009425E-013
 -2.520000000000000E-002    4.718341228578654E-013
 -2.510000000000000E-002    5.766812199090986E-013
 -2.500000000000000E-002    6.702580929131213E-013
 -2.490000000000000E-002    7.474898038100341E-013
 -2.480000000000000E-002    8.033670611462415E-013
 -2.470000000000000E-002    8.329674681292277E-013
 -2.460000000000000E-002    8.314622766942400E-013
 -2.450000000000000E-002    7.941425132750423E-013
 -2.440000000000000E-002    7.165035334331521E-013
 -2.430000000000000E-002    5.944269497543554E-013
 -2.420000000000000E-002    4.244911546902459E-013
 -2.410000000000000E-002    2.044256303450115E-013
 -2.400000000000000E-002   -6.629848181818336E-014
 -2.390000000000000E-002   -3.857759979380934E-013
 -2.380000000000000E-002   -7.489364276475924E-013
 -2.370000000000000E-002   -1.146862636360879E-012
 -2.360000000000000E-002   -1.566266535813229E-012
 -2.350000000000000E-002   -1.989235846472677E-012
 -2.340000000000000E-002   -2.393358397889313E-012
 -2.330000000000000E-002   -2.752308868825887E-012
 -2.320000000000000E-002   -3.036941226873570E-012
 -2.310000000000000E-002   -3.216881595698445E-012
 -2.300000000000000E-002   -3.262556532898766E-012
 -2.290000000000000E-002   -3.147530171963634E-012
 -2.280000000000000E-002   -2.850971082329997E-012
 -2.270000000000000E-002   -2.360031738160725E-012
 -2.260000000000000E-002   -1.671901708321736E-012
 -2.250000000000000E-002   -7.953064501965675E-013
 -2.240000000000000E-002    2.487415268471920E-013
 -2.230000000000000E-002    1.427071965782722E-012
 -2.220000000000000E-002    2.695416562386553E-012
 -2.210000000000000E-002    4.000355892925639E-012
 -2.200000000000000E-002    5.282011075534784E-012
 -2.190000000000000E-002    6.477262106850469E-012
 -2.180000000000000E-002    7.523205002271314E-012
 -2.170000000000000E-002    8.360536510597137E-012
 -2.160000000000000E-002    8.936568245635519E-012
 -2.150000000000000E-002    9.207613269489828E-012
 -2.140000000000000E-002    9.140581181589840E-012
 -2.130000000000000E-002    8.713722437357472E-012
 -2.120000000000000E-002    7.916586220363880E-012
 -2.110000000000000E-002    6.749363063941790E-012
 -2.100000000000000E-002    5.221887233244191E-012
 -2.090000000000000E-002    3.352608935510862E-012
 -2.080000000000000E-002    1.167859828401864E-012
 -2.070000000000000E-002   -1.298319032710889E-012
 -2.060000000000000E-002   -4.003633482749612E-012
 -2.050000000000000E-002   -6.896252120981716E-012
 -2.040000000000000E-002   -9.912942610235334E-012
 -2.030000000000000E-002   -1.297692941992819E-011
 -2.020000000000000E-002   -1.599594933488618E-011
 -2.010000000000000E-002   -1.886103494855840E-011
 -2.000000000000000E-002   -2.144659060199174E-011
 -1.990000000000000E-002   -2.361227073085160E-011
 -1.980000000000000E-002   -2.520699740210289E-011
 -1.970000000000000E-002   -2.607527047506454E-011
 -1.960000000000000E-002   -2.606564269622067E-011
 -1.950000000000000E-002   -2.504093222898402E-011
 -1.940000000000000E-002   -2.288951663644361E-011
 -1.930000000000000E-002   -1.953679244945882E-011
 -1.920000000000000E-002   -1.495579357976397E-011
 -1.910000000000000E-002   -9.175919107120208E-012
 -1.900000000000000E-002   -2.288828506671256E-012
 -1.890000000000000E-002    5.549239915332528E-012
 -1.880000000000000E-002    1.411915535710637E-011
 -1.870000000000000E-002    2.314466101835469E-011
 -1.860000000000000E-002    3.230192524026139E-011
 -1.850000000000000E-002    4.123223487727042E-011
 -1.840000000000000E-002    4.955690178539822E-011
 -1.830000000000000E-002    5.689335465929414E-011
 -1.820000000000000E-002    6.287125991874931E-011
 -1.810000000000000E-002    6.714774711874200E-011
 -1.800000000000000E-002    6.942089489502322E-011
 -1.790000000000000E-002    6.944106306959612E-011
 -1.780000000000000E-002    6.701988792817985E-011
 -1.770000000000000E-002    6.203709448708935E-011
 -1.760000000000000E-002    5.444555464763600E-011
 -1.750000000000000E-002    4.427509158052744E-011
 -1.740000000000000E-002    3.163550284350076E-011
 -1.730000000000000E-002    1.671919111491246E-011
 -1.720000000000000E-002   -1.965625474837395E-013
 -1.710000000000000E-002   -1.874798883454847E-011
 -1.700000000000000E-002   -3.848447461603854E-011
 -1.690000000000000E-002   -5.887045528110518E-011
 -1.680000000000000E-002   -7.929068993330791E-011
 -1.670000000000000E-002   -9.906003445405412E-011
 -1.660000000000000E-002   -1.174386710453187E-010
 -1.650000000000000E-002   -1.336532680390409E-010
 -1.640000000000000E-002   -1.469241347283829E-010
 -1.630000000000000E-002   -1.564974709234212E-010
 -1.620000000000000E-002   -1.616813244653373E-010
 -1.610000000000000E-002   -1.618832278738659E-010
 -1.600000000000000E-002   -1.566467763884324E-010
 -1.590000000000000E-002   -1.456844712704823E-010
 -1.580000000000000E-002   -1.289041225560845E-010
 -1.570000000000000E-002   -1.064264941896490E-010
 -1.560000000000000E-002   -7.859263864588000E-011
 -1.550000000000000E-002   -4.596024023781203E-011
 -1.540000000000000E-002   -9.289232554298690E-012
 -1.530000000000000E-002    3.048189106889914E-011
 -1.520000000000000E-002    7.226715911853418E-011
 -1.510000000000000E-002    1.148687898073750E-010
 -1.500000000000000E-002    1.570148582302385E-010
 -1.490000000000000E-002    1.973963139894161E-010
 -1.480000000000000E-002    2.347014560840674E-010
 -1.470000000000000E-002    2.676468708082452E-010
 -1.460000000000000E-002    2.950046838422597E-010
 -1.450000000000000E-002    3.156270905027703E-010
 -1.440000000000000E-002    3.284698973819394E-010
 -1.430000000000000E-002    3.326171114188746E-010
 -1.420000000000000E-002    3.273085220264302E-010
 -1.410000000000000E-002    3.119718733401532E-010
 -1.400000000000000E-002    2.862598998598144E-010
 -1.390000000000000E-002    2.500911577995047E-010
 -1.380000000000000E-002    2.036922091616518E-010
 -1.370000000000000E-002    1.476369038386488E-010
 -1.360000000000000E-002    8.287769534092220E-011
 -1.350000000000000E-002    1.076317601546404E-011
 -1.340000000000000E-002   -6.696384226217969E-011
 -1.330000000000000E-002   -1.481921403250895E-010
 -1.320000000000000E-002   -2.304946859588642E-010
 -1.310000000000000E-002   -3.112082509837715E-010
 -1.300000000000000E-002   -3.875373290671593E-010
 -1.290000000000000E-002   -4.566771027684909E-010
 -1.280000000000000E-002   -5.159468589862126E-010
 -1.270000000000000E-002   -5.629242144563551E-010
 -1.260000000000000E-002   -5.955687788385552E-010
 -1.250000000000000E-002   -6.123248962727237E-010
 -1.240000000000000E-002   -6.121940479471372E-010
 -1.230000000000000E-002   -5.947710450271174E-010
 -1.220000000000000E-002   -5.602409029911410E-010
 -1.210000000000000E-002   -5.093382298642903E-010
 -1.200000000000000E-002   -4.432745749061833E-010
 -1.190000000000000E-002   -3.636431957585077E-010
 -1.180000000000000E-002   -2.723127162328534E-010
 -1.170000000000000E-002   -1.713227494824109E-010
 -1.160000000000000E-002   -6.279380291455815E-011
 -1.150000000000000E-002    5.113860980903417E-011
 -1.140000000000000E-002    1.683589819923836E-010
 -1.130000000000000E-002    2.867742554465604E-010
 -1.120000000000000E-002    4.042870797722211E-010
 -1.110000000000000E-002    5.187477213985388E-010
 -1.100000000000000E-002    6.278972605690675E-010
 -1.090000000000000E-002    7.293161853506436E-010
 -1.080000000000000E-002    8.203937055420631E-010
 -1.070000000000000E-002    8.983309023947079E-010
 -1.060000000000000E-002    9.601881123736091E-010
 -1.050000000000000E-002    1.002980577859590E-009
 -1.040000000000000E-002    1.023820472099831E-009
 -1.030000000000000E-002    1.020097171999482E-009
 -1.020000000000000E-002    9.896808542455933E-010
 -1.010000000000000E-002    9.311306956404212E-010
 -1.000000000000000E-002    8.438852980933049E-010
 -9.899999999999999E-003    7.284139919957005E-010
 -9.800000000000000E-003    5.863095669779542E-010
 -9.699999999999999E-003    4.203082676691226E-010
 -9.599999999999999E-003    2.342300824936393E-010
 -9.500000000000000E-003    3.284003676989438E-011
 -9.399999999999999E-003   -1.783599452247422E-010
 -9.299999999999999E-003   -3.933919719728699E-010
 -9.200000000000000E-003   -6.060931568374333E-010
 -9.099999999999999E-003   -8.104109809829249E-010
 -8.999999999999999E-003   -1.000676571727221E-009
 -8.900000000000000E-003   -1.171832829531192E-009
 -8.799999999999999E-003   -1.319598634429359E-009
 -8.699999999999999E-003   -1.440559091263081E-009
 -8.600000000000000E-003   -1.532179291869382E-009
 -8.499999999999999E-003   -1.592747575528888E-009
 -8.399999999999999E-003   -1.621264333848201E-009
 -8.300000000000000E-003   -1.617293965725909E-009
 -8.199999999999999E-003   -1.580804972229672E-009
 -8.100000000000000E-003   -1.512021898065318E-009
 -8.000000000000000E-003   -1.411308172451869E-009
 -7.899999999999999E-003   -1.279097971463717E-009
 -7.800000000000000E-003   -1.115884139036778E-009
 -7.699999999999999E-003   -9.222646599866255E-010
 -7.599999999999999E-003   -6.990403406711955E-010
 -7.499999999999999E-003   -4.473512706598500E-010
 -7.399999999999999E-003   -1.688357589128449E-010
 -7.299999999999999E-003    1.342085696713301E-010
 -7.199999999999999E-003    4.586794550136131E-010
 -7.100000000000000E-003    8.005553040959288E-010
 -6.999999999999999E-003    1.154823216292648E-009
 -6.899999999999999E-003    1.515454169650753E-009
 -6.800000000000000E-003    1.875426157762969E-009
 -6.699999999999999E-003    2.226789634790773E-009
 -6.599999999999999E-003    2.560768845209285E-009
 -6.499999999999999E-003    2.867888668015804E-009
 -6.399999999999999E-003    3.138124829399310E-009
 -6.299999999999999E-003    3.361066437965701E-009
 -6.199999999999999E-003    3.526101508856978E-009
 -6.100000000000000E-003    3.622623499613016E-009
 -5.999999999999999E-003    3.640276176285561E-009
 -5.899999999999999E-003    3.569249560854314E-009
 -5.800000000000000E-003    3.400640327914993E-009
 -5.699999999999999E-003    3.126894938997725E-009
 -5.599999999999999E-003    2.742339912602832E-009
 -5.499999999999999E-003    2.243805617284951E-009
 -5.399999999999999E-003    1.631336004755861E-009
 -5.299999999999999E-003    9.089695630546560E-010
 -5.199999999999999E-003    8.556742497118021E-011
 -5.099999999999999E-003   -8.243369511330031E-010
 -4.999999999999999E-003   -1.799702380161462E-009
 -4.899999999999999E-003   -2.812188330453150E-009
 -4.799999999999999E-003   -3.825432862712189E-009
 -4.699999999999999E-003   -4.794418350532089E-009
 -4.599999999999999E-003   -5.664933484250894E-009
 -4.499999999999999E-003   -6.373121028604025E-009
 -4.399999999999999E-003   -6.845098292769339E-009
 -4.299999999999999E-003   -6.996617692846981E-009
 -4.199999999999999E-003   -6.732734909636524E-009
 -4.099999999999999E-003   -5.947440668985235E-009
 -3.999999999999999E-003   -4.523228564987928E-009
 -3.899999999999999E-003   -2.330567697251746E-009
 -3.799999999999999E-003    7.727258759937336E-010
 -3.699999999999999E-003    4.942212300560939E-009
 -3.599999999999999E-003    1.034763338527558E-008
 -3.499999999999999E-003    1.717373420501874E-008
 -3.399999999999999E-003    2.562105856640140E-008
 -3.299999999999999E-003    3.590661595359286E-008
 -3.199999999999999E-003    4.826440718986068E-008
 -3.099999999999999E-003    6.294564125626891E-008
 -2.999999999999999E-003    8.021862412551650E-008
 -2.899999999999999E-003    1.003683475751708E-007
 -2.799999999999999E-003    1.236955956424847E-007
 -2.699999999999999E-003    1.505157106869006E-007
 -2.599999999999999E-003    1.811570824250814E-007
 -2.499999999999999E-003    2.159591973277003E-007
 -2.399999999999999E-003    2.552708359420625E-007
 -2.299999999999999E-003    2.994479307522179E-007
 -2.199999999999999E-003    3.488516768650084E-007
 -2.099999999999999E-003    4.038469593287519E-007
 -1.999999999999999E-003    4.648010153345219E-007
 -1.899999999999999E-003    5.320827118998473E-007
 -1.799999999999999E-003    6.060624110893637E-007
 -1.699999999999999E-003    6.871123640063566E-007
 -1.599999999999999E-003    7.756078881900668E-007
 -1.499999999999999E-003    8.719292237369177E-007
 -1.399999999999999E-003    9.764636314579994E-007
 -1.299999999999999E-003    1.089608148830666E-006
 -1.199999999999999E-003    1.211772644590337E-006
 -1.099999999999999E-003    1.343382761234810E-006
 -9.999999999999989E-004    1.484883170944464E-006
 -8.999999999999990E-004    1.636740191096448E-006
 -7.999999999999990E-004    1.799444374392919E-006
 -6.999999999999989E-004    1.973512270176236E-006
 -5.999999999999990E-004    2.159487830992150E-006
 -4.999999999999989E-004    2.357943439940269E-006
 -3.999999999999989E-004    2.569480254822597E-006
 -2.999999999999989E-004    2.794728232334821E-006
 -1.999999999999989E-004    3.034345577179509E-006
 -9.999999999999892E-005    3.289019863060282E-006
  1.084202172485504E-018    3.559466532504949E-006
  1.000000000000011E-004    3.846431416482321E-006
  2.000000000000011E-004    4.150690962861351E-006
  3.000000000000011E-004    4.473055908918114E-006
  4.000000000000011E-004    4.814375333215416E-006
  5.000000000000011E-004    5.175540770662622E-006
  6.000000000000011E-004    5.557493782774380E-006
  7.000000000000011E-004    5.961233872755160E-006
  8.000000000000011E-004    6.387826675953185E-006
  9.000000000000012E-004    6.838413401058654E-006
  1.000000000000001E-003    7.314221709630740E-006
  1.100000000000001E-003    7.816575173270871E-006
  1.200000000000001E-003    8.346900308678547E-006
  1.300000000000001E-003    8.906737818969865E-006
  1.400000000000001E-003    9.497747259003218E-006
  1.500000000000001E-003    1.012171344606926E-005
  1.600000000000001E-003    1.078054996193274E-005
  1.700000000000001E-003    1.147629951741596E-005
  1.800000000000001E-003    1.221113419897931E-005
  1.900000000000001E-003    1.298735520278078E-005
  2.000000000000001E-003    1.380738833613478E-005
  2.100000000000001E-003    1.467378401659206E-005
  2.200000000000001E-003    1.558921217197204E-005
  2.300000000000001E-003    1.655646330632262E-005
  2.400000000000001E-003    1.757844609802016E-005
  2.500000000000001E-003    1.865818878842717E-005
  2.600000000000001E-003    1.979884414893929E-005
  2.700000000000001E-003    2.100369398856203E-005
  2.800000000000001E-003    2.227615889260598E-005
  2.900000000000001E-003    2.361980985298117E-005
  3.000000000000001E-003    2.503838315912402E-005
  3.100000000000001E-003    2.653578752557811E-005
  3.200000000000001E-003    2.811612119361755E-005
  3.300000000000001E-003    2.978369128955568E-005
  3.400000000000001E-003    3.154301948132308E-005
  3.500000000000001E-003    3.339886541682295E-005
  3.600000000000001E-003    3.535622173984557E-005
  3.700000000000001E-003    3.742033872962598E-005
  3.800000000000001E-003    3.959671698370849E-005
  3.900000000000001E-003    4.189111824720366E-005
  4.000000000000001E-003    4.430956572052392E-005
  4.100000000000001E-003    4.685834146749028E-005
  4.200000000000001E-003    4.954398302478678E-005
  4.300000000000001E-003    5.237330151148952E-005
  4.400000000000001E-003    5.535336230160678E-005
  4.500000000000001E-003    5.849149729692377E-005
  4.600000000000002E-003    6.179531743000982E-005
  4.700000000000001E-003    6.527270601995324E-005
  4.800000000000001E-003    6.893185235920329E-005
  4.900000000000002E-003    7.278125539053821E-005
  5.000000000000001E-003    7.682975686992157E-005
  5.100000000000001E-003    8.108654211363625E-005
  5.200000000000001E-003    8.556120203248618E-005
  5.300000000000002E-003    9.026372222899807E-005
  5.400000000000001E-003    9.520454348944514E-005
  5.500000000000001E-003    1.003945899706372E-004
  5.600000000000002E-003    1.058452598728388E-004
  5.700000000000001E-003    1.115684882764834E-004
  5.800000000000001E-003    1.175767335063706E-004
  5.900000000000002E-003    1.238830240158453E-004
  6.000000000000001E-003    1.305009641360430E-004
  6.100000000000001E-003    1.374447372428463E-004
  6.200000000000002E-003    1.447291087403965E-004
  6.300000000000002E-003    1.523694494467458E-004
  6.400000000000001E-003    1.603817249460361E-004
  6.500000000000001E-003    1.687824958647397E-004
  6.600000000000002E-003    1.775889637243495E-004
  6.700000000000001E-003    1.868189457418327E-004
  6.800000000000001E-003    1.964908750464871E-004
  6.900000000000002E-003    2.066238769058904E-004
  7.000000000000001E-003    2.172377207235627E-004
  7.100000000000001E-003    2.283529171104590E-004
  7.200000000000002E-003    2.399906857117814E-004
  7.300000000000002E-003    2.521730587385287E-004
  7.400000000000001E-003    2.649228451148867E-004
  7.500000000000001E-003    2.782637118020452E-004
  7.600000000000002E-003    2.922202040881258E-004
  7.700000000000001E-003    3.068177860447690E-004
  7.800000000000001E-003    3.220828736998709E-004
  7.900000000000001E-003    3.380428444146948E-004
  8.000000000000002E-003    3.547260815724473E-004
  8.100000000000001E-003    3.721619278527192E-004
  8.200000000000001E-003    3.903808033677887E-004
  8.300000000000002E-003    4.094141112075970E-004
  8.400000000000001E-003    4.292942439986667E-004
  8.500000000000002E-003    4.500547207351660E-004
  8.600000000000002E-003    4.717299864363384E-004
  8.700000000000001E-003    4.943555299262411E-004
  8.800000000000002E-003    5.179679553918153E-004
  8.900000000000002E-003    5.426047457346600E-004
  9.000000000000001E-003    5.683045421577695E-004
  9.100000000000002E-003    5.951070891578000E-004
  9.200000000000002E-003    6.230531547865116E-004
  9.300000000000001E-003    6.521847195767201E-004
  9.400000000000002E-003    6.825448488745919E-004
  9.500000000000001E-003    7.141779298972988E-004
  9.600000000000001E-003    7.471296037420979E-004
  9.700000000000002E-003    7.814467885046261E-004
  9.800000000000001E-003    8.171778353651230E-004
  9.900000000000001E-003    8.543725047742207E-004
  1.000000000000000E-002    8.930820492971051E-004
  1.010000000000000E-002    9.333591249320316E-004
  1.020000000000000E-002    9.752579741271614E-004
  1.030000000000000E-002    1.018834427869325E-003
  1.040000000000000E-002    1.064145778793640E-003
  1.050000000000000E-002    1.111251010878903E-003
  1.060000000000000E-002    1.160210586376332E-003
  1.070000000000000E-002    1.211086477153623E-003
  1.080000000000000E-002    1.263942248912044E-003
  1.090000000000000E-002    1.318842950605841E-003
  1.100000000000000E-002    1.375855193366989E-003
  1.110000000000000E-002    1.435046949327708E-003
  1.120000000000000E-002    1.496487747946506E-003
  1.130000000000000E-002    1.560248645035626E-003
  1.140000000000000E-002    1.626401984364041E-003
  1.150000000000000E-002    1.695021864998883E-003
  1.160000000000000E-002    1.766183889941697E-003
  1.170000000000000E-002    1.839965058293185E-003
  1.180000000000000E-002    1.916444129667217E-003
  1.190000000000000E-002    1.995701423794646E-003
  1.200000000000000E-002    2.077818797333464E-003
  1.210000000000000E-002    2.162880018874333E-003
  1.220000000000000E-002    2.250970497627589E-003
  1.230000000000000E-002    2.342177334204804E-003
  1.240000000000000E-002    2.436589282406968E-003
  1.250000000000000E-002    2.534297081158605E-003
  1.260000000000000E-002    2.635393115900907E-003
  1.270000000000000E-002    2.739971406002518E-003
  1.280000000000000E-002    2.848127805822432E-003
  1.290000000000000E-002    2.959959736830942E-003
  1.300000000000000E-002    3.075565893356488E-003
  1.310000000000000E-002    3.195046727687333E-003
  1.320000000000000E-002    3.318503908506893E-003
  1.330000000000000E-002    3.446040464521889E-003
  1.340000000000000E-002    3.577760913628761E-003
  1.350000000000000E-002    3.713770745657835E-003
  1.360000000000000E-002    3.854176686822956E-003
  1.370000000000000E-002    3.999086656738171E-003
  1.380000000000000E-002    4.148609331106438E-003
  1.390000000000000E-002    4.302854562579433E-003
  1.400000000000000E-002    4.461932893693175E-003
  1.410000000000000E-002    4.625955864581258E-003
  1.420000000000000E-002    4.795035993653541E-003
  1.430000000000000E-002    4.969286413094682E-003
  1.440000000000000E-002    5.148820919788935E-003
  1.450000000000000E-002    5.333754418231449E-003
  1.460000000000000E-002    5.524202053172131E-003
  1.470000000000000E-002    5.720279684650133E-003
  1.480000000000000E-002    5.922103288332578E-003
  1.490000000000000E-002    6.129789805368152E-003
  1.500000000000000E-002    6.343455760013352E-003
  1.510000000000000E-002    6.563218278455334E-003
  1.520000000000000E-002    6.789194172545652E-003
  1.530000000000000E-002    7.021499734928340E-003
  1.540000000000000E-002    7.260251428057991E-003
  1.550000000000000E-002    7.505565703797700E-003
  1.560000000000000E-002    7.757557264858787E-003
  1.570000000000000E-002    8.016340047807278E-003
  1.580000000000000E-002    8.282027173908982E-003
  1.590000000000000E-002    8.554730127233854E-003
  1.600000000000000E-002    8.834560178590415E-003
  1.610000000000000E-002    9.121625495246940E-003
  1.620000000000000E-002    9.416034423114018E-003
  1.630000000000000E-002    9.717892964030533E-003
  1.640000000000000E-002    1.002730496841409E-002
  1.650000000000000E-002    1.034437212207932E-002
  1.660000000000000E-002    1.066919442469802E-002
  1.670000000000000E-002    1.100187045058668E-002
  1.680000000000000E-002    1.134249554935726E-002
  1.690000000000000E-002    1.169116251624195E-002
  1.700000000000000E-002    1.204796315203056E-002
  1.710000000000000E-002    1.241298477860109E-002
  1.720000000000000E-002    1.278631229614279E-002
  1.730000000000000E-002    1.316802765110501E-002
  1.740000000000000E-002    1.355820945513145E-002
  1.750000000000000E-002    1.395693316248879E-002
  1.760000000000000E-002    1.436426899692977E-002
  1.770000000000000E-002    1.478028504361061E-002
  1.780000000000000E-002    1.520504356942588E-002
  1.790000000000000E-002    1.563860269447705E-002
  1.800000000000000E-002    1.608101468127173E-002
  1.810000000000000E-002    1.653232829810375E-002
  1.820000000000000E-002    1.699258660356892E-002
  1.830000000000000E-002    1.746182555627088E-002
  1.840000000000000E-002    1.794007712906633E-002
  1.850000000000000E-002    1.842736742844187E-002
  1.860000000000000E-002    1.892371559133218E-002
  1.870000000000000E-002    1.942913282088279E-002