 -4.000000000000000E-002    0.000000000000000E+000
 -3.990000000000000E-002    0.000000000000000E+000
 -3.980000000000000E-002    0.000000000000000E+000
 -3.970000000000000E-002    0.000000000000000E+000
 -3.960000000000000E-002    0.000000000000000E+000
 -3.950000000000000E-002    0.000000000000000E+000
 -3.940000000000000E-002    0.000000000000000E+000
 -3.930000000000000E-002    0.000000000000000E+000
 -3.920000000000000E-002    0.000000000000000E+000
 -3.910000000000000E-002    0.000000000000000E+000
 -3.900000000000000E-002    0.000000000000000E+000
 -3.890000000000000E-002    0.000000000000000E+000
 -3.880000000000000E-002    0.000000000000000E+000
 -3.870000000000000E-002    1.466017619211230E-045
 -3.860000000000000E-002    3.733523498943488E-044
 -3.850000000000000E-002    5.028330906218159E-043
 -3.840000000000000E-002    4.687267043390617E-042
 -3.830000000000000E-002    3.412815646935868E-041
 -3.820000000000000E-002    2.067757394249946E-040
 -3.810000000000000E-002    1.083251735211523E-039
 -3.800000000000000E-002    5.032349955204019E-039
 -3.790000000000000E-002    2.109712147204093E-038
 -3.780000000000000E-002    8.082785463407992E-038
 -3.770000000000000E-002    2.856693317911324E-037
 -3.760000000000000E-002    9.381312830462498E-037
 -3.750000000000000E-002    2.878925612909989E-036
 -3.740000000000000E-002    8.293722257530870E-036
 -3.730000000000000E-002    2.251312112649830E-035
 -3.720000000000000E-002    5.775688636901694E-035
 -3.710000000000000E-002    1.403811067744925E-034
 -3.700000000000000E-002    3.238653545613663E-034
 -3.690000000000000E-002    7.101408056566488E-034
 -3.680000000000000E-002    1.481021264445456E-033
 -3.670000000000000E-002    2.937797624036090E-033
 -3.660000000000000E-002    5.537875328110306E-033
 -3.650000000000000E-002    9.899191973581010E-033
 -3.640000000000000E-002    1.671253775125050E-032
 -3.630000000000000E-002    2.645700352740713E-032
 -3.620000000000000E-002    3.875817831005313E-032
 -3.610000000000000E-002    5.117579185983629E-032
 -3.600000000000000E-002    5.718678309276467E-032
 -3.590000000000000E-002    4.319089236031402E-032
 -3.580000000000000E-002   -1.542112653094702E-032
 -3.570000000000000E-002   -1.586511670233904E-031
 -3.560000000000000E-002   -4.454999748775328E-031
 -3.550000000000000E-002   -9.545176933328024E-031
 -3.540000000000000E-002   -1.777778879376757E-030
 -3.530000000000000E-002   -3.003632957096741E-030
 -3.520000000000000E-002   -4.683107705490031E-030
 -3.510000000000000E-002   -6.775818597130032E-030
 -3.500000000000000E-002   -9.074561073127108E-030
 -3.490000000000000E-002   -1.111424200642381E-029
 -3.480000000000000E-002   -1.208057709990477E-029
 -3.470000000000000E-002   -1.074611083372956E-029
 -3.460000000000000E-002   -5.472608324292540E-030
 -3.450000000000000E-002    5.675318724806586E-030
 -3.440000000000000E-002    2.466788484645797E-029
 -3.430000000000000E-002    5.309077716381697E-029
 -3.420000000000000E-002    9.161827975958321E-029
 -3.410000000000000E-002    1.395167594114877E-028
 -3.400000000000000E-002    1.944255908433581E-028
 -3.390000000000000E-002    2.527651891005672E-028
 -3.380000000000000E-002    3.111696555528171E-028
 -3.370000000000000E-002    3.692621673676795E-028
 -3.360000000000000E-002    4.337985793852281E-028
 -3.350000000000000E-002    5.236130283171772E-028
 -3.340000000000000E-002    6.738624806726129E-028
 -3.330000000000000E-002    9.368162880270729E-028
 -3.320000000000000E-002    1.375032786785524E-027
 -3.310000000000000E-002    2.041565765849376E-027
 -3.300000000000000E-002    2.941416176656511E-027
 -3.290000000000000E-002    3.969518441526677E-027
 -3.280000000000000E-002    4.824071508138050E-027
 -3.270000000000000E-002    4.900708212833567E-027
 -3.260000000000000E-002    3.183430316080280E-027
 -3.250000000000000E-002   -1.837942221168476E-027
 -3.240000000000000E-002   -1.217802958412693E-026
 -3.230000000000000E-002   -3.023286205242212E-026
 -3.220000000000000E-002   -5.845228499013214E-026
 -3.210000000000000E-002   -9.873739014033226E-026
 -3.200000000000000E-002   -1.515113862055852E-025
 -3.190000000000000E-002   -2.144553306692253E-025
 -3.180000000000000E-002   -2.809725908405108E-025
 -3.170000000000000E-002   -3.385472189608746E-025
 -3.160000000000000E-002   -3.672871515189308E-025
 -3.150000000000000E-002   -3.390755069759768E-025
 -3.140000000000000E-002   -2.178730331605111E-025
 -3.130000000000000E-002    3.821520406525863E-026
 -3.120000000000000E-002    4.725106100439644E-025
 -3.110000000000000E-002    1.122509237120071E-024
 -3.100000000000000E-002    2.009638926354465E-024
 -3.090000000000000E-002    3.126308728965320E-024
 -3.080000000000000E-002    4.421133836415587E-024
 -3.070000000000000E-002    5.783911991995564E-024
 -3.060000000000000E-002    7.032621535671124E-024
 -3.050000000000000E-002    7.905268510652333E-024
 -3.040000000000000E-002    8.059748809671058E-024
 -3.030000000000000E-002    7.084804519436333E-024
 -3.020000000000000E-002    4.524599399590372E-024
 -3.010000000000000E-002   -8.156986478802472E-026
 -3.000000000000000E-002   -7.144354874166801E-024
 -2.990000000000000E-002   -1.695575446285416E-023
 -2.980000000000000E-002   -2.960984510361902E-023
 -2.970000000000000E-002   -4.491697883722922E-023
 -2.960000000000000E-002   -6.231569962733787E-023
 -2.950000000000000E-002   -8.078649400664186E-023
 -2.940000000000000E-002   -9.876983491327605E-023
 -2.930000000000000E-002   -1.140902198382345E-022
 -2.920000000000000E-002   -1.238873900095007E-022
 -2.910000000000000E-002   -1.245585483061934E-022
 -2.900000000000000E-002   -1.117214409315474E-022
 -2.890000000000000E-002   -8.022028764436605E-023
 -2.880000000000000E-002   -2.421417149197416E-023
 -2.870000000000000E-002    6.258998107312399E-023
 -2.860000000000000E-002    1.864731768667671E-022
 -2.850000000000000E-002    3.529020449193037E-022
 -2.840000000000000E-002    5.652743210928308E-022
 -2.830000000000000E-002    8.231147820847261E-022
 -2.820000000000000E-002    1.119675731209611E-021
 -2.810000000000000E-002    1.438994517000004E-021
 -2.800000000000000E-002    1.752610379739691E-021
 -2.790000000000000E-002    2.016343413036700E-021
 -2.780000000000000E-002    2.167772693424157E-021
 -2.770000000000000E-002    2.125294330692813E-021
 -2.760000000000000E-002    1.789843222517090E-021
 -2.750000000000000E-002    1.050471323241873E-021
 -2.740000000000000E-002   -2.050938233520516E-022
 -2.730000000000000E-002   -2.074071305400727E-021
 -2.720000000000000E-002   -4.616201519116429E-021
 -2.710000000000000E-002   -7.825956822792889E-021
 -2.700000000000000E-002   -1.160128975340981E-020
 -2.690000000000000E-002   -1.571228425524235E-020
 -2.680000000000000E-002   -1.977458322365513E-020
 -2.670000000000000E-002   -2.323384595006724E-020
 -2.660000000000000E-002   -2.536836778780188E-020
 -2.650000000000000E-002   -2.531715081069897E-020
 -2.640000000000000E-002   -2.213969401406344E-020
 -2.630000000000000E-002   -1.491141913204398E-020
 -2.620000000000000E-002   -2.854790590577513E-021
 -2.610000000000000E-002    1.449915675404802E-020
 -2.600000000000000E-002    3.713050960250492E-020
 -2.590000000000000E-002    6.434998239456564E-020
 -2.580000000000000E-002    9.464328464371483E-020
 -2.570000000000000E-002    1.255702399635469E-019
 -2.560000000000000E-002    1.537508468933127E-019
 -2.550000000000000E-002    1.749683708184073E-019
 -2.540000000000000E-002    1.844128072470936E-019
 -2.530000000000000E-002    1.770757359989357E-019
 -2.520000000000000E-002    1.482901422937855E-019
 -2.510000000000000E-002    9.438705309341588E-020
 -2.500000000000000E-002    1.341739070015424E-020
 -2.490000000000000E-002   -9.413549132051211E-020
 -2.480000000000000E-002   -2.247454280163613E-019
 -2.470000000000000E-002   -3.714380653742091E-019
 -2.460000000000000E-002   -5.236916991026512E-019
 -2.450000000000000E-002   -6.677292811380833E-019
 -2.440000000000000E-002   -7.872545409805856E-019
 -2.430000000000000E-002   -8.646387944608968E-019
 -2.420000000000000E-002   -8.825071725172767E-019
 -2.410000000000000E-002   -8.256100970647053E-019
 -2.400000000000000E-002   -6.828063466618985E-019
 -2.390000000000000E-002   -4.489357050870562E-019
 -2.380000000000000E-002   -1.263344929928890E-019
 -2.370000000000000E-002    2.742471427816884E-019
 -2.360000000000000E-002    7.335263903122708E-019
 -2.350000000000000E-002    1.224488934179838E-018
 -2.340000000000000E-002    1.714121916508411E-018
 -2.330000000000000E-002    2.165957852185518E-018
 -2.320000000000000E-002    2.543176571819590E-018
 -2.310000000000000E-002    2.811888804937606E-018
 -2.300000000000000E-002    2.944152538688977E-018
 -2.290000000000000E-002    2.920251451318652E-018
 -2.280000000000000E-002    2.729825326253510E-018
 -2.270000000000000E-002    2.371587370672073E-018
 -2.260000000000000E-002    1.851573264129592E-018
 -2.250000000000000E-002    1.180149780390218E-018
 -2.240000000000000E-002    3.682912591230253E-019
 -2.230000000000000E-002   -5.760979011404568E-019
 -2.220000000000000E-002   -1.650856934162927E-018
 -2.210000000000000E-002   -2.860236472448318E-018
 -2.200000000000000E-002   -4.212679655250470E-018
 -2.190000000000000E-002   -5.715171968507767E-018
 -2.180000000000000E-002   -7.364117211495140E-018
 -2.170000000000000E-002   -9.133380923725598E-018
 -2.160000000000000E-002   -1.096087249868632E-017
 -2.150000000000000E-002   -1.273575989662616E-017
 -2.140000000000000E-002   -1.428896299325841E-017
 -2.130000000000000E-002   -1.538983636643897E-017
 -2.120000000000000E-002   -1.575181707505476E-017
 -2.110000000000000E-002   -1.504918648109482E-017
 -2.100000000000000E-002   -1.294597239232688E-017
 -2.090000000000000E-002   -9.136429726491071E-018
 -2.080000000000000E-002   -3.394651172159256E-018
 -2.070000000000000E-002    4.371136807905564E-018
 -2.060000000000000E-002    1.406583453719739E-017
 -2.050000000000000E-002    2.536386554833394E-017
 -2.040000000000000E-002    3.768279777235797E-017
 -2.030000000000000E-002    5.018174394476952E-017
 -2.020000000000000E-002    6.179042048186132E-017
 -2.010000000000000E-002    7.127183221663787E-017
 -2.000000000000000E-002    7.731771903995481E-017
 -1.990000000000000E-002    7.867131542300322E-017
 -1.980000000000000E-002    7.426749476253314E-017
 -1.970000000000000E-002    6.337614791183223E-017
 -1.960000000000000E-002    4.573189242771763E-017
 -1.950000000000000E-002    2.163214420486925E-017
 -1.940000000000000E-002   -8.013158603160919E-018
 -1.930000000000000E-002   -4.169312408995650E-017
 -1.920000000000000E-002   -7.737556918489094E-017
 -1.910000000000000E-002   -1.126535519284661E-016
 -1.900000000000000E-002   -1.449484760241490E-016
 -1.890000000000000E-002   -1.717505971662388E-016
 -1.880000000000000E-002   -1.908700967530547E-016
 -1.870000000000000E-002   -2.006671132827505E-016
 -1.860000000000000E-002   -2.002282973562803E-016
 -1.850000000000000E-002   -1.894607911350450E-016
 -1.840000000000000E-002   -1.690830762609902E-016
 -1.830000000000000E-002   -1.405044459886701E-016
 -1.820000000000000E-002   -1.056006643556791E-016
 -1.810000000000000E-002   -6.640977812094727E-017
 -1.800000000000000E-002   -2.478774853980674E-017
 -1.790000000000000E-002    1.792468370276675E-017
 -1.780000000000000E-002    6.116653317808272E-017
 -1.770000000000000E-002    1.052970514356518E-016
 -1.760000000000000E-002    1.515675133724047E-016
 -1.750000000000000E-002    2.018984397323273E-016
 -1.740000000000000E-002    2.584627152344077E-016
 -1.730000000000000E-002    3.231056530560431E-016
 -1.720000000000000E-002    3.966629474586673E-016
 -1.710000000000000E-002    4.782652395296045E-016
 -1.700000000000000E-002    5.647354318776496E-016
 -1.690000000000000E-002    6.501909254548191E-016
 -1.680000000000000E-002    7.259540102720153E-016
 -1.670000000000000E-002    7.808478720472666E-016
 -1.660000000000000E-002    8.019148522010006E-016
 -1.650000000000000E-002    7.755441292961489E-016
 -1.640000000000000E-002    6.889367294245911E-016
 -1.630000000000000E-002    5.317811869417921E-016
 -1.620000000000000E-002    2.979665756458981E-016
 -1.610000000000000E-002   -1.287005295000997E-017
 -1.600000000000000E-002   -3.941720769519189E-016
 -1.590000000000000E-002   -8.318568312927320E-016
 -1.580000000000000E-002   -1.304418835128730E-015
 -1.570000000000000E-002   -1.783815055359239E-015
 -1.560000000000000E-002   -2.237118997165207E-015
 -1.550000000000000E-002   -2.628835993334017E-015
 -1.540000000000000E-002   -2.923683300620807E-015
 -1.530000000000000E-002   -3.089569429937966E-015
 -1.520000000000000E-002   -3.100460253900143E-015
 -1.510000000000000E-002   -2.938821639144847E-015
 -1.500000000000000E-002   -2.597352337886659E-015
 -1.490000000000000E-002   -2.079806061496322E-015
 -1.480000000000000E-002   -1.400799845804647E-015
 -1.470000000000000E-002   -5.846336958954450E-016
 -1.460000000000000E-002    3.367270189840656E-016
 -1.450000000000000E-002    1.326239251347362E-015
 -1.440000000000000E-002    2.344594831019838E-015
 -1.430000000000000E-002    3.352875002887613E-015
 -1.420000000000000E-002    4.314685945854903E-015
 -1.410000000000000E-002    5.197486167676125E-015
 -1.400000000000000E-002    5.972949880707574E-015
 -1.390000000000000E-002    6.616349426463160E-015
 -1.380000000000000E-002    7.105134434729774E-015
 -1.370000000000000E-002    7.417021841135522E-015
 -1.360000000000000E-002    7.528040505780954E-015
 -1.350000000000000E-002    7.411034283774024E-015
 -1.340000000000000E-002    7.035109837945369E-015
 -1.330000000000000E-002    6.366423173129367E-015
 -1.320000000000000E-002    5.370528231669557E-015
 -1.310000000000000E-002    4.016301459198453E-015
 -1.300000000000000E-002    2.281189856463254E-015
 -1.290000000000000E-002    1.572988390604010E-016
 -1.280000000000000E-002   -2.342363399100991E-015
 -1.270000000000000E-002   -5.178301788789235E-015
 -1.260000000000000E-002   -8.280432691597546E-015
 -1.250000000000000E-002   -1.154622268200746E-014
 -1.240000000000000E-002   -1.484160960178277E-014
 -1.230000000000000E-002   -1.800497810397195E-014
 -1.220000000000000E-002   -2.085411575455485E-014
 -1.210000000000000E-002   -2.319573003723329E-014
 -1.200000000000000E-002   -2.483681159682121E-014
 -1.190000000000000E-002   -2.559688578253922E-014
 -1.180000000000000E-002   -2.532009383029307E-014
 -1.170000000000000E-002   -2.388608002941041E-014
 -1.160000000000000E-002   -2.121883340172739E-014
 -1.150000000000000E-002   -1.729287995590409E-014
 -1.140000000000000E-002   -1.213661758153646E-014
 -1.130000000000000E-002   -5.832907321074544E-015
 -1.120000000000000E-002    1.482628188002152E-015
 -1.110000000000000E-002    9.624924798907736E-015
 -1.100000000000000E-002    1.836368449371384E-014
 -1.090000000000000E-002    2.742784290423909E-014
 -1.080000000000000E-002    3.650985729271924E-014
 -1.070000000000000E-002    4.526986021596957E-014
 -1.060000000000000E-002    5.333998043449368E-014
 -1.050000000000000E-002    6.032971011493072E-014
 -1.040000000000000E-002    6.583335512817450E-014
 -1.030000000000000E-002    6.944068522576918E-014
 -1.020000000000000E-002    7.075186883521141E-014
 -1.010000000000000E-002    6.939720997155576E-014
 -1.000000000000000E-002    6.506159160063876E-014
 -9.899999999999999E-003    5.751272170354049E-014
 -9.800000000000000E-003    4.663125970140594E-014
 -9.699999999999999E-003    3.244018608416914E-014
 -9.599999999999999E-003    1.513005492361970E-014
 -9.500000000000000E-003   -4.923436457349573E-015
 -9.399999999999999E-003   -2.715295542260052E-014
 -9.299999999999999E-003   -5.080681341152831E-014
 -9.200000000000000E-003   -7.497154795819847E-014
 -9.099999999999999E-003   -9.860974982804481E-014
 -8.999999999999999E-003   -1.206114520891093E-013
 -8.900000000000000E-003   -1.398554077906754E-013
 -8.799999999999999E-003   -1.552753778451923E-013
 -8.699999999999999E-003   -1.659253385786169E-013
 -8.600000000000000E-003   -1.710373421301847E-013
 -8.499999999999999E-003   -1.700662030984481E-013
 -8.399999999999999E-003   -1.627164666647403E-013
 -8.300000000000000E-003   -1.489492435230904E-013
 -8.199999999999999E-003   -1.289688725389812E-013
 -8.100000000000000E-003   -1.031920805119112E-013
 -8.000000000000000E-003   -7.220485680699373E-014
 -7.899999999999999E-003   -3.671405828940263E-014
 -7.800000000000000E-003    2.498242647753741E-015
 -7.699999999999999E-003    4.460975251996594E-014
 -7.599999999999999E-003    8.877590778541271E-014
 -7.499999999999999E-003    1.341269034694039E-013
 -7.399999999999999E-003    1.797433934443053E-013
 -7.299999999999999E-003    2.246144601528560E-013
 -7.199999999999999E-003    2.675854763302488E-013
 -7.100000000000000E-003    3.073063285395200E-013
 -6.999999999999999E-003    3.421931863949543E-013
 -6.899999999999999E-003    3.704167917748823E-013
 -6.800000000000000E-003    3.899290489115617E-013
 -6.699999999999999E-003    3.985360847541259E-013
 -6.599999999999999E-003    3.940210422694551E-013
 -6.499999999999999E-003    3.743128354056221E-013
 -6.399999999999999E-003    3.376909459890166E-013
 -6.299999999999999E-003    2.830094334547707E-013
 -6.199999999999999E-003    2.099181622602367E-013
 -6.100000000000000E-003    1.190561276213992E-013
 -5.999999999999999E-003    1.219150077075436E-014
 -5.899999999999999E-003   -1.077144295426031E-013
 -5.800000000000000E-003   -2.365366226931851E-013
 -5.699999999999999E-003   -3.691176436371520E-013
 -5.599999999999999E-003   -4.995000208968552E-013
 -5.499999999999999E-003   -6.212472725431460E-013
 -5.399999999999999E-003   -7.278316419000619E-013
 -5.299999999999999E-003   -8.130575561985584E-013
 -5.199999999999999E-003   -8.714844339816039E-013
 -5.099999999999999E-003   -8.988107704483303E-013
 -4.999999999999999E-003   -8.921834978377868E-013
 -4.899999999999999E-003   -8.504034684130655E-013
 -4.799999999999999E-003   -7.740069241533440E-013
 -4.699999999999999E-003   -6.652166700788662E-013
 -4.599999999999999E-003   -5.277683168031172E-013
 -4.499999999999999E-003   -3.666315979853362E-013
 -4.399999999999999E-003   -1.876566653775736E-013
 -4.299999999999999E-003    2.817180827720297E-015
 -4.199999999999999E-003    1.983489848607481E-013
 -4.099999999999999E-003    3.927413030327651E-013
 -3.999999999999999E-003    5.803104181037031E-013
 -3.899999999999999E-003    7.560591945633761E-013
 -3.799999999999999E-003    9.157437264064569E-013
 -3.699999999999999E-003    1.055839066729179E-012
 -3.599999999999999E-003    1.173422544141082E-012
 -3.499999999999999E-003    1.266004555167731E-012
 -3.399999999999999E-003    1.331343700287279E-012
 -3.299999999999999E-003    1.367285836869749E-012
 -3.199999999999999E-003    1.371662194280113E-012
 -3.099999999999999E-003    1.342276114692494E-012
 -2.999999999999999E-003    1.276992823448930E-012
 -2.899999999999999E-003    1.173934914527267E-012
 -2.799999999999999E-003    1.031767956113350E-012
 -2.699999999999999E-003    8.500484049961650E-013
 -2.599999999999999E-003    6.295935818621626E-013
 -2.499999999999999E-003    3.728257176746992E-013
 -2.399999999999999E-003    8.404325362124008E-014
 -2.299999999999999E-003   -2.304262994228552E-013
 -2.199999999999999E-003   -5.622257193481776E-013
 -2.099999999999999E-003   -9.011397204565873E-013
 -1.999999999999999E-003   -1.235443016902849E-012
 -1.899999999999999E-003   -1.552409055770575E-012
 -1.799999999999999E-003   -1.838948440828333E-012
 -1.699999999999999E-003   -2.082331176358415E-012
 -1.599999999999999E-003   -2.270934712959310E-012
 -1.499999999999999E-003   -2.394961466207121E-012
 -1.399999999999999E-003   -2.447060787981541E-012
 -1.299999999999999E-003   -2.422808861964216E-012
 -1.199999999999999E-003   -2.321001487632080E-012
 -1.099999999999999E-003   -2.143736347313483E-012
 -9.999999999999989E-004   -1.896279834840555E-012
 -8.999999999999990E-004   -1.586724857668580E-012
 -7.999999999999990E-004   -1.225475520627135E-012
 -6.999999999999989E-004   -8.245966888693542E-013
 -5.999999999999990E-004   -3.970865359514525E-013
 -4.999999999999989E-004    4.386477470065275E-014
 -3.999999999999989E-004    4.855690181610600E-013
 -2.999999999999989E-004    9.164246604798001E-013
 -1.999999999999989E-004    1.326343553589603E-012
 -9.999999999999892E-005    1.706982592589751E-012
  1.084202172485504E-018    2.051761025128494E-012
  1.000000000000011E-004    2.355667895958562E-012
  2.000000000000011E-004    2.614882465433859E-012
  3.000000000000011E-004    2.826260233414778E-012
  4.000000000000011E-004    2.986741625447191E-012
  5.000000000000011E-004    3.092779629319369E-012
  6.000000000000011E-004    3.139872550697848E-012
  7.000000000000011E-004    3.122292837261186E-012
  8.000000000000011E-004    3.033103038840990E-012
  9.000000000000012E-004    2.864521195767699E-012
  1.000000000000001E-003    2.608663718321721E-012
  1.100000000000001E-003    2.258666851660573E-012
  1.200000000000001E-003    1.810124218403542E-012
  1.300000000000001E-003    1.262738884452059E-012
  1.400000000000001E-003    6.220323470187231E-013
  1.500000000000001E-003   -9.908224535916884E-014
  1.600000000000001E-003   -8.790846614181194E-013
  1.700000000000001E-003   -1.687221647996510E-012
  1.800000000000001E-003   -2.483673371785801E-012
  1.900000000000001E-003   -3.220684312390143E-012
  2.000000000000001E-003   -3.844750891765688E-012
  2.100000000000001E-003   -4.299867343404433E-012
  2.200000000000001E-003   -4.531717541503446E-012
  2.300000000000001E-003   -4.492589331233486E-012
  2.400000000000001E-003   -4.146674158719544E-012
  2.500000000000001E-003   -3.475305206897515E-012
  2.600000000000001E-003   -2.481647327257732E-012
  2.700000000000001E-003   -1.194310456680613E-012
  2.800000000000001E-003    3.306159595986516E-013
  2.900000000000001E-003    2.009523811286013E-012
  3.000000000000001E-003    3.733533396750804E-012
  3.100000000000001E-003    5.373149376354275E-012
  3.200000000000001E-003    6.785227927761065E-012
  3.300000000000001E-003    7.821966246193825E-012
  3.400000000000001E-003    8.341387046220442E-012
  3.500000000000001E-003    8.218620601458578E-012
  3.600000000000001E-003    7.357156954065836E-012
  3.700000000000001E-003    5.699157299115402E-012
  3.800000000000001E-003    3.233930515515454E-012
  3.900000000000001E-003    3.767827789566481E-015
  4.000000000000001E-003   -3.893510696320322E-012
  4.100000000000001E-003   -8.305711701386133E-012
  4.200000000000001E-003   -1.303125799608335E-011
  4.300000000000001E-003   -1.782785158023286E-011
  4.400000000000001E-003   -2.242433076017375E-011
  4.500000000000001E-003   -2.653500391975451E-011
  4.600000000000002E-003   -2.987550394547060E-011
  4.700000000000001E-003   -3.217909827630109E-011
  4.800000000000001E-003   -3.321231440854351E-011
  4.900000000000002E-003   -3.278881485051436E-011
  5.000000000000001E-003   -3.078058321713536E-011
  5.100000000000001E-003   -2.712568021000698E-011
  5.200000000000001E-003   -2.183216144169393E-011
  5.300000000000002E-003   -1.497790927237143E-011
  5.400000000000001E-003   -6.706637736135481E-012
  5.500000000000001E-003    2.779579255782397E-012
  5.600000000000002E-003    1.323049048983664E-011
  5.700000000000001E-003    2.435979642648177E-011
  5.800000000000001E-003    3.585817133276133E-011
  5.900000000000002E-003    4.740618075320591E-011
  6.000000000000001E-003    5.868618042159713E-011
  6.100000000000001E-003    6.939228281770896E-011
  6.200000000000002E-003    7.923771550619065E-011
  6.300000000000002E-003    8.795908528674579E-011
  6.400000000000001E-003    9.531725823287794E-011
  6.500000000000001E-003    1.010948640920782E-010
  6.600000000000002E-003    1.050906590787794E-010
  6.700000000000001E-003    1.071111679365305E-010
  6.800000000000001E-003    1.069605054217860E-010
  6.900000000000002E-003    1.044290303715681E-010
  7.000000000000001E-003    9.928232864858752E-011
  7.100000000000001E-003    9.125164222610334E-011
  7.200000000000002E-003    8.002733044341680E-011
  7.300000000000002E-003    6.525692080959414E-011
  7.400000000000001E-003    4.654934571471062E-011
  7.500000000000001E-003    2.348694274972959E-011
  7.600000000000002E-003   -4.353607122346590E-012
  7.700000000000001E-003   -3.737023592999167E-011
  7.800000000000001E-003   -7.589399615221770E-011
  7.900000000000001E-003   -1.201372311733275E-010
  8.000000000000002E-003   -1.701323090855244E-010
  8.100000000000001E-003   -2.256629069958608E-010
  8.200000000000001E-003   -2.861905176520765E-010
  8.300000000000002E-003   -3.507801978540807E-010
  8.400000000000001E-003   -4.180303826267074E-010
  8.500000000000002E-003   -4.860123861438351E-010
  8.600000000000002E-003   -5.522254124467526E-010
  8.700000000000001E-003   -6.135744090533291E-010
  8.800000000000002E-003   -6.663760136043643E-010
  8.900000000000002E-003   -7.063996364613331E-010
  9.000000000000001E-003   -7.289471789899318E-010
  9.100000000000002E-003   -7.289757829287367E-010
  9.200000000000002E-003   -7.012641513603859E-010
  9.300000000000001E-003   -6.406219307254044E-010
  9.400000000000002E-003   -5.421382756486537E-010
  9.500000000000001E-003   -4.014634142892524E-010
  9.600000000000001E-003   -2.151139898963304E-010
  9.700000000000002E-003    1.920911537076813E-011
  9.800000000000001E-003    3.023047313793307E-010
  9.900000000000001E-003    6.331725512234047E-010
  1.000000000000000E-002    1.008747797858807E-009
  1.010000000000000E-002    1.423687037846660E-009
  1.020000000000000E-002    1.870220996970217E-009
  1.030000000000000E-002    2.338089765389814E-009
  1.040000000000000E-002    2.814572881765974E-009
  1.050000000000000E-002    3.284624352832842E-009
  1.060000000000000E-002    3.731118301550346E-009
  1.070000000000000E-002    4.135206822508403E-009
  1.080000000000000E-002    4.476786605561365E-009
  1.090000000000000E-002    4.735070265684540E-009
  1.100000000000000E-002    4.889244834188722E-009
  1.110000000000000E-002    4.919204812356599E-009
  1.120000000000000E-002    4.806341193078570E-009
  1.130000000000000E-002    4.534362093167390E-009
  1.140000000000000E-002    4.090123567056804E-009
  1.150000000000000E-002    3.464448015167140E-009
  1.160000000000000E-002    2.652905178708733E-009
  1.170000000000000E-002    1.656538926975780E-009
  1.180000000000000E-002    4.825225446553985E-010
  1.190000000000000E-002   -8.552687279374178E-010
  1.200000000000000E-002   -2.335774187265219E-009
  1.210000000000000E-002   -3.930355959180340E-009
  1.220000000000000E-002   -5.602488995808649E-009
  1.230000000000000E-002   -7.307525973722373E-009
  1.240000000000000E-002   -8.992523753056587E-009
  1.250000000000000E-002   -1.059610109184642E-008
  1.260000000000000E-002   -1.204831949189092E-008
  1.270000000000000E-002   -1.327055199058040E-008
  1.280000000000000E-002   -1.417532102328016E-008
  1.290000000000000E-002   -1.466608309773324E-008
  1.300000000000000E-002   -1.463694303460340E-008
  1.310000000000000E-002   -1.397228145612263E-008
  1.320000000000000E-002   -1.254628902432435E-008
  1.330000000000000E-002   -1.022239943525279E-008
  1.340000000000000E-002   -6.852645905394167E-009
  1.350000000000000E-002   -2.276921365830301E-009
  1.360000000000000E-002    3.677807518491871E-009
  1.370000000000000E-002    1.119832836643498E-008
  1.380000000000000E-002    2.048601199857818E-008
  1.390000000000000E-002    3.175764249481994E-008
  1.400000000000000E-002    4.524616557164123E-008
  1.410000000000000E-002    6.120136818648508E-008
  1.420000000000000E-002    7.989043604821350E-008
  1.430000000000000E-002    1.015983934512577E-007
  1.440000000000000E-002    1.266283765653282E-007
  1.450000000000000E-002    1.553017170711456E-007
  1.460000000000000E-002    1.879578732649923E-007
  1.470000000000000E-002    2.249542368309380E-007
  1.480000000000000E-002    2.666656941846326E-007
  1.490000000000000E-002    3.134841647221282E-007
  1.500000000000000E-002    3.658179512645938E-007
  1.510000000000000E-002    4.240910940712846E-007
  1.520000000000000E-002    4.887427035930797E-007
  1.530000000000000E-002    5.602262146139524E-007
  1.540000000000000E-002    6.390088561543509E-007
  1.550000000000000E-002    7.255711485703811E-007
  1.560000000000000E-002    8.204068573389254E-007
  1.570000000000000E-002    9.240225870720191E-007
  1.580000000000000E-002    1.036938359228062E-006
  1.590000000000000E-002    1.159687840865046E-006
  1.600000000000000E-002    1.292819384930791E-006
  1.610000000000000E-002    1.436896850906529E-006
  1.620000000000000E-002    1.592501546669452E-006
  1.630000000000000E-002    1.760233659292221E-006
  1.640000000000000E-002    1.940714490824894E-006
  1.650000000000000E-002    2.134588634509908E-006
  1.660000000000000E-002    2.342526918065496E-006
  1.670000000000000E-002    2.565228537714238E-006
  1.680000000000000E-002    2.803424408343544E-006
  1.690000000000000E-002    3.057879913308482E-006
  1.700000000000000E-002    3.329397967844312E-006
  1.710000000000000E-002    3.618821793157812E-006
  1.720000000000000E-002    3.927037829032586E-006
  1.730000000000000E-002    4.254978790882615E-006
  1.740000000000000E-002    4.603626421942249E-006
  1.750000000000000E-002    4.974013951067326E-006
  1.760000000000000E-002    5.367228960437259E-006
  1.770000000000000E-002    5.784416080030621E-006
  1.780000000000000E-002    6.226780195922144E-006
  1.790000000000000E-002    6.695588889816590E-006
  1.800000000000000E-002    7.192175590029683E-006
  1.810000000000000E-002    7.717943333048429E-006
  1.820000000000000E-002    8.274368725001972E-006
  1.830000000000000E-002    8.863004792300118E-006
  1.840000000000000E-002    9.485487153429944E-006
  1.850000000000000E-002    1.014353891124116E-005
  1.860000000000000E-002    1.083897578480420E-005
  1.870000000000000E-002    1.157371241296778E-005