 -4.000000000000000E-002    0.000000000000000E+000
 -3.990000000000000E-002    0.000000000000000E+000
 -3.980000000000000E-002    0.000000000000000E+000
 -3.970000000000000E-002    0.000000000000000E+000
 -3.960000000000000E-002    0.000000000000000E+000
 -3.950000000000000E-002    0.000000000000000E+000
 -3.940000000000000E-002    0.000000000000000E+000
 -3.930000000000000E-002    0.000000000000000E+000
 -3.920000000000000E-002    0.000000000000000E+000
 -3.910000000000000E-002   -5.983458655595037E-034
 -3.900000000000000E-002   -1.253661760034506E-032
 -3.890000000000000E-002   -1.352339856448379E-031
 -3.880000000000000E-002   -9.999999231595036E-031
 -3.870000000000000E-002   -5.694475256879306E-030
 -3.860000000000000E-002   -2.659642907694180E-029
 -3.850000000000000E-002   -1.059607187257665E-028
 -3.840000000000000E-002   -3.697460361334206E-028
 -3.830000000000000E-002   -1.151413034785196E-027
 -3.820000000000000E-002   -3.243712522934360E-027
 -3.810000000000000E-002   -8.349577510870565E-027
 -3.800000000000000E-002   -1.977818900493606E-026
 -3.790000000000000E-002   -4.331355677941519E-026
 -3.780000000000000E-002   -8.788651830519640E-026
 -3.770000000000000E-002   -1.651051137325653E-025
 -3.760000000000000E-002   -2.857574353121216E-025
 -3.750000000000000E-002   -4.500908700641406E-025
 -3.740000000000000E-002   -6.271682514519639E-025
 -3.730000000000000E-002   -7.173785647622568E-025
 -3.720000000000000E-002   -4.921146412687715E-025
 -3.710000000000000E-002    4.929575804618439E-025
 -3.700000000000000E-002    3.008058233913020E-024
 -3.690000000000000E-002    8.267503459001806E-024
 -3.680000000000000E-002    1.802120209634126E-023
 -3.670000000000000E-002    3.455846782861183E-023
 -3.660000000000000E-002    6.053279470445663E-023
 -3.650000000000000E-002    9.848755674338546E-023
 -3.640000000000000E-002    1.499454121484551E-022
 -3.630000000000000E-002    2.139320840410163E-022
 -3.620000000000000E-002    2.848547174190659E-022
 -3.610000000000000E-002    3.497611464320431E-022
 -3.600000000000000E-002    3.851815010856392E-022
 -3.590000000000000E-002    3.539989907862233E-022
 -3.580000000000000E-002    2.030973842710801E-022
 -3.570000000000000E-002   -1.371433699631104E-022
 -3.560000000000000E-002   -7.501460963315317E-022
 -3.550000000000000E-002   -1.725700543960968E-021
 -3.540000000000000E-002   -3.146299986810975E-021
 -3.530000000000000E-002   -5.066101720362135E-021
 -3.520000000000000E-002   -7.482089688804346E-021
 -3.510000000000000E-002   -1.029816455189118E-020
 -3.500000000000000E-002   -1.328445876252803E-020
 -3.490000000000000E-002   -1.603604263563419E-020
 -3.480000000000000E-002   -1.793719207811767E-020
 -3.470000000000000E-002   -1.813927639002933E-020
 -3.460000000000000E-002   -1.556177768704189E-020
 -3.450000000000000E-002   -8.926601518777885E-021
 -3.440000000000000E-002    3.164583904855271E-021
 -3.430000000000000E-002    2.210190689852506E-020
 -3.420000000000000E-002    4.908291819029589E-020
 -3.410000000000000E-002    8.487182637490165E-020
 -3.400000000000000E-002    1.295074503585735E-019
 -3.390000000000000E-002    1.819714634815952E-019
 -3.380000000000000E-002    2.398350949698443E-019
 -3.370000000000000E-002    2.989093782172359E-019
 -3.360000000000000E-002    3.529302934177441E-019
 -3.350000000000000E-002    3.933171096500939E-019
 -3.340000000000000E-002    4.090478697014444E-019
 -3.330000000000000E-002    3.867037454481760E-019
 -3.320000000000000E-002    3.107414279902748E-019
 -3.310000000000000E-002    1.640612002400232E-019
 -3.300000000000000E-002   -7.105133806705012E-020
 -3.290000000000000E-002   -4.115259889700618E-019
 -3.280000000000000E-002   -8.715614013569162E-019
 -3.270000000000000E-002   -1.460049076024624E-018
 -3.260000000000000E-002   -2.177309065458227E-018
 -3.250000000000000E-002   -3.011122389957004E-018
 -3.240000000000000E-002   -3.932127659945319E-018
 -3.230000000000000E-002   -4.888764808666141E-018
 -3.220000000000000E-002   -5.802118028076422E-018
 -3.210000000000000E-002   -6.561208858100637E-018
 -3.200000000000000E-002   -7.019536576995695E-018
 -3.190000000000000E-002   -6.993924232782020E-018
 -3.180000000000000E-002   -6.266943846007068E-018
 -3.170000000000000E-002   -4.594402890902370E-018
 -3.160000000000000E-002   -1.719422318776287E-018
 -3.150000000000000E-002    2.605511800293206E-018
 -3.140000000000000E-002    8.587449846262912E-018
 -3.130000000000000E-002    1.635248070087461E-017
 -3.120000000000000E-002    2.589648779037581E-017
 -3.110000000000000E-002    3.702918159294040E-017
 -3.100000000000000E-002    4.931514225033416E-017
 -3.090000000000000E-002    6.201753054141335E-017
 -3.080000000000000E-002    7.405211655356585E-017
 -3.070000000000000E-002    8.396113628538900E-017
 -3.060000000000000E-002    8.991778869463444E-017
 -3.050000000000000E-002    8.977286045147322E-017
 -3.040000000000000E-002    8.115412806715811E-017
 -3.030000000000000E-002    6.162725858124271E-017
 -3.020000000000000E-002    2.892273264469410E-017
 -3.010000000000000E-002   -1.877261498958804E-017
 -3.000000000000000E-002   -8.246855252478568E-017
 -2.990000000000000E-002   -1.619876601447641E-016
 -2.980000000000000E-002   -2.555736047797477E-016
 -2.970000000000000E-002   -3.595308905068200E-016
 -2.960000000000000E-002   -4.679443715172872E-016
 -2.950000000000000E-002   -5.725329083682265E-016
 -2.940000000000000E-002   -6.626940291894408E-016
 -2.930000000000000E-002   -7.257916653690738E-016
 -2.920000000000000E-002   -7.477291986417735E-016
 -2.910000000000000E-002   -7.138301454956894E-016
 -2.900000000000000E-002   -6.100236263757502E-016
 -2.890000000000000E-002   -4.242988324464072E-016
 -2.880000000000000E-002   -1.483541723377649E-016
 -2.870000000000000E-002    2.206690656628275E-016
 -2.860000000000000E-002    6.785171002112989E-016
 -2.850000000000000E-002    1.212392765309824E-015
 -2.840000000000000E-002    1.799953198755941E-015
 -2.830000000000000E-002    2.408926158604954E-015
 -2.820000000000000E-002    2.997511175064068E-015
 -2.810000000000000E-002    3.515689081564572E-015
 -2.800000000000000E-002    3.907499614115535E-015
 -2.790000000000000E-002    4.114260454090193E-015
 -2.780000000000000E-002    4.078613859191465E-015
 -2.770000000000000E-002    3.749182747265905E-015
 -2.760000000000000E-002    3.085535649969897E-015
 -2.750000000000000E-002    2.063086250906858E-015
 -2.740000000000000E-002    6.775131085409439E-016
 -2.730000000000000E-002   -1.051714705927120E-015
 -2.720000000000000E-002   -3.079086293608003E-015
 -2.710000000000000E-002   -5.332361184220479E-015
 -2.700000000000000E-002   -7.713626500142944E-015
 -2.690000000000000E-002   -1.010212509170695E-014
 -2.680000000000000E-002   -1.235873031578565E-014
 -2.670000000000000E-002   -1.433180716471129E-014
 -2.660000000000000E-002   -1.586406962828004E-014
 -2.650000000000000E-002   -1.679999008294561E-014
 -2.640000000000000E-002   -1.699330384930341E-014
 -2.630000000000000E-002   -1.631421702457230E-014
 -2.620000000000000E-002   -1.465602562685876E-014
 -2.610000000000000E-002   -1.194104156568889E-014
 -2.600000000000000E-002   -8.125871251082507E-015
 -2.590000000000000E-002   -3.206265973750698E-015
 -2.580000000000000E-002    2.778137856583817E-015
 -2.570000000000000E-002    9.738850136527838E-015
 -2.560000000000000E-002    1.753310065913198E-014
 -2.550000000000000E-002    2.595794724031502E-014
 -2.540000000000000E-002    3.474424074242672E-014
 -2.530000000000000E-002    4.355123081676138E-014
 -2.520000000000000E-002    5.196300363542473E-014
 -2.510000000000000E-002    5.948839884160838E-014
 -2.500000000000000E-002    6.556632882618548E-014
 -2.490000000000000E-002    6.957846238036391E-014
 -2.480000000000000E-002    7.087106193800459E-014
 -2.470000000000000E-002    6.878717667903649E-014
 -2.460000000000000E-002    6.270949737674802E-014
 -2.450000000000000E-002    5.211298413303784E-014
 -2.440000000000000E-002    3.662494395199268E-014
 -2.430000000000000E-002    1.608875096837152E-014
 -2.420000000000000E-002   -9.374024927395738E-015
 -2.410000000000000E-002   -3.930932983393458E-014
 -2.400000000000000E-002   -7.289110656119863E-014
 -2.390000000000000E-002   -1.089033026686189E-013
 -2.380000000000000E-002   -1.457492700634035E-013
 -2.370000000000000E-002   -1.814928056650158E-013
 -2.360000000000000E-002   -2.139325256624258E-013
 -2.350000000000000E-002   -2.407083180871183E-013
 -2.340000000000000E-002   -2.594351926192452E-013
 -2.330000000000000E-002   -2.678566909348923E-013
 -2.320000000000000E-002   -2.640071049224601E-013
 -2.310000000000000E-002   -2.463696890029214E-013
 -2.300000000000000E-002   -2.140173648882707E-013
 -2.290000000000000E-002   -1.667230462264046E-013
 -2.280000000000000E-002   -1.050283639930008E-013
 -2.270000000000000E-002   -3.026363223332617E-014
 -2.260000000000000E-002    5.548413309820441E-014
 -2.250000000000000E-002    1.494527435798166E-013
 -2.240000000000000E-002    2.483285241960714E-013
 -2.230000000000000E-002    3.484001977455159E-013
 -2.220000000000000E-002    4.457273787928012E-013
 -2.210000000000000E-002    5.363071871558792E-013
 -2.200000000000000E-002    6.162224604687571E-013
 -2.190000000000000E-002    6.817586720425105E-013
 -2.180000000000000E-002    7.294816962931904E-013
 -2.170000000000000E-002    7.562745976946833E-013
 -2.160000000000000E-002    7.593399677590072E-013
 -2.150000000000000E-002    7.361817567356023E-013
 -2.140000000000000E-002    6.845849893321040E-013
 -2.130000000000000E-002    6.026176292898144E-013
 -2.120000000000000E-002    4.886774172830310E-013
 -2.110000000000000E-002    3.416047063009859E-013
 -2.100000000000000E-002    1.608732993662207E-013
 -2.090000000000000E-002   -5.313747624250964E-014
 -2.080000000000000E-002   -2.988009162962809E-013
 -2.070000000000000E-002   -5.728563846907858E-013
 -2.060000000000000E-002   -8.700173777810471E-013
 -2.050000000000000E-002   -1.182624704514405E-012
 -2.040000000000000E-002   -1.500402572989590E-012
 -2.030000000000000E-002   -1.810376680314503E-012
 -2.020000000000000E-002   -2.097007085263584E-012
 -2.010000000000000E-002   -2.342577924908245E-012
 -2.000000000000000E-002   -2.527863797799825E-012
 -1.990000000000000E-002   -2.633070814222914E-012
 -1.980000000000000E-002   -2.639020765182299E-012
 -1.970000000000000E-002   -2.528517344064181E-012
 -1.960000000000000E-002   -2.287811438679288E-012
 -1.950000000000000E-002   -1.908055219722133E-012
 -1.940000000000000E-002   -1.386629928249856E-012
 -1.930000000000000E-002   -7.282235447854452E-013
 -1.920000000000000E-002    5.445320248467006E-014
 -1.910000000000000E-002    9.404043186051985E-013
 -1.900000000000000E-002    1.900602448611715E-012
 -1.890000000000000E-002    2.898784042822545E-012
 -1.880000000000000E-002    3.892767143209544E-012
 -1.870000000000000E-002    4.836236059979452E-012
 -1.860000000000000E-002    5.680890518357070E-012
 -1.850000000000000E-002    6.378835134730699E-012
 -1.840000000000000E-002    6.885058533654571E-012
 -1.830000000000000E-002    7.159845213607880E-012
 -1.820000000000000E-002    7.170971774469150E-012
 -1.810000000000000E-002    6.895554869446326E-012
 -1.800000000000000E-002    6.321448496306587E-012
 -1.790000000000000E-002    5.448127467969148E-012
 -1.780000000000000E-002    4.287033261954938E-012
 -1.770000000000000E-002    2.861394416241578E-012
 -1.760000000000000E-002    1.205576358547034E-012
 -1.750000000000000E-002   -6.359665342834866E-013
 -1.740000000000000E-002   -2.610044131958298E-012
 -1.730000000000000E-002   -4.656295580719985E-012
 -1.720000000000000E-002   -6.708882118394279E-012
 -1.710000000000000E-002   -8.698239586136814E-012
 -1.700000000000000E-002   -1.055284978024340E-011
 -1.690000000000000E-002   -1.220101836911110E-011
 -1.680000000000000E-002   -1.357266503882938E-011
 -1.670000000000000E-002   -1.460115592373539E-011
 -1.660000000000000E-002   -1.522521683444752E-011
 -1.650000000000000E-002   -1.539095472689907E-011
 -1.640000000000000E-002   -1.505400405973555E-011
 -1.630000000000000E-002   -1.418178476600975E-011
 -1.620000000000000E-002   -1.275581513078237E-011
 -1.610000000000000E-002   -1.077399313012508E-011
 -1.600000000000000E-002   -8.252700682636004E-012
 -1.590000000000000E-002   -5.228568229425494E-012
 -1.580000000000000E-002   -1.759705578264579E-012
 -1.570000000000000E-002    2.073804210132753E-012
 -1.560000000000000E-002    6.170334186187249E-012
 -1.550000000000000E-002    1.040820735285229E-011
 -1.540000000000000E-002    1.464836389922606E-011
 -1.530000000000000E-002    1.873822106896988E-011
 -1.520000000000000E-002    2.251666593918098E-011
 -1.510000000000000E-002    2.582004477564721E-011
 -1.500000000000000E-002    2.848890523879790E-011
 -1.490000000000000E-002    3.037520749190920E-011
 -1.480000000000000E-002    3.134961669256780E-011
 -1.470000000000000E-002    3.130849951938462E-011
 -1.460000000000000E-002    3.018021066273888E-011
 -1.450000000000000E-002    2.793030107057592E-011
 -1.440000000000000E-002    2.456530151737260E-011
 -1.430000000000000E-002    2.013482695021561E-011
 -1.420000000000000E-002    1.473185586199505E-011
 -1.410000000000000E-002    8.491108953918786E-012
 -1.400000000000000E-002    1.585582198989849E-012
 -1.390000000000000E-002   -5.778602589939427E-012
 -1.380000000000000E-002   -1.336880113818939E-011
 -1.370000000000000E-002   -2.093357545613844E-011
 -1.360000000000000E-002   -2.821119902098874E-011
 -1.350000000000000E-002   -3.493858110560999E-011
 -1.340000000000000E-002   -4.086020807303587E-011
 -1.330000000000000E-002   -4.573683184331344E-011
 -1.320000000000000E-002   -4.935359424687149E-011
 -1.310000000000000E-002   -5.152740403585870E-011
 -1.300000000000000E-002   -5.211342909818351E-011
 -1.290000000000000E-002   -5.101063659383415E-011
 -1.280000000000000E-002   -4.816637244885343E-011
 -1.270000000000000E-002   -4.357996836846567E-011
 -1.260000000000000E-002   -3.730543336015487E-011
 -1.250000000000000E-002   -2.945320330028302E-011
 -1.240000000000000E-002   -2.019090694708535E-011
 -1.230000000000000E-002   -9.743061740868141E-012
 -1.220000000000000E-002    1.610470656670340E-012
 -1.210000000000000E-002    1.353749390575903E-011
 -1.200000000000000E-002    2.565822560644201E-011
 -1.190000000000000E-002    3.755210022811809E-011
 -1.180000000000000E-002    4.876684103808389E-011
 -1.170000000000000E-002    5.883008928182697E-011
 -1.160000000000000E-002    6.726359480701310E-011
 -1.150000000000000E-002    7.359996569757561E-011
 -1.140000000000000E-002    7.740166578183547E-011
 -1.130000000000000E-002    7.828179348484188E-011
 -1.120000000000000E-002    7.592589791052926E-011
 -1.110000000000000E-002    7.011390870376494E-011
 -1.100000000000000E-002    6.074103234165192E-011
 -1.090000000000000E-002    4.783641119059277E-011
 -1.080000000000000E-002    3.157825745166971E-011
 -1.070000000000000E-002    1.230423174695154E-011
 -1.060000000000000E-002   -9.484028900151011E-012
 -1.050000000000000E-002   -3.312300988910529E-011
 -1.040000000000000E-002   -5.779666474998207E-011
 -1.030000000000000E-002   -8.255306510516445E-011
 -1.020000000000000E-002   -1.063281913891898E-010
 -1.010000000000000E-002   -1.279761756763624E-010
 -1.000000000000000E-002   -1.463050437557568E-010
 -9.899999999999999E-003   -1.601167440511044E-010
 -9.800000000000000E-003   -1.682500903720657E-010
 -9.699999999999999E-003   -1.696249901777551E-010
 -9.599999999999999E-003   -1.632869763549025E-010
 -9.500000000000000E-003   -1.484503784971206E-010
 -9.399999999999999E-003   -1.245395775476871E-010
 -9.299999999999999E-003   -9.122750695251318E-011
 -9.200000000000000E-003   -4.847120325577984E-011
 -9.099999999999999E-003    3.455940856132575E-012
 -8.999999999999999E-003    6.393506789027296E-011
 -8.900000000000000E-003    1.319761224809168E-010
 -8.799999999999999E-003    2.061958101789064E-010
 -8.699999999999999E-003    2.848001145649763E-010
 -8.600000000000000E-003    3.655727058650628E-010
 -8.499999999999999E-003    4.458715188745344E-010
 -8.399999999999999E-003    5.226363105813839E-010
 -8.300000000000000E-003    5.924109164589702E-010
 -8.199999999999999E-003    6.513842091839447E-010
 -8.100000000000000E-003    6.954545144540143E-010
 -8.000000000000000E-003    7.203211525344908E-010
 -7.899999999999999E-003    7.216071045628762E-010
 -7.800000000000000E-003    6.950150380153057E-010
 -7.699999999999999E-003    6.365168419033109E-010
 -7.599999999999999E-003    5.425753963004703E-010
 -7.499999999999999E-003    4.103937126854427E-010
 -7.399999999999999E-003    2.381841927033097E-010
 -7.299999999999999E-003    2.544729864180236E-011
 -7.199999999999999E-003   -2.267534946145563E-010
 -7.100000000000000E-003   -5.155360323012438E-010
 -6.999999999999999E-003   -8.359806425323002E-010
 -6.899999999999999E-003   -1.180965658222624E-009
 -6.800000000000000E-003   -1.541074859292984E-009
 -6.699999999999999E-003   -1.904592729321859E-009
 -6.599999999999999E-003   -2.257600128621006E-009
 -6.499999999999999E-003   -2.584179459209715E-009
 -6.399999999999999E-003   -2.866732683344735E-009
 -6.299999999999999E-003   -3.086411702655401E-009
 -6.199999999999999E-003   -3.223652625142591E-009
 -6.100000000000000E-003   -3.258801284848268E-009
 -5.999999999999999E-003   -3.172812433522403E-009
 -5.899999999999999E-003   -2.948000662785377E-009
 -5.800000000000000E-003   -2.568818662251708E-009
 -5.699999999999999E-003   -2.022636955379374E-009
 -5.599999999999999E-003   -1.300499083290885E-009
 -5.499999999999999E-003   -3.978289327193178E-010
 -5.399999999999999E-003    6.849295751051897E-010
 -5.299999999999999E-003    1.941759469579612E-009
 -5.199999999999999E-003    3.360616473922074E-009
 -5.099999999999999E-003    4.923084147560546E-009
 -4.999999999999999E-003    6.604144848048989E-009
 -4.899999999999999E-003    8.372073036441376E-009
 -4.799999999999999E-003    1.018845533686580E-008
 -4.699999999999999E-003    1.200834897971812E-008
 -4.599999999999999E-003    1.378058662341657E-008
 -4.499999999999999E-003    1.544824644986546E-008
 -4.399999999999999E-003    1.694931310613012E-008
 -4.299999999999999E-003    1.821755071705865E-008
 -4.199999999999999E-003    1.918362820026911E-008
 -4.099999999999999E-003    1.977653955243719E-008
 -3.999999999999999E-003    1.992533758161641E-008
 -3.899999999999999E-003    1.956122908993875E-008
 -3.799999999999999E-003    1.862005736160395E-008
 -3.699999999999999E-003    1.704518749209597E-008
 -3.599999999999999E-003    1.479077758038707E-008
 -3.499999999999999E-003    1.182543779506377E-008
 -3.399999999999999E-003    8.136231590006462E-009
 -3.299999999999999E-003    3.732944467368068E-009
 -3.199999999999999E-003   -1.347440809207228E-009
 -3.099999999999999E-003   -7.036181376408070E-009
 -2.999999999999999E-003   -1.322822211365125E-008
 -2.899999999999999E-003   -1.977779014778623E-008
 -2.799999999999999E-003   -2.649424676892468E-008
 -2.699999999999999E-003   -3.313831731150206E-008
 -2.599999999999999E-003   -3.941881443922243E-008
 -2.499999999999999E-003   -4.498995384661197E-008
 -2.399999999999999E-003   -4.944925343112857E-008
 -2.299999999999999E-003   -5.233617495931384E-008
 -2.199999999999999E-003   -5.313144015652337E-008
 -2.099999999999999E-003   -5.125698707322452E-008
 -1.999999999999999E-003   -4.607663040418244E-008
 -1.899999999999999E-003   -3.689726417134932E-008
 -1.799999999999999E-003   -2.297061422816470E-008
 -1.699999999999999E-003   -3.495447551065474E-009
 -1.599999999999999E-003    2.237986273990053E-008
 -1.499999999999999E-003    5.555436628766901E-008
 -1.399999999999999E-003    9.697138949218010E-008
 -1.299999999999999E-003    1.476150550332996E-007
 -1.199999999999999E-003    2.085065935877980E-007
 -1.099999999999999E-003    2.807005526199156E-007
 -9.999999999999989E-004    3.652806381429548E-007
 -8.999999999999990E-004    4.633555439603634E-007
 -7.999999999999990E-004    5.760544389121122E-007
 -6.999999999999989E-004    7.045225191870286E-007
 -5.999999999999990E-004    8.499164367163349E-007
 -4.999999999999989E-004    1.013399606231923E-006
 -3.999999999999989E-004    1.196137921779125E-006
 -2.999999999999989E-004    1.399295382609026E-006
 -1.999999999999989E-004    1.624030647188667E-006
 -9.999999999999892E-005    1.871493902873887E-006
  1.084202172485504E-018    2.142824653401955E-006
  1.000000000000011E-004    2.439150825461176E-006
  2.000000000000011E-004    2.761588303515344E-006
  3.000000000000011E-004    3.111242660904161E-006
  4.000000000000011E-004    3.489212396332787E-006
  5.000000000000011E-004    3.896592782651909E-006
  6.000000000000011E-004    4.334481992322942E-006
  7.000000000000011E-004    4.803989110514377E-006
  8.000000000000011E-004    5.306241582279174E-006
  9.000000000000012E-004    5.842396320895875E-006
  1.000000000000001E-003    6.413650417401431E-006
  1.100000000000001E-003    7.021252355845247E-006
  1.200000000000001E-003    7.666515479817689E-006
  1.300000000000001E-003    8.350829226462015E-006
  1.400000000000001E-003    9.075674203845918E-006
  1.500000000000001E-003    9.842632701766660E-006
  1.600000000000001E-003    1.065340304259966E-005
  1.700000000000001E-003    1.150981125942993E-005
  1.800000000000001E-003    1.241382611583872E-005
  1.900000000000001E-003    1.336756820084655E-005
  2.000000000000001E-003    1.437332359396284E-005
  2.100000000000001E-003    1.543355765509200E-005
  2.200000000000001E-003    1.655092252285476E-005
  2.300000000000001E-003    1.772827700918753E-005
  2.400000000000001E-003    1.896869365341798E-005
  2.500000000000001E-003    2.027547050996647E-005
  2.600000000000001E-003    2.165215078832386E-005
  2.700000000000001E-003    2.310253097478366E-005
  2.800000000000001E-003    2.463067814258310E-005
  2.900000000000001E-003    2.624094092329944E-005
  3.000000000000001E-003    2.793796582379792E-005
  3.100000000000001E-003    2.972671038279323E-005
  3.200000000000001E-003    3.161245549002394E-005
  3.300000000000001E-003    3.360082091071210E-005
  3.400000000000001E-003    3.569777497761655E-005
  3.500000000000001E-003    3.790964787401009E-005
  3.600000000000001E-003    4.024314048271638E-005
  3.700000000000001E-003    4.270534132856984E-005
  3.800000000000001E-003    4.530371839533783E-005
  3.900000000000001E-003    4.804614740790880E-005
  4.000000000000001E-003    5.094090645638077E-005
  4.100000000000001E-003    5.399668145421609E-005
  4.200000000000001E-003    5.722258455079437E-005
  4.300000000000001E-003    6.062814346785766E-005
  4.400000000000001E-003    6.422332783918550E-005
  4.500000000000001E-003    6.801853269391342E-005
  4.600000000000002E-003    7.202460873806252E-005
  4.700000000000001E-003    7.625286131879107E-005
  4.800000000000001E-003    8.071506566683207E-005
  4.900000000000002E-003    8.542347666025174E-005
  5.000000000000001E-003    9.039084884392261E-005
  5.100000000000001E-003    9.563045558310525E-005
  5.200000000000001E-003    1.011561043517442E-004
  5.300000000000002E-003    1.069821706819374E-004
  5.400000000000001E-003    1.131236280133160E-004
  5.500000000000001E-003    1.195960589911094E-004
  5.600000000000002E-003    1.264157059132074E-004
  5.700000000000001E-003    1.335994962987564E-004
  5.800000000000001E-003    1.411650866870907E-004
  5.900000000000002E-003    1.491309037650179E-004
  6.000000000000001E-003    1.575161655891246E-004
  6.100000000000001E-003    1.663409431756078E-004
  6.200000000000002E-003    1.756261938349425E-004
  6.300000000000002E-003    1.853937983297449E-004
  6.400000000000001E-003    1.956665934777804E-004
  6.500000000000001E-003    2.064684191479224E-004
  6.600000000000002E-003    2.178241700778665E-004
  6.700000000000001E-003    2.297597822308596E-004
  6.800000000000001E-003    2.423023233861359E-004
  6.900000000000002E-003    2.554799780356083E-004
  7.000000000000001E-003    2.693221524667311E-004
  7.100000000000001E-003    2.838593905199274E-004
  7.200000000000002E-003    2.991235080863746E-004
  7.300000000000002E-003    3.151475802111377E-004
  7.400000000000001E-003    3.319659982091610E-004
  7.500000000000001E-003    3.496145070636088E-004
  7.600000000000002E-003    3.681301842146108E-004
  7.700000000000001E-003    3.875515634199450E-004
  7.800000000000001E-003    4.079186674056936E-004
  7.900000000000001E-003    4.292729839531935E-004
  8.000000000000002E-003    4.516575995385757E-004
  8.100000000000001E-003    4.751171958984103E-004
  8.200000000000001E-003    4.996981143778401E-004
  8.300000000000002E-003    5.254483905930907E-004
  8.400000000000001E-003    5.524178857915689E-004
  8.500000000000002E-003    5.806582677811493E-004
  8.600000000000002E-003    6.102230389582033E-004
  8.700000000000001E-003    6.411676289183985E-004
  8.800000000000002E-003    6.735494597100591E-004
  8.900000000000002E-003    7.074278682442398E-004
  9.000000000000001E-003    7.428643386431707E-004
  9.100000000000002E-003    7.799223492520902E-004
  9.200000000000002E-003    8.186676071479054E-004
  9.300000000000001E-003    8.591679277768041E-004
  9.400000000000002E-003    9.014934056830468E-004
  9.500000000000001E-003    9.457162979903462E-004
  9.600000000000001E-003    9.919112304236644E-004
  9.700000000000002E-003    1.040155252355235E-003
  9.800000000000001E-003    1.090527771535039E-003
  9.900000000000001E-003    1.143110699399572E-003
  1.000000000000000E-002    1.197988653031942E-003
  1.010000000000000E-002    1.255248775433844E-003
  1.020000000000000E-002    1.314980868642933E-003
  1.030000000000000E-002    1.377277720525365E-003
  1.040000000000000E-002    1.442234762573502E-003
  1.050000000000000E-002    1.509950402931158E-003
  1.060000000000000E-002    1.580526217649479E-003
  1.070000000000000E-002    1.654066644509302E-003
  1.080000000000000E-002    1.730679352913954E-003
  1.090000000000000E-002    1.810474952863691E-003
  1.100000000000000E-002    1.893567223919081E-003
  1.110000000000000E-002    1.980073201904375E-003
  1.120000000000000E-002    2.070113032429189E-003
  1.130000000000000E-002    2.163810086005696E-003
  1.140000000000000E-002    2.261290873127446E-003
  1.150000000000000E-002    2.362685144615446E-003
  1.160000000000000E-002    2.468125560444940E-003
  1.170000000000000E-002    2.577748291486036E-003
  1.180000000000000E-002    2.691692507649281E-003
  1.190000000000000E-002    2.810100499537789E-003
  1.200000000000000E-002    2.933117986564205E-003
  1.210000000000000E-002    3.060893792170076E-003
  1.220000000000000E-002    3.193580302315808E-003
  1.230000000000000E-002    3.331332872535978E-003
  1.240000000000000E-002    3.474310491852308E-003
  1.250000000000000E-002    3.622675570484940E-003
  1.260000000000000E-002    3.776594051924812E-003
  1.270000000000000E-002    3.936235319960973E-003
  1.280000000000000E-002    4.101772266070310E-003
  1.290000000000000E-002    4.273381509512282E-003
  1.300000000000000E-002    4.451243035157284E-003
  1.310000000000000E-002    4.635540536473685E-003
  1.320000000000000E-002    4.826460494280295E-003
  1.330000000000000E-002    5.024193619503708E-003
  1.340000000000000E-002    5.228934100034047E-003
  1.350000000000000E-002    5.440878252798069E-003
  1.360000000000000E-002    5.660226388352728E-003
  1.370000000000000E-002    5.887181141017795E-003
  1.380000000000000E-002    6.121948643111602E-003
  1.390000000000000E-002    6.364737310391884E-003
  1.400000000000000E-002    6.615758512763468E-003
  1.410000000000000E-002    6.875226110179982E-003
  1.420000000000000E-002    7.143356205689618E-003
  1.430000000000000E-002    7.420367376339033E-003
  1.440000000000000E-002    7.706480032796602E-003
  1.450000000000000E-002    8.001917044651899E-003
  1.460000000000000E-002    8.306903699265880E-003
  1.470000000000000E-002    8.621667138693440E-003
  1.480000000000000E-002    8.946435566867193E-003
  1.490000000000000E-002    9.281440050393627E-003
  1.500000000000000E-002    9.626912329759228E-003
  1.510000000000000E-002    9.983085575439754E-003
  1.520000000000000E-002    1.035019502906987E-002
  1.530000000000000E-002    1.072847581544360E-002
  1.540000000000000E-002    1.111816548952745E-002
  1.550000000000000E-002    1.151950047086913E-002
  1.560000000000000E-002    1.193271791737400E-002
  1.570000000000000E-002    1.235805574565006E-002
  1.580000000000000E-002    1.279575048371354E-002
  1.590000000000000E-002    1.324603796963409E-002
  1.600000000000000E-002    1.370915335197118E-002
  1.610000000000000E-002    1.418532976352784E-002
  1.620000000000000E-002    1.467479823750009E-002
  1.630000000000000E-002    1.517778915167696E-002
  1.640000000000000E-002    1.569452931742760E-002
  1.650000000000000E-002    1.622524152834778E-002
  1.660000000000000E-002    1.677014831894072E-002
  1.670000000000000E-002    1.732946703269058E-002
  1.680000000000000E-002    1.790341115263417E-002
  1.690000000000000E-002    1.849219087502321E-002
  1.700000000000000E-002    1.909601187420720E-002
  1.710000000000000E-002    1.971507469207209E-002
  1.720000000000000E-002    2.034957547449451E-002
  1.730000000000000E-002    2.099970363993051E-002
  1.740000000000000E-002    2.166564355639932E-002
  1.750000000000000E-002    2.234757271830851E-002
  1.760000000000000E-002    2.304566284384851E-002
  1.770000000000000E-002    2.376007845504227E-002
  1.780000000000000E-002    2.449097354196660E-002
  1.790000000000000E-002    2.523849549094487E-002
  1.800000000000000E-002    2.600278152625179E-002
  1.810000000000000E-002    2.678396054120519E-002
  1.820000000000000E-002    2.758214960216475E-002
  1.830000000000000E-002    2.839745346896537E-002
  1.840000000000000E-002    2.922996784623763E-002
  1.850000000000000E-002    3.007977454316658E-002
  1.860000000000000E-002    3.094693967339714E-002
  1.870000000000000E-002    3.183152130485729E-002