 -4.000000000000000E-002    0.000000000000000E+000
 -3.990000000000000E-002    1.139580694238499E-008
 -3.980000000000000E-002    3.334793626878214E-008
 -3.970000000000000E-002    6.355871415364033E-008
 -3.960000000000000E-002    9.857544646371900E-008
 -3.950000000000000E-002    1.342378497380883E-007
 -3.940000000000000E-002    1.661973789261150E-007
 -3.930000000000000E-002    1.904259246198617E-007
 -3.920000000000000E-002    2.036347558643479E-007
 -3.910000000000000E-002    2.035408798522957E-007
 -3.900000000000000E-002    1.889449276273638E-007
 -3.890000000000000E-002    1.596173865726965E-007
 -3.880000000000000E-002    1.160227037702691E-007
 -3.870000000000000E-002    5.893963771194971E-008
 -3.860000000000000E-002   -1.094624223302437E-008
 -3.850000000000000E-002   -9.339588442503732E-008
 -3.840000000000000E-002   -1.888427275379835E-007
 -3.830000000000000E-002   -2.984400885357606E-007
 -3.820000000000000E-002   -4.239080636861798E-007
 -3.810000000000000E-002   -5.671949892932882E-007
 -3.800000000000000E-002   -7.300013829640083E-007
 -3.790000000000000E-002   -9.132409414807223E-007
 -3.780000000000000E-002   -1.116529003695757E-006
 -3.770000000000000E-002   -1.337788939855367E-006
 -3.760000000000000E-002   -1.573052103961617E-006
 -3.750000000000000E-002   -1.816498969647430E-006
 -3.740000000000000E-002   -2.060753430755693E-006
 -3.730000000000000E-002   -2.297398646580684E-006
 -3.720000000000000E-002   -2.517649434653312E-006
 -3.710000000000000E-002   -2.713085876138149E-006
 -3.700000000000000E-002   -2.876337640016915E-006
 -3.690000000000000E-002   -3.001616119325461E-006
 -3.680000000000000E-002   -3.085007543619423E-006
 -3.670000000000000E-002   -3.124475696564094E-006
 -3.660000000000000E-002   -3.119570576094249E-006
 -3.650000000000000E-002   -3.070882410676086E-006
 -3.640000000000000E-002   -2.979326180993410E-006
 -3.630000000000000E-002   -2.845372180093162E-006
 -3.620000000000000E-002   -2.668352247503621E-006
 -3.610000000000000E-002   -2.445967622232741E-006
 -3.600000000000000E-002   -2.174095234748467E-006
 -3.590000000000000E-002   -1.846952113217003E-006
 -3.580000000000000E-002   -1.457617933501023E-006
 -3.570000000000000E-002   -9.988642415912238E-007
 -3.560000000000000E-002   -4.641844528873927E-007
 -3.550000000000000E-002    1.511196501727758E-007
 -3.540000000000000E-002    8.489547931428613E-007
 -3.530000000000000E-002    1.627715302717807E-006
 -3.520000000000000E-002    2.481949187156414E-006
 -3.510000000000000E-002    3.402490335137938E-006
 -3.500000000000000E-002    4.377070971058538E-006
 -3.490000000000000E-002    5.391355619851870E-006
 -3.480000000000000E-002    6.430284067533256E-006
 -3.470000000000000E-002    7.479543680772936E-006
 -3.460000000000000E-002    8.526984236218588E-006
 -3.450000000000000E-002    9.563772345778675E-006
 -3.440000000000000E-002    1.058511631358470E-005
 -3.430000000000000E-002    1.159044768446034E-005
 -3.420000000000000E-002    1.258301536907839E-005
 -3.410000000000000E-002    1.356892809265319E-005
 -3.400000000000000E-002    1.455576965145346E-005
 -3.390000000000000E-002    1.555095355802913E-005
 -3.380000000000000E-002    1.656005876447065E-005
 -3.370000000000000E-002    1.758536760390492E-005
 -3.360000000000000E-002    1.862483029633976E-005
 -3.350000000000000E-002    1.967161217179492E-005
 -3.340000000000000E-002    2.071431562343441E-005
 -3.330000000000000E-002    2.173787157258310E-005
 -3.320000000000000E-002    2.272499601107068E-005
 -3.310000000000000E-002    2.365804687875252E-005
 -3.300000000000000E-002    2.452103045048269E-005
 -3.290000000000000E-002    2.530149983259726E-005
 -3.280000000000000E-002    2.599207635060071E-005
 -3.270000000000000E-002    2.659138299023770E-005
 -3.260000000000000E-002    2.710425018505518E-005
 -3.250000000000000E-002    2.754114193608497E-005
 -3.240000000000000E-002    2.791686235777769E-005
 -3.230000000000000E-002    2.824869118042631E-005
 -3.220000000000000E-002    2.855418999903032E-005
 -3.210000000000000E-002    2.884895903230272E-005
 -3.200000000000000E-002    2.914463385304329E-005
 -3.190000000000000E-002    2.944739626460526E-005
 -3.180000000000000E-002    2.975720198599020E-005
 -3.170000000000000E-002    3.006782608914283E-005
 -3.160000000000000E-002    3.036774058616791E-005
 -3.150000000000000E-002    3.064171414982994E-005
 -3.140000000000000E-002    3.087292491323482E-005
 -3.130000000000000E-002    3.104531833179699E-005
 -3.120000000000000E-002    3.114590083483082E-005
 -3.110000000000000E-002    3.116666112404091E-005
 -3.100000000000000E-002    3.110586592464241E-005
 -3.090000000000000E-002    3.096855535100555E-005
 -3.080000000000000E-002    3.076616705608917E-005
 -3.070000000000000E-002    3.051532848622730E-005
 -3.060000000000000E-002    3.023596108259663E-005
 -3.050000000000000E-002    2.994895287002546E-005
 -3.040000000000000E-002    2.967368554056110E-005
 -3.030000000000000E-002    2.942571967416110E-005
 -3.020000000000000E-002    2.921496423062864E-005
 -3.010000000000000E-002    2.904451408636475E-005
 -3.000000000000000E-002    2.891034062572870E-005
 -2.990000000000000E-002    2.880182659332630E-005
 -2.980000000000000E-002    2.870306837459517E-005
 -2.970000000000000E-002    2.859479449781877E-005
 -2.960000000000000E-002    2.845658354576930E-005
 -2.950000000000000E-002    2.826912560892517E-005
 -2.940000000000000E-002    2.801619627312244E-005
 -2.930000000000000E-002    2.768608137962667E-005
 -2.920000000000000E-002    2.727227863154739E-005
 -2.910000000000000E-002    2.677336259895408E-005
 -2.900000000000000E-002    2.619202585843105E-005
 -2.890000000000000E-002    2.553342421193388E-005
 -2.880000000000000E-002    2.480307558971388E-005
 -2.870000000000000E-002    2.400445184640242E-005
 -2.860000000000000E-002    2.313679830120191E-005
 -2.850000000000000E-002    2.219320530714157E-005
 -2.840000000000000E-002    2.115934012441439E-005
 -2.830000000000000E-002    2.001293716646465E-005
 -2.820000000000000E-002    1.872413133800645E-005
 -2.810000000000000E-002    1.725651870680388E-005
 -2.800000000000000E-002    1.556887106227910E-005
 -2.790000000000000E-002    1.361727458595747E-005
 -2.780000000000000E-002    1.135736765689892E-005
 -2.770000000000000E-002    8.746470133171910E-006
 -2.760000000000000E-002    5.745225124493187E-006
 -2.750000000000000E-002    2.318725673911977E-006
 -2.740000000000000E-002   -1.563289216901644E-006
 -2.730000000000000E-002   -5.926874900567639E-006
 -2.720000000000000E-002   -1.079505500295157E-005
 -2.710000000000000E-002   -1.618983042935941E-005
 -2.700000000000000E-002   -2.213422695277533E-005
 -2.690000000000000E-002   -2.865474225482801E-005
 -2.680000000000000E-002   -3.578357203421924E-005
 -2.670000000000000E-002   -4.356042163525013E-005
 -2.660000000000000E-002   -5.203383378318745E-005
 -2.650000000000000E-002   -6.126177268232236E-005
 -2.640000000000000E-002   -7.131159368017254E-005
 -2.630000000000000E-002   -8.225922296750842E-005
 -2.620000000000000E-002   -9.418798814231619E-005
 -2.610000000000000E-002   -1.071869770936569E-004
 -2.600000000000000E-002   -1.213491445891085E-004
 -2.590000000000000E-002   -1.367699494753356E-004
 -2.580000000000000E-002   -1.535457300972819E-004
 -2.570000000000000E-002   -1.717731133197147E-004
 -2.560000000000000E-002   -1.915485099924125E-004
 -2.550000000000000E-002   -2.129688413437703E-004
 -2.540000000000000E-002   -2.361323224601698E-004
 -2.530000000000000E-002   -2.611401021565607E-004
 -2.520000000000000E-002   -2.880980276117515E-004
 -2.510000000000000E-002   -3.171190329774644E-004
 -2.500000000000000E-002   -3.483250319456322E-004
 -2.490000000000000E-002   -3.818489102637133E-004
 -2.480000000000000E-002   -4.178361365843991E-004
 -2.470000000000000E-002   -4.564457548087173E-004
 -2.460000000000000E-002   -4.978508132799570E-004
 -2.450000000000000E-002   -5.422383521784743E-004
 -2.440000000000000E-002   -5.898087612996521E-004
 -2.430000000000000E-002   -6.407750090114129E-004
 -2.420000000000000E-002   -6.953610105825662E-004
 -2.410000000000000E-002   -7.538001242891799E-004
 -2.400000000000000E-002   -8.163347480652776E-004
 -2.390000000000000E-002   -8.832139897347612E-004
 -2.380000000000000E-002   -9.546943640522777E-004
 -2.370000000000000E-002   -1.031038823472784E-003
 -2.360000000000000E-002   -1.112518175161396E-003
 -2.350000000000000E-002   -1.199411833401108E-003
 -2.340000000000000E-002   -1.292009848127757E-003
 -2.330000000000000E-002   -1.390615397597431E-003
 -2.320000000000000E-002   -1.495546573348120E-003
 -2.310000000000000E-002   -1.607140014162780E-003
 -2.300000000000000E-002   -1.725752705551852E-003
 -2.290000000000000E-002   -1.851764691422822E-003
 -2.280000000000000E-002   -1.985580417823378E-003
 -2.270000000000000E-002   -2.127630139684727E-003
 -2.260000000000000E-002   -2.278369805863689E-003
 -2.250000000000000E-002   -2.438280725352401E-003
 -2.240000000000000E-002   -2.607868197821567E-003
 -2.230000000000000E-002   -2.787662350550353E-003
 -2.220000000000000E-002   -2.978213330028269E-003
 -2.210000000000000E-002   -3.180092525775288E-003
 -2.200000000000000E-002   -3.393888960902823E-003
 -2.190000000000000E-002   -3.620209927282756E-003
 -2.180000000000000E-002   -3.859680442334425E-003
 -2.170000000000000E-002   -4.112945321634245E-003
 -2.160000000000000E-002   -4.380669011960866E-003
 -2.150000000000000E-002   -4.663538226499243E-003
 -2.140000000000000E-002   -4.962267026124185E-003
 -2.130000000000000E-002   -5.277597915390053E-003
 -2.120000000000000E-002   -5.610306955662735E-003
 -2.110000000000000E-002   -5.961207771401221E-003
 -2.100000000000000E-002   -6.331151400894223E-003
 -2.090000000000000E-002   -6.721031080614386E-003
 -2.080000000000000E-002   -7.131782352375713E-003
 -2.070000000000000E-002   -7.564384523807085E-003
 -2.060000000000000E-002   -8.019856286872623E-003
 -2.050000000000000E-002   -8.499258632594726E-003
 -2.040000000000000E-002   -9.003690199595077E-003
 -2.030000000000000E-002   -9.534284704416701E-003
 -2.020000000000000E-002   -1.009221036174423E-002
 -2.010000000000000E-002   -1.067866708393146E-002
 -2.000000000000000E-002   -1.129488913267091E-002
 -1.990000000000000E-002   -1.194214036801190E-002
 -1.980000000000000E-002   -1.262172001262122E-002
 -1.970000000000000E-002   -1.333496330312369E-002
 -1.960000000000000E-002   -1.408325014735872E-002
 -1.950000000000000E-002   -1.486800150641839E-002
 -1.940000000000000E-002   -1.569069073665475E-002
 -1.930000000000000E-002   -1.655284381232410E-002
 -1.920000000000000E-002   -1.745604452675174E-002
 -1.910000000000000E-002   -1.840193508869726E-002
 -1.900000000000000E-002   -1.939222208518475E-002
 -1.890000000000000E-002   -2.042866770975571E-002
 -1.880000000000000E-002   -2.151309792897571E-002
 -1.870000000000000E-002   -2.264739381904808E-002
 -1.860000000000000E-002   -2.383349304328392E-002
 -1.850000000000000E-002   -2.507338214734240E-002
 -1.840000000000000E-002   -2.636909792457290E-002
 -1.830000000000000E-002   -2.772272083026053E-002
 -1.820000000000000E-002   -2.913638107103790E-002
 -1.810000000000000E-002   -3.061224480484357E-002
 -1.800000000000000E-002   -3.215252941450097E-002
 -1.790000000000000E-002   -3.375949771676681E-002
 -1.780000000000000E-002   -3.543546977811074E-002
 -1.770000000000000E-002   -3.718281660301243E-002
 -1.760000000000000E-002   -3.900397614107065E-002
 -1.750000000000000E-002   -4.090143980769025E-002
 -1.740000000000000E-002   -4.287777212121806E-002
 -1.730000000000000E-002   -4.493560823008800E-002
 -1.720000000000000E-002   -4.707764521830508E-002
 -1.710000000000000E-002   -4.930666030400773E-002
 -1.700000000000000E-002   -5.162548554647461E-002
 -1.690000000000000E-002   -5.403701705323426E-002
 -1.680000000000000E-002   -5.654421596545062E-002
 -1.670000000000000E-002   -5.915009295608639E-002
 -1.660000000000000E-002   -6.185770542669461E-002
 -1.650000000000000E-002   -6.467015507030099E-002
 -1.640000000000000E-002   -6.759058559346695E-002
 -1.630000000000000E-002   -7.062218957713595E-002
 -1.620000000000000E-002   -7.376820099126018E-002
 -1.610000000000000E-002   -7.703188769325252E-002
 -1.600000000000000E-002   -8.041656946853631E-002
 -1.590000000000000E-002   -8.392560467096073E-002
 -1.580000000000000E-002   -8.756241126591524E-002
 -1.570000000000000E-002   -9.133046426917023E-002
 -1.560000000000000E-002   -9.523327617212285E-002
 -1.550000000000000E-002   -9.927441415673813E-002
 -1.540000000000000E-002   -0.103457494362672     
 -1.530000000000000E-002   -0.107786192576004     
 -1.520000000000000E-002   -0.112264217424878     
 -1.510000000000000E-002   -0.116895305084594     
 -1.500000000000000E-002   -0.121683246971034     
 -1.490000000000000E-002   -0.126631840467942     
 -1.480000000000000E-002   -0.131744901943124     
 -1.470000000000000E-002   -0.137026267673906     
 -1.460000000000000E-002   -0.142479773167587     
 -1.450000000000000E-002   -0.148109270243590     
 -1.440000000000000E-002   -0.153918602112184     
 -1.430000000000000E-002   -0.159911597998186     
 -1.420000000000000E-002   -0.166092106104208     
 -1.410000000000000E-002   -0.172463959937836     
 -1.400000000000000E-002   -0.179031001958665     
 -1.390000000000000E-002   -0.185797029781808     
 -1.380000000000000E-002   -0.192765857857094     
 -1.370000000000000E-002   -0.199941329202226     
 -1.360000000000000E-002   -0.207327183277556     
 -1.350000000000000E-002   -0.214927208715837     
 -1.340000000000000E-002   -0.222745123126433     
 -1.330000000000000E-002   -0.230784621490263     
 -1.320000000000000E-002   -0.239049381719383     
 -1.310000000000000E-002   -0.247542971339166     
 -1.300000000000000E-002   -0.256268945086047     
 -1.290000000000000E-002   -0.265230771552282     
 -1.280000000000000E-002   -0.274431805356532     
 -1.270000000000000E-002   -0.283875384031271     
 -1.260000000000000E-002   -0.293564679572115     
 -1.250000000000000E-002   -0.303502791738754     
 -1.240000000000000E-002   -0.313692726018726     
 -1.230000000000000E-002   -0.324137353254677     
 -1.220000000000000E-002   -0.334839452669836     
 -1.210000000000000E-002   -0.345801674722608     
 -1.200000000000000E-002   -0.357026535193899     
 -1.190000000000000E-002   -0.368516436731214     
 -1.180000000000000E-002   -0.380273627895663     
 -1.170000000000000E-002   -0.392300249279670     
 -1.160000000000000E-002   -0.404598212509734     
 -1.150000000000000E-002   -0.417169325528581     
 -1.140000000000000E-002   -0.430015174079924     
 -1.130000000000000E-002   -0.443137235407035     
 -1.120000000000000E-002   -0.456536719042498     
 -1.110000000000000E-002   -0.470214639074251     
 -1.100000000000000E-002   -0.484171804887614     
 -1.090000000000000E-002   -0.498408802726717     
 -1.080000000000000E-002   -0.512925942109614     
 -1.070000000000000E-002   -0.527723379793117     
 -1.060000000000000E-002   -0.542800937657270     
 -1.050000000000000E-002   -0.558158166724468     
 -1.040000000000000E-002   -0.573794428362057     
 -1.030000000000000E-002   -0.589708774619750     
 -1.020000000000000E-002   -0.605899912648375     
 -1.010000000000000E-002   -0.622366349967660     
 -1.000000000000000E-002   -0.639106246492700     
 -9.899999999999999E-003   -0.656117487190516     
 -9.800000000000000E-003   -0.673397658253347     
 -9.699999999999999E-003   -0.690944044272506     
 -9.599999999999999E-003   -0.708753523332174     
 -9.500000000000000E-003   -0.726822702146822     
 -9.399999999999999E-003   -0.745147850667668     
 -9.299999999999999E-003   -0.763724806197262     
 -9.200000000000000E-003   -0.782549155386765     
 -9.099999999999999E-003   -0.801616036558043     
 -8.999999999999999E-003   -0.820920214237671     
 -8.900000000000000E-003   -0.840456098747306     
 -8.799999999999999E-003   -0.860217608149753     
 -8.699999999999999E-003   -0.880198347846352     
 -8.600000000000000E-003   -0.900391591235557     
 -8.499999999999999E-003   -0.920790039300779     
 -8.399999999999999E-003   -0.941386035866077     
 -8.300000000000000E-003   -0.962171526455512     
 -8.199999999999999E-003   -0.983138113199295     
 -8.100000000000000E-003    -1.00427678318516     
 -8.000000000000000E-003    -1.02557829151293     
 -7.899999999999999E-003    -1.04703290372169     
 -7.800000000000000E-003    -1.06863048774875     
 -7.699999999999999E-003    -1.09036040773312     
 -7.599999999999999E-003    -1.11221166107768     
 -7.499999999999999E-003    -1.13417278525204     
 -7.399999999999999E-003    -1.15623186819324     
 -7.299999999999999E-003    -1.17837655105249     
 -7.199999999999999E-003    -1.20059412822735     
 -7.100000000000000E-003    -1.22287130430687     
 -6.999999999999999E-003    -1.24519436970717     
 -6.899999999999999E-003    -1.26754932811196     
 -6.800000000000000E-003    -1.28992146635050     
 -6.699999999999999E-003    -1.31229599439676     
 -6.599999999999999E-003    -1.33465739603726     
 -6.499999999999999E-003    -1.35698978595054     
 -6.399999999999999E-003    -1.37927704005291     
 -6.299999999999999E-003    -1.40150252192244     
 -6.199999999999999E-003    -1.42364911064031     
 -6.100000000000000E-003    -1.44569948917656     
 -5.999999999999999E-003    -1.46763580743461     
 -5.899999999999999E-003    -1.48943987639980     
 -5.800000000000000E-003    -1.51109318405427     
 -5.699999999999999E-003    -1.53257687742178     
 -5.599999999999999E-003    -1.55387163026549     
 -5.499999999999999E-003    -1.57495799525218     
 -5.399999999999999E-003    -1.59581597372789     
 -5.299999999999999E-003    -1.61642540714358     
 -5.199999999999999E-003    -1.63676579995936     
 -5.099999999999999E-003    -1.65681639150324     
 -4.999999999999999E-003    -1.67655610737954     
 -4.899999999999999E-003    -1.69596358839672     
 -4.799999999999999E-003    -1.71501732346316     
 -4.699999999999999E-003    -1.73369558072516     
 -4.599999999999999E-003    -1.75197630989145     
 -4.499999999999999E-003    -1.76983742345214     
 -4.399999999999999E-003    -1.78725657243215     
 -4.299999999999999E-003    -1.80421137340435     
 -4.199999999999999E-003    -1.82067927709408     
 -4.099999999999999E-003    -1.83663775292724     
 -3.999999999999999E-003    -1.85206392704008     
 -3.899999999999999E-003    -1.86693503428221     
 -3.799999999999999E-003    -1.88122834324445     
 -3.699999999999999E-003    -1.89492112667461     
 -3.599999999999999E-003    -1.90799049586518     
 -3.499999999999999E-003    -1.92041387297655     
 -3.399999999999999E-003    -1.93216863423868     
 -3.299999999999999E-003    -1.94323205755423     
 -3.199999999999999E-003    -1.95358180810746     
 -3.099999999999999E-003    -1.96319553894015     
 -2.999999999999999E-003    -1.97205112961007     
 -2.899999999999999E-003    -1.98012653828885     
 -2.799999999999999E-003    -1.98739996213574     
 -2.699999999999999E-003    -1.99384994488161     
 -2.599999999999999E-003    -1.99945537533781     
 -2.499999999999999E-003    -2.00419533183390     
 -2.399999999999999E-003    -2.00804923668978     
 -2.299999999999999E-003    -2.01099709218982     
 -2.199999999999999E-003    -2.01301887519086     
 -2.099999999999999E-003    -2.01409542043090     
 -1.999999999999999E-003    -2.01420796352915     
 -1.899999999999999E-003    -2.01333812067473     
 -1.799999999999999E-003    -2.01146786310253     
 -1.699999999999999E-003    -2.00857999695539     
 -1.599999999999999E-003    -2.00465781527065     
 -1.499999999999999E-003    -1.99968496506316     
 -1.399999999999999E-003    -1.99364598392001     
 -1.299999999999999E-003    -1.98652606007609     
 -1.199999999999999E-003    -1.97831081925206     
 -1.099999999999999E-003    -1.96898668377452     
 -9.999999999999989E-004    -1.95854097599660     
 -8.999999999999990E-004    -1.94696153287901     
 -7.999999999999990E-004    -1.93423720508947     
 -6.999999999999989E-004    -1.92035748415032     
 -5.999999999999990E-004    -1.90531277661665     
 -4.999999999999989E-004    -1.88909431439310     
 -3.999999999999989E-004    -1.87169423477951     
 -2.999999999999989E-004    -1.85310557491133     
 -1.999999999999989E-004    -1.83332239785393     
 -9.999999999999892E-005    -1.81233960747772     
  1.084202172485504E-018    -1.79015305156797     
  1.000000000000011E-004    -1.76675963997599     
  2.000000000000011E-004    -1.74215718221120     
  3.000000000000011E-004    -1.71634468637761     
  4.000000000000011E-004    -1.68932208707410     
  5.000000000000011E-004    -1.66109024558716     
  6.000000000000011E-004    -1.63165133669022     
  7.000000000000011E-004    -1.60100831567392     
  8.000000000000011E-004    -1.56916542107400     
  9.000000000000012E-004    -1.53612802607830     
  1.000000000000001E-003    -1.50190239239304     
  1.100000000000001E-003    -1.46649618505186     
  1.200000000000001E-003    -1.42991794287817     
  1.300000000000001E-003    -1.39217744482500     
  1.400000000000001E-003    -1.35328572528074     
  1.500000000000001E-003    -1.31325473076560     
  1.600000000000001E-003    -1.27209777075839     
  1.700000000000001E-003    -1.22982912037184     
  1.800000000000001E-003    -1.18646424429088     
  1.900000000000001E-003    -1.14201982201661     
  2.000000000000001E-003    -1.09651358966256     
  2.100000000000001E-003    -1.04996441553366     
  2.200000000000001E-003    -1.00239231355400     
  2.300000000000001E-003   -0.953818356178081     
  2.400000000000001E-003   -0.904264755340896     
  2.500000000000001E-003   -0.853754744588877     
  2.600000000000001E-003   -0.802312723546840     
  2.700000000000001E-003   -0.749964028546437     
  2.800000000000001E-003   -0.696735158641270     
  2.900000000000001E-003   -0.642653528752492     
  3.000000000000001E-003   -0.587747642704132     
  3.100000000000001E-003   -0.532046913808428     
  3.200000000000001E-003   -0.475581788716664     
  3.300000000000001E-003   -0.418383630824032     
  3.400000000000001E-003   -0.360484728421191     
  3.500000000000001E-003   -0.301918267270882     
  3.600000000000001E-003   -0.242718296285717     
  3.700000000000001E-003   -0.182919760774062     
  3.800000000000001E-003   -0.122558311343772     
  3.900000000000001E-003   -6.167046964959816E-002
  4.000000000000001E-003   -2.935098569115266E-004
  4.100000000000001E-003    6.153469570968257E-002
  4.200000000000001E-003    0.123775494881405     
  4.300000000000001E-003    0.186389649688525     
  4.400000000000001E-003    0.249337244889653     
  4.500000000000001E-003    0.312577983843685     
  4.600000000000002E-003    0.376070905780398     
  4.700000000000001E-003    0.439774577522161     
  4.800000000000001E-003    0.503647214309903     
  4.900000000000002E-003    0.567646525353215     
  5.000000000000001E-003    0.631729786676153     
  5.100000000000001E-003    0.695854161102021     
  5.200000000000001E-003    0.759976476158284     
  5.300000000000002E-003    0.824053143692176     
  5.400000000000001E-003    0.888040571494211     
  5.500000000000001E-003    0.951894879391260     
  5.600000000000002E-003     1.01557218176919     
  5.700000000000001E-003     1.07902845056898     
  5.800000000000001E-003     1.14221972694284     
  5.900000000000002E-003     1.20510200492382     
  6.000000000000001E-003     1.26763139075584     
  6.100000000000001E-003     1.32976422847817     
  6.200000000000002E-003     1.39145698292347     
  6.300000000000002E-003     1.45266627635652     
  6.400000000000001E-003     1.51334910139814     
  6.500000000000001E-003     1.57346268468520     
  6.600000000000002E-003     1.63296489209619     
  6.700000000000001E-003     1.69181359804674     
  6.800000000000001E-003     1.74996736739279     
  6.900000000000002E-003     1.80738527048244     
  7.000000000000001E-003     1.86402678496390     
  7.100000000000001E-003     1.91985220354423     
  7.200000000000002E-003     1.97482213849924     
  7.300000000000002E-003     2.02889803662210     
  7.400000000000001E-003     2.08204188360291     
  7.500000000000001E-003     2.13421661376286     
  7.600000000000002E-003     2.18538600665664     
  7.700000000000001E-003     2.23551431304491     
  7.800000000000001E-003     2.28456705424259     
  7.900000000000001E-003     2.33251069954456     
  8.000000000000002E-003     2.37931220694699     
  8.100000000000001E-003     2.42494007717619     
  8.200000000000001E-003     2.46936337206419     
  8.300000000000002E-003     2.51255248972863     
  8.400000000000001E-003     2.55447895821096     
  8.500000000000002E-003     2.59511517400773     
  8.600000000000002E-003     2.63443458250723     
  8.700000000000001E-003     2.67241217382803     
  8.800000000000002E-003     2.70902372462023     
  8.900000000000002E-003     2.74424666028103     
  9.000000000000001E-003     2.77805933541796     
  9.100000000000002E-003     2.81044125625544     
  9.200000000000002E-003     2.84137356083794     
  9.300000000000001E-003     2.87083824032832     
  9.400000000000002E-003     2.89881906492606     
  9.500000000000001E-003     2.92530073292116     
  9.600000000000001E-003     2.95026953405389     
  9.700000000000002E-003     2.97371292518811     
  9.800000000000001E-003     2.99561981470445     
  9.900000000000001E-003     3.01598050998584     
  1.000000000000000E-002     3.03478668193666     
  1.010000000000000E-002     3.05203151087113     
  1.020000000000000E-002     3.06770919549296     
  1.030000000000000E-002     3.08181564193912     
  1.040000000000000E-002     3.09434811442279     
  1.050000000000000E-002     3.10530512190974     
  1.060000000000000E-002     3.11468664149598     
  1.070000000000000E-002     3.12249402572369     
  1.080000000000000E-002     3.12873003486312     
  1.090000000000000E-002     3.13339837285945     
  1.100000000000000E-002     3.13650476356204     
  1.110000000000000E-002     3.13805563298740     
  1.120000000000000E-002     3.13805897377588     
  1.130000000000000E-002     3.13652410145883     
  1.140000000000000E-002     3.13346158425406     
  1.150000000000000E-002     3.12888325195427     
  1.160000000000000E-002     3.12280225961306     
  1.170000000000000E-002     3.11523286369771     
  1.180000000000000E-002     3.10619056642255     
  1.190000000000000E-002     3.09569217441879     
  1.200000000000000E-002     3.08375554129871     
  1.210000000000000E-002     3.07039945189669     
  1.220000000000000E-002     3.05564415662978     
  1.230000000000000E-002     3.03951091857972     
  1.240000000000000E-002     3.02202171069929     
  1.250000000000000E-002     3.00319974251956     
  1.260000000000000E-002     2.98306941392157     
  1.270000000000000E-002     2.96165568763735     
  1.280000000000000E-002     2.93898454211226     
  1.290000000000000E-002     2.91508305270811     
  1.300000000000000E-002     2.88997882425375     
  1.310000000000000E-002     2.86370035282420     
  1.320000000000000E-002     2.83627710419239     
  1.330000000000000E-002     2.80773887470974     
  1.340000000000000E-002     2.77811630622764     
  1.350000000000000E-002     2.74744091131771     
  1.360000000000000E-002     2.71574469111498     
  1.370000000000000E-002     2.68306008091963     
  1.380000000000000E-002     2.64942022524002     
  1.390000000000000E-002     2.61485868017762     
  1.400000000000000E-002     2.57940952334191     
  1.410000000000000E-002     2.54310725399281     
  1.420000000000000E-002     2.50598673204745     
  1.430000000000000E-002     2.46808306449049     
  1.440000000000000E-002     2.42943164281951     
  1.450000000000000E-002     2.39006824993516     
  1.460000000000000E-002     2.35002875235723     
  1.470000000000000E-002     2.30934908677128     
  1.480000000000000E-002     2.26806568619992     
  1.490000000000000E-002     2.22621474584904     
  1.500000000000000E-002     2.18383246322177     
  1.510000000000000E-002     2.14095522847204     
  1.520000000000000E-002     2.09761932511579     
  1.530000000000000E-002     2.05386098883278     
  1.540000000000000E-002     2.00971627345518     
  1.550000000000000E-002     1.96522125782167     
  1.560000000000000E-002     1.92041171241693     
  1.570000000000000E-002     1.87532320578474     
  1.580000000000000E-002     1.82999114336864     
  1.590000000000000E-002     1.78445061859777     
  1.600000000000000E-002     1.73873642507376     
  1.610000000000000E-002     1.69288310054515     
  1.620000000000000E-002     1.64692463345580     
  1.630000000000000E-002     1.60089468095118     
  1.640000000000000E-002     1.55482656148463     
  1.650000000000000E-002     1.50875293474788     
  1.660000000000000E-002     1.46270608834692     
  1.670000000000000E-002     1.41671777764658     
  1.680000000000000E-002     1.37081907884905     
  1.690000000000000E-002     1.32504065632495     
  1.700000000000000E-002     1.27941244951750     
  1.710000000000000E-002     1.23396380967048     
  1.720000000000000E-002     1.18872351021230     
  1.730000000000000E-002     1.14371960570661     
  1.740000000000000E-002     1.09897948049242     
  1.750000000000000E-002     1.05452989844504     
  1.760000000000000E-002     1.01039691881492     
  1.770000000000000E-002    0.966605816222354     
  1.780000000000000E-002    0.923181202119802     
  1.790000000000000E-002    0.880146804553867     
  1.800000000000000E-002    0.837525771849557     
  1.810000000000000E-002    0.795340352526068     
  1.820000000000000E-002    0.753612007183554     
  1.830000000000000E-002    0.712361420892194     
  1.840000000000000E-002    0.671608433452074     
  1.850000000000000E-002    0.631372074925111     
  1.860000000000000E-002    0.591670598183208     
  1.870000000000000E-002    0.552521329297697     