 -4.000000000000000E-002    0.000000000000000E+000
 -3.990000000000000E-002    0.000000000000000E+000
 -3.980000000000000E-002    0.000000000000000E+000
 -3.970000000000000E-002    0.000000000000000E+000
 -3.960000000000000E-002    0.000000000000000E+000
 -3.950000000000000E-002    0.000000000000000E+000
 -3.940000000000000E-002    0.000000000000000E+000
 -3.930000000000000E-002    0.000000000000000E+000
 -3.920000000000000E-002    0.000000000000000E+000
 -3.910000000000000E-002    0.000000000000000E+000
 -3.900000000000000E-002    0.000000000000000E+000
 -3.890000000000000E-002    0.000000000000000E+000
 -3.880000000000000E-002    0.000000000000000E+000
 -3.870000000000000E-002    0.000000000000000E+000
 -3.860000000000000E-002    0.000000000000000E+000
 -3.850000000000000E-002    0.000000000000000E+000
 -3.840000000000000E-002    0.000000000000000E+000
 -3.830000000000000E-002    0.000000000000000E+000
 -3.820000000000000E-002    0.000000000000000E+000
 -3.810000000000000E-002    0.000000000000000E+000
 -3.800000000000000E-002    0.000000000000000E+000
 -3.790000000000000E-002    0.000000000000000E+000
 -3.780000000000000E-002    0.000000000000000E+000
 -3.770000000000000E-002    0.000000000000000E+000
 -3.760000000000000E-002    0.000000000000000E+000
 -3.750000000000000E-002    0.000000000000000E+000
 -3.740000000000000E-002    0.000000000000000E+000
 -3.730000000000000E-002    0.000000000000000E+000
 -3.720000000000000E-002    0.000000000000000E+000
 -3.710000000000000E-002    0.000000000000000E+000
 -3.700000000000000E-002    0.000000000000000E+000
 -3.690000000000000E-002    0.000000000000000E+000
 -3.680000000000000E-002    0.000000000000000E+000
 -3.670000000000000E-002    0.000000000000000E+000
 -3.660000000000000E-002    0.000000000000000E+000
 -3.650000000000000E-002    0.000000000000000E+000
 -3.640000000000000E-002    0.000000000000000E+000
 -3.630000000000000E-002    0.000000000000000E+000
 -3.620000000000000E-002    0.000000000000000E+000
 -3.610000000000000E-002    0.000000000000000E+000
 -3.600000000000000E-002    0.000000000000000E+000
 -3.590000000000000E-002    0.000000000000000E+000
 -3.580000000000000E-002    0.000000000000000E+000
 -3.570000000000000E-002    0.000000000000000E+000
 -3.560000000000000E-002    0.000000000000000E+000
 -3.550000000000000E-002    0.000000000000000E+000
 -3.540000000000000E-002    0.000000000000000E+000
 -3.530000000000000E-002    0.000000000000000E+000
 -3.520000000000000E-002    0.000000000000000E+000
 -3.510000000000000E-002    0.000000000000000E+000
 -3.500000000000000E-002    0.000000000000000E+000
 -3.490000000000000E-002    0.000000000000000E+000
 -3.480000000000000E-002    0.000000000000000E+000
 -3.470000000000000E-002    0.000000000000000E+000
 -3.460000000000000E-002    0.000000000000000E+000
 -3.450000000000000E-002    0.000000000000000E+000
 -3.440000000000000E-002    0.000000000000000E+000
 -3.430000000000000E-002    0.000000000000000E+000
 -3.420000000000000E-002    0.000000000000000E+000
 -3.410000000000000E-002    0.000000000000000E+000
 -3.400000000000000E-002    0.000000000000000E+000
 -3.390000000000000E-002    0.000000000000000E+000
 -3.380000000000000E-002    0.000000000000000E+000
 -3.370000000000000E-002    0.000000000000000E+000
 -3.360000000000000E-002    0.000000000000000E+000
 -3.350000000000000E-002    0.000000000000000E+000
 -3.340000000000000E-002    0.000000000000000E+000
 -3.330000000000000E-002    0.000000000000000E+000
 -3.320000000000000E-002    0.000000000000000E+000
 -3.310000000000000E-002    0.000000000000000E+000
 -3.300000000000000E-002    0.000000000000000E+000
 -3.290000000000000E-002    0.000000000000000E+000
 -3.280000000000000E-002    0.000000000000000E+000
 -3.270000000000000E-002    0.000000000000000E+000
 -3.260000000000000E-002    0.000000000000000E+000
 -3.250000000000000E-002    0.000000000000000E+000
 -3.240000000000000E-002    0.000000000000000E+000
 -3.230000000000000E-002    0.000000000000000E+000
 -3.220000000000000E-002    0.000000000000000E+000
 -3.210000000000000E-002    0.000000000000000E+000
 -3.200000000000000E-002    0.000000000000000E+000
 -3.190000000000000E-002    0.000000000000000E+000
 -3.180000000000000E-002    0.000000000000000E+000
 -3.170000000000000E-002    0.000000000000000E+000
 -3.160000000000000E-002    0.000000000000000E+000
 -3.150000000000000E-002    0.000000000000000E+000
 -3.140000000000000E-002    0.000000000000000E+000
 -3.130000000000000E-002    0.000000000000000E+000
 -3.120000000000000E-002    0.000000000000000E+000
 -3.110000000000000E-002    0.000000000000000E+000
 -3.100000000000000E-002    0.000000000000000E+000
 -3.090000000000000E-002    0.000000000000000E+000
 -3.080000000000000E-002    0.000000000000000E+000
 -3.070000000000000E-002    0.000000000000000E+000
 -3.060000000000000E-002    0.000000000000000E+000
 -3.050000000000000E-002    0.000000000000000E+000
 -3.040000000000000E-002    0.000000000000000E+000
 -3.030000000000000E-002    0.000000000000000E+000
 -3.020000000000000E-002    0.000000000000000E+000
 -3.010000000000000E-002    0.000000000000000E+000
 -3.000000000000000E-002    0.000000000000000E+000
 -2.990000000000000E-002    0.000000000000000E+000
 -2.980000000000000E-002    0.000000000000000E+000
 -2.970000000000000E-002    0.000000000000000E+000
 -2.960000000000000E-002    0.000000000000000E+000
 -2.950000000000000E-002    0.000000000000000E+000
 -2.940000000000000E-002    0.000000000000000E+000
 -2.930000000000000E-002    0.000000000000000E+000
 -2.920000000000000E-002    0.000000000000000E+000
 -2.910000000000000E-002    0.000000000000000E+000
 -2.900000000000000E-002    0.000000000000000E+000
 -2.890000000000000E-002    0.000000000000000E+000
 -2.880000000000000E-002    0.000000000000000E+000
 -2.870000000000000E-002    0.000000000000000E+000
 -2.860000000000000E-002    0.000000000000000E+000
 -2.850000000000000E-002    0.000000000000000E+000
 -2.840000000000000E-002    0.000000000000000E+000
 -2.830000000000000E-002    0.000000000000000E+000
 -2.820000000000000E-002    0.000000000000000E+000
 -2.810000000000000E-002    0.000000000000000E+000
 -2.800000000000000E-002    0.000000000000000E+000
 -2.790000000000000E-002    0.000000000000000E+000
 -2.780000000000000E-002    0.000000000000000E+000
 -2.770000000000000E-002    0.000000000000000E+000
 -2.760000000000000E-002    0.000000000000000E+000
 -2.750000000000000E-002    0.000000000000000E+000
 -2.740000000000000E-002    0.000000000000000E+000
 -2.730000000000000E-002    0.000000000000000E+000
 -2.720000000000000E-002    0.000000000000000E+000
 -2.710000000000000E-002    0.000000000000000E+000
 -2.700000000000000E-002    0.000000000000000E+000
 -2.690000000000000E-002    0.000000000000000E+000
 -2.680000000000000E-002    0.000000000000000E+000
 -2.670000000000000E-002    0.000000000000000E+000
 -2.660000000000000E-002    0.000000000000000E+000
 -2.650000000000000E-002    0.000000000000000E+000
 -2.640000000000000E-002    0.000000000000000E+000
 -2.630000000000000E-002    0.000000000000000E+000
 -2.620000000000000E-002    0.000000000000000E+000
 -2.610000000000000E-002    0.000000000000000E+000
 -2.600000000000000E-002    0.000000000000000E+000
 -2.590000000000000E-002    0.000000000000000E+000
 -2.580000000000000E-002    0.000000000000000E+000
 -2.570000000000000E-002    0.000000000000000E+000
 -2.560000000000000E-002    0.000000000000000E+000
 -2.550000000000000E-002    0.000000000000000E+000
 -2.540000000000000E-002    0.000000000000000E+000
 -2.530000000000000E-002    0.000000000000000E+000
 -2.520000000000000E-002    0.000000000000000E+000
 -2.510000000000000E-002    0.000000000000000E+000
 -2.500000000000000E-002    0.000000000000000E+000
 -2.490000000000000E-002    0.000000000000000E+000
 -2.480000000000000E-002    0.000000000000000E+000
 -2.470000000000000E-002    0.000000000000000E+000
 -2.460000000000000E-002    0.000000000000000E+000
 -2.450000000000000E-002    0.000000000000000E+000
 -2.440000000000000E-002    0.000000000000000E+000
 -2.430000000000000E-002    0.000000000000000E+000
 -2.420000000000000E-002    0.000000000000000E+000
 -2.410000000000000E-002    0.000000000000000E+000
 -2.400000000000000E-002    0.000000000000000E+000
 -2.390000000000000E-002    0.000000000000000E+000
 -2.380000000000000E-002    0.000000000000000E+000
 -2.370000000000000E-002    0.000000000000000E+000
 -2.360000000000000E-002    0.000000000000000E+000
 -2.350000000000000E-002    0.000000000000000E+000
 -2.340000000000000E-002    0.000000000000000E+000
 -2.330000000000000E-002    0.000000000000000E+000
 -2.320000000000000E-002    0.000000000000000E+000
 -2.310000000000000E-002    0.000000000000000E+000
 -2.300000000000000E-002    0.000000000000000E+000
 -2.290000000000000E-002    0.000000000000000E+000
 -2.280000000000000E-002    0.000000000000000E+000
 -2.270000000000000E-002    0.000000000000000E+000
 -2.260000000000000E-002    0.000000000000000E+000
 -2.250000000000000E-002    0.000000000000000E+000
 -2.240000000000000E-002    0.000000000000000E+000
 -2.230000000000000E-002    0.000000000000000E+000
 -2.220000000000000E-002    0.000000000000000E+000
 -2.210000000000000E-002    0.000000000000000E+000
 -2.200000000000000E-002    0.000000000000000E+000
 -2.190000000000000E-002    0.000000000000000E+000
 -2.180000000000000E-002    0.000000000000000E+000
 -2.170000000000000E-002    0.000000000000000E+000
 -2.160000000000000E-002    0.000000000000000E+000
 -2.150000000000000E-002    0.000000000000000E+000
 -2.140000000000000E-002    0.000000000000000E+000
 -2.130000000000000E-002    0.000000000000000E+000
 -2.120000000000000E-002    0.000000000000000E+000
 -2.110000000000000E-002    0.000000000000000E+000
 -2.100000000000000E-002    0.000000000000000E+000
 -2.090000000000000E-002    0.000000000000000E+000
 -2.080000000000000E-002    0.000000000000000E+000
 -2.070000000000000E-002    0.000000000000000E+000
 -2.060000000000000E-002    0.000000000000000E+000
 -2.050000000000000E-002    0.000000000000000E+000
 -2.040000000000000E-002    0.000000000000000E+000
 -2.030000000000000E-002    0.000000000000000E+000
 -2.020000000000000E-002    0.000000000000000E+000
 -2.010000000000000E-002    0.000000000000000E+000
 -2.000000000000000E-002    0.000000000000000E+000
 -1.990000000000000E-002    0.000000000000000E+000
 -1.980000000000000E-002    0.000000000000000E+000
 -1.970000000000000E-002    0.000000000000000E+000
 -1.960000000000000E-002    0.000000000000000E+000
 -1.950000000000000E-002    0.000000000000000E+000
 -1.940000000000000E-002    0.000000000000000E+000
 -1.930000000000000E-002    0.000000000000000E+000
 -1.920000000000000E-002    0.000000000000000E+000
 -1.910000000000000E-002    0.000000000000000E+000
 -1.900000000000000E-002    0.000000000000000E+000
 -1.890000000000000E-002    0.000000000000000E+000
 -1.880000000000000E-002    0.000000000000000E+000
 -1.870000000000000E-002    1.841462364614167E-048
 -1.860000000000000E-002    5.524387093842501E-048
 -1.850000000000000E-002    1.104877418768500E-047
 -1.840000000000000E-002    1.841462364614167E-047
 -1.830000000000000E-002    2.578047310459834E-047
 -1.820000000000000E-002    3.111511875084253E-047
 -1.810000000000000E-002    3.326036947554270E-048
 -1.800000000000000E-002    1.743277466333673E-048
 -1.790000000000000E-002   -1.149604145589224E-047
 -1.780000000000000E-002   -1.108269364296173E-046
 -1.770000000000000E-002   -2.494554355158687E-046
 -1.760000000000000E-002   -4.054391586857538E-046
 -1.750000000000000E-002   -5.499911241107425E-046
 -1.740000000000000E-002   -5.637164124308168E-046
 -1.730000000000000E-002   -4.294870259757327E-046
 -1.720000000000000E-002   -7.486979939657817E-047
 -1.710000000000000E-002    6.003130413587820E-046
 -1.700000000000000E-002    1.778543354716930E-045
 -1.690000000000000E-002    3.446380856268392E-045
 -1.680000000000000E-002    5.624896142085992E-045
 -1.670000000000000E-002    8.001619740312452E-045
 -1.660000000000000E-002    9.832460424117236E-045
 -1.650000000000000E-002    1.036874815496128E-044
 -1.640000000000000E-002    8.449526019979723E-045
 -1.630000000000000E-002    3.702547240158748E-045
 -1.620000000000000E-002   -6.331070187745480E-045
 -1.610000000000000E-002   -2.272900551556568E-044
 -1.600000000000000E-002   -4.466662364178098E-044
 -1.590000000000000E-002   -7.025206509515622E-044
 -1.580000000000000E-002   -9.571514898997776E-044
 -1.570000000000000E-002   -1.124146213550752E-043
 -1.560000000000000E-002   -1.111149441282193E-043
 -1.550000000000000E-002   -8.021966423251349E-044
 -1.540000000000000E-002   -8.184162406315560E-045
 -1.530000000000000E-002    1.140931809978462E-043
 -1.520000000000000E-002    2.880981630614579E-043
 -1.510000000000000E-002    5.030802857193386E-043
 -1.500000000000000E-002    7.308565581331294E-043
 -1.490000000000000E-002    9.235457120567826E-043
 -1.480000000000000E-002    1.010862612672132E-042
 -1.470000000000000E-002    9.070503131574354E-043
 -1.460000000000000E-002    5.195024803343308E-043
 -1.450000000000000E-002   -2.316644380396364E-043
 -1.440000000000000E-002   -1.383379053491894E-042
 -1.430000000000000E-002   -2.896890301086790E-042
 -1.420000000000000E-002   -4.625294086784535E-042
 -1.410000000000000E-002   -6.283583169511170E-042
 -1.400000000000000E-002   -7.440431044023736E-042
 -1.390000000000000E-002   -7.536548731562989E-042
 -1.380000000000000E-002   -5.945941359362373E-042
 -1.370000000000000E-002   -2.082857047564548E-042
 -1.360000000000000E-002    4.434221982555517E-042
 -1.350000000000000E-002    1.358654452223359E-041
 -1.340000000000000E-002    2.474007743321186E-041
 -1.330000000000000E-002    3.646176134027517E-041
 -1.320000000000000E-002    4.642232824808600E-041
 -1.310000000000000E-002    5.145084420467795E-041
 -1.300000000000000E-002    4.781071407631967E-041
 -1.290000000000000E-002    3.174523410835847E-041
 -1.280000000000000E-002    3.085097891876069E-043
 -1.270000000000000E-002   -4.757382204351108E-041
 -1.260000000000000E-002   -1.099160565200678E-040
 -1.250000000000000E-002   -1.805806549012426E-040
 -1.240000000000000E-002   -2.485603285793077E-040
 -1.230000000000000E-002   -2.979732204543920E-040
 -1.220000000000000E-002   -3.091255057102494E-040
 -1.210000000000000E-002   -2.608994177171939E-040
 -1.200000000000000E-002   -1.345947856944448E-040
 -1.190000000000000E-002    8.095201208504927E-041
 -1.180000000000000E-002    3.834561410903838E-040
 -1.170000000000000E-002    7.514028281824802E-040
 -1.160000000000000E-002    1.139682088813988E-039
 -1.150000000000000E-002    1.478199733986905E-039
 -1.140000000000000E-002    1.675097475585633E-039
 -1.130000000000000E-002    1.625941391383730E-039
 -1.120000000000000E-002    1.229574502606646E-039
 -1.110000000000000E-002    4.102326216306631E-040
 -1.100000000000000E-002   -8.559706075357029E-040
 -1.090000000000000E-002   -2.513796129455117E-039
 -1.080000000000000E-002   -4.406140485317729E-039
 -1.070000000000000E-002   -6.262356178494294E-039
 -1.060000000000000E-002   -7.704582781259769E-039
 -1.050000000000000E-002   -8.278206200976504E-039
 -1.040000000000000E-002   -7.510087538849489E-039
 -1.030000000000000E-002   -4.994020806860249E-039
 -1.020000000000000E-002   -4.971312260952805E-040
 -1.010000000000000E-002    5.925749391396867E-039
 -1.000000000000000E-002    1.382935608761584E-038
 -9.899999999999999E-003    2.231173644863731E-038
 -9.800000000000000E-003    3.001143625581272E-038
 -9.699999999999999E-003    3.519263369349843E-038
 -9.599999999999999E-003    3.593436932210917E-038
 -9.500000000000000E-003    3.042542971041646E-038
 -9.399999999999999E-003    1.734612763864816E-038
 -9.299999999999999E-003   -3.705574400107257E-039
 -9.200000000000000E-003   -3.181000111803592E-038
 -9.099999999999999E-003   -6.442923450107542E-038
 -8.999999999999999E-003   -9.731233585171347E-038
 -8.900000000000000E-003   -1.246897227803658E-037
 -8.799999999999999E-003   -1.398176517585097E-037
 -8.699999999999999E-003   -1.358864107920367E-037
 -8.600000000000000E-003   -1.072399957635682E-037
 -8.499999999999999E-003   -5.077784246423793E-038
 -8.399999999999999E-003    3.266791257988444E-038
 -8.300000000000000E-003    1.372471849321036E-037
 -8.199999999999999E-003    2.515947007080916E-037
 -8.100000000000000E-003    3.591952774263416E-037
 -8.000000000000000E-003    4.398045940916816E-037
 -7.899999999999999E-003    4.719733398681184E-037
 -7.800000000000000E-003    4.365235849325927E-037
 -7.699999999999999E-003    3.205974637494368E-037
 -7.599999999999999E-003    1.216752523967600E-037
 -7.499999999999999E-003   -1.492082511026859E-037
 -7.399999999999999E-003   -4.658849143020228E-037
 -7.299999999999999E-003   -7.878633101177475E-037
 -7.199999999999999E-003   -1.064018179844427E-036
 -7.100000000000000E-003   -1.239214245790037E-036
 -6.999999999999999E-003   -1.263345610889325E-036
 -6.899999999999999E-003   -1.101640740002580E-036
 -6.800000000000000E-003   -7.445056613748570E-037
 -6.699999999999999E-003   -2.147947199815389E-037
 -6.599999999999999E-003    4.296529139085858E-037
 -6.499999999999999E-003    1.099981274549289E-036
 -6.399999999999999E-003    1.687674424810395E-036
 -6.299999999999999E-003    2.082848222260284E-036
 -6.199999999999999E-003    2.197379347700670E-036
 -6.100000000000000E-003    1.989086689478444E-036
 -5.999999999999999E-003    1.481805062130286E-036
 -5.899999999999999E-003    7.755217354048604E-037
 -5.800000000000000E-003    4.115439823876528E-038
 -5.699999999999999E-003   -5.037065372763518E-037
 -5.599999999999999E-003   -6.386388473423127E-037
 -5.499999999999999E-003   -2.000766387534839E-037
 -5.399999999999999E-003    8.517818639589142E-037
 -5.299999999999999E-003    2.372110563842039E-036
 -5.199999999999999E-003    3.993198918580356E-036
 -5.099999999999999E-003    5.126178115337389E-036
 -4.999999999999999E-003    5.017437386035314E-036
 -4.899999999999999E-003    2.867682948393683E-036
 -4.799999999999999E-003   -1.989188805987476E-036
 -4.699999999999999E-003   -9.864100120009401E-036
 -4.599999999999999E-003   -2.047957835232640E-035
 -4.499999999999999E-003   -3.277099616302166E-035
 -4.399999999999999E-003   -4.477710349665550E-035
 -4.299999999999999E-003   -5.367593616870165E-035
 -4.199999999999999E-003   -5.601269361821829E-035
 -4.099999999999999E-003   -4.814438509831176E-035
 -3.999999999999999E-003   -2.689231606275632E-035
 -3.899999999999999E-003    9.649332498325207E-036
 -3.799999999999999E-003    6.124750421837866E-035
 -3.699999999999999E-003    1.247487671171226E-034
 -3.599999999999999E-003    1.935546732562793E-034
 -3.499999999999999E-003    2.575351213374359E-034
 -3.399999999999999E-003    3.035399712116582E-034
 -3.299999999999999E-003    3.166132864076851E-034
 -3.199999999999999E-003    2.819254823300226E-034
 -3.099999999999999E-003    1.873203386787561E-034
 -2.999999999999999E-003    2.624092722294651E-035
 -2.899999999999999E-003   -1.993318813485545E-034
 -2.799999999999999E-003   -4.764001821327361E-034
 -2.699999999999999E-003   -7.794579767593566E-034
 -2.599999999999999E-003   -1.070504614291680E-033
 -2.499999999999999E-003   -1.300984309396563E-033
 -2.399999999999999E-003   -1.415889876731412E-033
 -2.299999999999999E-003   -1.360007167819438E-033
 -2.199999999999999E-003   -1.085958610778155E-033
 -2.099999999999999E-003   -5.633630697014238E-034
 -1.999999999999999E-003    2.118889097853814E-034
 -1.899999999999999E-003    1.209495821631494E-033
 -1.799999999999999E-003    2.359125917469849E-033
 -1.699999999999999E-003    3.548685254361131E-033
 -1.599999999999999E-003    4.627646650315114E-033
 -1.499999999999999E-003    5.416243709813343E-033
 -1.399999999999999E-003    5.720801706406981E-033
 -1.299999999999999E-003    5.354817457902395E-033
 -1.199999999999999E-003    4.164661046648772E-033
 -1.099999999999999E-003    2.058019855051052E-033
 -9.999999999999989E-004   -9.675172739546066E-034
 -8.999999999999990E-004   -4.798938486396161E-033
 -7.999999999999990E-004   -9.189002843858364E-033
 -6.999999999999989E-004   -1.374801862990699E-032
 -5.999999999999990E-004   -1.794999375897276E-032
 -4.999999999999989E-004   -2.115652071331558E-032
 -3.999999999999989E-004   -2.266085375471462E-032
 -2.999999999999989E-004   -2.175325272539093E-032
 -1.999999999999989E-004   -1.780663729817691E-032
 -9.999999999999892E-005   -1.037897279124001E-032
  1.084202172485504E-018    6.744023533309563E-034
  1.000000000000011E-004    1.508893164797797E-032
  2.000000000000011E-004    3.209362573790632E-032
  3.000000000000011E-004    5.034587223336542E-032
  4.000000000000011E-004    6.791789833451723E-032
  5.000000000000011E-004    8.235466219833826E-032
  6.000000000000011E-004    9.082044674413706E-032
  7.000000000000011E-004    9.034515023791766E-032
  8.000000000000011E-004    7.817114601007990E-032
  9.000000000000012E-004    5.218735598548348E-032
  1.000000000000001E-003    1.141970890241963E-032
  1.100000000000001E-003   -4.347188192393393E-032
  1.200000000000001E-003   -1.097581137149281E-031
  1.300000000000001E-003   -1.823487694300145E-031
  1.400000000000001E-003   -2.537336833233225E-031
  1.500000000000001E-003   -3.142397690626131E-031
  1.600000000000001E-003   -3.526683675949232E-031
  1.700000000000001E-003   -3.573413642856619E-031
  1.800000000000001E-003   -3.175337990241836E-031
  1.900000000000001E-003   -2.252071473061651E-031
  2.000000000000001E-003   -7.688783764869770E-032
  2.100000000000001E-003    1.245311327938553E-031
  2.200000000000001E-003    3.683409728405144E-031
  2.300000000000001E-003    6.352232216740387E-031
  2.400000000000001E-003    8.974044329008838E-031
  2.500000000000001E-003    1.119997806704408E-030
  2.600000000000001E-003    1.263665999628974E-030
  2.700000000000001E-003    1.288589039965529E-030
  2.800000000000001E-003    1.159534511719665E-030
  2.900000000000001E-003    8.516248630644042E-031
  3.000000000000001E-003    3.562005754362309E-031
  3.100000000000001E-003   -3.139781733375314E-031
  3.200000000000001E-003   -1.121036423770059E-030
  3.300000000000001E-003   -2.000632328148815E-030
  3.400000000000001E-003   -2.863657979360139E-030
  3.500000000000001E-003   -3.601456279047596E-030
  3.600000000000001E-003   -4.094656728352012E-030
  3.700000000000001E-003   -4.225286283358790E-030
  3.800000000000001E-003   -3.891326308635961E-030
  3.900000000000001E-003   -3.022418230677226E-030
  4.000000000000001E-003   -1.595032305496319E-030
  4.100000000000001E-003    3.548236507120964E-031
  4.200000000000001E-003    2.723321287594793E-030
  4.300000000000001E-003    5.336722410541426E-030
  4.400000000000001E-003    7.956816416759063E-030
  4.500000000000001E-003    1.029455786466369E-029
  4.600000000000002E-003    1.203175550824093E-029
  4.700000000000001E-003    1.284975522156684E-029
  4.800000000000001E-003    1.246316427545181E-029
  4.900000000000002E-003    1.065588541728290E-029
  5.000000000000001E-003    7.316163517798245E-030
  5.100000000000001E-003    2.467066170405427E-030
  5.200000000000001E-003   -3.711136858116877E-030
  5.300000000000002E-003   -1.086985385243338E-029
  5.400000000000001E-003   -1.849480996908061E-029
  5.500000000000001E-003   -2.592405113134662E-029
  5.600000000000002E-003   -3.238188662313416E-029
  5.700000000000001E-003   -3.702826815748412E-029
  5.800000000000001E-003   -3.902202182048751E-029
  5.900000000000002E-003   -3.759533770516319E-029
  6.000000000000001E-003   -3.213597206945433E-029
  6.100000000000001E-003   -2.227269718810121E-029
  6.200000000000002E-003   -7.958598369491841E-030
  6.300000000000002E-003    1.045413610225361E-029
  6.400000000000001E-003    3.215528924479300E-029
  6.500000000000001E-003    5.584190312899535E-029
  6.600000000000002E-003    7.971684340426396E-029
  6.700000000000001E-003    1.015300314889542E-028
  6.800000000000001E-003    1.186711509319871E-028
  6.900000000000002E-003    1.283208482256316E-028
  7.000000000000001E-003    1.276640487233587E-028
  7.100000000000001E-003    1.141636777603492E-028
  7.200000000000002E-003    8.588579167310632E-029
  7.300000000000002E-003    4.185815750580691E-029
  7.400000000000001E-003   -1.756577563493363E-029
  7.500000000000001E-003   -9.037567976744499E-029
  7.600000000000002E-003   -1.726529691826653E-028
  7.700000000000001E-003   -2.584517891871818E-028
  7.800000000000001E-003   -3.398660390312224E-028
  7.900000000000001E-003   -4.073300194444677E-028
  8.000000000000002E-003   -4.501871006272339E-028
  8.100000000000001E-003   -4.575387007548694E-028
  8.200000000000001E-003   -4.193558878039330E-028
  8.300000000000002E-003   -3.278001211026314E-028
  8.400000000000001E-003   -1.786593822545988E-028
  8.500000000000002E-003    2.723263961892770E-029
  8.600000000000002E-003    2.827604154381961E-028
  8.700000000000001E-003    5.736621272708125E-028
  8.800000000000002E-003    8.782310243473708E-028
  8.900000000000002E-003    1.167761746188310E-027
  9.000000000000001E-003    1.407880329553243E-027
  9.100000000000002E-003    1.560831052888886E-027
  9.200000000000002E-003    1.588703674695112E-027
  9.300000000000001E-003    1.457475130752351E-027
  9.400000000000002E-003    1.141620267516896E-027
  9.500000000000001E-003    6.289244687812179E-028
  9.600000000000001E-003   -7.497600689633909E-029
  9.700000000000002E-003   -9.428808475467926E-028
  9.800000000000001E-003   -1.923734000924244E-027
  9.900000000000001E-003   -2.942328406823380E-027
  1.000000000000000E-002   -3.901504370734409E-027
  1.010000000000000E-002   -4.687182042690701E-027
  1.020000000000000E-002   -5.176349223367563E-027
  1.030000000000000E-002   -5.247841981652216E-027
  1.040000000000000E-002   -4.795425252376382E-027
  1.050000000000000E-002   -3.742332250066396E-027
  1.060000000000000E-002   -2.056080040882063E-027
  1.070000000000000E-002    2.379149739301648E-028
  1.080000000000000E-002    3.045604342872361E-027
  1.090000000000000E-002    6.198221097392332E-027
  1.100000000000000E-002    9.452521929206817E-027
  1.110000000000000E-002    1.249876304328025E-026
  1.120000000000000E-002    1.497734432725694E-026
  1.130000000000000E-002    1.650436577037225E-026
  1.140000000000000E-002    1.670548856765743E-026
  1.150000000000000E-002    1.525649155590060E-026
  1.160000000000000E-002    1.192787325987541E-026
  1.170000000000000E-002    6.629817442959195E-027
  1.180000000000000E-002   -5.470145301052728E-028
  1.190000000000000E-002   -9.300014105842093E-027
  1.200000000000000E-002   -1.909781551224761E-026
  1.210000000000000E-002   -2.918318250573197E-026
  1.220000000000000E-002   -3.859971821066694E-026
  1.230000000000000E-002   -4.624498528922539E-026
  1.240000000000000E-002   -5.095046438465788E-026
  1.250000000000000E-002   -5.158608267249007E-026
  1.260000000000000E-002   -4.718398176707005E-026
  1.270000000000000E-002   -3.707299590865119E-026
  1.280000000000000E-002   -2.101232903958126E-026
  1.290000000000000E-002    6.895884429196585E-028
  1.300000000000000E-002    2.708653941800578E-026
  1.310000000000000E-002    5.655203581689560E-026
  1.320000000000000E-002    8.679727045814644E-026
  1.330000000000000E-002    1.149606787628181E-025
  1.340000000000000E-002    1.377752267212389E-025
  1.350000000000000E-002    1.518127528442817E-025
  1.360000000000000E-002    1.537965783867612E-025
  1.370000000000000E-002    1.409645938299342E-025
  1.380000000000000E-002    1.114561566470562E-025
  1.390000000000000E-002    6.468807537174249E-026
  1.400000000000000E-002    1.679030131480060E-027
  1.410000000000000E-002   -7.472135983736966E-026
  1.420000000000000E-002   -1.597414723698787E-025
  1.430000000000000E-002   -2.467718696697448E-025
  1.440000000000000E-002   -3.276513866575199E-025
  1.450000000000000E-002   -3.931663456688561E-025
  1.460000000000000E-002   -4.337548652630886E-025
  1.470000000000000E-002   -4.403855671118157E-025
  1.480000000000000E-002   -4.055566014861482E-025
  1.490000000000000E-002   -3.243383096089499E-025
  1.500000000000000E-002   -1.953638093089810E-025
  1.510000000000000E-002   -2.165913852482549E-026
  1.520000000000000E-002    1.887999531904406E-025
  1.530000000000000E-002    4.229111561394565E-025
  1.540000000000000E-002    6.627374278546754E-025
  1.550000000000000E-002    8.863258766077764E-025
  1.560000000000000E-002    1.069071508433487E-024
  1.570000000000000E-002    1.185592784533006E-024
  1.580000000000000E-002    1.212030464599362E-024
  1.590000000000000E-002    1.128623929376408E-024
  1.600000000000000E-002    9.223666009909642E-025
  1.610000000000000E-002    5.894990957702573E-025
  1.620000000000000E-002    1.375720710087372E-025
  1.630000000000000E-002   -4.131952074390384E-025
  1.640000000000000E-002   -1.029514600276748E-024
  1.650000000000000E-002   -1.665794923685744E-024
  1.660000000000000E-002   -2.266206009858169E-024
  1.670000000000000E-002   -2.768073926554508E-024
  1.680000000000000E-002   -3.106520192502521E-024
  1.690000000000000E-002   -3.220126610526695E-024
  1.700000000000000E-002   -3.057272756630547E-024
  1.710000000000000E-002   -2.582672143001765E-024
  1.720000000000000E-002   -1.783532560083334E-024
  1.730000000000000E-002   -6.747048834524728E-025
  1.740000000000000E-002    6.978302490650315E-025
  1.750000000000000E-002    2.255742063038605E-024
  1.760000000000000E-002    3.889894753033812E-024
  1.770000000000000E-002    5.464984911687198E-024
  1.780000000000000E-002    6.827368432943802E-024
  1.790000000000000E-002    7.815897101125328E-024
  1.800000000000000E-002    8.275282497327545E-024
  1.810000000000000E-002    8.071189257318292E-024
  1.820000000000000E-002    7.105973817922041E-024
  1.830000000000000E-002    5.333745104816251E-024
  1.840000000000000E-002    2.773270035210368E-024
  1.850000000000000E-002   -4.828008973360838E-025
  1.860000000000000E-002   -4.263825528433694E-024
  1.870000000000000E-002   -8.323386824770526E-024